   8   8   1   0
  0.5796174E+02  0.5174000E-09  0.5174160E-09  0.2000000E-08  0.5000000E-15
  1.000000000000000E-004
  CAR 
 BC3 bandstructure                       
      5.88689953    -22.31274793  301     -3.91136883      1.00000000
    -22.313  0.0000E+00  0.0000E+00
    -22.219  0.0000E+00  0.0000E+00
    -22.125  0.0000E+00  0.0000E+00
    -22.031  0.0000E+00  0.0000E+00
    -21.937  0.0000E+00  0.0000E+00
    -21.843  0.0000E+00  0.0000E+00
    -21.749  0.0000E+00  0.0000E+00
    -21.655  0.0000E+00  0.0000E+00
    -21.561  0.0000E+00  0.0000E+00
    -21.467  0.2461E-15  0.2313E-16
    -21.373  0.5025E-13  0.4746E-14
    -21.279  0.6654E-11  0.6302E-12
    -21.185  0.5724E-09  0.5443E-10
    -21.091  0.3205E-07  0.3067E-08
    -20.997  0.1170E-05  0.1131E-06
    -20.903  0.2793E-04  0.2739E-05
    -20.809  0.4373E-03  0.4385E-04
    -20.715  0.4511E-02  0.4679E-03
    -20.621  0.3085E-01  0.3368E-02
    -20.527  0.1413E+00  0.1665E-01
    -20.433  0.4410E+00  0.5811E-01
    -20.339  0.9667E+00  0.1490E+00
    -20.245  0.1569E+01  0.2965E+00
    -20.151  0.2054E+01  0.4896E+00
    -20.057  0.2416E+01  0.7167E+00
    -19.963  0.2763E+01  0.9764E+00
    -19.869  0.3052E+01  0.1263E+01
    -19.775  0.3010E+01  0.1546E+01
    -19.681  0.2424E+01  0.1774E+01
    -19.587  0.1486E+01  0.1914E+01
    -19.493  0.6602E+00  0.1976E+01
    -19.399  0.2059E+00  0.1995E+01
    -19.305  0.4417E-01  0.1999E+01
    -19.211  0.6426E-02  0.2000E+01
    -19.117  0.6282E-03  0.2000E+01
    -19.023  0.4098E-04  0.2000E+01
    -18.929  0.1775E-05  0.2000E+01
    -18.835  0.6455E-07  0.2000E+01
    -18.741  0.5320E-06  0.2000E+01
    -18.647  0.1345E-04  0.2000E+01
    -18.553  0.2242E-03  0.2000E+01
    -18.459  0.2471E-02  0.2000E+01
    -18.365  0.1815E-01  0.2002E+01
    -18.271  0.8988E-01  0.2010E+01
    -18.177  0.3052E+00  0.2039E+01
    -18.083  0.7300E+00  0.2108E+01
    -17.989  0.1282E+01  0.2228E+01
    -17.895  0.1757E+01  0.2393E+01
    -17.801  0.2026E+01  0.2584E+01
    -17.707  0.2072E+01  0.2779E+01
    -17.613  0.1912E+01  0.2958E+01
    -17.519  0.1654E+01  0.3114E+01
    -17.425  0.1513E+01  0.3256E+01
    -17.331  0.1597E+01  0.3406E+01
    -17.237  0.1813E+01  0.3577E+01
    -17.143  0.2049E+01  0.3769E+01
    -17.049  0.2341E+01  0.3989E+01
    -16.955  0.2796E+01  0.4252E+01
    -16.861  0.3276E+01  0.4560E+01
    -16.767  0.3408E+01  0.4880E+01
    -16.673  0.3115E+01  0.5173E+01
    -16.579  0.2703E+01  0.5427E+01
    -16.485  0.2335E+01  0.5647E+01
    -16.391  0.1844E+01  0.5820E+01
    -16.297  0.1165E+01  0.5930E+01
    -16.203  0.5356E+00  0.5980E+01
    -16.109  0.1708E+00  0.5996E+01
    -16.015  0.3685E-01  0.5999E+01
    -15.921  0.5304E-02  0.6000E+01
    -15.827  0.5052E-03  0.6000E+01
    -15.733  0.3167E-04  0.6000E+01
    -15.639  0.1302E-05  0.6000E+01
    -15.545  0.3500E-07  0.6000E+01
    -15.451  0.3756E-08  0.6000E+01
    -15.357  0.1471E-06  0.6000E+01
    -15.263  0.4506E-05  0.6000E+01
    -15.169  0.9061E-04  0.6000E+01
    -15.075  0.1201E-02  0.6000E+01
    -14.981  0.1056E-01  0.6001E+01
    -14.887  0.6208E-01  0.6007E+01
    -14.793  0.2466E+00  0.6030E+01
    -14.699  0.6736E+00  0.6093E+01
    -14.605  0.1303E+01  0.6216E+01
    -14.511  0.1884E+01  0.6393E+01
    -14.417  0.2251E+01  0.6605E+01
    -14.323  0.2550E+01  0.6844E+01
    -14.229  0.2956E+01  0.7122E+01
    -14.135  0.3292E+01  0.7432E+01
    -14.041  0.3205E+01  0.7733E+01
    -13.947  0.2645E+01  0.7981E+01
    -13.853  0.1938E+01  0.8164E+01
    -13.759  0.1403E+01  0.8296E+01
    -13.665  0.1136E+01  0.8402E+01
    -13.571  0.1075E+01  0.8503E+01
    -13.477  0.1089E+01  0.8606E+01
    -13.383  0.1086E+01  0.8708E+01
    -13.289  0.1115E+01  0.8813E+01
    -13.195  0.1277E+01  0.8933E+01
    -13.101  0.1588E+01  0.9082E+01
    -13.007  0.1941E+01  0.9264E+01
    -12.913  0.2147E+01  0.9466E+01
    -12.819  0.2061E+01  0.9660E+01
    -12.725  0.1740E+01  0.9824E+01
    -12.631  0.1403E+01  0.9955E+01
    -12.537  0.1218E+01  0.1007E+02
    -12.443  0.1176E+01  0.1018E+02
    -12.349  0.1146E+01  0.1029E+02
    -12.255  0.1026E+01  0.1038E+02
    -12.161  0.8513E+00  0.1046E+02
    -12.067  0.7148E+00  0.1053E+02
    -11.973  0.6500E+00  0.1059E+02
    -11.879  0.6622E+00  0.1066E+02
    -11.785  0.7740E+00  0.1073E+02
    -11.691  0.9568E+00  0.1082E+02
    -11.597  0.1101E+01  0.1092E+02
    -11.503  0.1143E+01  0.1103E+02
    -11.409  0.1146E+01  0.1114E+02
    -11.315  0.1181E+01  0.1125E+02
    -11.221  0.1244E+01  0.1136E+02
    -11.127  0.1316E+01  0.1149E+02
    -11.033  0.1400E+01  0.1162E+02
    -10.939  0.1488E+01  0.1176E+02
    -10.845  0.1591E+01  0.1191E+02
    -10.751  0.1717E+01  0.1207E+02
    -10.657  0.1797E+01  0.1224E+02
    -10.563  0.1779E+01  0.1241E+02
    -10.469  0.1774E+01  0.1257E+02
    -10.375  0.1917E+01  0.1275E+02
    -10.281  0.2156E+01  0.1296E+02
    -10.187  0.2304E+01  0.1317E+02
    -10.093  0.2261E+01  0.1339E+02
     -9.999  0.2123E+01  0.1359E+02
     -9.905  0.2050E+01  0.1378E+02
     -9.811  0.2091E+01  0.1397E+02
     -9.717  0.2204E+01  0.1418E+02
     -9.623  0.2337E+01  0.1440E+02
     -9.529  0.2445E+01  0.1463E+02
     -9.435  0.2468E+01  0.1486E+02
     -9.341  0.2377E+01  0.1509E+02
     -9.247  0.2282E+01  0.1530E+02
     -9.153  0.2389E+01  0.1553E+02
     -9.059  0.2697E+01  0.1578E+02
     -8.965  0.2912E+01  0.1605E+02
     -8.871  0.2795E+01  0.1632E+02
     -8.777  0.2429E+01  0.1654E+02
     -8.683  0.2132E+01  0.1674E+02
     -8.589  0.2159E+01  0.1695E+02
     -8.495  0.2502E+01  0.1718E+02
     -8.401  0.2984E+01  0.1746E+02
     -8.307  0.3430E+01  0.1779E+02
     -8.213  0.3692E+01  0.1813E+02
     -8.119  0.3654E+01  0.1848E+02
     -8.025  0.3248E+01  0.1878E+02
     -7.931  0.2541E+01  0.1902E+02
     -7.837  0.1832E+01  0.1919E+02
     -7.743  0.1447E+01  0.1933E+02
     -7.649  0.1415E+01  0.1946E+02
     -7.555  0.1508E+01  0.1960E+02
     -7.461  0.1521E+01  0.1975E+02
     -7.367  0.1447E+01  0.1988E+02
     -7.273  0.1450E+01  0.2002E+02
     -7.179  0.1727E+01  0.2018E+02
     -7.085  0.2402E+01  0.2041E+02
     -6.991  0.3486E+01  0.2073E+02
     -6.897  0.4800E+01  0.2119E+02
     -6.803  0.5847E+01  0.2173E+02
     -6.709  0.6027E+01  0.2230E+02
     -6.615  0.5289E+01  0.2280E+02
     -6.521  0.4203E+01  0.2319E+02
     -6.427  0.3290E+01  0.2350E+02
     -6.333  0.2685E+01  0.2376E+02
     -6.239  0.2336E+01  0.2397E+02
     -6.145  0.2188E+01  0.2418E+02
     -6.051  0.2165E+01  0.2438E+02
     -5.957  0.2175E+01  0.2459E+02
     -5.863  0.2213E+01  0.2480E+02
     -5.769  0.2341E+01  0.2502E+02
     -5.675  0.2549E+01  0.2526E+02
     -5.581  0.2794E+01  0.2552E+02
     -5.487  0.3156E+01  0.2582E+02
     -5.393  0.3753E+01  0.2617E+02
     -5.299  0.4553E+01  0.2660E+02
     -5.205  0.5305E+01  0.2709E+02
     -5.111  0.5629E+01  0.2762E+02
     -5.017  0.5313E+01  0.2812E+02
     -4.923  0.4444E+01  0.2854E+02
     -4.829  0.3311E+01  0.2885E+02
     -4.735  0.2290E+01  0.2907E+02
     -4.641  0.1644E+01  0.2922E+02
     -4.547  0.1384E+01  0.2935E+02
     -4.453  0.1406E+01  0.2948E+02
     -4.359  0.1552E+01  0.2963E+02
     -4.265  0.1567E+01  0.2978E+02
     -4.171  0.1251E+01  0.2989E+02
     -4.077  0.7273E+00  0.2996E+02
     -3.983  0.2987E+00  0.2999E+02
     -3.889  0.1145E+00  0.3000E+02
     -3.795  0.1625E+00  0.3002E+02
     -3.701  0.4400E+00  0.3006E+02
     -3.607  0.9127E+00  0.3014E+02
     -3.513  0.1390E+01  0.3028E+02
     -3.419  0.1661E+01  0.3043E+02
     -3.325  0.1748E+01  0.3060E+02
     -3.231  0.1850E+01  0.3077E+02
     -3.137  0.2013E+01  0.3096E+02
     -3.043  0.2047E+01  0.3115E+02
     -2.949  0.1834E+01  0.3132E+02
     -2.855  0.1506E+01  0.3147E+02
     -2.761  0.1248E+01  0.3158E+02
     -2.667  0.1114E+01  0.3169E+02
     -2.573  0.1038E+01  0.3178E+02
     -2.479  0.9160E+00  0.3187E+02
     -2.385  0.6934E+00  0.3194E+02
     -2.291  0.4166E+00  0.3198E+02
     -2.197  0.1867E+00  0.3199E+02
     -2.103  0.5955E-01  0.3200E+02
     -2.009  0.1308E-01  0.3200E+02
     -1.915  0.1937E-02  0.3200E+02
     -1.821  0.1910E-03  0.3200E+02
     -1.727  0.1417E-04  0.3200E+02
     -1.633  0.3406E-04  0.3200E+02
     -1.539  0.4225E-03  0.3200E+02
     -1.445  0.3521E-02  0.3200E+02
     -1.351  0.1954E-01  0.3200E+02
     -1.257  0.7312E-01  0.3201E+02
     -1.163  0.1888E+00  0.3203E+02
     -1.069  0.3537E+00  0.3206E+02
     -0.975  0.5364E+00  0.3211E+02
     -0.881  0.7916E+00  0.3218E+02
     -0.787  0.1269E+01  0.3230E+02
     -0.693  0.1992E+01  0.3249E+02
     -0.599  0.2651E+01  0.3274E+02
     -0.505  0.2836E+01  0.3301E+02
     -0.411  0.2510E+01  0.3324E+02
     -0.317  0.2023E+01  0.3343E+02
     -0.223  0.1721E+01  0.3360E+02
     -0.129  0.1724E+01  0.3376E+02
     -0.035  0.1951E+01  0.3394E+02
      0.059  0.2186E+01  0.3415E+02
      0.153  0.2256E+01  0.3436E+02
      0.247  0.2180E+01  0.3456E+02
      0.341  0.2099E+01  0.3476E+02
      0.435  0.2082E+01  0.3496E+02
      0.529  0.2073E+01  0.3515E+02
      0.623  0.2037E+01  0.3534E+02
      0.717  0.2068E+01  0.3554E+02
      0.811  0.2239E+01  0.3575E+02
      0.905  0.2506E+01  0.3598E+02
      0.999  0.2803E+01  0.3625E+02
      1.093  0.3129E+01  0.3654E+02
      1.187  0.3477E+01  0.3687E+02
      1.281  0.3739E+01  0.3722E+02
      1.375  0.3808E+01  0.3758E+02
      1.469  0.3748E+01  0.3793E+02
      1.563  0.3702E+01  0.3828E+02
      1.657  0.3696E+01  0.3862E+02
      1.751  0.3708E+01  0.3897E+02
      1.845  0.3764E+01  0.3933E+02
      1.939  0.3837E+01  0.3969E+02
      2.033  0.3810E+01  0.4005E+02
      2.127  0.3662E+01  0.4039E+02
      2.221  0.3556E+01  0.4072E+02
      2.315  0.3672E+01  0.4107E+02
      2.409  0.4018E+01  0.4145E+02
      2.503  0.4417E+01  0.4186E+02
      2.597  0.4634E+01  0.4230E+02
      2.691  0.4641E+01  0.4273E+02
      2.785  0.4678E+01  0.4317E+02
      2.879  0.4880E+01  0.4363E+02
      2.973  0.5034E+01  0.4411E+02
      3.067  0.4925E+01  0.4457E+02
      3.161  0.4682E+01  0.4501E+02
      3.255  0.4582E+01  0.4544E+02
      3.349  0.4673E+01  0.4588E+02
      3.443  0.4773E+01  0.4633E+02
      3.537  0.4708E+01  0.4677E+02
      3.631  0.4354E+01  0.4718E+02
      3.725  0.3621E+01  0.4752E+02
      3.819  0.2581E+01  0.4776E+02
      3.913  0.1510E+01  0.4790E+02
      4.007  0.6982E+00  0.4797E+02
      4.101  0.2460E+00  0.4799E+02
      4.195  0.6377E-01  0.4800E+02
      4.289  0.1179E-01  0.4800E+02
      4.383  0.1519E-02  0.4800E+02
      4.477  0.1336E-03  0.4800E+02
      4.571  0.7927E-05  0.4800E+02
      4.665  0.3137E-06  0.4800E+02
      4.759  0.8225E-08  0.4800E+02
      4.853  0.1420E-09  0.4800E+02
      4.947  0.1608E-11  0.4800E+02
      5.041  0.1186E-13  0.4800E+02
      5.135  0.4921E-16  0.4800E+02
      5.229  0.0000E+00  0.4800E+02
      5.323  0.0000E+00  0.4800E+02
      5.417  0.0000E+00  0.4800E+02
      5.511  0.0000E+00  0.4800E+02
      5.605  0.0000E+00  0.4800E+02
      5.699  0.0000E+00  0.4800E+02
      5.793  0.0000E+00  0.4800E+02
      5.887  0.0000E+00  0.4800E+02
      5.88689953    -22.31274793  301     -3.91136883      1.00000000
    -22.313  0.0000E+00  0.0000E+00  0.0000E+00  0.0000E+00  0.0000E+00  0.0000E+00  0.0000E+00  0.0000E+00  0.0000E+00
    -22.219  0.0000E+00  0.0000E+00  0.0000E+00  0.0000E+00  0.0000E+00  0.0000E+00  0.0000E+00  0.0000E+00  0.0000E+00
    -22.125  0.0000E+00  0.0000E+00  0.0000E+00  0.0000E+00  0.0000E+00  0.0000E+00  0.0000E+00  0.0000E+00  0.0000E+00
    -22.031  0.0000E+00  0.0000E+00  0.0000E+00  0.0000E+00  0.0000E+00  0.0000E+00  0.0000E+00  0.0000E+00  0.0000E+00
    -21.937  0.0000E+00  0.0000E+00  0.0000E+00  0.0000E+00  0.0000E+00  0.0000E+00  0.0000E+00  0.0000E+00  0.0000E+00
    -21.843  0.0000E+00  0.0000E+00  0.0000E+00  0.0000E+00  0.0000E+00  0.0000E+00  0.0000E+00  0.0000E+00  0.0000E+00
    -21.749  0.0000E+00  0.0000E+00  0.0000E+00  0.0000E+00  0.0000E+00  0.0000E+00  0.0000E+00  0.0000E+00  0.0000E+00
    -21.655  0.0000E+00  0.0000E+00  0.0000E+00  0.0000E+00  0.0000E+00  0.0000E+00  0.0000E+00  0.0000E+00  0.0000E+00
    -21.561  0.0000E+00  0.0000E+00  0.0000E+00  0.0000E+00  0.0000E+00  0.0000E+00  0.0000E+00  0.0000E+00  0.0000E+00
    -21.467  0.6829E-17  0.9017E-20  0.1040E-27  0.8424E-20  0.0000E+00  0.0000E+00  0.0000E+00  0.0000E+00  0.0000E+00
    -21.373  0.1392E-14  0.2200E-17  0.1738E-25  0.2362E-17  0.0000E+00  0.0000E+00  0.0000E+00  0.0000E+00  0.0000E+00
    -21.279  0.1842E-12  0.3196E-15  0.2444E-23  0.3431E-15  0.0000E+00  0.0000E+00  0.0000E+00  0.0000E+00  0.0000E+00
    -21.185  0.1583E-10  0.3041E-13  0.2231E-21  0.3267E-13  0.0000E+00  0.0000E+00  0.0000E+00  0.0000E+00  0.0000E+00
    -21.091  0.8853E-09  0.1902E-11  0.1324E-19  0.2045E-11  0.0000E+00  0.0000E+00  0.0000E+00  0.0000E+00  0.0000E+00
    -20.997  0.3228E-07  0.7849E-10  0.5113E-18  0.8452E-10  0.0000E+00  0.0000E+00  0.0000E+00  0.0000E+00  0.0000E+00
    -20.903  0.7692E-06  0.2149E-08  0.1286E-16  0.2322E-08  0.0000E+00  0.0000E+00  0.0000E+00  0.0000E+00  0.0000E+00
    -20.809  0.1201E-04  0.3935E-07  0.2109E-15  0.4274E-07  0.0000E+00  0.0000E+00  0.0000E+00  0.0000E+00  0.0000E+00
    -20.715  0.1235E-03  0.4867E-06  0.2259E-14  0.5339E-06  0.0000E+00  0.0000E+00  0.0000E+00  0.0000E+00  0.0000E+00
    -20.621  0.8403E-03  0.4131E-05  0.1583E-13  0.4604E-05  0.0000E+00  0.0000E+00  0.0000E+00  0.0000E+00  0.0000E+00
    -20.527  0.3818E-02  0.2456E-04  0.7278E-13  0.2804E-04  0.0000E+00  0.0000E+00  0.0000E+00  0.0000E+00  0.0000E+00
    -20.433  0.1175E-01  0.1054E-03  0.2203E-12  0.1240E-03  0.0000E+00  0.0000E+00  0.0000E+00  0.0000E+00  0.0000E+00
    -20.339  0.2514E-01  0.3393E-03  0.4426E-12  0.4114E-03  0.0000E+00  0.0000E+00  0.0000E+00  0.0000E+00  0.0000E+00
    -20.245  0.3900E-01  0.8604E-03  0.5984E-12  0.1060E-02  0.0000E+00  0.0000E+00  0.0000E+00  0.0000E+00  0.0000E+00
    -20.151  0.4704E-01  0.1825E-02  0.5623E-12  0.2215E-02  0.0000E+00  0.0000E+00  0.0000E+00  0.0000E+00  0.0000E+00
    -20.057  0.4825E-01  0.3431E-02  0.3928E-12  0.3925E-02  0.0000E+00  0.0000E+00  0.0000E+00  0.0000E+00  0.0000E+00
    -19.963  0.4544E-01  0.5846E-02  0.2309E-12  0.6032E-02  0.0000E+00  0.0000E+00  0.0000E+00  0.0000E+00  0.0000E+00
    -19.869  0.3997E-01  0.8717E-02  0.1318E-12  0.7907E-02  0.0000E+00  0.0000E+00  0.0000E+00  0.0000E+00  0.0000E+00
    -19.775  0.3132E-01  0.1063E-01  0.7610E-13  0.8447E-02  0.0000E+00  0.0000E+00  0.0000E+00  0.0000E+00  0.0000E+00
    -19.681  0.2042E-01  0.9921E-02  0.4091E-13  0.6986E-02  0.0000E+00  0.0000E+00  0.0000E+00  0.0000E+00  0.0000E+00
    -19.587  0.1042E-01  0.6751E-02  0.1849E-13  0.4271E-02  0.0000E+00  0.0000E+00  0.0000E+00  0.0000E+00  0.0000E+00
    -19.493  0.3973E-02  0.3238E-02  0.6531E-14  0.1863E-02  0.0000E+00  0.0000E+00  0.0000E+00  0.0000E+00  0.0000E+00
    -19.399  0.1093E-02  0.1071E-02  0.1712E-14  0.5652E-03  0.0000E+00  0.0000E+00  0.0000E+00  0.0000E+00  0.0000E+00
    -19.305  0.2111E-03  0.2407E-03  0.3213E-15  0.1173E-03  0.0000E+00  0.0000E+00  0.0000E+00  0.0000E+00  0.0000E+00
    -19.211  0.2809E-04  0.3640E-04  0.4206E-16  0.1646E-04  0.0000E+00  0.0000E+00  0.0000E+00  0.0000E+00  0.0000E+00
    -19.117  0.2541E-05  0.3675E-05  0.3776E-17  0.1552E-05  0.0000E+00  0.0000E+00  0.0000E+00  0.0000E+00  0.0000E+00
    -19.023  0.1548E-06  0.2465E-06  0.2298E-18  0.9780E-07  0.0000E+00  0.0000E+00  0.0000E+00  0.0000E+00  0.0000E+00
    -18.929  0.6320E-08  0.1093E-07  0.9405E-20  0.4101E-08  0.0000E+00  0.0000E+00  0.0000E+00  0.0000E+00  0.0000E+00
    -18.835  0.8575E-09  0.3425E-09  0.6852E-21  0.1503E-09  0.0000E+00  0.0000E+00  0.0000E+00  0.0000E+00  0.0000E+00
    -18.741  0.2651E-07  0.9506E-09  0.1767E-19  0.1387E-08  0.0000E+00  0.0000E+00  0.0000E+00  0.0000E+00  0.0000E+00
    -18.647  0.6702E-06  0.2486E-07  0.4759E-18  0.3457E-07  0.0000E+00  0.0000E+00  0.0000E+00  0.0000E+00  0.0000E+00
    -18.553  0.1114E-04  0.4325E-06  0.8400E-17  0.5673E-06  0.0000E+00  0.0000E+00  0.0000E+00  0.0000E+00  0.0000E+00
    -18.459  0.1224E-03  0.5010E-05  0.9750E-16  0.6154E-05  0.0000E+00  0.0000E+00  0.0000E+00  0.0000E+00  0.0000E+00
    -18.365  0.8947E-03  0.3901E-04  0.7478E-15  0.4452E-04  0.0000E+00  0.0000E+00  0.0000E+00  0.0000E+00  0.0000E+00
    -18.271  0.4400E-02  0.2070E-03  0.3814E-14  0.2177E-03  0.0000E+00  0.0000E+00  0.0000E+00  0.0000E+00  0.0000E+00
    -18.177  0.1479E-01  0.7612E-03  0.1307E-13  0.7365E-03  0.0000E+00  0.0000E+00  0.0000E+00  0.0000E+00  0.0000E+00
    -18.083  0.3479E-01  0.1985E-02  0.3056E-13  0.1794E-02  0.0000E+00  0.0000E+00  0.0000E+00  0.0000E+00  0.0000E+00
    -17.989  0.5952E-01  0.3779E-02  0.5027E-13  0.3362E-02  0.0000E+00  0.0000E+00  0.0000E+00  0.0000E+00  0.0000E+00
    -17.895  0.7844E-01  0.5454E-02  0.6168E-13  0.5290E-02  0.0000E+00  0.0000E+00  0.0000E+00  0.0000E+00  0.0000E+00
    -17.801  0.8562E-01  0.6294E-02  0.6318E-13  0.7412E-02  0.0000E+00  0.0000E+00  0.0000E+00  0.0000E+00  0.0000E+00
    -17.707  0.8225E-01  0.6247E-02  0.6251E-13  0.9146E-02  0.0000E+00  0.0000E+00  0.0000E+00  0.0000E+00  0.0000E+00
    -17.613  0.7105E-01  0.5862E-02  0.6281E-13  0.9678E-02  0.0000E+00  0.0000E+00  0.0000E+00  0.0000E+00  0.0000E+00
    -17.519  0.5655E-01  0.5814E-02  0.5953E-13  0.9374E-02  0.0000E+00  0.0000E+00  0.0000E+00  0.0000E+00  0.0000E+00
    -17.425  0.4581E-01  0.6556E-02  0.5093E-13  0.9873E-02  0.0000E+00  0.0000E+00  0.0000E+00  0.0000E+00  0.0000E+00
    -17.331  0.4196E-01  0.8057E-02  0.4092E-13  0.1206E-01  0.0000E+00  0.0000E+00  0.0000E+00  0.0000E+00  0.0000E+00
    -17.237  0.4144E-01  0.1001E-01  0.3365E-13  0.1530E-01  0.0000E+00  0.0000E+00  0.0000E+00  0.0000E+00  0.0000E+00
    -17.143  0.3933E-01  0.1275E-01  0.3143E-13  0.1877E-01  0.0000E+00  0.0000E+00  0.0000E+00  0.0000E+00  0.0000E+00
    -17.049  0.3381E-01  0.1789E-01  0.3473E-13  0.2265E-01  0.0000E+00  0.0000E+00  0.0000E+00  0.0000E+00  0.0000E+00
    -16.955  0.2663E-01  0.2650E-01  0.4268E-13  0.2744E-01  0.0000E+00  0.0000E+00  0.0000E+00  0.0000E+00  0.0000E+00
    -16.861  0.2018E-01  0.3534E-01  0.5420E-13  0.3143E-01  0.0000E+00  0.0000E+00  0.0000E+00  0.0000E+00  0.0000E+00
    -16.767  0.1492E-01  0.3848E-01  0.6677E-13  0.3118E-01  0.0000E+00  0.0000E+00  0.0000E+00  0.0000E+00  0.0000E+00
    -16.673  0.1034E-01  0.3452E-01  0.7621E-13  0.2654E-01  0.0000E+00  0.0000E+00  0.0000E+00  0.0000E+00  0.0000E+00
    -16.579  0.6527E-02  0.2765E-01  0.8067E-13  0.2121E-01  0.0000E+00  0.0000E+00  0.0000E+00  0.0000E+00  0.0000E+00
    -16.485  0.3734E-02  0.2128E-01  0.7908E-13  0.1720E-01  0.0000E+00  0.0000E+00  0.0000E+00  0.0000E+00  0.0000E+00
    -16.391  0.1888E-02  0.1523E-01  0.6608E-13  0.1316E-01  0.0000E+00  0.0000E+00  0.0000E+00  0.0000E+00  0.0000E+00
    -16.297  0.7943E-03  0.9039E-02  0.4190E-13  0.8179E-02  0.0000E+00  0.0000E+00  0.0000E+00  0.0000E+00  0.0000E+00
    -16.203  0.2595E-03  0.4015E-02  0.1862E-13  0.3727E-02  0.0000E+00  0.0000E+00  0.0000E+00  0.0000E+00  0.0000E+00
    -16.109  0.6229E-04  0.1256E-02  0.5587E-14  0.1181E-02  0.0000E+00  0.0000E+00  0.0000E+00  0.0000E+00  0.0000E+00
    -16.015  0.1058E-04  0.2678E-03  0.1112E-14  0.2534E-03  0.0000E+00  0.0000E+00  0.0000E+00  0.0000E+00  0.0000E+00
    -15.921  0.1242E-05  0.3826E-04  0.1457E-15  0.3632E-04  0.0000E+00  0.0000E+00  0.0000E+00  0.0000E+00  0.0000E+00
    -15.827  0.9909E-07  0.3627E-05  0.1251E-16  0.3448E-05  0.0000E+00  0.0000E+00  0.0000E+00  0.0000E+00  0.0000E+00
    -15.733  0.5313E-08  0.2267E-06  0.7023E-18  0.2155E-06  0.0000E+00  0.0000E+00  0.0000E+00  0.0000E+00  0.0000E+00
    -15.639  0.1900E-09  0.9297E-08  0.2572E-19  0.8833E-08  0.0000E+00  0.0000E+00  0.0000E+00  0.0000E+00  0.0000E+00
    -15.545  0.8473E-11  0.2494E-09  0.6139E-21  0.2367E-09  0.0000E+00  0.0000E+00  0.0000E+00  0.0000E+00  0.0000E+00
    -15.451  0.2847E-09  0.6058E-11  0.1941E-22  0.7340E-11  0.0000E+00  0.0000E+00  0.0000E+00  0.0000E+00  0.0000E+00
    -15.357  0.1330E-07  0.8548E-10  0.4907E-21  0.1555E-09  0.0000E+00  0.0000E+00  0.0000E+00  0.0000E+00  0.0000E+00
    -15.263  0.4065E-06  0.2840E-08  0.1590E-19  0.4983E-08  0.0000E+00  0.0000E+00  0.0000E+00  0.0000E+00  0.0000E+00
    -15.169  0.8154E-05  0.6255E-07  0.3373E-18  0.1063E-06  0.0000E+00  0.0000E+00  0.0000E+00  0.0000E+00  0.0000E+00
    -15.075  0.1078E-03  0.9175E-06  0.4695E-17  0.1522E-05  0.0000E+00  0.0000E+00  0.0000E+00  0.0000E+00  0.0000E+00
    -14.981  0.9434E-03  0.9030E-05  0.4313E-16  0.1480E-04  0.0000E+00  0.0000E+00  0.0000E+00  0.0000E+00  0.0000E+00
    -14.887  0.5510E-02  0.6025E-04  0.2634E-15  0.9905E-04  0.0000E+00  0.0000E+00  0.0000E+00  0.0000E+00  0.0000E+00
    -14.793  0.2169E-01  0.2769E-03  0.1082E-14  0.4651E-03  0.0000E+00  0.0000E+00  0.0000E+00  0.0000E+00  0.0000E+00
    -14.699  0.5846E-01  0.9006E-03  0.3041E-14  0.1571E-02  0.0000E+00  0.0000E+00  0.0000E+00  0.0000E+00  0.0000E+00
    -14.605  0.1106E+00  0.2186E-02  0.6049E-14  0.3965E-02  0.0000E+00  0.0000E+00  0.0000E+00  0.0000E+00  0.0000E+00
    -14.511  0.1535E+00  0.4385E-02  0.9118E-14  0.7931E-02  0.0000E+00  0.0000E+00  0.0000E+00  0.0000E+00  0.0000E+00
    -14.417  0.1693E+00  0.8367E-02  0.1180E-13  0.1365E-01  0.0000E+00  0.0000E+00  0.0000E+00  0.0000E+00  0.0000E+00
    -14.323  0.1666E+00  0.1610E-01  0.1486E-13  0.2184E-01  0.0000E+00  0.0000E+00  0.0000E+00  0.0000E+00  0.0000E+00
    -14.229  0.1594E+00  0.2861E-01  0.1790E-13  0.3300E-01  0.0000E+00  0.0000E+00  0.0000E+00  0.0000E+00  0.0000E+00
    -14.135  0.1446E+00  0.4180E-01  0.1858E-13  0.4437E-01  0.0000E+00  0.0000E+00  0.0000E+00  0.0000E+00  0.0000E+00
    -14.041  0.1166E+00  0.4729E-01  0.1609E-13  0.4925E-01  0.0000E+00  0.0000E+00  0.0000E+00  0.0000E+00  0.0000E+00
    -13.947  0.8376E-01  0.4136E-01  0.1233E-13  0.4391E-01  0.0000E+00  0.0000E+00  0.0000E+00  0.0000E+00  0.0000E+00
    -13.853  0.5702E-01  0.2999E-01  0.9024E-14  0.3310E-01  0.0000E+00  0.0000E+00  0.0000E+00  0.0000E+00  0.0000E+00
    -13.759  0.3810E-01  0.2173E-01  0.6482E-14  0.2429E-01  0.0000E+00  0.0000E+00  0.0000E+00  0.0000E+00  0.0000E+00
    -13.665  0.2458E-01  0.1984E-01  0.4593E-14  0.2027E-01  0.0000E+00  0.0000E+00  0.0000E+00  0.0000E+00  0.0000E+00
    -13.571  0.1613E-01  0.2229E-01  0.3375E-14  0.1955E-01  0.0000E+00  0.0000E+00  0.0000E+00  0.0000E+00  0.0000E+00
    -13.477  0.1260E-01  0.2450E-01  0.2619E-14  0.1969E-01  0.0000E+00  0.0000E+00  0.0000E+00  0.0000E+00  0.0000E+00
    -13.383  0.1300E-01  0.2343E-01  0.2041E-14  0.1980E-01  0.0000E+00  0.0000E+00  0.0000E+00  0.0000E+00  0.0000E+00
    -13.289  0.1808E-01  0.2045E-01  0.1760E-14  0.2069E-01  0.0000E+00  0.0000E+00  0.0000E+00  0.0000E+00  0.0000E+00
    -13.195  0.3108E-01  0.1874E-01  0.2105E-14  0.2283E-01  0.0000E+00  0.0000E+00  0.0000E+00  0.0000E+00  0.0000E+00
    -13.101  0.5435E-01  0.1940E-01  0.3383E-14  0.2518E-01  0.0000E+00  0.0000E+00  0.0000E+00  0.0000E+00  0.0000E+00
    -13.007  0.8223E-01  0.2139E-01  0.5723E-14  0.2639E-01  0.0000E+00  0.0000E+00  0.0000E+00  0.0000E+00  0.0000E+00
    -12.913  0.9979E-01  0.2278E-01  0.8181E-14  0.2590E-01  0.0000E+00  0.0000E+00  0.0000E+00  0.0000E+00  0.0000E+00
    -12.819  0.9714E-01  0.2164E-01  0.8705E-14  0.2355E-01  0.0000E+00  0.0000E+00  0.0000E+00  0.0000E+00  0.0000E+00
    -12.725  0.8030E-01  0.1817E-01  0.6601E-14  0.1975E-01  0.0000E+00  0.0000E+00  0.0000E+00  0.0000E+00  0.0000E+00
    -12.631  0.6185E-01  0.1485E-01  0.3734E-14  0.1615E-01  0.0000E+00  0.0000E+00  0.0000E+00  0.0000E+00  0.0000E+00
    -12.537  0.4874E-01  0.1358E-01  0.1973E-14  0.1442E-01  0.0000E+00  0.0000E+00  0.0000E+00  0.0000E+00  0.0000E+00
    -12.443  0.4144E-01  0.1410E-01  0.1443E-14  0.1413E-01  0.0000E+00  0.0000E+00  0.0000E+00  0.0000E+00  0.0000E+00
    -12.349  0.3874E-01  0.1450E-01  0.1751E-14  0.1325E-01  0.0000E+00  0.0000E+00  0.0000E+00  0.0000E+00  0.0000E+00
    -12.255  0.4063E-01  0.1283E-01  0.3371E-14  0.1071E-01  0.0000E+00  0.0000E+00  0.0000E+00  0.0000E+00  0.0000E+00
    -12.161  0.4661E-01  0.9247E-02  0.6987E-14  0.7665E-02  0.0000E+00  0.0000E+00  0.0000E+00  0.0000E+00  0.0000E+00
    -12.067  0.5328E-01  0.5849E-02  0.1108E-13  0.5646E-02  0.0000E+00  0.0000E+00  0.0000E+00  0.0000E+00  0.0000E+00
    -11.973  0.5857E-01  0.4032E-02  0.1219E-13  0.4821E-02  0.0000E+00  0.0000E+00  0.0000E+00  0.0000E+00  0.0000E+00
    -11.879  0.6901E-01  0.3520E-02  0.9965E-14  0.4597E-02  0.0000E+00  0.0000E+00  0.0000E+00  0.0000E+00  0.0000E+00
    -11.785  0.9496E-01  0.3618E-02  0.8915E-14  0.4664E-02  0.0000E+00  0.0000E+00  0.0000E+00  0.0000E+00  0.0000E+00
    -11.691  0.1325E+00  0.4019E-02  0.1317E-13  0.5028E-02  0.0000E+00  0.0000E+00  0.0000E+00  0.0000E+00  0.0000E+00
    -11.597  0.1596E+00  0.4685E-02  0.2117E-13  0.5756E-02  0.0000E+00  0.0000E+00  0.0000E+00  0.0000E+00  0.0000E+00
    -11.503  0.1621E+00  0.5636E-02  0.2590E-13  0.6935E-02  0.0000E+00  0.0000E+00  0.0000E+00  0.0000E+00  0.0000E+00
    -11.409  0.1510E+00  0.7018E-02  0.2259E-13  0.8640E-02  0.0000E+00  0.0000E+00  0.0000E+00  0.0000E+00  0.0000E+00
    -11.315  0.1412E+00  0.9088E-02  0.1491E-13  0.1072E-01  0.0000E+00  0.0000E+00  0.0000E+00  0.0000E+00  0.0000E+00
    -11.221  0.1335E+00  0.1224E-01  0.8860E-14  0.1297E-01  0.0000E+00  0.0000E+00  0.0000E+00  0.0000E+00  0.0000E+00
    -11.127  0.1239E+00  0.1684E-01  0.5639E-14  0.1559E-01  0.0000E+00  0.0000E+00  0.0000E+00  0.0000E+00  0.0000E+00
    -11.033  0.1139E+00  0.2228E-01  0.3795E-14  0.1853E-01  0.0000E+00  0.0000E+00  0.0000E+00  0.0000E+00  0.0000E+00
    -10.939  0.1078E+00  0.2719E-01  0.2843E-14  0.2116E-01  0.0000E+00  0.0000E+00  0.0000E+00  0.0000E+00  0.0000E+00
    -10.845  0.1092E+00  0.3116E-01  0.3309E-14  0.2363E-01  0.0000E+00  0.0000E+00  0.0000E+00  0.0000E+00  0.0000E+00
    -10.751  0.1175E+00  0.3418E-01  0.5249E-14  0.2655E-01  0.0000E+00  0.0000E+00  0.0000E+00  0.0000E+00  0.0000E+00
    -10.657  0.1253E+00  0.3455E-01  0.7226E-14  0.2872E-01  0.0000E+00  0.0000E+00  0.0000E+00  0.0000E+00  0.0000E+00
    -10.563  0.1253E+00  0.3123E-01  0.7643E-14  0.2830E-01  0.0000E+00  0.0000E+00  0.0000E+00  0.0000E+00  0.0000E+00
    -10.469  0.1214E+00  0.2693E-01  0.6852E-14  0.2611E-01  0.0000E+00  0.0000E+00  0.0000E+00  0.0000E+00  0.0000E+00
    -10.375  0.1240E+00  0.2456E-01  0.6102E-14  0.2472E-01  0.0000E+00  0.0000E+00  0.0000E+00  0.0000E+00  0.0000E+00
    -10.281  0.1333E+00  0.2398E-01  0.5572E-14  0.2484E-01  0.0000E+00  0.0000E+00  0.0000E+00  0.0000E+00  0.0000E+00
    -10.187  0.1363E+00  0.2407E-01  0.5752E-14  0.2502E-01  0.0000E+00  0.0000E+00  0.0000E+00  0.0000E+00  0.0000E+00
    -10.093  0.1237E+00  0.2438E-01  0.1253E-12  0.2418E-01  0.0000E+00  0.0000E+00  0.0000E+00  0.0000E+00  0.0000E+00
     -9.999  0.1040E+00  0.2496E-01  0.1080E-10  0.2354E-01  0.0000E+00  0.0000E+00  0.0000E+00  0.0000E+00  0.0000E+00
     -9.905  0.9326E-01  0.2593E-01  0.6251E-09  0.2569E-01  0.0000E+00  0.0000E+00  0.0000E+00  0.0000E+00  0.0000E+00
     -9.811  0.9726E-01  0.2757E-01  0.2359E-07  0.3197E-01  0.0000E+00  0.0000E+00  0.0000E+00  0.0000E+00  0.0000E+00
     -9.717  0.1076E+00  0.3064E-01  0.5817E-06  0.4091E-01  0.0000E+00  0.0000E+00  0.0000E+00  0.0000E+00  0.0000E+00
     -9.623  0.1130E+00  0.3570E-01  0.9398E-05  0.4880E-01  0.0000E+00  0.0000E+00  0.0000E+00  0.0000E+00  0.0000E+00
     -9.529  0.1095E+00  0.4202E-01  0.9982E-04  0.5177E-01  0.0000E+00  0.0000E+00  0.0000E+00  0.0000E+00  0.0000E+00
     -9.435  0.9934E-01  0.4662E-01  0.7005E-03  0.4813E-01  0.0000E+00  0.0000E+00  0.0000E+00  0.0000E+00  0.0000E+00
     -9.341  0.8483E-01  0.4564E-01  0.3270E-02  0.3905E-01  0.0000E+00  0.0000E+00  0.0000E+00  0.0000E+00  0.0000E+00
     -9.247  0.6804E-01  0.3909E-01  0.1027E-01  0.2723E-01  0.0000E+00  0.0000E+00  0.0000E+00  0.0000E+00  0.0000E+00
     -9.153  0.5293E-01  0.3170E-01  0.2216E-01  0.1637E-01  0.0000E+00  0.0000E+00  0.0000E+00  0.0000E+00  0.0000E+00
     -9.059  0.4253E-01  0.2692E-01  0.3415E-01  0.9295E-02  0.0000E+00  0.0000E+00  0.0000E+00  0.0000E+00  0.0000E+00
     -8.965  0.3544E-01  0.2339E-01  0.4054E-01  0.5949E-02  0.0000E+00  0.0000E+00  0.0000E+00  0.0000E+00  0.0000E+00
     -8.871  0.2868E-01  0.1881E-01  0.4155E-01  0.5018E-02  0.0000E+00  0.0000E+00  0.0000E+00  0.0000E+00  0.0000E+00
     -8.777  0.2293E-01  0.1468E-01  0.4062E-01  0.6851E-02  0.0000E+00  0.0000E+00  0.0000E+00  0.0000E+00  0.0000E+00
     -8.683  0.2270E-01  0.1525E-01  0.3922E-01  0.1346E-01  0.0000E+00  0.0000E+00  0.0000E+00  0.0000E+00  0.0000E+00
     -8.589  0.3050E-01  0.2258E-01  0.3828E-01  0.2505E-01  0.0000E+00  0.0000E+00  0.0000E+00  0.0000E+00  0.0000E+00
     -8.495  0.4350E-01  0.3538E-01  0.3853E-01  0.3851E-01  0.0000E+00  0.0000E+00  0.0000E+00  0.0000E+00  0.0000E+00
     -8.401  0.5844E-01  0.5193E-01  0.3830E-01  0.5165E-01  0.0000E+00  0.0000E+00  0.0000E+00  0.0000E+00  0.0000E+00
     -8.307  0.7351E-01  0.6837E-01  0.3548E-01  0.6327E-01  0.0000E+00  0.0000E+00  0.0000E+00  0.0000E+00  0.0000E+00
     -8.213  0.8455E-01  0.7729E-01  0.3058E-01  0.6853E-01  0.0000E+00  0.0000E+00  0.0000E+00  0.0000E+00  0.0000E+00
     -8.119  0.8665E-01  0.7477E-01  0.2512E-01  0.6360E-01  0.0000E+00  0.0000E+00  0.0000E+00  0.0000E+00  0.0000E+00
     -8.025  0.7726E-01  0.6429E-01  0.1922E-01  0.5260E-01  0.0000E+00  0.0000E+00  0.0000E+00  0.0000E+00  0.0000E+00
     -7.931  0.5812E-01  0.5369E-01  0.1274E-01  0.4372E-01  0.0000E+00  0.0000E+00  0.0000E+00  0.0000E+00  0.0000E+00
     -7.837  0.3771E-01  0.5194E-01  0.6771E-02  0.4299E-01  0.0000E+00  0.0000E+00  0.0000E+00  0.0000E+00  0.0000E+00
     -7.743  0.2549E-01  0.6264E-01  0.2736E-02  0.5125E-01  0.0000E+00  0.0000E+00  0.0000E+00  0.0000E+00  0.0000E+00
     -7.649  0.2297E-01  0.7866E-01  0.8142E-03  0.6385E-01  0.0000E+00  0.0000E+00  0.0000E+00  0.0000E+00  0.0000E+00