    8    8    1    1
  0.5796174E+02  0.5174000E-09  0.5174160E-09  0.2000000E-08  0.5000000E-15
  1.000000000000000E-004
  CAR 
 BC3 bandstructure                       
     30     96     24
 
 -0.3330000E+00  0.6670000E+00  0.0000000E+00  0.1041667E-01
    1      -19.935019   1.000000
    2      -17.652626   1.000000
    3      -16.796860   1.000000
    4      -14.506632   1.000000
    5      -12.885090   1.000000
    6      -11.325735   1.000000
    7       -9.857028   1.000000
    8       -9.790159   1.000000
    9       -8.492421   1.000000
   10       -8.298080   1.000000
   11       -6.716656   1.000000
   12       -6.382746   1.000000
   13       -6.168615   1.000000
   14       -5.133913   1.000000
   15       -5.082013   1.000000
   16       -3.445232   0.000490
   17        0.011703   0.000000
   18        0.772093   0.000000
   19        1.233509   0.000000
   20        1.982842   0.000000
   21        2.327069   0.000000
   22        2.634592   0.000000
   23        3.346240   0.000000
   24        3.660742   0.000000
 
 -0.3222581E+00  0.6454839E+00  0.0000000E+00  0.1041667E-01
    1      -19.922967   1.000000
    2      -17.673387   1.000000
    3      -16.818018   1.000000
    4      -14.492192   1.000000
    5      -12.875841   1.000000
    6      -11.261505   1.000000
    7       -9.901725   1.000000
    8       -9.735164   1.000000
    9       -8.469477   1.000000
   10       -8.318915   1.000000
   11       -6.728010   1.000000
   12       -6.412786   1.000000
   13       -6.221005   1.000000
   14       -5.166782   1.000000
   15       -5.116105   1.000000
   16       -3.426684   0.000305
   17       -0.044077   0.000000
   18        0.872056   0.000000
   19        1.265823   0.000000
   20        2.019645   0.000000
   21        2.359929   0.000000
   22        2.693340   0.000000
   23        3.379956   0.000000
   24        3.615035   0.000000
 
 -0.3115161E+00  0.6239677E+00  0.0000000E+00  0.1041667E-01
    1      -19.906502   1.000000
    2      -17.691067   1.000000
    3      -16.867689   1.000000
    4      -14.436864   1.000000
    5      -12.900913   1.000000
    6      -11.156761   1.000000
    7       -9.974835   1.000000
    8       -9.665323   1.000000
    9       -8.438166   1.000000
   10       -8.310195   1.000000
   11       -6.775760   1.000000
   12       -6.437121   1.000000
   13       -6.272505   1.000000
   14       -5.252437   1.000000
   15       -5.179024   1.000000
   16       -3.355700   0.000043
   17       -0.187929   0.000000
   18        1.079824   0.000000
   19        1.310115   0.000000
   20        2.070732   0.000000
   21        2.404905   0.000000
   22        2.749358   0.000000
   23        3.424705   0.000000
   24        3.581305   0.000000
 
 -0.3007742E+00  0.6024516E+00  0.0000000E+00  0.1041667E-01
    1      -19.885989   1.000000
    2      -17.705654   1.000000
    3      -16.940121   1.000000
    4      -14.346848   1.000000
    5      -12.950868   1.000000
    6      -11.022879   1.000000
    7      -10.067894   1.000000
    8       -9.582681   1.000000
    9       -8.398748   1.000000
   10       -8.277391   1.000000
   11       -6.856320   1.000000
   12       -6.456032   1.000000
   13       -6.323659   1.000000
   14       -5.376776   1.000000
   15       -5.268582   1.000000
   16       -3.245879   0.000001
   17       -0.359456   0.000000
   18        1.332393   0.000000
   19        1.366357   0.000000
   20        2.138036   0.000000
   21        2.461992   0.000000
   22        2.801724   0.000000
   23        3.480343   0.000000
   24        3.559441   0.000000
 
 -0.2900323E+00  0.5809355E+00  0.0000000E+00  0.1041667E-01
    1      -19.861962   1.000000
    2      -17.717689   1.000000
    3      -17.027434   1.000000
    4      -14.231115   1.000000
    5      -13.014690   1.000000
    6      -10.876067   1.000000
    7      -10.168108   1.000000
    8       -9.487768   1.000000
    9       -8.351674   1.000000
   10       -8.229420   1.000000
   11       -6.962189   1.000000
   12       -6.470625   1.000000
   13       -6.377021   1.000000
   14       -5.523785   1.000000
   15       -5.380775   1.000000
   16       -3.113241   0.000000
   17       -0.532957   0.000000
   18        1.434501   0.000000
   19        1.599511   0.000000
   20        2.226113   0.000000
   21        2.531182   0.000000
   22        2.849215   0.000000
   23        3.546849   0.000000
   24        3.549356   0.000000
 
 -0.2792903E+00  0.5594194E+00  0.0000000E+00  0.1041667E-01
    1      -19.835137   1.000000
    2      -17.728416   1.000000
    3      -17.121085   1.000000
    4      -14.100579   1.000000
    5      -13.081383   1.000000
    6      -10.744117   1.000000
    7      -10.249919   1.000000
    8       -9.380813   1.000000
    9       -8.297544   1.000000
   10       -8.177900   1.000000
   11       -7.083004   1.000000
   12       -6.483172   1.000000
   13       -6.435571   1.000000
   14       -5.679045   1.000000
   15       -5.509520   1.000000
   16       -2.972127   0.000000
   17       -0.696454   0.000000
   18        1.514491   0.000000
   19        1.859434   0.000000
   20        2.345818   0.000000
   21        2.612463   0.000000
   22        2.890680   0.000000
   23        3.550947   0.000000
   24        3.624380   0.000000
 
 -0.2685484E+00  0.5379032E+00  0.0000000E+00  0.1041667E-01
    1      -19.806460   1.000000
    2      -17.740096   1.000000
    3      -17.212380   1.000000
    4      -13.969199   1.000000
    5      -13.138582   1.000000
    6      -10.686378   1.000000
    7      -10.255193   1.000000
    8       -9.262329   1.000000
    9       -8.237270   1.000000
   10       -8.137998   1.000000
   11       -7.204826   1.000000
   12       -6.502133   1.000000
   13       -6.498471   1.000000
   14       -5.829106   1.000000
   15       -5.646495   1.000000
   16       -2.835265   0.000000
   17       -0.841777   0.000000
   18        1.606273   0.000000
   19        2.085536   0.000000
   20        2.517240   0.000000
   21        2.705828   0.000000
   22        2.924506   0.000000
   23        3.564097   0.000000
   24        3.713147   0.000000
 
 -0.2578065E+00  0.5163871E+00  0.0000000E+00  0.1041667E-01
    1      -19.777158   1.000000
    2      -17.756205   1.000000
    3      -17.292398   1.000000
    4      -13.856975   1.000000
    5      -13.169202   1.000000
    6      -10.734027   1.000000
    7      -10.153286   1.000000
    8       -9.134143   1.000000
    9       -8.172316   1.000000
   10       -8.129064   1.000000
   11       -7.309466   1.000000
   12       -6.579031   1.000000
   13       -6.525274   1.000000
   14       -5.958724   1.000000
   15       -5.780821   1.000000
   16       -2.714807   0.000000
   17       -0.961129   0.000000
   18        1.709795   0.000000
   19        2.261248   0.000000
   20        2.750430   0.000000
   21        2.811266   0.000000
   22        2.950185   0.000000
   23        3.588491   0.000000
   24        3.816766   0.000000
 
 -0.2470645E+00  0.4948710E+00  0.0000000E+00  0.1041667E-01
    1      -19.748749   1.000000
    2      -17.780616   1.000000
    3      -17.352615   1.000000
    4      -13.789100   1.000000
    5      -13.152281   1.000000
    6      -10.827104   1.000000
    7      -10.003798   1.000000
    8       -9.002303   1.000000
    9       -8.165836   1.000000
   10       -8.104801   1.000000
   11       -7.382007   1.000000
   12       -6.666074   1.000000
   13       -6.575331   1.000000
   14       -6.050640   1.000000
   15       -5.899664   1.000000
   16       -2.622594   0.000000
   17       -1.045859   0.000000
   18        1.825011   0.000000
   19        2.399651   0.000000
   20        2.928768   0.000000
   21        2.955327   0.000000
   22        3.038258   0.000000
   23        3.543882   0.000000
   24        3.627659   0.000000
 
 -0.2363226E+00  0.4733548E+00  0.0000000E+00  0.1041667E-01
    1      -19.723069   1.000000
    2      -17.814675   1.000000
    3      -17.387607   1.000000
    4      -13.777299   1.000000
    5      -13.082008   1.000000
    6      -10.923308   1.000000
    7       -9.847767   1.000000
    8       -8.885948   1.000000
    9       -8.232946   1.000000
   10       -8.038150   1.000000
   11       -7.430527   1.000000
   12       -6.755535   1.000000
   13       -6.653020   1.000000
   14       -6.094934   1.000000
   15       -5.991030   1.000000
   16       -2.568708   0.000000
   17       -1.088943   0.000000
   18        1.951880   0.000000
   19        2.512993   0.000000
   20        2.973721   0.000000
   21        3.058317   0.000000
   22        3.282539   0.000000
   23        3.325983   0.000000
   24        3.673789   0.000000
 
 -0.2255806E+00  0.4518387E+00  0.0000000E+00  0.1041667E-01
    1      -19.702220   1.000000
    2      -17.854274   1.000000
    3      -17.397813   1.000000
    4      -13.806514   1.000000
    5      -12.981543   1.000000
    6      -11.003223   1.000000
    7       -9.703261   1.000000
    8       -8.835423   1.000000
    9       -8.263398   1.000000
   10       -7.977819   1.000000
   11       -7.489074   1.000000
   12       -6.828063   1.000000
   13       -6.745259   1.000000
   14       -6.097900   1.000000
   15       -6.047015   1.000000
   16       -2.557301   0.000000
   17       -1.088817   0.000000
   18        2.090359   0.000000
   19        2.591480   0.000000
   20        3.001066   0.000000
   21        3.030566   0.000000
   22        3.200010   0.000000
   23        3.646976   0.000000
   24        3.738508   0.000000
 
 -0.2148387E+00  0.4303226E+00  0.0000000E+00  0.1041667E-01
    1      -19.688408   1.000000
    2      -17.891450   1.000000
    3      -17.387942   1.000000
    4      -13.855896   1.000000
    5      -12.882030   1.000000
    6      -11.052869   1.000000
    7       -9.587928   1.000000
    8       -8.891838   1.000000
    9       -8.193688   1.000000
   10       -7.932122   1.000000
   11       -7.584647   1.000000
   12       -6.865107   1.000000
   13       -6.830094   1.000000
   14       -6.072388   1.000000
   15       -6.064428   1.000000
   16       -2.583969   0.000000
   17       -1.051685   0.000000
   18        2.240416   0.000000
   19        2.610197   0.000000
   20        2.789753   0.000000
   21        3.067755   0.000000
   22        3.353656   0.000000
   23        3.548383   0.000000
   24        3.803204   0.000000
 
 -0.2040968E+00  0.4088065E+00  0.0000000E+00  0.1041667E-01
    1      -19.683677   1.000000
    2      -17.918381   1.000000
    3      -17.363133   1.000000
    4      -13.912577   1.000000
    5      -12.807289   1.000000
    6      -11.060373   1.000000
    7       -9.538943   1.000000
    8       -8.984154   1.000000
    9       -8.079853   1.000000
   10       -7.911942   1.000000
   11       -7.690571   1.000000
   12       -6.886944   1.000000
   13       -6.869512   1.000000
   14       -6.043516   1.000000
   15       -6.027856   1.000000
   16       -2.638539   0.000000
   17       -0.989454   0.000000
   18        2.401907   0.000000
   19        2.560316   0.000000
   20        2.564088   0.000000
   21        3.170228   0.000000
   22        3.357013   0.000000
   23        3.519368   0.000000
   24        3.681365   0.000000
 
 -0.1933548E+00  0.3872903E+00  0.0000000E+00  0.1041667E-01
    1      -19.689517   1.000000
    2      -17.929445   1.000000
    3      -17.327204   1.000000
    4      -13.969948   1.000000
    5      -12.771391   1.000000
    6      -11.018800   1.000000
    7       -9.610404   1.000000
    8       -9.014384   1.000000
    9       -8.080746   1.000000
   10       -7.926544   1.000000
   11       -7.671832   1.000000
   12       -6.901161   1.000000
   13       -6.856053   1.000000
   14       -5.987226   1.000000
   15       -5.969784   1.000000
   16       -2.709866   0.000000
   17       -0.914424   0.000000
   18        2.341792   0.000000
   19        2.470016   0.000000
   20        2.575399   0.000000
   21        3.118080   0.000000
   22        3.355980   0.000000
   23        3.457831   0.000000
   24        3.697121   0.000000
 
 -0.1826129E+00  0.3657742E+00  0.0000000E+00  0.1041667E-01
    1      -19.706524   1.000000
    2      -17.921457   1.000000
    3      -17.282706   1.000000
    4      -14.024524   1.000000
    5      -12.777502   1.000000
    6      -10.930646   1.000000
    7       -9.784530   1.000000
    8       -8.991808   1.000000
    9       -8.209680   1.000000
   10       -7.976979   1.000000
   11       -7.507772   1.000000
   12       -6.868948   1.000000
   13       -6.831622   1.000000
   14       -5.901358   1.000000
   15       -5.901238   1.000000
   16       -2.788742   0.000000
   17       -0.836270   0.000000
   18        2.135179   0.000000
   19        2.342819   0.000000
   20        2.759928   0.000000
   21        2.936122   0.000000
   22        3.246308   0.000000
   23        3.506343   0.000000
   24        3.886900   0.000000
 
 -0.1718710E+00  0.3442581E+00  0.0000000E+00  0.1041667E-01
    1      -19.734230   1.000000
    2      -17.893343   1.000000
    3      -17.231398   1.000000
    4      -14.074317   1.000000
    5      -12.819726   1.000000
    6      -10.809821   1.000000
    7       -9.999268   1.000000
    8       -8.999548   1.000000
    9       -8.321082   1.000000
   10       -8.055197   1.000000
   11       -7.316612   1.000000
   12       -6.797009   1.000000
   13       -6.788818   1.000000
   14       -5.824810   1.000000
   15       -5.792724   1.000000
   16       -2.868403   0.000000
   17       -0.761738   0.000000
   18        1.940055   0.000000
   19        2.192116   0.000000
   20        2.753883   0.000000
   21        2.955910   0.000000
   22        3.046863   0.000000
   23        3.582772   0.000000
   24        3.774438   0.000000
 
 -0.1611290E+00  0.3227419E+00  0.0000000E+00  0.1041667E-01
    1      -19.771228   1.000000
    2      -17.845635   1.000000
    3      -17.174601   1.000000
    4      -14.118096   1.000000
    5      -12.888334   1.000000
    6      -10.690674   1.000000
    7      -10.203720   1.000000
    8       -9.100984   1.000000
    9       -8.341334   1.000000
   10       -8.150258   1.000000
   11       -7.154210   1.000000
   12       -6.702687   1.000000
   13       -6.695725   1.000000
   14       -5.741866   1.000000
   15       -5.668555   1.000000
   16       -2.943893   0.000000
   17       -0.694884   0.000000
   18        1.756513   0.000000
   19        2.024872   0.000000
   20        2.575202   0.000000
   21        2.859393   0.000000
   22        3.163318   0.000000
   23        3.358633   0.000000
   24        3.829618   0.000000
 
 -0.1503871E+00  0.3012258E+00  0.0000000E+00  0.1041667E-01
    1      -19.815502   1.000000
    2      -17.779924   1.000000
    3      -17.113428   1.000000
    4      -14.155053   1.000000
    5      -12.974127   1.000000
    6      -10.691209   1.000000
    7      -10.279734   1.000000
    8       -9.284507   1.000000
    9       -8.279287   1.000000
   10       -8.253285   1.000000
   11       -7.053412   1.000000
   12       -6.573962   1.000000
   13       -6.548227   1.000000
   14       -5.654269   1.000000
   15       -5.534646   1.000000
   16       -3.011478   0.000000
   17       -0.638064   0.000000
   18        1.584603   0.000000
   19        1.845866   0.000000
   20        2.399037   0.000000
   21        2.684047   0.000000
   22        3.078538   0.000000
   23        3.381903   0.000000
   24        3.696567   0.000000
 
 -0.1396452E+00  0.2797097E+00  0.0000000E+00  0.1041667E-01
    1      -19.864801   1.000000
    2      -17.698351   1.000000
    3      -17.048913   1.000000
    4      -14.184642   1.000000
    5      -13.070044   1.000000
    6      -10.875168   1.000000
    7      -10.167383   1.000000
    8       -9.507095   1.000000
    9       -8.358226   1.000000
   10       -8.175246   1.000000
   11       -7.001869   1.000000
   12       -6.438050   1.000000
   13       -6.340960   1.000000
   14       -5.563838   1.000000
   15       -5.395690   1.000000
   16       -3.068000   0.000000
   17       -0.592273   0.000000
   18        1.424360   0.000000
   19        1.658598   0.000000
   20        2.223528   0.000000
   21        2.520764   0.000000
   22        2.789899   0.000000
   23        3.534813   0.000000
   24        3.611569   0.000000
 
 -0.1289032E+00  0.2581935E+00  0.0000000E+00  0.1041667E-01
    1      -19.916954   1.000000
    2      -17.603260   1.000000
    3      -16.982078   1.000000
    4      -14.206511   1.000000
    5      -13.171122   1.000000
    6      -11.111682   1.000000
    7      -10.002516   1.000000
    8       -9.743048   1.000000
    9       -8.461293   1.000000
   10       -8.051341   1.000000
   11       -6.972140   1.000000
   12       -6.292435   1.000000
   13       -6.110556   1.000000
   14       -5.472616   1.000000
   15       -5.255446   1.000000
   16       -3.110674   0.000000
   17       -0.557474   0.000000
   18        1.275806   0.000000
   19        1.465402   0.000000
   20        2.044271   0.000000
   21        2.369552   0.000000
   22        2.505700   0.000000
   23        3.381841   0.000000
   24        3.741717   0.000000
 
 -0.1181613E+00  0.2366774E+00  0.0000000E+00  0.1041667E-01
    1      -19.970014   1.000000
    2      -17.497010   1.000000
    3      -16.913983   1.000000
    4      -14.220472   1.000000
    5      -13.273962   1.000000
    6      -11.356233   1.000000
    7       -9.991124   1.000000
    8       -9.822614   1.000000
    9       -8.560032   1.000000
   10       -7.916714   1.000000
   11       -6.949815   1.000000
   12       -6.140588   1.000000
   13       -5.873578   1.000000
   14       -5.382840   1.000000
   15       -5.116880   1.000000
   16       -3.136812   0.000000
   17       -0.533336   0.000000
   18        1.138973   0.000000
   19        1.268295   0.000000
   20        1.850384   0.000000
   21        2.230415   0.000000
   22        2.242473   0.000000
   23        3.240774   0.000000
   24        3.603507   0.000000
 
 -0.1074194E+00  0.2151613E+00  0.0000000E+00  0.1041667E-01
    1      -20.022351   1.000000
    2      -17.381930   1.000000
    3      -16.845755   1.000000
    4      -14.226524   1.000000
    5      -13.376254   1.000000
    6      -11.597901   1.000000
    7      -10.226144   1.000000
    8       -9.659830   1.000000
    9       -8.652855   1.000000
   10       -7.775696   1.000000
   11       -6.929025   1.000000
   12       -5.985345   1.000000
   13       -5.638373   1.000000
   14       -5.297015   1.000000
   15       -4.982543   1.000000
   16       -3.143908   0.000000
   17       -0.518936   0.000000
   18        1.013878   0.000000
   19        1.069353   0.000000
   20        1.625633   0.000000
   21        2.021266   0.000000
   22        2.103354   0.000000
   23        3.112074   0.000000
   24        3.477191   0.000000
 
 -0.9667742E-01  0.1936452E+00  0.0000000E+00  0.1041667E-01
    1      -20.072621   1.000000
    2      -17.260353   1.000000
    3      -16.778578   1.000000
    4      -14.224880   1.000000
    5      -13.476427   1.000000
    6      -11.831614   1.000000
    7      -10.456903   1.000000
    8       -9.507465   1.000000
    9       -8.738665   1.000000
   10       -7.631109   1.000000
   11       -6.907465   1.000000
   12       -5.829465   1.000000
   13       -5.410065   1.000000
   14       -5.217576   1.000000
   15       -4.854629   1.000000
   16       -3.129755   0.000000
   17       -0.513534   0.000000
   18        0.870886   0.000000
   19        0.900545   0.000000
   20        1.367815   0.000000
   21        1.849064   0.000000
   22        1.988372   0.000000
   23        2.995784   0.000000
   24        3.362781   0.000000
 
 -0.8593548E-01  0.1721290E+00  0.0000000E+00  0.1041667E-01
    1      -20.119755   1.000000
    2      -17.134731   1.000000
    3      -16.713697   1.000000
    4      -14.216032   1.000000
    5      -13.573404   1.000000
    6      -12.053619   1.000000
    7      -10.677916   1.000000
    8       -9.371130   1.000000
    9       -8.816721   1.000000
   10       -7.485619   1.000000
   11       -6.884546   1.000000
   12       -5.675701   1.000000
   13       -5.192747   1.000000
   14       -5.146709   1.000000
   15       -4.735116   1.000000
   16       -3.092831   0.000000
   17       -0.516217   0.000000
   18        0.674679   0.000000
   19        0.798998   0.000000
   20        1.094079   0.000000
   21        1.713814   0.000000
   22        1.885472   0.000000
   23        2.891860   0.000000
   24        3.260288   0.000000
 
 -0.7519355E-01  0.1506129E+00  0.0000000E+00  0.1041667E-01
    1      -20.162900   1.000000
    2      -17.007756   1.000000
    3      -16.652399   1.000000
    4      -14.200832   1.000000
    5      -13.666379   1.000000
    6      -12.260376   1.000000
    7      -10.886017   1.000000
    8       -9.252773   1.000000
    9       -8.886471   1.000000
   10       -7.342385   1.000000
   11       -6.860507   1.000000
   12       -5.526964   1.000000
   13       -5.086012   1.000000
   14       -4.989915   1.000000
   15       -4.625653   1.000000
   16       -3.032768   0.000000
   17       -0.526250   0.000000
   18        0.480829   0.000000
   19        0.709263   0.000000
   20        0.823740   0.000000
   21        1.603729   0.000000
   22        1.794658   0.000000
   23        2.800256   0.000000
   24        3.169727   0.000000
 
 -0.6445161E-01  0.1290968E+00  0.0000000E+00  0.1041667E-01
    1      -20.201386   1.000000
    2      -16.882542   1.000000
    3      -16.595977   1.000000
    4      -14.180564   1.000000
    5      -13.754623   1.000000
    6      -12.448245   1.000000
    7      -11.078129   1.000000
    8       -9.152905   1.000000
    9       -8.947514   1.000000
   10       -7.205161   1.000000
   11       -6.836140   1.000000
   12       -5.386488   1.000000
   13       -5.036201   1.000000
   14       -4.804944   1.000000
   15       -4.527798   0.999993
   16       -2.950768   0.000000
   17       -0.543072   0.000000
   18        0.284929   0.000000
   19        0.575337   0.000000
   20        0.631373   0.000000
   21        1.512712   0.000000
   22        1.715933   0.000000
   23        2.720935   0.000000
   24        3.091117   0.000000
 
 -0.5370968E-01  0.1075806E+00  0.0000000E+00  0.1041667E-01
    1      -20.234703   1.000000
    2      -16.762804   1.000000
    3      -16.545689   1.000000
    4      -14.157017   1.000000
    5      -13.837181   1.000000
    6      -12.613490   1.000000
    7      -11.250938   1.000000
    8       -9.071089   1.000000
    9       -8.999577   1.000000
   10       -7.078264   1.000000
   11       -6.812562   1.000000
   12       -5.257840   1.000000
   13       -4.997081   1.000000
   14       -4.641217   1.000000
   15       -4.442889   0.999915
   16       -2.850197   0.000000
   17       -0.566047   0.000000
   18        0.078519   0.000000
   19        0.369289   0.000000
   20        0.565361   0.000000
   21        1.437877   0.000000
   22        1.649303   0.000000
   23        2.653860   0.000000
   24        3.024486   0.000000
 
 -0.4296774E-01  0.8606452E-01  0.0000000E+00  0.1041667E-01
    1      -20.262441   1.000000
    2      -16.653005   1.000000
    3      -16.502714   1.000000
    4      -14.132454   1.000000
    5      -13.912457   1.000000
    6      -12.752530   1.000000
    7      -11.400786   1.000000
    8       -9.042423   1.000000
    9       -9.006416   1.000000
   10       -6.966210   1.000000
   11       -6.791017   1.000000
   12       -5.144789   1.000000
   13       -4.967727   1.000000
   14       -4.501893   0.999985
   15       -4.372045   0.999438
   16       -2.736989   0.000000
   17       -0.593660   0.000000
   18       -0.136591   0.000000
   19        0.215171   0.000000
   20        0.511268   0.000000
   21        1.377765   0.000000
   22        1.594773   0.000000
   23        2.599011   0.000000
   24        2.969869   0.000000
 
 -0.3222581E-01  0.6454839E-01  0.0000000E+00  0.1041667E-01
    1      -20.284298   1.000000
    2      -16.558399   1.000000
    3      -16.468099   1.000000
    4      -14.109483   1.000000
    5      -13.977812   1.000000
    6      -12.862421   1.000000
    7      -11.523673   1.000000
    8       -9.075892   1.000000
    9       -8.957691   1.000000
   10       -6.873454   1.000000
   11       -6.772712   1.000000
   12       -5.051313   1.000000
   13       -4.946864   1.000000
   14       -4.389912   0.999643
   15       -4.316058   0.997892
   16       -2.620406   0.000000
   17       -0.623170   0.000000
   18       -0.341857   0.000000
   19        0.106572   0.000000
   20        0.469136   0.000000
   21        1.331573   0.000000
   22        1.552352   0.000000
   23        2.556369   0.000000
   24        2.927312   0.000000
 
 -0.2148387E-01  0.4303226E-01  0.0000000E+00  0.1041667E-01
    1      -20.300059   1.000000
    2      -16.484775   1.000000
    3      -16.442714   1.000000
    4      -14.090750   1.000000
    5      -14.029442   1.000000
    6      -12.941319   1.000000
    7      -11.615474   1.000000
    8       -9.099871   1.000000
    9       -8.923808   1.000000
   10       -6.803972   1.000000
   11       -6.758794   1.000000
   12       -4.981211   1.000000
   13       -4.933130   1.000000
   14       -4.308033   0.997483
   15       -4.275615   0.994997
   16       -2.514277   0.000000
   17       -0.650058   0.000000
   18       -0.514977   0.000000
   19        0.034840   0.000000
   20        0.439006   0.000000
   21        1.298838   0.000000
   22        1.522044   0.000000
   23        2.525920   0.000000
   24        2.896863   0.000000
 
 -0.1074194E-01  0.2151613E-01  0.0000000E+00  0.1041667E-01
    1      -20.309572   1.000000
    2      -16.437747   1.000000
    3      -16.427209   1.000000
    4      -14.078503   1.000000
    5      -14.062929   1.000000
    6      -12.988567   1.000000
    7      -11.672395   1.000000
    8       -9.114279   1.000000
    9       -8.903878   1.000000
   10       -6.760943   1.000000
   11       -6.750058   1.000000
   12       -4.937666   1.000000
   13       -4.925371   1.000000
   14       -4.257959   0.992872
   15       -4.251089   0.991851
   16       -2.437215   0.000000
   17       -0.669024   0.000000
   18       -0.633119   0.000000
   19       -0.005833   0.000000
   20        0.420910   0.000000
   21        1.279291   0.000000
   22        1.503857   0.000000
   23        2.507656   0.000000
   24        2.878569   0.000000
 
  0.0000000E+00  0.0000000E+00  0.0000000E+00  0.1041667E-01
    1      -20.312748   1.000000
    2      -16.422089   1.000000
    3      -16.421444   1.000000
    4      -14.074606   1.000000
    5      -14.074217   1.000000
    6      -13.004261   1.000000
    7      -11.691702   1.000000
    8       -9.119073   1.000000
    9       -8.897275   1.000000
   10       -6.747193   1.000000
   11       -6.746202   1.000000
   12       -4.922909   1.000000
   13       -4.922864   1.000000
   14       -4.243273   0.990535
   15       -4.240773   0.990077
   16       -2.408574   0.000000
   17       -0.675998   0.000000
   18       -0.675552   0.000000
   19       -0.018959   0.000000
   20        0.414875   0.000000
   21        1.272790   0.000000
   22        1.497794   0.000000
   23        2.501570   0.000000
   24        2.872467   0.000000
 
  0.0000000E+00  0.0000000E+00  0.0000000E+00  0.1041667E-01
    1      -20.312748   1.000000
    2      -16.422089   1.000000
    3      -16.421444   1.000000
    4      -14.074606   1.000000
    5      -14.074217   1.000000
    6      -13.004261   1.000000
    7      -11.691702   1.000000
    8       -9.119073   1.000000
    9       -8.897275   1.000000
   10       -6.747193   1.000000
   11       -6.746202   1.000000
   12       -4.922909   1.000000
   13       -4.922864   1.000000
   14       -4.243273   0.990535
   15       -4.240773   0.990077
   16       -2.408574   0.000000
   17       -0.675998   0.000000
   18       -0.675552   0.000000
   19       -0.018959   0.000000
   20        0.414875   0.000000
   21        1.272790   0.000000
   22        1.497794   0.000000
   23        2.501570   0.000000
   24        2.872467   0.000000
 
  0.1612903E-01  0.0000000E+00  0.0000000E+00  0.1041667E-01
    1      -20.311725   1.000000
    2      -16.427215   1.000000
    3      -16.423238   1.000000
    4      -14.075881   1.000000
    5      -14.070543   1.000000
    6      -12.999227   1.000000
    7      -11.685475   1.000000
    8       -9.117526   1.000000
    9       -8.899413   1.000000
   10       -6.751724   1.000000
   11       -6.747358   1.000000
   12       -4.927670   1.000000
   13       -4.923652   1.000000
   14       -4.248332   0.991407
   15       -4.243755   0.990621
   16       -2.417975   0.000000
   17       -0.673384   0.000000
   18       -0.662042   0.000000
   19       -0.014763   0.000000
   20        0.416815   0.000000
   21        1.274878   0.000000
   22        1.499742   0.000000
   23        2.503526   0.000000
   24        2.874428   0.000000
 
  0.3225806E-01  0.0000000E+00  0.0000000E+00  0.1041667E-01
    1      -20.308665   1.000000
    2      -16.442787   1.000000
    3      -16.428236   1.000000
    4      -14.080091   1.000000
    5      -14.059242   1.000000
    6      -12.984103   1.000000
    7      -11.666905   1.000000
    8       -9.112915   1.000000
    9       -8.905792   1.000000
   10       -6.765791   1.000000
   11       -6.750226   1.000000
   12       -4.941933   1.000000
   13       -4.926028   1.000000
   14       -4.264428   0.993729
   15       -4.251798   0.991962
   16       -2.445148   0.000000
   17       -0.666670   0.000000
   18       -0.621754   0.000000
   19       -0.002080   0.000000
   20        0.422633   0.000000