       N       E                     dE             d eps       ncg     rms          rms(c)
DAV:   1     0.169600612609E+03    0.16960E+03   -0.89347E+03  4608   0.787E+02
DAV:   2    -0.362442408374E+02   -0.20584E+03   -0.18737E+03  8172   0.157E+02
DAV:   3    -0.655289461116E+02   -0.29285E+02   -0.28657E+02  5412   0.738E+01
DAV:   4    -0.662454770533E+02   -0.71653E+00   -0.71542E+00  5748   0.143E+01
DAV:   5    -0.662633347705E+02   -0.17858E-01   -0.17850E-01  5736   0.208E+00
DAV:   6    -0.662640590742E+02   -0.72430E-03   -0.72429E-03  6072   0.436E-01
DAV:   7    -0.662640824020E+02   -0.23328E-04   -0.23327E-04  6204   0.645E-02
DAV:   8    -0.662640833594E+02   -0.95731E-06   -0.95674E-06  7044   0.108E-02
   1 F= -.66264083E+02 E0= -.66263119E+02  d E =-.192951E-02
