PROCAR lm decomposed
# of k-points:   96         # of bands:   24         # of ions:    8

 k-point     1 :   -0.33300000 0.66700000 0.00000000     weight = 0.01041667

band     1 # energy  -19.93501944 # occ.  2.00000000
 
ion      s     py     pz     px    dxy    dyz    dz2    dxz  x2-y2    tot
    1  0.015  0.001  0.000  0.004  0.000  0.000  0.000  0.000  0.000  0.020
    2  0.015  0.001  0.000  0.004  0.000  0.000  0.000  0.000  0.000  0.020
    3  0.087  0.002  0.000  0.007  0.000  0.000  0.000  0.000  0.000  0.095
    4  0.098  0.001  0.000  0.006  0.000  0.000  0.000  0.000  0.000  0.105
    5  0.098  0.007  0.000  0.001  0.000  0.000  0.000  0.000  0.000  0.105
    6  0.098  0.007  0.000  0.001  0.000  0.000  0.000  0.000  0.000  0.105
    7  0.098  0.001  0.000  0.006  0.000  0.000  0.000  0.000  0.000  0.105
    8  0.087  0.002  0.000  0.007  0.000  0.000  0.000  0.000  0.000  0.095
tot    0.594  0.023  0.000  0.034  0.000  0.000  0.000  0.000  0.000  0.651
 
band     2 # energy  -17.65262636 # occ.  2.00000000
 
ion      s     py     pz     px    dxy    dyz    dz2    dxz  x2-y2    tot
    1  0.036  0.002  0.000  0.006  0.000  0.000  0.000  0.000  0.000  0.044
    2  0.036  0.002  0.000  0.006  0.000  0.000  0.000  0.000  0.000  0.044
    3  0.156  0.001  0.000  0.003  0.000  0.000  0.000  0.000  0.000  0.160
    4  0.047  0.012  0.000  0.006  0.000  0.000  0.000  0.000  0.000  0.065
    5  0.047  0.002  0.000  0.016  0.000  0.000  0.000  0.000  0.000  0.065
    6  0.047  0.002  0.000  0.016  0.000  0.000  0.000  0.000  0.000  0.065
    7  0.047  0.012  0.000  0.006  0.000  0.000  0.000  0.000  0.000  0.065
    8  0.156  0.001  0.000  0.003  0.000  0.000  0.000  0.000  0.000  0.160
tot    0.574  0.034  0.000  0.061  0.000  0.000  0.000  0.000  0.000  0.669
 
band     3 # energy  -16.79685995 # occ.  2.00000000
 
ion      s     py     pz     px    dxy    dyz    dz2    dxz  x2-y2    tot
    1  0.000  0.017  0.000  0.006  0.000  0.000  0.000  0.000  0.000  0.023
    2  0.000  0.017  0.000  0.006  0.000  0.000  0.000  0.000  0.000  0.023
    3  0.000  0.026  0.000  0.009  0.000  0.000  0.000  0.000  0.000  0.035
    4  0.139  0.001  0.000  0.006  0.000  0.000  0.000  0.000  0.000  0.145
    5  0.139  0.003  0.000  0.004  0.000  0.000  0.000  0.000  0.000  0.145
    6  0.139  0.003  0.000  0.004  0.000  0.000  0.000  0.000  0.000  0.145
    7  0.139  0.001  0.000  0.006  0.000  0.000  0.000  0.000  0.000  0.145
    8  0.000  0.026  0.000  0.009  0.000  0.000  0.000  0.000  0.000  0.035
tot    0.555  0.094  0.000  0.048  0.000  0.000  0.000  0.000  0.000  0.697
 
band     4 # energy  -14.50663186 # occ.  2.00000000
 
ion      s     py     pz     px    dxy    dyz    dz2    dxz  x2-y2    tot
    1  0.081  0.002  0.000  0.006  0.000  0.000  0.000  0.000  0.000  0.088
    2  0.081  0.002  0.000  0.006  0.000  0.000  0.000  0.000  0.000  0.088
    3  0.102  0.000  0.000  0.000  0.000  0.000  0.000  0.000  0.000  0.102
    4  0.015  0.055  0.000  0.000  0.000  0.000  0.000  0.000  0.000  0.071
    5  0.015  0.014  0.000  0.041  0.000  0.000  0.000  0.000  0.000  0.071
    6  0.015  0.014  0.000  0.041  0.000  0.000  0.000  0.000  0.000  0.071
    7  0.015  0.055  0.000  0.000  0.000  0.000  0.000  0.000  0.000  0.071
    8  0.102  0.000  0.000  0.000  0.000  0.000  0.000  0.000  0.000  0.102
tot    0.426  0.143  0.000  0.095  0.000  0.000  0.000  0.000  0.000  0.664
 
band     5 # energy  -12.88508994 # occ.  2.00000000
 
ion      s     py     pz     px    dxy    dyz    dz2    dxz  x2-y2    tot
    1  0.000  0.029  0.000  0.010  0.000  0.000  0.000  0.000  0.000  0.038
    2  0.000  0.029  0.000  0.010  0.000  0.000  0.000  0.000  0.000  0.038
    3  0.000  0.066  0.000  0.022  0.000  0.000  0.000  0.000  0.000  0.088
    4  0.082  0.014  0.000  0.018  0.000  0.000  0.000  0.000  0.000  0.114
    5  0.082  0.003  0.000  0.029  0.000  0.000  0.000  0.000  0.000  0.114
    6  0.082  0.003  0.000  0.029  0.000  0.000  0.000  0.000  0.000  0.114
    7  0.082  0.014  0.000  0.018  0.000  0.000  0.000  0.000  0.000  0.114
    8  0.000  0.066  0.000  0.022  0.000  0.000  0.000  0.000  0.000  0.088
tot    0.326  0.224  0.000  0.156  0.000  0.000  0.000  0.000  0.000  0.707
 
band     6 # energy  -11.32573544 # occ.  2.00000000
 
ion      s     py     pz     px    dxy    dyz    dz2    dxz  x2-y2    tot
    1  0.095  0.004  0.000  0.013  0.000  0.000  0.000  0.000  0.000  0.112
    2  0.095  0.004  0.000  0.013  0.000  0.000  0.000  0.000  0.000  0.112
    3  0.037  0.017  0.000  0.052  0.000  0.000  0.000  0.000  0.000  0.106
    4  0.001  0.019  0.000  0.039  0.000  0.000  0.000  0.000  0.000  0.059
    5  0.001  0.052  0.000  0.006  0.000  0.000  0.000  0.000  0.000  0.059
    6  0.001  0.052  0.000  0.006  0.000  0.000  0.000  0.000  0.000  0.059
    7  0.001  0.019  0.000  0.039  0.000  0.000  0.000  0.000  0.000  0.059
    8  0.037  0.017  0.000  0.052  0.000  0.000  0.000  0.000  0.000  0.106
tot    0.268  0.185  0.000  0.219  0.000  0.000  0.000  0.000  0.000  0.672
 
band     7 # energy   -9.85702777 # occ.  2.00000000
 
ion      s     py     pz     px    dxy    dyz    dz2    dxz  x2-y2    tot
    1  0.000  0.011  0.000  0.004  0.000  0.000  0.000  0.000  0.000  0.015
    2  0.000  0.011  0.000  0.004  0.000  0.000  0.000  0.000  0.000  0.015
    3  0.000  0.065  0.000  0.022  0.000  0.000  0.000  0.000  0.000  0.087
    4  0.009  0.059  0.000  0.060  0.000  0.000  0.000  0.000  0.000  0.128
    5  0.009  0.008  0.000  0.111  0.000  0.000  0.000  0.000  0.000  0.128
    6  0.009  0.008  0.000  0.111  0.000  0.000  0.000  0.000  0.000  0.128
    7  0.009  0.059  0.000  0.060  0.000  0.000  0.000  0.000  0.000  0.128
    8  0.000  0.065  0.000  0.022  0.000  0.000  0.000  0.000  0.000  0.087
tot    0.037  0.288  0.000  0.392  0.000  0.000  0.000  0.000  0.000  0.717
 
band     8 # energy   -9.79015922 # occ.  2.00000000
 
ion      s     py     pz     px    dxy    dyz    dz2    dxz  x2-y2    tot
    1  0.097  0.012  0.000  0.036  0.000  0.000  0.000  0.000  0.000  0.145
    2  0.097  0.012  0.000  0.036  0.000  0.000  0.000  0.000  0.000  0.145
    3  0.031  0.003  0.000  0.010  0.000  0.000  0.000  0.000  0.000  0.044
    4  0.026  0.016  0.000  0.046  0.000  0.000  0.000  0.000  0.000  0.088
    5  0.026  0.030  0.000  0.032  0.000  0.000  0.000  0.000  0.000  0.088
    6  0.026  0.030  0.000  0.032  0.000  0.000  0.000  0.000  0.000  0.088
    7  0.026  0.016  0.000  0.046  0.000  0.000  0.000  0.000  0.000  0.088
    8  0.031  0.003  0.000  0.010  0.000  0.000  0.000  0.000  0.000  0.044
tot    0.361  0.122  0.000  0.246  0.000  0.000  0.000  0.000  0.000  0.729
 
band     9 # energy   -8.49242096 # occ.  2.00000000
 
ion      s     py     pz     px    dxy    dyz    dz2    dxz  x2-y2    tot
    1  0.000  0.000  0.024  0.000  0.000  0.000  0.000  0.000  0.000  0.024
    2  0.000  0.000  0.024  0.000  0.000  0.000  0.000  0.000  0.000  0.024
    3  0.000  0.000  0.059  0.000  0.000  0.000  0.000  0.000  0.000  0.059
    4  0.000  0.000  0.064  0.000  0.000  0.000  0.000  0.000  0.000  0.064
    5  0.000  0.000  0.064  0.000  0.000  0.000  0.000  0.000  0.000  0.064
    6  0.000  0.000  0.064  0.000  0.000  0.000  0.000  0.000  0.000  0.064
    7  0.000  0.000  0.064  0.000  0.000  0.000  0.000  0.000  0.000  0.064
    8  0.000  0.000  0.059  0.000  0.000  0.000  0.000  0.000  0.000  0.059
tot    0.000  0.000  0.423  0.000  0.000  0.000  0.000  0.000  0.000  0.423
 
band    10 # energy   -8.29807987 # occ.  2.00000000
 
ion      s     py     pz     px    dxy    dyz    dz2    dxz  x2-y2    tot
    1  0.031  0.024  0.000  0.071  0.000  0.000  0.000  0.000  0.000  0.125
    2  0.031  0.024  0.000  0.071  0.000  0.000  0.000  0.000  0.000  0.125
    3  0.016  0.036  0.000  0.108  0.000  0.000  0.000  0.000  0.000  0.159
    4  0.001  0.023  0.000  0.012  0.000  0.000  0.000  0.000  0.000  0.036
    5  0.001  0.029  0.000  0.006  0.000  0.000  0.000  0.000  0.000  0.036
    6  0.001  0.029  0.000  0.006  0.000  0.000  0.000  0.000  0.000  0.036
    7  0.001  0.023  0.000  0.012  0.000  0.000  0.000  0.000  0.000  0.036
    8  0.016  0.036  0.000  0.108  0.000  0.000  0.000  0.000  0.000  0.159
tot    0.098  0.223  0.000  0.394  0.000  0.000  0.000  0.000  0.000  0.715
 
band    11 # energy   -6.71665558 # occ.  2.00000000
 
ion      s     py     pz     px    dxy    dyz    dz2    dxz  x2-y2    tot
    1  0.000  0.080  0.000  0.027  0.000  0.000  0.000  0.000  0.000  0.107
    2  0.000  0.080  0.000  0.027  0.000  0.000  0.000  0.000  0.000  0.107
    3  0.000  0.031  0.000  0.010  0.000  0.000  0.000  0.000  0.000  0.041
    4  0.002  0.055  0.000  0.059  0.000  0.000  0.000  0.000  0.000  0.116
    5  0.002  0.107  0.000  0.007  0.000  0.000  0.000  0.000  0.000  0.116
    6  0.002  0.107  0.000  0.007  0.000  0.000  0.000  0.000  0.000  0.116
    7  0.002  0.055  0.000  0.059  0.000  0.000  0.000  0.000  0.000  0.116
    8  0.000  0.031  0.000  0.010  0.000  0.000  0.000  0.000  0.000  0.041
tot    0.006  0.547  0.000  0.205  0.000  0.000  0.000  0.000  0.000  0.758
 
band    12 # energy   -6.38274619 # occ.  2.00000000
 
ion      s     py     pz     px    dxy    dyz    dz2    dxz  x2-y2    tot
    1  0.000  0.000  0.032  0.000  0.000  0.000  0.000  0.000  0.000  0.032
    2  0.000  0.000  0.032  0.000  0.000  0.000  0.000  0.000  0.000  0.032
    3  0.000  0.000  0.103  0.000  0.000  0.000  0.000  0.000  0.000  0.103
    4  0.000  0.000  0.044  0.000  0.000  0.000  0.000  0.000  0.000  0.044
    5  0.000  0.000  0.044  0.000  0.000  0.000  0.000  0.000  0.000  0.044
    6  0.000  0.000  0.044  0.000  0.000  0.000  0.000  0.000  0.000  0.044
    7  0.000  0.000  0.044  0.000  0.000  0.000  0.000  0.000  0.000  0.044
    8  0.000  0.000  0.103  0.000  0.000  0.000  0.000  0.000  0.000  0.103
tot    0.000  0.000  0.444  0.000  0.000  0.000  0.000  0.000  0.000  0.444
 
band    13 # energy   -6.16861455 # occ.  2.00000000
 
ion      s     py     pz     px    dxy    dyz    dz2    dxz  x2-y2    tot
    1  0.023  0.024  0.000  0.073  0.000  0.000  0.000  0.000  0.000  0.121
    2  0.023  0.024  0.000  0.073  0.000  0.000  0.000  0.000  0.000  0.121
    3  0.009  0.021  0.000  0.064  0.000  0.000  0.000  0.000  0.000  0.095
    4  0.016  0.019  0.000  0.050  0.000  0.000  0.000  0.000  0.000  0.085
    5  0.016  0.017  0.000  0.052  0.000  0.000  0.000  0.000  0.000  0.085
    6  0.016  0.017  0.000  0.052  0.000  0.000  0.000  0.000  0.000  0.085
    7  0.016  0.019  0.000  0.050  0.000  0.000  0.000  0.000  0.000  0.085
    8  0.009  0.021  0.000  0.064  0.000  0.000  0.000  0.000  0.000  0.095
tot    0.128  0.163  0.000  0.480  0.000  0.000  0.000  0.000  0.000  0.771
 
band    14 # energy   -5.13391336 # occ.  2.00000000
 
ion      s     py     pz     px    dxy    dyz    dz2    dxz  x2-y2    tot
    1  0.000  0.000  0.000  0.000  0.000  0.000  0.000  0.000  0.000  0.000
    2  0.000  0.000  0.000  0.000  0.000  0.000  0.000  0.000  0.000  0.000
    3  0.000  0.000  0.000  0.000  0.000  0.000  0.000  0.000  0.000  0.000
    4  0.000  0.000  0.118  0.000  0.000  0.000  0.000  0.000  0.000  0.118
    5  0.000  0.000  0.118  0.000  0.000  0.000  0.000  0.000  0.000  0.118
    6  0.000  0.000  0.118  0.000  0.000  0.000  0.000  0.000  0.000  0.118
    7  0.000  0.000  0.118  0.000  0.000  0.000  0.000  0.000  0.000  0.118
    8  0.000  0.000  0.000  0.000  0.000  0.000  0.000  0.000  0.000  0.000
tot    0.000  0.000  0.473  0.000  0.000  0.000  0.000  0.000  0.000  0.473
 
band    15 # energy   -5.08201298 # occ.  2.00000000
 
ion      s     py     pz     px    dxy    dyz    dz2    dxz  x2-y2    tot
    1  0.000  0.093  0.000  0.031  0.000  0.000  0.000  0.000  0.000  0.123
    2  0.000  0.092  0.000  0.031  0.000  0.000  0.000  0.000  0.000  0.123
    3  0.000  0.066  0.000  0.022  0.000  0.000  0.000  0.000  0.000  0.088
    4  0.003  0.063  0.000  0.026  0.000  0.000  0.000  0.000  0.000  0.092
    5  0.003  0.071  0.000  0.019  0.000  0.000  0.000  0.000  0.000  0.092
    6  0.003  0.071  0.000  0.019  0.000  0.000  0.000  0.000  0.000  0.092
    7  0.003  0.063  0.000  0.026  0.000  0.000  0.000  0.000  0.000  0.092
    8  0.000  0.066  0.000  0.022  0.000  0.000  0.000  0.000  0.000  0.088
tot    0.010  0.585  0.000  0.195  0.000  0.000  0.000  0.000  0.000  0.791
 
band    16 # energy   -3.44523231 # occ.  0.00098043
 
ion      s     py     pz     px    dxy    dyz    dz2    dxz  x2-y2    tot
    1  0.000  0.000  0.116  0.000  0.000  0.000  0.000  0.000  0.000  0.116
    2  0.000  0.000  0.116  0.000  0.000  0.000  0.000  0.000  0.000  0.116
    3  0.000  0.000  0.099  0.000  0.000  0.000  0.000  0.000  0.000  0.099
    4  0.000  0.000  0.006  0.000  0.000  0.000  0.000  0.000  0.000  0.006
    5  0.000  0.000  0.006  0.000  0.000  0.000  0.000  0.000  0.000  0.006
    6  0.000  0.000  0.006  0.000  0.000  0.000  0.000  0.000  0.000  0.006
    7  0.000  0.000  0.006  0.000  0.000  0.000  0.000  0.000  0.000  0.006
    8  0.000  0.000  0.099  0.000  0.000  0.000  0.000  0.000  0.000  0.099
tot    0.000  0.000  0.456  0.000  0.000  0.000  0.000  0.000  0.000  0.456
 
band    17 # energy    0.01170255 # occ.  0.00000000
 
ion      s     py     pz     px    dxy    dyz    dz2    dxz  x2-y2    tot
    1  0.000  0.000  0.000  0.000  0.000  0.000  0.000  0.000  0.000  0.000
    2  0.000  0.000  0.000  0.000  0.000  0.000  0.000  0.000  0.000  0.000
    3  0.000  0.000  0.000  0.000  0.000  0.000  0.000  0.000  0.000  0.000
    4  0.000  0.000  0.124  0.000  0.000  0.000  0.000  0.000  0.000  0.124
    5  0.000  0.000  0.124  0.000  0.000  0.000  0.000  0.000  0.000  0.124
    6  0.000  0.000  0.124  0.000  0.000  0.000  0.000  0.000  0.000  0.124
    7  0.000  0.000  0.124  0.000  0.000  0.000  0.000  0.000  0.000  0.124
    8  0.000  0.000  0.000  0.000  0.000  0.000  0.000  0.000  0.000  0.000
tot    0.000  0.000  0.495  0.000  0.000  0.000  0.000  0.000  0.000  0.495
 
band    18 # energy    0.77209306 # occ.  0.00000000
 
ion      s     py     pz     px    dxy    dyz    dz2    dxz  x2-y2    tot
    1  0.000  0.000  0.114  0.000  0.000  0.000  0.000  0.000  0.000  0.114
    2  0.000  0.000  0.114  0.000  0.000  0.000  0.000  0.000  0.000  0.114
    3  0.000  0.000  0.115  0.000  0.000  0.000  0.000  0.000  0.000  0.115
    4  0.000  0.000  0.000  0.000  0.000  0.000  0.000  0.000  0.000  0.000
    5  0.000  0.000  0.000  0.000  0.000  0.000  0.000  0.000  0.000  0.000
    6  0.000  0.000  0.000  0.000  0.000  0.000  0.000  0.000  0.000  0.000
    7  0.000  0.000  0.000  0.000  0.000  0.000  0.000  0.000  0.000  0.000
    8  0.000  0.000  0.115  0.000  0.000  0.000  0.000  0.000  0.000  0.115
tot    0.000  0.000  0.458  0.000  0.000  0.000  0.000  0.000  0.000  0.458
 
band    19 # energy    1.23350927 # occ.  0.00000000
 
ion      s     py     pz     px    dxy    dyz    dz2    dxz  x2-y2    tot
    1  0.001  0.000  0.000  0.000  0.000  0.000  0.000  0.000  0.000  0.001
    2  0.001  0.000  0.000  0.000  0.000  0.000  0.000  0.000  0.000  0.001
    3  0.002  0.000  0.000  0.001  0.000  0.000  0.000  0.000  0.000  0.003
    4  0.003  0.000  0.000  0.001  0.000  0.000  0.000  0.000  0.000  0.004
    5  0.003  0.001  0.000  0.000  0.000  0.000  0.000  0.000  0.000  0.004
    6  0.003  0.001  0.000  0.000  0.000  0.000  0.000  0.000  0.000  0.004
    7  0.003  0.000  0.000  0.001  0.000  0.000  0.000  0.000  0.000  0.004
    8  0.002  0.000  0.000  0.001  0.000  0.000  0.000  0.000  0.000  0.003
tot    0.018  0.002  0.000  0.003  0.000  0.000  0.000  0.000  0.000  0.024
 
band    20 # energy    1.98284228 # occ.  0.00000000
 
ion      s     py     pz     px    dxy    dyz    dz2    dxz  x2-y2    tot
    1  0.000  0.000  0.009  0.000  0.000  0.000  0.000  0.000  0.000  0.009
    2  0.000  0.000  0.009  0.000  0.000  0.000  0.000  0.000  0.000  0.009
    3  0.000  0.000  0.007  0.000  0.000  0.000  0.000  0.000  0.000  0.007
    4  0.000  0.000  0.016  0.000  0.000  0.000  0.000  0.000  0.000  0.016
    5  0.000  0.000  0.016  0.000  0.000  0.000  0.000  0.000  0.000  0.016
    6  0.000  0.000  0.016  0.000  0.000  0.000  0.000  0.000  0.000  0.016
    7  0.000  0.000  0.016  0.000  0.000  0.000  0.000  0.000  0.000  0.016
    8  0.000  0.000  0.007  0.000  0.000  0.000  0.000  0.000  0.000  0.007
tot    0.000  0.000  0.095  0.000  0.000  0.000  0.000  0.000  0.000  0.095
 
band    21 # energy    2.32706858 # occ.  0.00000000
 
ion      s     py     pz     px    dxy    dyz    dz2    dxz  x2-y2    tot
    1  0.000  0.000  0.000  0.000  0.000  0.000  0.000  0.000  0.000  0.000
    2  0.000  0.000  0.000  0.000  0.000  0.000  0.000  0.000  0.000  0.000
    3  0.000  0.000  0.000  0.000  0.000  0.000  0.000  0.000  0.000  0.000
    4  0.000  0.000  0.000  0.000  0.000  0.000  0.000  0.000  0.000  0.001
    5  0.000  0.000  0.000  0.000  0.000  0.000  0.000  0.000  0.000  0.001
    6  0.000  0.000  0.000  0.000  0.000  0.000  0.000  0.000  0.000  0.001
    7  0.000  0.000  0.000  0.000  0.000  0.000  0.000  0.000  0.000  0.001
    8  0.000  0.000  0.000  0.000  0.000  0.000  0.000  0.000  0.000  0.000
tot    0.002  0.000  0.000  0.000  0.000  0.000  0.000  0.000  0.000  0.003
 
band    22 # energy    2.63459177 # occ.  0.00000000
 
ion      s     py     pz     px    dxy    dyz    dz2    dxz  x2-y2    tot
    1  0.000  0.000  0.060  0.000  0.000  0.000  0.000  0.000  0.000  0.060
    2  0.000  0.000  0.060  0.000  0.000  0.000  0.000  0.000  0.000  0.060
    3  0.000  0.000  0.043  0.000  0.000  0.000  0.000  0.000  0.000  0.043
    4  0.000  0.000  0.054  0.000  0.000  0.000  0.000  0.000  0.000  0.054
    5  0.000  0.000  0.054  0.000  0.000  0.000  0.000  0.000  0.000  0.054
    6  0.000  0.000  0.054  0.000  0.000  0.000  0.000  0.000  0.000  0.054
    7  0.000  0.000  0.054  0.000  0.000  0.000  0.000  0.000  0.000  0.054
    8  0.000  0.000  0.043  0.000  0.000  0.000  0.000  0.000  0.000  0.043
tot    0.000  0.000  0.422  0.000  0.000  0.000  0.000  0.000  0.000  0.422
 
band    23 # energy    3.34623985 # occ.  0.00000000
 
ion      s     py     pz     px    dxy    dyz    dz2    dxz  x2-y2    tot
    1  0.000  0.000  0.018  0.000  0.000  0.000  0.000  0.000  0.000  0.018
    2  0.000  0.000  0.018  0.000  0.000  0.000  0.000  0.000  0.000  0.018
    3  0.000  0.000  0.006  0.000  0.000  0.000  0.000  0.000  0.000  0.006
    4  0.000  0.000  0.001  0.000  0.000  0.000  0.000  0.000  0.000  0.001
    5  0.000  0.000  0.001  0.000  0.000  0.000  0.000  0.000  0.000  0.001
    6  0.000  0.000  0.001  0.000  0.000  0.000  0.000  0.000  0.000  0.001
    7  0.000  0.000  0.001  0.000  0.000  0.000  0.000  0.000  0.000  0.001
    8  0.000  0.000  0.006  0.000  0.000  0.000  0.000  0.000  0.000  0.006
tot    0.000  0.000  0.053  0.000  0.000  0.000  0.000  0.000  0.000  0.053
 
band    24 # energy    3.66074239 # occ.  0.00000000
 
ion      s     py     pz     px    dxy    dyz    dz2    dxz  x2-y2    tot
    1  0.000  0.000  0.000  0.000  0.000  0.000  0.000  0.000  0.000  0.001
    2  0.000  0.000  0.000  0.000  0.000  0.000  0.000  0.000  0.000  0.001
    3  0.001  0.001  0.000  0.002  0.000  0.000  0.000  0.000  0.000  0.003
    4  0.003  0.000  0.000  0.002  0.000  0.000  0.000  0.000  0.000  0.005
    5  0.003  0.001  0.000  0.001  0.000  0.000  0.000  0.000  0.000  0.005
    6  0.003  0.001  0.000  0.001  0.000  0.000  0.000  0.000  0.000  0.005
    7  0.003  0.000  0.000  0.002  0.000  0.000  0.000  0.000  0.000  0.005
    8  0.001  0.001  0.000  0.002  0.000  0.000  0.000  0.000  0.000  0.004
tot    0.014  0.004  0.000  0.011  0.000  0.000  0.000  0.000  0.000  0.029
 

 k-point     2 :   -0.32225806 0.64548387 0.00000000     weight = 0.01041667

band     1 # energy  -19.92296682 # occ.  2.00000000
 
ion      s     py     pz     px    dxy    dyz    dz2    dxz  x2-y2    tot
    1  0.014  0.002  0.000  0.004  0.000  0.000  0.000  0.000  0.000  0.020
    2  0.014  0.002  0.000  0.004  0.000  0.000  0.000  0.000  0.000  0.020
    3  0.086  0.002  0.000  0.007  0.000  0.000  0.000  0.000  0.000  0.095
    4  0.098  0.001  0.000  0.006  0.000  0.000  0.000  0.000  0.000  0.106
    5  0.097  0.007  0.000  0.000  0.000  0.000  0.000  0.000  0.000  0.105
    6  0.097  0.007  0.000  0.000  0.000  0.000  0.000  0.000  0.000  0.105
    7  0.098  0.001  0.000  0.006  0.000  0.000  0.000  0.000  0.000  0.106
    8  0.086  0.002  0.000  0.007  0.000  0.000  0.000  0.000  0.000  0.095
tot    0.593  0.025  0.000  0.033  0.000  0.000  0.000  0.000  0.000  0.651
 
band     2 # energy  -17.67338677 # occ.  2.00000000
 
ion      s     py     pz     px    dxy    dyz    dz2    dxz  x2-y2    tot
    1  0.037  0.001  0.000  0.007  0.000  0.000  0.000  0.000  0.000  0.045
    2  0.037  0.001  0.000  0.007  0.000  0.000  0.000  0.000  0.000  0.045
    3  0.156  0.001  0.000  0.003  0.000  0.000  0.000  0.000  0.000  0.159
    4  0.042  0.012  0.000  0.006  0.000  0.000  0.000  0.000  0.000  0.060
    5  0.052  0.001  0.000  0.016  0.000  0.000  0.000  0.000  0.000  0.070
    6  0.052  0.001  0.000  0.016  0.000  0.000  0.000  0.000  0.000  0.070
    7  0.042  0.012  0.000  0.006  0.000  0.000  0.000  0.000  0.000  0.060
    8  0.156  0.001  0.000  0.003  0.000  0.000  0.000  0.000  0.000  0.159
tot    0.574  0.031  0.000  0.063  0.000  0.000  0.000  0.000  0.000  0.668
 
band     3 # energy  -16.81801776 # occ.  2.00000000
 
ion      s     py     pz     px    dxy    dyz    dz2    dxz  x2-y2    tot
    1  0.001  0.018  0.000  0.005  0.000  0.000  0.000  0.000  0.000  0.024
    2  0.001  0.018  0.000  0.005  0.000  0.000  0.000  0.000  0.000  0.024
    3  0.001  0.027  0.000  0.008  0.000  0.000  0.000  0.000  0.000  0.036
    4  0.144  0.001  0.000  0.005  0.000  0.000  0.000  0.000  0.000  0.150
    5  0.132  0.003  0.000  0.004  0.000  0.000  0.000  0.000  0.000  0.139
    6  0.132  0.003  0.000  0.004  0.000  0.000  0.000  0.000  0.000  0.139
    7  0.144  0.001  0.000  0.005  0.000  0.000  0.000  0.000  0.000  0.150
    8  0.001  0.027  0.000  0.008  0.000  0.000  0.000  0.000  0.000  0.036
tot    0.555  0.097  0.000  0.045  0.000  0.000  0.000  0.000  0.000  0.696
 
band     4 # energy  -14.49219215 # occ.  2.00000000
 
ion      s     py     pz     px    dxy    dyz    dz2    dxz  x2-y2    tot
    1  0.080  0.001  0.000  0.006  0.000  0.000  0.000  0.000  0.000  0.088
    2  0.080  0.001  0.000  0.006  0.000  0.000  0.000  0.000  0.000  0.088
    3  0.102  0.000  0.000  0.000  0.000  0.000  0.000  0.000  0.000  0.102
    4  0.015  0.055  0.000  0.001  0.000  0.000  0.000  0.000  0.000  0.071
    5  0.017  0.014  0.000  0.040  0.000  0.000  0.000  0.000  0.000  0.072
    6  0.017  0.014  0.000  0.040  0.000  0.000  0.000  0.000  0.000  0.072
    7  0.015  0.055  0.000  0.001  0.000  0.000  0.000  0.000  0.000  0.071
    8  0.102  0.000  0.000  0.000  0.000  0.000  0.000  0.000  0.000  0.102
tot    0.428  0.142  0.000  0.096  0.000  0.000  0.000  0.000  0.000  0.665
 
band     5 # energy  -12.87584106 # occ.  2.00000000
 
ion      s     py     pz     px    dxy    dyz    dz2    dxz  x2-y2    tot
    1  0.002  0.025  0.000  0.012  0.000  0.000  0.000  0.000  0.000  0.039
    2  0.002  0.025  0.000  0.012  0.000  0.000  0.000  0.000  0.000  0.039
    3  0.001  0.059  0.000  0.028  0.000  0.000  0.000  0.000  0.000  0.088
    4  0.081  0.010  0.000  0.022  0.000  0.000  0.000  0.000  0.000  0.113
    5  0.081  0.001  0.000  0.031  0.000  0.000  0.000  0.000  0.000  0.113
    6  0.081  0.001  0.000  0.031  0.000  0.000  0.000  0.000  0.000  0.113
    7  0.081  0.010  0.000  0.022  0.000  0.000  0.000  0.000  0.000  0.113
    8  0.001  0.059  0.000  0.028  0.000  0.000  0.000  0.000  0.000  0.088
tot    0.328  0.192  0.000  0.187  0.000  0.000  0.000  0.000  0.000  0.707
 
band     6 # energy  -11.26150505 # occ.  2.00000000
 
ion      s     py     pz     px    dxy    dyz    dz2    dxz  x2-y2    tot
    1  0.093  0.008  0.000  0.010  0.000  0.000  0.000  0.000  0.000  0.111
    2  0.093  0.008  0.000  0.010  0.000  0.000  0.000  0.000  0.000  0.111
    3  0.037  0.025  0.000  0.045  0.000  0.000  0.000  0.000  0.000  0.107
    4  0.002  0.021  0.000  0.034  0.000  0.000  0.000  0.000  0.000  0.057
    5  0.001  0.054  0.000  0.008  0.000  0.000  0.000  0.000  0.000  0.063
    6  0.001  0.054  0.000  0.008  0.000  0.000  0.000  0.000  0.000  0.063
    7  0.002  0.021  0.000  0.034  0.000  0.000  0.000  0.000  0.000  0.057
    8  0.037  0.025  0.000  0.045  0.000  0.000  0.000  0.000  0.000  0.107
tot    0.266  0.214  0.000  0.194  0.000  0.000  0.000  0.000  0.000  0.674
 
band     7 # energy   -9.90172513 # occ.  2.00000000
 
ion      s     py     pz     px    dxy    dyz    dz2    dxz  x2-y2    tot
    1  0.002  0.016  0.000  0.001  0.000  0.000  0.000  0.000  0.000  0.019
    2  0.002  0.016  0.000  0.001  0.000  0.000  0.000  0.000  0.000  0.019
    3  0.001  0.068  0.000  0.016  0.000  0.000  0.000  0.000  0.000  0.085
    4  0.011  0.069  0.000  0.048  0.000  0.000  0.000  0.000  0.000  0.127
    5  0.007  0.015  0.000  0.103  0.000  0.000  0.000  0.000  0.000  0.126
    6  0.007  0.015  0.000  0.103  0.000  0.000  0.000  0.000  0.000  0.126
    7  0.011  0.069  0.000  0.048  0.000  0.000  0.000  0.000  0.000  0.127
    8  0.001  0.068  0.000  0.016  0.000  0.000  0.000  0.000  0.000  0.085
tot    0.043  0.336  0.000  0.336  0.000  0.000  0.000  0.000  0.000  0.715
 
band     8 # energy   -9.73516434 # occ.  2.00000000
 
ion      s     py     pz     px    dxy    dyz    dz2    dxz  x2-y2    tot
    1  0.094  0.012  0.000  0.036  0.000  0.000  0.000  0.000  0.000  0.141
    2  0.094  0.012  0.000  0.036  0.000  0.000  0.000  0.000  0.000  0.141
    3  0.030  0.008  0.000  0.006  0.000  0.000  0.000  0.000  0.000  0.044
    4  0.023  0.015  0.000  0.056  0.000  0.000  0.000  0.000  0.000  0.094
    5  0.028  0.026  0.000  0.030  0.000  0.000  0.000  0.000  0.000  0.085
    6  0.028  0.026  0.000  0.030  0.000  0.000  0.000  0.000  0.000  0.085
    7  0.023  0.015  0.000  0.056  0.000  0.000  0.000  0.000  0.000  0.094
    8  0.030  0.008  0.000  0.006  0.000  0.000  0.000  0.000  0.000  0.044
tot    0.352  0.122  0.000  0.256  0.000  0.000  0.000  0.000  0.000  0.730
 
band     9 # energy   -8.46947668 # occ.  2.00000000
 
ion      s     py     pz     px    dxy    dyz    dz2    dxz  x2-y2    tot
    1  0.000  0.000  0.024  0.000  0.000  0.000  0.000  0.000  0.000  0.024
    2  0.000  0.000  0.024  0.000  0.000  0.000  0.000  0.000  0.000  0.024
    3  0.000  0.000  0.059  0.000  0.000  0.000  0.000  0.000  0.000  0.059
    4  0.000  0.000  0.065  0.000  0.000  0.000  0.000  0.000  0.000  0.065
    5  0.000  0.000  0.064  0.000  0.000  0.000  0.000  0.000  0.000  0.064
    6  0.000  0.000  0.064  0.000  0.000  0.000  0.000  0.000  0.000  0.064
    7  0.000  0.000  0.065  0.000  0.000  0.000  0.000  0.000  0.000  0.065
    8  0.000  0.000  0.059  0.000  0.000  0.000  0.000  0.000  0.000  0.059
tot    0.000  0.000  0.424  0.000  0.000  0.000  0.000  0.000  0.000  0.424
 
band    10 # energy   -8.31891492 # occ.  2.00000000
 
ion      s     py     pz     px    dxy    dyz    dz2    dxz  x2-y2    tot
    1  0.031  0.023  0.000  0.070  0.000  0.000  0.000  0.000  0.000  0.124
    2  0.031  0.023  0.000  0.070  0.000  0.000  0.000  0.000  0.000  0.124
    3  0.015  0.025  0.000  0.120  0.000  0.000  0.000  0.000  0.000  0.159
    4  0.002  0.015  0.000  0.015  0.000  0.000  0.000  0.000  0.000  0.031
    5  0.001  0.028  0.000  0.013  0.000  0.000  0.000  0.000  0.000  0.042
    6  0.001  0.028  0.000  0.013  0.000  0.000  0.000  0.000  0.000  0.042
    7  0.002  0.015  0.000  0.015  0.000  0.000  0.000  0.000  0.000  0.031
    8  0.015  0.025  0.000  0.120  0.000  0.000  0.000  0.000  0.000  0.159
tot    0.098  0.180  0.000  0.436  0.000  0.000  0.000  0.000  0.000  0.714
 
band    11 # energy   -6.72800992 # occ.  2.00000000
 
ion      s     py     pz     px    dxy    dyz    dz2    dxz  x2-y2    tot
    1  0.000  0.083  0.000  0.023  0.000  0.000  0.000  0.000  0.000  0.106
    2  0.000  0.083  0.000  0.023  0.000  0.000  0.000  0.000  0.000  0.106
    3  0.000  0.035  0.000  0.007  0.000  0.000  0.000  0.000  0.000  0.042
    4  0.001  0.055  0.000  0.060  0.000  0.000  0.000  0.000  0.000  0.116
    5  0.003  0.105  0.000  0.007  0.000  0.000  0.000  0.000  0.000  0.115
    6  0.003  0.105  0.000  0.007  0.000  0.000  0.000  0.000  0.000  0.115
    7  0.001  0.055  0.000  0.060  0.000  0.000  0.000  0.000  0.000  0.116
    8  0.000  0.035  0.000  0.007  0.000  0.000  0.000  0.000  0.000  0.042
tot    0.008  0.556  0.000  0.194  0.000  0.000  0.000  0.000  0.000  0.757
 
band    12 # energy   -6.41278555 # occ.  2.00000000
 
ion      s     py     pz     px    dxy    dyz    dz2    dxz  x2-y2    tot
    1  0.000  0.000  0.032  0.000  0.000  0.000  0.000  0.000  0.000  0.032
    2  0.000  0.000  0.032  0.000  0.000  0.000  0.000  0.000  0.000  0.032
    3  0.000  0.000  0.103  0.000  0.000  0.000  0.000  0.000  0.000  0.103
    4  0.000  0.000  0.040  0.000  0.000  0.000  0.000  0.000  0.000  0.040
    5  0.000  0.000  0.046  0.000  0.000  0.000  0.000  0.000  0.000  0.046
    6  0.000  0.000  0.046  0.000  0.000  0.000  0.000  0.000  0.000  0.046
    7  0.000  0.000  0.040  0.000  0.000  0.000  0.000  0.000  0.000  0.040
    8  0.000  0.000  0.103  0.000  0.000  0.000  0.000  0.000  0.000  0.103
tot    0.000  0.000  0.443  0.000  0.000  0.000  0.000  0.000  0.000  0.443
 
band    13 # energy   -6.22100521 # occ.  2.00000000
 
ion      s     py     pz     px    dxy    dyz    dz2    dxz  x2-y2    tot
    1  0.023  0.019  0.000  0.079  0.000  0.000  0.000  0.000  0.000  0.121
    2  0.023  0.019  0.000  0.079  0.000  0.000  0.000  0.000  0.000  0.121
    3  0.010  0.022  0.000  0.063  0.000  0.000  0.000  0.000  0.000  0.094