<?xml version="1.0" encoding="ISO-8859-1"?>
<modeling>
 <generator>
  <i name="program" type="string">vasp </i>
  <i name="version" type="string">5.4.4.18Apr17-6-g9f103f2a35  </i>
  <i name="subversion" type="string">(build Mar 30 2023 15:39:25) complex            parallel </i>
  <i name="platform" type="string">LinuxIFC </i>
  <i name="date" type="string">2023 05 25 </i>
  <i name="time" type="string">15:33:16 </i>
 </generator>
 <incar>
  <i type="string" name="SYSTEM"> BC3 bandstructure</i>
  <i type="int" name="ISTART">     0</i>
  <i type="string" name="PREC">accurate</i>
  <i type="int" name="ICHARG">    11</i>
  <i name="EDIFF">      0.00000100</i>
  <i name="EDIFFG">     -0.00000100</i>
  <i name="ENCUT">    450.00000000</i>
  <i type="int" name="ISMEAR">     0</i>
  <i name="SIGMA">      0.20000000</i>
  <i type="int" name="LORBIT">    11</i>
  <v type="int" name="KPOINT_BSE">    -1     0     0     0</v>
 </incar>
 <structure name="primitive_cell" >
  <crystal>
   <varray name="basis" >
    <v>       5.17400000       0.00000000       0.00000000 </v>
    <v>       2.58700000       4.48100000       0.00000000 </v>
    <v>       0.00000000       0.00000000      20.00000000 </v>
   </varray>
   <i name="volume">    463.69388000 </i>
   <varray name="rec_basis" >
    <v>       0.19327406      -0.11158224       0.00000000 </v>
    <v>       0.00000000       0.22316447       0.00000000 </v>
    <v>       0.00000000       0.00000000       0.05000000 </v>
   </varray>
  </crystal>
  <varray name="positions" >
   <v>       0.17457326       0.17462620       0.00000000 </v>
   <v>       0.00000000       0.00000000       0.00000000 </v>
   <v>      -0.47622729       0.00000000       0.00000000 </v>
   <v>      -0.00005294      -0.47612140       0.00000000 </v>
   <v>      -0.31744862       0.15866994       0.00000000 </v>
   <v>      -0.31750156      -0.31745146       0.00000000 </v>
   <v>       0.15872573      -0.31745146       0.00000000 </v>
   <v>      -0.49207481      -0.49207766       0.00000000 </v>
  </varray>
 </structure>
 <varray name="primitive_index" >
  <v type="int" >        1 </v>
  <v type="int" >        3 </v>
  <v type="int" >        4 </v>
  <v type="int" >        6 </v>
  <v type="int" >        5 </v>
  <v type="int" >        8 </v>
  <v type="int" >        7 </v>
  <v type="int" >        2 </v>
 </varray>
 <kpoints>
  <generation param="listgenerated">
   <i name="divisions" type="int">      32 </i>
   <v>      -0.33300000       0.66700000       0.00000000 </v>
   <v>       0.00000000       0.00000000       0.00000000 </v>
   <v>       0.50000000       0.00000000       0.00000000 </v>
   <v>      -0.33300000       0.66700000       0.00000000 </v>
  </generation>
  <varray name="kpointlist" >
   <v>      -0.33300000       0.66700000       0.00000000 </v>
   <v>      -0.32225806       0.64548387       0.00000000 </v>
   <v>      -0.31151613       0.62396774       0.00000000 </v>
   <v>      -0.30077419       0.60245161       0.00000000 </v>
   <v>      -0.29003226       0.58093548       0.00000000 </v>
   <v>      -0.27929032       0.55941935       0.00000000 </v>
   <v>      -0.26854839       0.53790323       0.00000000 </v>
   <v>      -0.25780645       0.51638710       0.00000000 </v>
   <v>      -0.24706452       0.49487097       0.00000000 </v>
   <v>      -0.23632258       0.47335484       0.00000000 </v>
   <v>      -0.22558065       0.45183871       0.00000000 </v>
   <v>      -0.21483871       0.43032258       0.00000000 </v>
   <v>      -0.20409677       0.40880645       0.00000000 </v>
   <v>      -0.19335484       0.38729032       0.00000000 </v>
   <v>      -0.18261290       0.36577419       0.00000000 </v>
   <v>      -0.17187097       0.34425806       0.00000000 </v>
   <v>      -0.16112903       0.32274194       0.00000000 </v>
   <v>      -0.15038710       0.30122581       0.00000000 </v>
   <v>      -0.13964516       0.27970968       0.00000000 </v>
   <v>      -0.12890323       0.25819355       0.00000000 </v>
   <v>      -0.11816129       0.23667742       0.00000000 </v>
   <v>      -0.10741935       0.21516129       0.00000000 </v>
   <v>      -0.09667742       0.19364516       0.00000000 </v>
   <v>      -0.08593548       0.17212903       0.00000000 </v>
   <v>      -0.07519355       0.15061290       0.00000000 </v>
   <v>      -0.06445161       0.12909677       0.00000000 </v>
   <v>      -0.05370968       0.10758065       0.00000000 </v>
   <v>      -0.04296774       0.08606452       0.00000000 </v>
   <v>      -0.03222581       0.06454839       0.00000000 </v>
   <v>      -0.02148387       0.04303226       0.00000000 </v>
   <v>      -0.01074194       0.02151613       0.00000000 </v>
   <v>       0.00000000       0.00000000       0.00000000 </v>
   <v>       0.00000000       0.00000000       0.00000000 </v>
   <v>       0.01612903       0.00000000       0.00000000 </v>
   <v>       0.03225806       0.00000000       0.00000000 </v>
   <v>       0.04838710       0.00000000       0.00000000 </v>
   <v>       0.06451613       0.00000000       0.00000000 </v>
   <v>       0.08064516       0.00000000       0.00000000 </v>
   <v>       0.09677419       0.00000000       0.00000000 </v>
   <v>       0.11290323       0.00000000       0.00000000 </v>
   <v>       0.12903226       0.00000000       0.00000000 </v>
   <v>       0.14516129       0.00000000       0.00000000 </v>
   <v>       0.16129032       0.00000000       0.00000000 </v>
   <v>       0.17741935       0.00000000       0.00000000 </v>
   <v>       0.19354839       0.00000000       0.00000000 </v>
   <v>       0.20967742       0.00000000       0.00000000 </v>
   <v>       0.22580645       0.00000000       0.00000000 </v>
   <v>       0.24193548       0.00000000       0.00000000 </v>
   <v>       0.25806452       0.00000000       0.00000000 </v>
   <v>       0.27419355       0.00000000       0.00000000 </v>
   <v>       0.29032258       0.00000000       0.00000000 </v>
   <v>       0.30645161       0.00000000       0.00000000 </v>
   <v>       0.32258065       0.00000000       0.00000000 </v>
   <v>       0.33870968       0.00000000       0.00000000 </v>
   <v>       0.35483871       0.00000000       0.00000000 </v>
   <v>       0.37096774       0.00000000       0.00000000 </v>
   <v>       0.38709677       0.00000000       0.00000000 </v>
   <v>       0.40322581       0.00000000       0.00000000 </v>
   <v>       0.41935484       0.00000000       0.00000000 </v>
   <v>       0.43548387       0.00000000       0.00000000 </v>
   <v>       0.45161290       0.00000000       0.00000000 </v>
   <v>       0.46774194       0.00000000       0.00000000 </v>
   <v>       0.48387097       0.00000000       0.00000000 </v>
   <v>       0.50000000       0.00000000       0.00000000 </v>
   <v>       0.50000000       0.00000000       0.00000000 </v>
   <v>       0.47312903       0.02151613       0.00000000 </v>
   <v>       0.44625806       0.04303226       0.00000000 </v>
   <v>       0.41938710       0.06454839       0.00000000 </v>
   <v>       0.39251613       0.08606452       0.00000000 </v>
   <v>       0.36564516       0.10758065       0.00000000 </v>
   <v>       0.33877419       0.12909677       0.00000000 </v>
   <v>       0.31190323       0.15061290       0.00000000 </v>
   <v>       0.28503226       0.17212903       0.00000000 </v>
   <v>       0.25816129       0.19364516       0.00000000 </v>
   <v>       0.23129032       0.21516129       0.00000000 </v>
   <v>       0.20441935       0.23667742       0.00000000 </v>
   <v>       0.17754839       0.25819355       0.00000000 </v>
   <v>       0.15067742       0.27970968       0.00000000 </v>
   <v>       0.12380645       0.30122581       0.00000000 </v>
   <v>       0.09693548       0.32274194       0.00000000 </v>
   <v>       0.07006452       0.34425806       0.00000000 </v>
   <v>       0.04319355       0.36577419       0.00000000 </v>
   <v>       0.01632258       0.38729032       0.00000000 </v>
   <v>      -0.01054839       0.40880645       0.00000000 </v>
   <v>      -0.03741935       0.43032258       0.00000000 </v>
   <v>      -0.06429032       0.45183871       0.00000000 </v>
   <v>      -0.09116129       0.47335484       0.00000000 </v>
   <v>      -0.11803226       0.49487097       0.00000000 </v>
   <v>      -0.14490323       0.51638710       0.00000000 </v>
   <v>      -0.17177419       0.53790323       0.00000000 </v>
   <v>      -0.19864516       0.55941935       0.00000000 </v>
   <v>      -0.22551613       0.58093548       0.00000000 </v>
   <v>      -0.25238710       0.60245161       0.00000000 </v>
   <v>      -0.27925806       0.62396774       0.00000000 </v>
   <v>      -0.30612903       0.64548387       0.00000000 </v>
   <v>      -0.33300000       0.66700000       0.00000000 </v>
  </varray>
  <varray name="weights" >
   <v>       0.01041667 </v>
   <v>       0.01041667 </v>
   <v>       0.01041667 </v>
   <v>       0.01041667 </v>
   <v>       0.01041667 </v>
   <v>       0.01041667 </v>
   <v>       0.01041667 </v>
   <v>       0.01041667 </v>
   <v>       0.01041667 </v>
   <v>       0.01041667 </v>
   <v>       0.01041667 </v>
   <v>       0.01041667 </v>
   <v>       0.01041667 </v>
   <v>       0.01041667 </v>
   <v>       0.01041667 </v>
   <v>       0.01041667 </v>
   <v>       0.01041667 </v>
   <v>       0.01041667 </v>
   <v>       0.01041667 </v>
   <v>       0.01041667 </v>
   <v>       0.01041667 </v>
   <v>       0.01041667 </v>
   <v>       0.01041667 </v>
   <v>       0.01041667 </v>
   <v>       0.01041667 </v>
   <v>       0.01041667 </v>
   <v>       0.01041667 </v>
   <v>       0.01041667 </v>
   <v>       0.01041667 </v>
   <v>       0.01041667 </v>
   <v>       0.01041667 </v>
   <v>       0.01041667 </v>
   <v>       0.01041667 </v>
   <v>       0.01041667 </v>
   <v>       0.01041667 </v>
   <v>       0.01041667 </v>
   <v>       0.01041667 </v>
   <v>       0.01041667 </v>
   <v>       0.01041667 </v>
   <v>       0.01041667 </v>
   <v>       0.01041667 </v>
   <v>       0.01041667 </v>
   <v>       0.01041667 </v>
   <v>       0.01041667 </v>
   <v>       0.01041667 </v>
   <v>       0.01041667 </v>
   <v>       0.01041667 </v>
   <v>       0.01041667 </v>
   <v>       0.01041667 </v>
   <v>       0.01041667 </v>
   <v>       0.01041667 </v>
   <v>       0.01041667 </v>
   <v>       0.01041667 </v>
   <v>       0.01041667 </v>
   <v>       0.01041667 </v>
   <v>       0.01041667 </v>
   <v>       0.01041667 </v>
   <v>       0.01041667 </v>
   <v>       0.01041667 </v>
   <v>       0.01041667 </v>
   <v>       0.01041667 </v>
   <v>       0.01041667 </v>
   <v>       0.01041667 </v>
   <v>       0.01041667 </v>
   <v>       0.01041667 </v>
   <v>       0.01041667 </v>
   <v>       0.01041667 </v>
   <v>       0.01041667 </v>
   <v>       0.01041667 </v>
   <v>       0.01041667 </v>
   <v>       0.01041667 </v>
   <v>       0.01041667 </v>
   <v>       0.01041667 </v>
   <v>       0.01041667 </v>
   <v>       0.01041667 </v>
   <v>       0.01041667 </v>
   <v>       0.01041667 </v>
   <v>       0.01041667 </v>
   <v>       0.01041667 </v>
   <v>       0.01041667 </v>
   <v>       0.01041667 </v>
   <v>       0.01041667 </v>
   <v>       0.01041667 </v>
   <v>       0.01041667 </v>
   <v>       0.01041667 </v>
   <v>       0.01041667 </v>
   <v>       0.01041667 </v>
   <v>       0.01041667 </v>
   <v>       0.01041667 </v>
   <v>       0.01041667 </v>
   <v>       0.01041667 </v>
   <v>       0.01041667 </v>
   <v>       0.01041667 </v>
   <v>       0.01041667 </v>
   <v>       0.01041667 </v>
   <v>       0.01041667 </v>
  </varray>
 </kpoints>
 <parameters>
  <separator name="general" >
   <i type="string" name="SYSTEM">BC3 bandstructure</i>
   <i type="logical" name="LCOMPAT"> F  </i>
  </separator>
  <separator name="electronic" >
   <i type="string" name="PREC">accura</i>
   <i name="ENMAX">    450.00000000</i>
   <i name="ENAUG">    644.87300000</i>
   <i name="EDIFF">      0.00000100</i>
   <i type="int" name="IALGO">    38</i>
   <i type="int" name="IWAVPR">    10</i>
   <i type="int" name="NBANDS">    24</i>
   <i name="NELECT">     30.00000000</i>
   <i type="int" name="TURBO">     0</i>
   <i type="int" name="IRESTART">     0</i>
   <i type="int" name="NREBOOT">     0</i>
   <i type="int" name="NMIN">     0</i>
   <i name="EREF">      0.00000000</i>
   <separator name="electronic smearing" >
    <i type="int" name="ISMEAR">     0</i>
    <i name="SIGMA">      0.20000000</i>
    <i name="KSPACING">      0.50000000</i>
    <i type="logical" name="KGAMMA"> T  </i>
   </separator>
   <separator name="electronic projectors" >
    <i type="logical" name="LREAL"> F  </i>
    <v name="ROPT">      0.00000000      0.00000000</v>
    <i type="int" name="LMAXPAW">  -100</i>
    <i type="int" name="LMAXMIX">     2</i>
    <i type="logical" name="NLSPLINE"> F  </i>
   </separator>
   <separator name="electronic startup" >
    <i type="int" name="ISTART">     0</i>
    <i type="int" name="ICHARG">    11</i>
    <i type="int" name="INIWAV">     1</i>
   </separator>
   <separator name="electronic spin" >
    <i type="int" name="ISPIN">     1</i>
    <i type="logical" name="LNONCOLLINEAR"> F  </i>
    <v name="MAGMOM">      1.00000000      1.00000000      1.00000000      1.00000000      1.00000000      1.00000000      1.00000000      1.00000000</v>
    <i name="NUPDOWN">     -1.00000000</i>
    <i type="logical" name="LSORBIT"> F  </i>
    <v name="SAXIS">      0.00000000      0.00000000      1.00000000</v>
    <i type="logical" name="LSPIRAL"> F  </i>
    <v name="QSPIRAL">      0.00000000      0.00000000      0.00000000</v>
    <i type="logical" name="LZEROZ"> F  </i>
   </separator>
   <separator name="electronic exchange-correlation" >
    <i type="logical" name="LASPH"> F  </i>
    <i type="logical" name="LMETAGGA"> F  </i>
   </separator>
   <separator name="electronic convergence" >
    <i type="int" name="NELM">    60</i>
    <i type="int" name="NELMDL">    -5</i>
    <i type="int" name="NELMIN">     2</i>
    <i name="ENINI">    450.00000000</i>
    <separator name="electronic convergence detail" >
     <i type="logical" name="LDIAG"> T  </i>
     <i type="logical" name="LSUBROT"> F  </i>
     <i name="WEIMIN">      0.00000000</i>
     <i name="EBREAK">      0.00000000</i>
     <i name="DEPER">      0.30000000</i>
     <i type="int" name="NRMM">     4</i>
     <i name="TIME">      0.40000000</i>
    </separator>
   </separator>
   <separator name="electronic mixer" >
    <i name="AMIX">      0.40000000</i>
    <i name="BMIX">      1.00000000</i>
    <i name="AMIN">      0.10000000</i>
    <i name="AMIX_MAG">      1.60000000</i>
    <i name="BMIX_MAG">      1.00000000</i>
    <separator name="electronic mixer details" >
     <i type="int" name="IMIX">     4</i>
     <i type="logical" name="MIXFIRST"> F  </i>
     <i type="int" name="MAXMIX">   -45</i>
     <i name="WC">    100.00000000</i>
     <i type="int" name="INIMIX">     1</i>
     <i type="int" name="MIXPRE">     1</i>
     <i type="int" name="MREMOVE">     5</i>
    </separator>
   </separator>
   <separator name="electronic dipolcorrection" >
    <i type="logical" name="LDIPOL"> F  </i>
    <i type="logical" name="LMONO"> F  </i>
    <i type="int" name="IDIPOL">     0</i>
    <i name="EPSILON">      1.00000000</i>
    <v name="DIPOL">   -100.00000000   -100.00000000   -100.00000000</v>
    <i name="EFIELD">      0.00000000</i>
   </separator>
  </separator>
  <separator name="grids" >
   <i type="int" name="NGX">    36</i>
   <i type="int" name="NGY">    36</i>
   <i type="int" name="NGZ">   140</i>
   <i type="int" name="NGXF">    72</i>
   <i type="int" name="NGYF">    72</i>
   <i type="int" name="NGZF">   280</i>
   <i type="logical" name="ADDGRID"> F  </i>
  </separator>
  <separator name="ionic" >
   <i type="int" name="NSW">     0</i>
   <i type="int" name="IBRION">    -1</i>
   <i type="int" name="MDALGO">     0</i>
   <i type="int" name="ISIF">     2</i>
   <i name="PSTRESS">      0.00000000</i>
   <i name="EDIFFG">     -0.00000100</i>
   <i type="int" name="NFREE">     0</i>
   <i name="POTIM">      0.50000000</i>
   <i name="SMASS">     -3.00000000</i>
   <i name="SCALEE">      1.00000000</i>
  </separator>
  <separator name="ionic md" >
   <i name="TEBEG">      0.00010000</i>
   <i name="TEEND">      0.00010000</i>
   <i type="int" name="NBLOCK">     1</i>
   <i type="int" name="KBLOCK">     1</i>
   <i type="int" name="NPACO">   256</i>
   <i name="APACO">     16.00000000</i>
  </separator>
  <separator name="symmetry" >
   <i type="int" name="ISYM">     2</i>
   <i name="SYMPREC">      0.00001000</i>
  </separator>
  <separator name="dos" >
   <i type="int" name="LORBIT">    11</i>
   <v name="RWIGS">     -1.00000000     -1.00000000</v>
   <i type="int" name="NEDOS">   301</i>
   <i name="EMIN">     10.00000000</i>
   <i name="EMAX">    -10.00000000</i>
   <i name="EFERMI">      0.00000000</i>
  </separator>
  <separator name="writing" >
   <i type="int" name="NWRITE">     2</i>
   <i type="logical" name="LWAVE"> T  </i>
   <i type="logical" name="LDOWNSAMPLE"> F  </i>
   <i type="logical" name="LCHARG"> T  </i>
   <i type="logical" name="LPARD"> F  </i>
   <i type="logical" name="LVTOT"> F  </i>
   <i type="logical" name="LVHAR"> F  </i>
   <i type="logical" name="LELF"> F  </i>
   <i type="logical" name="LOPTICS"> F  </i>
   <v name="STM">      0.00000000      0.00000000      0.00000000      0.00000000      0.00000000      0.00000000      0.00000000</v>
  </separator>
  <separator name="performance" >
   <i type="int" name="NPAR">    12</i>
   <i type="int" name="NSIM">     4</i>
   <i type="int" name="NBLK">    -1</i>
   <i type="logical" name="LPLANE"> T  </i>
   <i type="logical" name="LSCALAPACK"> T  </i>
   <i type="logical" name="LSCAAWARE"> F  </i>
   <i type="logical" name="LSCALU"> F  </i>
   <i type="logical" name="LASYNC"> F  </i>
   <i type="logical" name="LORBITALREAL"> F  </i>
  </separator>
  <separator name="miscellaneous" >
   <i type="int" name="IDIOT">     3</i>
   <i type="int" name="ISPECIAL">     0</i>
   <i type="logical" name="LMUSIC"> F  </i>
   <v name="POMASS">     10.81100000     12.01100000</v>
   <v name="DARWINR">      0.00000000      0.00000000</v>
   <v name="DARWINV">      1.00000000      1.00000000</v>
   <i type="logical" name="LCORR"> T  </i>
  </separator>
  <i type="logical" name="GGA_COMPAT"> T  </i>
  <i type="logical" name="LBERRY"> F  </i>
  <i type="int" name="ICORELEVEL">     0</i>
  <i type="logical" name="LDAU"> F  </i>
  <i type="int" name="I_CONSTRAINED_M">     0</i>
  <separator name="electronic exchange-correlation" >
   <i type="string" name="GGA">--</i>
   <i type="int" name="VOSKOWN">     0</i>
   <i type="logical" name="LHFCALC"> F  </i>
   <i type="string" name="PRECFOCK"></i>
   <i type="logical" name="LSYMGRAD"> F  </i>
   <i type="logical" name="LHFONE"> F  </i>
   <i type="logical" name="LRHFCALC"> F  </i>
   <i type="logical" name="LTHOMAS"> F  </i>
   <i type="logical" name="LMODELHF"> F  </i>
   <i name="ENCUT4O">     -1.00000000</i>
   <i type="int" name="EXXOEP">     0</i>
   <i type="int" name="FOURORBIT">     0</i>
   <i name="AEXX">      0.00000000</i>
   <i name="HFALPHA">      0.00000000</i>
   <i name="MCALPHA">      0.00000000</i>
   <i name="ALDAX">      1.00000000</i>
   <i name="AGGAX">      1.00000000</i>
   <i name="ALDAC">      1.00000000</i>
   <i name="AGGAC">      1.00000000</i>
   <i type="int" name="NKREDX">     1</i>
   <i type="int" name="NKREDY">     1</i>
   <i type="int" name="NKREDZ">     1</i>
   <i type="logical" name="SHIFTRED"> F  </i>
   <i type="logical" name="ODDONLY"> F  </i>
   <i type="logical" name="EVENONLY"> F  </i>
   <i type="int" name="LMAXFOCK">     0</i>
   <i type="int" name="NMAXFOCKAE">     0</i>
   <i type="logical" name="LFOCKAEDFT"> F  </i>
   <i name="HFSCREEN">      0.00000000</i>
   <i name="HFSCREENC">      0.00000000</i>
   <i type="int" name="NBANDSGWLOW">     0</i>
  </separator>
  <separator name="vdW DFT" >
   <i type="logical" name="LUSE_VDW"> F  </i>
   <i name="Zab_VDW">     -0.84910000</i>
   <i name="PARAM1">      0.12340000</i>
   <i name="PARAM2">      1.00000000</i>
   <i name="PARAM3">      0.00000000</i>
  </separator>
  <separator name="model GW" >
   <i type="int" name="MODEL_GW">     0</i>
   <i name="MODEL_EPS0">     34.77704100</i>
   <i name="MODEL_ALPHA">      1.00000000</i>
  </separator>
  <separator name="linear response parameters" >
   <i type="logical" name="LEPSILON"> F  </i>
   <i type="logical" name="LRPA"> F  </i>
   <i type="logical" name="LNABLA"> F  </i>
   <i type="logical" name="LVEL"> F  </i>
   <i type="int" name="KINTER">     0</i>
   <i name="CSHIFT">      0.10000000</i>
   <i name="OMEGAMAX">     -1.00000000</i>
   <i name="DEG_THRESHOLD">      0.00200000</i>
   <i name="RTIME">     -0.10000000</i>
   <i name="WPLASMAI">      0.00000000</i>
   <v name="DFIELD">      0.00000000      0.00000000      0.00000000</v>
   <v name="WPLASMA">      0.00000000      0.00000000      0.00000000      0.00000000      0.00000000      0.00000000      0.00000000      0.00000000      0.00000000</v>
  </separator>
  <separator name="orbital magnetization" >
   <i type="logical" name="NUCIND"> F  </i>
   <v name="MAGPOS">      0.00000000      0.00000000      0.00000000</v>
   <i type="logical" name="LNICSALL"> T  </i>
   <i type="logical" name="ORBITALMAG"> F  </i>
   <i type="logical" name="LMAGBLOCH"> F  </i>
   <i type="logical" name="LCHIMAG"> F  </i>
   <i type="logical" name="LGAUGE"> T  </i>
   <i type="int" name="MAGATOM">     0</i>
   <v name="MAGDIPOL">      0.00000000      0.00000000      0.00000000</v>
   <v name="AVECCONST">      0.00000000      0.00000000      0.00000000</v>
  </separator>
  <separator name="response functions" >
   <i type="logical" name="LADDER"> F  </i>
   <i type="logical" name="LRPAFORCE"> F  </i>
   <i type="logical" name="LFXC"> F  </i>
   <i type="logical" name="LHARTREE"> T  </i>
   <i type="int" name="IBSE">     0</i>
   <v type="int" name="KPOINT">    -1     0     0     0</v>
   <i type="logical" name="LTCTE"> F  </i>
   <i type="logical" name="LTETE"> F  </i>
   <i type="logical" name="LTRIPLET"> F  </i>
   <i type="logical" name="LFXCEPS"> F  </i>
   <i type="logical" name="LFXHEG"> F  </i>
   <i type="int" name="NATURALO">     2</i>
   <i type="logical" name="L2ORDER"> F  </i>
   <i type="logical" name="LMP2LT"> F  </i>
   <i type="logical" name="LUSEW"> F  </i>
   <i name="ENCUTGW">     -2.00000000</i>
   <i name="ENCUTGWSOFT">     -2.00000000</i>
   <i name="ENCUTLF">     -1.00000000</i>
   <i type="int" name="LMAXMP2">    -1</i>
   <i name="SCISSOR">      0.00000000</i>
   <i type="int" name="NOMEGA">     0</i>
   <i type="int" name="NOMEGAR">     0</i>
   <i type="int" name="NBANDSGW">    -1</i>
   <i type="int" name="NBANDSO">    -1</i>
   <i type="int" name="NBANDSV">    -1</i>
   <i type="int" name="NELM">     1</i>
   <i type="int" name="NELMHF">     1</i>
   <i type="int" name="DIM">     3</i>
   <i type="int" name="ANTIRES">     0</i>
   <i name="OMEGAMAX">    -30.00000000</i>
   <i name="OMEGAMIN">    -30.00000000</i>
   <i name="OMEGATL">   -200.00000000</i>
   <i type="int" name="OMEGAGRID">   140</i>
   <i name="CSHIFT">     -0.10000000</i>
   <i type="logical" name="SELFENERGY"> F  </i>
   <i type="logical" name="LSPECTRAL"> F  </i>
   <i type="logical" name="LSPECTRALGW"> F  </i>
   <i type="logical" name="LSINGLES"> F  </i>
   <i type="logical" name="LFERMIGW"> F  </i>
   <i type="logical" name="ODDONLYGW"> F  </i>
   <i type="logical" name="EVENONLYGW"> F  </i>
   <i type="int" name="NKREDLFX">     1</i>
   <i type="int" name="NKREDLFY">     1</i>
   <i type="int" name="NKREDLFZ">     1</i>
   <i type="int" name="MAXMEM">  2800</i>
   <i type="int" name="TELESCOPE">     0</i>
   <i type="int" name="TAUPAR">     1</i>
   <i type="int" name="OMEGAPAR">    -1</i>
   <i name="LAMBDA">      1.00000000</i>
  </separator>
  <separator name="External order field" >
   <i name="OFIELD_KAPPA">      0.00000000</i>
   <v name="OFIELD_K">      0.00000000      0.00000000      0.00000000</v>
   <i name="OFIELD_Q6_NEAR">      0.00000000</i>
   <i name="OFIELD_Q6_FAR">      0.00000000</i>
   <i name="OFIELD_A">      0.00000000</i>
  </separator>
 </parameters>
 <atominfo>
  <atoms>       8 </atoms>
  <types>       2 </types>
  <array name="atoms" >
   <dimension dim="1">ion</dimension>
   <field type="string">element</field>
   <field type="int">atomtype</field>
   <set>
    <rc><c>B </c><c>   1</c></rc>
    <rc><c>B </c><c>   1</c></rc>
    <rc><c>C </c><c>   2</c></rc>
    <rc><c>C </c><c>   2</c></rc>
    <rc><c>C </c><c>   2</c></rc>
    <rc><c>C </c><c>   2</c></rc>
    <rc><c>C </c><c>   2</c></rc>
    <rc><c>C </c><c>   2</c></rc>
   </set>
  </array>
  <array name="atomtypes" >
   <dimension dim="1">type</dimension>
   <field type="int">atomspertype</field>
   <field type="string">element</field>
   <field>mass</field>
   <field>valence</field>
   <field type="string">pseudopotential</field>
   <set>
    <rc><c>   2</c><c>B </c><c>     10.81100000</c><c>      3.00000000</c><c>  PAW_PBE B 06Sep2000                   </c></rc>
    <rc><c>   6</c><c>C </c><c>     12.01100000</c><c>      4.00000000</c><c>  PAW_PBE C 08Apr2002                   </c></rc>
   </set>
  </array>
 </atominfo>
 <structure name="initialpos" >
  <crystal>
   <varray name="basis" >
    <v>       5.17400000       0.00000000       0.00000000 </v>
    <v>       2.58700000       4.48100000       0.00000000 </v>
    <v>       0.00000000       0.00000000      20.00000000 </v>
   </varray>
   <i name="volume">    463.69388000 </i>
   <varray name="rec_basis" >
    <v>       0.19327406      -0.11158224       0.00000000 </v>
    <v>       0.00000000       0.22316447       0.00000000 </v>
    <v>       0.00000000       0.00000000       0.05000000 </v>
   </varray>
  </crystal>
  <varray name="positions" >
   <v>       0.17457326       0.17462620       0.00000000 </v>
   <v>       0.50792519       0.50792234       0.00000000 </v>
   <v>       0.00000000       0.00000000       0.00000000 </v>
   <v>       0.52377271       0.00000000       0.00000000 </v>
   <v>       0.68255138       0.15866994       0.00000000 </v>
   <v>       0.99994706       0.52387860       0.00000000 </v>
   <v>       0.15872573       0.68254854       0.00000000 </v>
   <v>       0.68249844       0.68254854       0.00000000 </v>
  </varray>
 </structure>
 <calculation>
  <scstep>
   <time name="dav">   14.48   14.52</time>
   <time name="total">   14.63   14.66</time>
   <energy>
    <i name="alphaZ">     10.93933817 </i>
    <i name="ewald">   4060.05404224 </i>
    <i name="hartreedc">  -4938.55703289 </i>
    <i name="XCdc">     96.01877165 </i>
    <i name="pawpsdc">   2893.57001696 </i>
    <i name="pawaedc">  -2896.09701513 </i>
    <i name="eentropy">     -0.06380433 </i>
    <i name="bandstr">    -81.46760358 </i>
    <i name="atom">   1025.20389953 </i>
    <i name="e_fr_energy">    169.60061261 </i>
    <i name="e_wo_entrp">    169.66441694 </i>
    <i name="e_0_energy">    169.63251478 </i>
   </energy>
  </scstep>
  <scstep>
   <time name="dav">   22.32   22.36</time>
   <time name="total">   22.32   22.36</time>
   <energy>
    <i name="e_fr_energy">    -36.24424084 </i>
    <i name="e_wo_entrp">    -36.20447901 </i>
    <i name="e_0_energy">    -36.22435992 </i>
   </energy>
  </scstep>
  <scstep>
   <time name="dav">   16.23   16.27</time>
   <time name="total">   16.23   16.27</time>
   <energy>
    <i name="e_fr_energy">    -65.52894611 </i>
    <i name="e_wo_entrp">    -65.52593479 </i>
    <i name="e_0_energy">    -65.52744045 </i>
   </energy>
  </scstep>
  <scstep>
   <time name="dav">   17.00   17.01</time>
   <time name="total">   17.00   17.02</time>
   <energy>
    <i name="e_fr_energy">    -66.24547705 </i>
    <i name="e_wo_entrp">    -66.24351557 </i>
    <i name="e_0_energy">    -66.24449631 </i>
   </energy>
  </scstep>
  <scstep>
   <time name="dav">   16.93   16.95</time>
   <time name="total">   16.93   16.95</time>
   <energy>
    <i name="e_fr_energy">    -66.26333477 </i>
    <i name="e_wo_entrp">    -66.26140396 </i>
    <i name="e_0_energy">    -66.26236936 </i>
   </energy>
  </scstep>
  <scstep>
   <time name="dav">   17.64   17.66</time>
   <time name="total">   17.64   17.67</time>
   <energy>
    <i name="e_fr_energy">    -66.26405907 </i>
    <i name="e_wo_entrp">    -66.26212955 </i>
    <i name="e_0_energy">    -66.26309431 </i>
   </energy>
  </scstep>
  <scstep>
   <time name="dav">   17.95   17.97</time>
   <time name="total">   17.95   17.97</time>
   <energy>
    <i name="e_fr_energy">    -66.26408240 </i>
    <i name="e_wo_entrp">    -66.26215289 </i>
    <i name="e_0_energy">    -66.26311764 </i>
   </energy>
  </scstep>
  <scstep>
   <time name="dav">   19.77   19.79</time>
   <time name="total">   19.77   19.79</time>
   <energy>
    <i name="alphaZ">     10.93933817 </i>
    <i name="ewald">   4060.05404224 </i>
    <i name="hartreedc">  -4938.55703289 </i>
    <i name="XCdc">     96.01877165 </i>
    <i name="pawpsdc">   2893.57001696 </i>
    <i name="pawaedc">  -2896.09701513 </i>
    <i name="eentropy">     -0.00192951 </i>
    <i name="bandstr">   -317.39417437 </i>
    <i name="atom">   1025.20389953 </i>
    <i name="e_fr_energy">    -66.26408336 </i>
    <i name="e_wo_entrp">    -66.26215384 </i>
    <i name="e_0_energy">    -66.26311860 </i>
   </energy>
  </scstep>
  <structure>
   <crystal>
    <varray name="basis" >
     <v>       5.17400000       0.00000000       0.00000000 </v>
     <v>       2.58700000       4.48100000       0.00000000 </v>
     <v>       0.00000000       0.00000000      20.00000000 </v>
    </varray>
    <i name="volume">    463.69388000 </i>
    <varray name="rec_basis" >
     <v>       0.19327406      -0.11158224       0.00000000 </v>
     <v>       0.00000000       0.22316447       0.00000000 </v>
     <v>       0.00000000       0.00000000       0.05000000 </v>
    </varray>
   </crystal>
   <varray name="positions" >
    <v>       0.17457326       0.17462620       0.00000000 </v>
    <v>       0.50792519       0.50792234       0.00000000 </v>
    <v>       0.00000000       0.00000000       0.00000000 </v>
    <v>       0.52377271       0.00000000       0.00000000 </v>
    <v>       0.68255138       0.15866994       0.00000000 </v>
    <v>       0.99994706       0.52387860       0.00000000 </v>
    <v>       0.15872573       0.68254854       0.00000000 </v>
    <v>       0.68249844       0.68254854       0.00000000 </v>
   </varray>
  </structure>
  <varray name="forces" >
   <v>       0.00000000      -0.02271440      -0.00000000 </v>
   <v>      -0.00000000       0.02271440       0.00000000 </v>
   <v>      -0.41389091      -0.15795528       0.00000000 </v>
   <v>       0.41389091      -0.15795528       0.00000000 </v>
   <v>      -0.00000000      -0.49300037       0.00000000 </v>
   <v>       0.00000000       0.49300037      -0.00000000 </v>
   <v>      -0.41389091       0.15795528      -0.00000000 </v>
   <v>       0.41389091       0.15795528       0.00000000 </v>
  </varray>
  <varray name="stress" >
   <v>       4.86653669       0.00000000       0.00000000 </v>
   <v>       0.00000000       5.45732423       0.00000000 </v>
   <v>       0.00000000       0.00000000       4.97425907 </v>
  </varray>
  <energy>
   <i name="e_fr_energy">    -66.26408336 </i>
   <i name="e_wo_entrp">    -66.26311860 </i>
   <i name="e_0_energy">     -0.00192951 </i>
  </energy>
  <time name="totalsc">  159.44  166.82</time>
  <eigenvalues>
   <array>
    <dimension dim="1">band</dimension>
    <dimension dim="2">kpoint</dimension>
    <dimension dim="3">spin</dimension>
    <field>eigene</field>
    <field>occ</field>
    <set>
     <set comment="spin 1">
      <set comment="kpoint 1">
       <r>  -19.9350    1.0000 </r>
       <r>  -17.6526    1.0000 </r>
       <r>  -16.7969    1.0000 </r>
       <r>  -14.5066    1.0000 </r>
       <r>  -12.8851    1.0000 </r>
       <r>  -11.3257    1.0000 </r>
       <r>   -9.8570    1.0000 </r>
       <r>   -9.7902    1.0000 </r>
       <r>   -8.4924    1.0000 </r>
       <r>   -8.2981    1.0000 </r>
       <r>   -6.7167    1.0000 </r>
       <r>   -6.3827    1.0000 </r>
       <r>   -6.1686    1.0000 </r>
       <r>   -5.1339    1.0000 </r>
       <r>   -5.0820    1.0000 </r>
       <r>   -3.4452    0.0005 </r>
       <r>    0.0117    0.0000 </r>
       <r>    0.7721    0.0000 </r>
       <r>    1.2335    0.0000 </r>
       <r>    1.9828    0.0000 </r>
       <r>    2.3271    0.0000 </r>
       <r>    2.6346    0.0000 </r>
       <r>    3.3462    0.0000 </r>
       <r>    3.6607    0.0000 </r>
      </set>
      <set comment="kpoint 2">
       <r>  -19.9230    1.0000 </r>
       <r>  -17.6734    1.0000 </r>
       <r>  -16.8180    1.0000 </r>
       <r>  -14.4922    1.0000 </r>
       <r>  -12.8758    1.0000 </r>
       <r>  -11.2615    1.0000 </r>
       <r>   -9.9017    1.0000 </r>
       <r>   -9.7352    1.0000 </r>
       <r>   -8.4695    1.0000 </r>
       <r>   -8.3189    1.0000 </r>
       <r>   -6.7280    1.0000 </r>
       <r>   -6.4128    1.0000 </r>
       <r>   -6.2210    1.0000 </r>
       <r>   -5.1668    1.0000 </r>
       <r>   -5.1161    1.0000 </r>
       <r>   -3.4267    0.0003 </r>
       <r>   -0.0441    0.0000 </r>
       <r>    0.8721    0.0000 </r>
       <r>    1.2658    0.0000 </r>
       <r>    2.0196    0.0000 </r>
       <r>    2.3599    0.0000 </r>
       <r>    2.6933    0.0000 </r>
       <r>    3.3800    0.0000 </r>
       <r>    3.6150    0.0000 </r>
      </set>
      <set comment="kpoint 3">
       <r>  -19.9065    1.0000 </r>
       <r>  -17.6911    1.0000 </r>
       <r>  -16.8677    1.0000 </r>
       <r>  -14.4369    1.0000 </r>
       <r>  -12.9009    1.0000 </r>
       <r>  -11.1568    1.0000 </r>
       <r>   -9.9748    1.0000 </r>
       <r>   -9.6653    1.0000 </r>
       <r>   -8.4382    1.0000 </r>
       <r>   -8.3102    1.0000 </r>
       <r>   -6.7758    1.0000 </r>
       <r>   -6.4371    1.0000 </r>
       <r>   -6.2725    1.0000 </r>
       <r>   -5.2524    1.0000 </r>
       <r>   -5.1790    1.0000 </r>
       <r>   -3.3557    0.0000 </r>
       <r>   -0.1879    0.0000 </r>
       <r>    1.0798    0.0000 </r>
       <r>    1.3101    0.0000 </r>
       <r>    2.0707    0.0000 </r>
       <r>    2.4049    0.0000 </r>
       <r>    2.7494    0.0000 </r>
       <r>    3.4247    0.0000 </r>
       <r>    3.5813    0.0000 </r>
      </set>
      <set comment="kpoint 4">
       <r>  -19.8860    1.0000 </r>
       <r>  -17.7057    1.0000 </r>
       <r>  -16.9401    1.0000 </r>
       <r>  -14.3468    1.0000 </r>
       <r>  -12.9509    1.0000 </r>
       <r>  -11.0229    1.0000 </r>
       <r>  -10.0679    1.0000 </r>
       <r>   -9.5827    1.0000 </r>
       <r>   -8.3987    1.0000 </r>
       <r>   -8.2774    1.0000 </r>
       <r>   -6.8563    1.0000 </r>
       <r>   -6.4560    1.0000 </r>
       <r>   -6.3237    1.0000 </r>
       <r>   -5.3768    1.0000 </r>
       <r>   -5.2686    1.0000 </r>
       <r>   -3.2459    0.0000 </r>
       <r>   -0.3595    0.0000 </r>
       <r>    1.3324    0.0000 </r>
       <r>    1.3664    0.0000 </r>
       <r>    2.1380    0.0000 </r>
       <r>    2.4620    0.0000 </r>
       <r>    2.8017    0.0000 </r>
       <r>    3.4803    0.0000 </r>
       <r>    3.5594    0.0000 </r>
      </set>
      <set comment="kpoint 5">
       <r>  -19.8620    1.0000 </r>
       <r>  -17.7177    1.0000 </r>
       <r>  -17.0274    1.0000 </r>
       <r>  -14.2311    1.0000 </r>
       <r>  -13.0147    1.0000 </r>
       <r>  -10.8761    1.0000 </r>
       <r>  -10.1681    1.0000 </r>
       <r>   -9.4878    1.0000 </r>
       <r>   -8.3517    1.0000 </r>
       <r>   -8.2294    1.0000 </r>
       <r>   -6.9622    1.0000 </r>
       <r>   -6.4706    1.0000 </r>
       <r>   -6.3770    1.0000 </r>
       <r>   -5.5238    1.0000 </r>
       <r>   -5.3808    1.0000 </r>
       <r>   -3.1132    0.0000 </r>
       <r>   -0.5330    0.0000 </r>
       <r>    1.4345    0.0000 </r>
       <r>    1.5995    0.0000 </r>
       <r>    2.2261    0.0000 </r>
       <r>    2.5312    0.0000 </r>
       <r>    2.8492    0.0000 </r>
       <r>    3.5468    0.0000 </r>
       <r>    3.5494    0.0000 </r>
      </set>
      <set comment="kpoint 6">
       <r>  -19.8351    1.0000 </r>
       <r>  -17.7284    1.0000 </r>
       <r>  -17.1211    1.0000 </r>
       <r>  -14.1006    1.0000 </r>
       <r>  -13.0814    1.0000 </r>
       <r>  -10.7441    1.0000 </r>
       <r>  -10.2499    1.0000 </r>
       <r>   -9.3808    1.0000 </r>
       <r>   -8.2975    1.0000 </r>
       <r>   -8.1779    1.0000 </r>
       <r>   -7.0830    1.0000 </r>
       <r>   -6.4832    1.0000 </r>
       <r>   -6.4356    1.0000 </r>
       <r>   -5.6790    1.0000 </r>
       <r>   -5.5095    1.0000 </r>
       <r>   -2.9721    0.0000 </r>
       <r>   -0.6965    0.0000 </r>
       <r>    1.5145    0.0000 </r>
       <r>    1.8594    0.0000 </r>
       <r>    2.3458    0.0000 </r>
       <r>    2.6125    0.0000 </r>
       <r>    2.8907    0.0000 </r>
       <r>    3.5509    0.0000 </r>
       <r>    3.6244    0.0000 </r>
      </set>
      <set comment="kpoint 7">
       <r>  -19.8065    1.0000 </r>
       <r>  -17.7401    1.0000 </r>
       <r>  -17.2124    1.0000 </r>
       <r>  -13.9692    1.0000 </r>
       <r>  -13.1386    1.0000 </r>
       <r>  -10.6864    1.0000 </r>
       <r>  -10.2552    1.0000 </r>
       <r>   -9.2623    1.0000 </r>
       <r>   -8.2373    1.0000 </r>
       <r>   -8.1380    1.0000 </r>
       <r>   -7.2048    1.0000 </r>
       <r>   -6.5021    1.0000 </r>
       <r>   -6.4985    1.0000 </r>
       <r>   -5.8291    1.0000 </r>
       <r>   -5.6465    1.0000 </r>
       <r>   -2.8353    0.0000 </r>
       <r>   -0.8418    0.0000 </r>
       <r>    1.6063    0.0000 </r>
       <r>    2.0855    0.0000 </r>
       <r>    2.5172    0.0000 </r>
       <r>    2.7058    0.0000 </r>
       <r>    2.9245    0.0000 </r>
       <r>    3.5641    0.0000 </r>
       <r>    3.7131    0.0000 </r>
      </set>
      <set comment="kpoint 8">
       <r>  -19.7772    1.0000 </r>
       <r>  -17.7562    1.0000 </r>
       <r>  -17.2924    1.0000 </r>
       <r>  -13.8570    1.0000 </r>
       <r>  -13.1692    1.0000 </r>
       <r>  -10.7340    1.0000 </r>
       <r>  -10.1533    1.0000 </r>
       <r>   -9.1341    1.0000 </r>
       <r>   -8.1723    1.0000 </r>
       <r>   -8.1291    1.0000 </r>
       <r>   -7.3095    1.0000 </r>
       <r>   -6.5790    1.0000 </r>
       <r>   -6.5253    1.0000 </r>
       <r>   -5.9587    1.0000 </r>
       <r>   -5.7808    1.0000 </r>
       <r>   -2.7148    0.0000 </r>
       <r>   -0.9611    0.0000 </r>
       <r>    1.7098    0.0000 </r>
       <r>    2.2612    0.0000 </r>
       <r>    2.7504    0.0000 </r>
       <r>    2.8113    0.0000 </r>
       <r>    2.9502    0.0000 </r>
       <r>    3.5885    0.0000 </r>
       <r>    3.8168    0.0000 </r>
      </set>
      <set comment="kpoint 9">
       <r>  -19.7487    1.0000 </r>
       <r>  -17.7806    1.0000 </r>
       <r>  -17.3526    1.0000 </r>
       <r>  -13.7891    1.0000 </r>
       <r>  -13.1523    1.0000 </r>
       <r>  -10.8271    1.0000 </r>
       <r>  -10.0038    1.0000 </r>
       <r>   -9.0023    1.0000 </r>
       <r>   -8.1658    1.0000 </r>
       <r>   -8.1048    1.0000 </r>
       <r>   -7.3820    1.0000 </r>
       <r>   -6.6661    1.0000 </r>
       <r>   -6.5753    1.0000 </r>
       <r>   -6.0506    1.0000 </r>
       <r>   -5.8997    1.0000 </r>
       <r>   -2.6226    0.0000 </r>
       <r>   -1.0459    0.0000 </r>
       <r>    1.8250    0.0000 </r>
       <r>    2.3997    0.0000 </r>
       <r>    2.9288    0.0000 </r>
       <r>    2.9553    0.0000 </r>
       <r>    3.0383    0.0000 </r>
       <r>    3.5439    0.0000 </r>
       <r>    3.6277    0.0000 </r>
      </set>
      <set comment="kpoint 10">
       <r>  -19.7231    1.0000 </r>
       <r>  -17.8147    1.0000 </r>
       <r>  -17.3876    1.0000 </r>
       <r>  -13.7773    1.0000 </r>
       <r>  -13.0820    1.0000 </r>
       <r>  -10.9233    1.0000 </r>
       <r>   -9.8478    1.0000 </r>
       <r>   -8.8859    1.0000 </r>
       <r>   -8.2329    1.0000 </r>
       <r>   -8.0382    1.0000 </r>
       <r>   -7.4305    1.0000 </r>
       <r>   -6.7555    1.0000 </r>
       <r>   -6.6530    1.0000 </r>
       <r>   -6.0949    1.0000 </r>
       <r>   -5.9910    1.0000 </r>
       <r>   -2.5687    0.0000 </r>
       <r>   -1.0889    0.0000 </r>
       <r>    1.9519    0.0000 </r>
       <r>    2.5130    0.0000 </r>
       <r>    2.9737    0.0000 </r>
       <r>    3.0583    0.0000 </r>
       <r>    3.2825    0.0000 </r>
       <r>    3.3260    0.0000 </r>
       <r>    3.6738    0.0000 </r>
      </set>
      <set comment="kpoint 11">
       <r>  -19.7022    1.0000 </r>
       <r>  -17.8543    1.0000 </r>
       <r>  -17.3978    1.0000 </r>
       <r>  -13.8065    1.0000 </r>
       <r>  -12.9815    1.0000 </r>
       <r>  -11.0032    1.0000 </r>
       <r>   -9.7033    1.0000 </r>
       <r>   -8.8354    1.0000 </r>
       <r>   -8.2634    1.0000 </r>
       <r>   -7.9778    1.0000 </r>
       <r>   -7.4891    1.0000 </r>
       <r>   -6.8281    1.0000 </r>
       <r>   -6.7453    1.0000 </r>
       <r>   -6.0979    1.0000 </r>
       <r>   -6.0470    1.0000 </r>
       <r>   -2.5573    0.0000 </r>
       <r>   -1.0888    0.0000 </r>
       <r>    2.0904    0.0000 </r>
       <r>    2.5915    0.0000 </r>
       <r>    3.0011    0.0000 </r>
       <r>    3.0306    0.0000 </r>
       <r>    3.2000    0.0000 </r>
       <r>    3.6470    0.0000 </r>
       <r>    3.7385    0.0000 </r>
      </set>
      <set comment="kpoint 12">
       <r>  -19.6884    1.0000 </r>
       <r>  -17.8914    1.0000 </r>
       <r>  -17.3879    1.0000 </r>
       <r>  -13.8559    1.0000 </r>
       <r>  -12.8820    1.0000 </r>
       <r>  -11.0529    1.0000 </r>
       <r>   -9.5879    1.0000 </r>
       <r>   -8.8918    1.0000 </r>
       <r>   -8.1937    1.0000 </r>
       <r>   -7.9321    1.0000 </r>
       <r>   -7.5846    1.0000 </r>
       <r>   -6.8651    1.0000 </r>
       <r>   -6.8301    1.0000 </r>
       <r>   -6.0724    1.0000 </r>
       <r>   -6.0644    1.0000 </r>
       <r>   -2.5840    0.0000 </r>
       <r>   -1.0517    0.0000 </r>
       <r>    2.2404    0.0000 </r>
       <r>    2.6102    0.0000 </r>
       <r>    2.7898    0.0000 </r>
       <r>    3.0678    0.0000 </r>
       <r>    3.3537    0.0000 </r>
       <r>    3.5484    0.0000 </r>
       <r>    3.8032    0.0000 </r>
      </set>
      <set comment="kpoint 13">
       <r>  -19.6837    1.0000 </r>
       <r>  -17.9184    1.0000 </r>
       <r>  -17.3631    1.0000 </r>
       <r>  -13.9126    1.0000 </r>
       <r>  -12.8073    1.0000 </r>
       <r>  -11.0604    1.0000 </r>
       <r>   -9.5389    1.0000 </r>
       <r>   -8.9842    1.0000 </r>
       <r>   -8.0799    1.0000 </r>
       <r>   -7.9119    1.0000 </r>
       <r>   -7.6906    1.0000 </r>
       <r>   -6.8869    1.0000 </r>
       <r>   -6.8695    1.0000 </r>
       <r>   -6.0435    1.0000 </r>
       <r>   -6.0279    1.0000 </r>
       <r>   -2.6385    0.0000 </r>
       <r>   -0.9895    0.0000 </r>
       <r>    2.4019    0.0000 </r>
       <r>    2.5603    0.0000 </r>
       <r>    2.5641    0.0000 </r>
       <r>    3.1702    0.0000 </r>
       <r>    3.3570    0.0000 </r>
       <r>    3.5194    0.0000 </r>
       <r>    3.6814    0.0000 </r>
      </set>
      <set comment="kpoint 14">
       <r>  -19.6895    1.0000 </r>
       <r>  -17.9294    1.0000 </r>
       <r>  -17.3272    1.0000 </r>
       <r>  -13.9699    1.0000 </r>
       <r>  -12.7714    1.0000 </r>
       <r>  -11.0188    1.0000 </r>
       <r>   -9.6104    1.0000 </r>
       <r>   -9.0144    1.0000 </r>
       <r>   -8.0807    1.0000 </r>
       <r>   -7.9265    1.0000 </r>
       <r>   -7.6718    1.0000 </r>
       <r>   -6.9012    1.0000 </r>
       <r>   -6.8561    1.0000 </r>
       <r>   -5.9872    1.0000 </r>
       <r>   -5.9698    1.0000 </r>
       <r>   -2.7099    0.0000 </r>
       <r>   -0.9144    0.0000 </r>
       <r>    2.3418    0.0000 </r>
       <r>    2.4700    0.0000 </r>
       <r>    2.5754    0.0000 </r>
       <r>    3.1181    0.0000 </r>
       <r>    3.3560    0.0000 </r>
       <r>    3.4578    0.0000 </r>
       <r>    3.6971    0.0000 </r>
      </set>
      <set comment="kpoint 15">
       <r>  -19.7065    1.0000 </r>
       <r>  -17.9215    1.0000 </r>
       <r>  -17.2827    1.0000 </r>
       <r>  -14.0245    1.0000 </r>
       <r>  -12.7775    1.0000 </r>
       <r>  -10.9306    1.0000 </r>
       <r>   -9.7845    1.0000 </r>
       <r>   -8.9918    1.0000 </r>
       <r>   -8.2097    1.0000 </r>
       <r>   -7.9770    1.0000 </r>
       <r>   -7.5078    1.0000 </r>
       <r>   -6.8689    1.0000 </r>
       <r>   -6.8316    1.0000 </r>
       <r>   -5.9014    1.0000 </r>
       <r>   -5.9012    1.0000 </r>
       <r>   -2.7887    0.0000 </r>
       <r>   -0.8363    0.0000 </r>
       <r>    2.1352    0.0000 </r>
       <r>    2.3428    0.0000 </r>
       <r>    2.7599    0.0000 </r>
       <r>    2.9361    0.0000 </r>
       <r>    3.2463    0.0000 </r>
       <r>    3.5063    0.0000 </r>
       <r>    3.8869    0.0000 </r>
      </set>
      <set comment="kpoint 16">
       <r>  -19.7342    1.0000 </r>
       <r>  -17.8933    1.0000 </r>
       <r>  -17.2314    1.0000 </r>
       <r>  -14.0743    1.0000 </r>
       <r>  -12.8197    1.0000 </r>
       <r>  -10.8098    1.0000 </r>
       <r>   -9.9993    1.0000 </r>
       <r>   -8.9995    1.0000 </r>
       <r>   -8.3211    1.0000 </r>
       <r>   -8.0552    1.0000 </r>
       <r>   -7.3166    1.0000 </r>
       <r>   -6.7970    1.0000 </r>
       <r>   -6.7888    1.0000 </r>
       <r>   -5.8248    1.0000 </r>
       <r>   -5.7927    1.0000 </r>
       <r>   -2.8684    0.0000 </r>
       <r>   -0.7617    0.0000 </r>
       <r>    1.9401    0.0000 </r>
       <r>    2.1921    0.0000 </r>
       <r>    2.7539    0.0000 </r>
       <r>    2.9559    0.0000 </r>
       <r>    3.0469    0.0000 </r>
       <r>    3.5828    0.0000 </r>
       <r>    3.7744    0.0000 </r>
      </set>
      <set comment="kpoint 17">
       <r>  -19.7712    1.0000 </r>
       <r>  -17.8456    1.0000 </r>
       <r>  -17.1746    1.0000 </r>
       <r>  -14.1181    1.0000 </r>
       <r>  -12.8883    1.0000 </r>
       <r>  -10.6907    1.0000 </r>
       <r>  -10.2037    1.0000 </r>
       <r>   -9.1010    1.0000 </r>
       <r>   -8.3413    1.0000 </r>
       <r>   -8.1503    1.0000 </r>
       <r>   -7.1542    1.0000 </r>
       <r>   -6.7027    1.0000 </r>
       <r>   -6.6957    1.0000 </r>
       <r>   -5.7419    1.0000 </r>
       <r>   -5.6686    1.0000 </r>
       <r>   -2.9439    0.0000 </r>
       <r>   -0.6949    0.0000 </r>
       <r>    1.7565    0.0000 </r>
       <r>    2.0249    0.0000 </r>
       <r>    2.5752    0.0000 </r>
       <r>    2.8594    0.0000 </r>
       <r>    3.1633    0.0000 </r>
       <r>    3.3586    0.0000 </r>
       <r>    3.8296    0.0000 </r>
      </set>
      <set comment="kpoint 18">
       <r>  -19.8155    1.0000 </r>
       <r>  -17.7799    1.0000 </r>
       <r>  -17.1134    1.0000 </r>
       <r>  -14.1551    1.0000 </r>
       <r>  -12.9741    1.0000 </r>
       <r>  -10.6912    1.0000 </r>
       <r>  -10.2797    1.0000 </r>
       <r>   -9.2845    1.0000 </r>
       <r>   -8.2793    1.0000 </r>
       <r>   -8.2533    1.0000 </r>
       <r>   -7.0534    1.0000 </r>
       <r>   -6.5740    1.0000 </r>
       <r>   -6.5482    1.0000 </r>
       <r>   -5.6543    1.0000 </r>
       <r>   -5.5346    1.0000 </r>
       <r>   -3.0115    0.0000 </r>
       <r>   -0.6381    0.0000 </r>
       <r>    1.5846    0.0000 </r>
       <r>    1.8459    0.0000 </r>
       <r>    2.3990    0.0000 </r>
       <r>    2.6840    0.0000 </r>
       <r>    3.0785    0.0000 </r>
       <r>    3.3819    0.0000 </r>
       <r>    3.6966    0.0000 </r>
      </set>
      <set comment="kpoint 19">
       <r>  -19.8648    1.0000 </r>
       <r>  -17.6984    1.0000 </r>
       <r>  -17.0489    1.0000 </r>
       <r>  -14.1846    1.0000 </r>
       <r>  -13.0700    1.0000 </r>
       <r>  -10.8752    1.0000 </r>
       <r>  -10.1674    1.0000 </r>
       <r>   -9.5071    1.0000 </r>
       <r>   -8.3582    1.0000 </r>
       <r>   -8.1752    1.0000 </r>
       <r>   -7.0019    1.0000 </r>
       <r>   -6.4381    1.0000 </r>
       <r>   -6.3410    1.0000 </r>
       <r>   -5.5638    1.0000 </r>
       <r>   -5.3957    1.0000 </r>
       <r>   -3.0680    0.0000 </r>
       <r>   -0.5923    0.0000 </r>
       <r>    1.4244    0.0000 </r>
       <r>    1.6586    0.0000 </r>
       <r>    2.2235    0.0000 </r>
       <r>    2.5208    0.0000 </r>
       <r>    2.7899    0.0000 </r>
       <r>    3.5348    0.0000 </r>
       <r>    3.6116    0.0000 </r>
      </set>
      <set comment="kpoint 20">
       <r>  -19.9170    1.0000 </r>
       <r>  -17.6033    1.0000 </r>
       <r>  -16.9821    1.0000 </r>
       <r>  -14.2065    1.0000 </r>
       <r>  -13.1711    1.0000 </r>
       <r>  -11.1117    1.0000 </r>
       <r>  -10.0025    1.0000 </r>
       <r>   -9.7430    1.0000 </r>
       <r>   -8.4613    1.0000 </r>
       <r>   -8.0513    1.0000 </r>
       <r>   -6.9721    1.0000 </r>
       <r>   -6.2924    1.0000 </r>
       <r>   -6.1106    1.0000 </r>
       <r>   -5.4726    1.0000 </r>
       <r>   -5.2554    1.0000 </r>
       <r>   -3.1107    0.0000 </r>
       <r>   -0.5575    0.0000 </r>
       <r>    1.2758    0.0000 </r>
       <r>    1.4654    0.0000 </r>
       <r>    2.0443    0.0000 </r>
       <r>    2.3696    0.0000 </r>
       <r>    2.5057    0.0000 </r>
       <r>    3.3818    0.0000 </r>
       <r>    3.7417    0.0000 </r>
      </set>
      <set comment="kpoint 21">
       <r>  -19.9700    1.0000 </r>
       <r>  -17.4970    1.0000 </r>
       <r>  -16.9140    1.0000 </r>
       <r>  -14.2205    1.0000 </r>
       <r>  -13.2740    1.0000 </r>
       <r>  -11.3562    1.0000 </r>
       <r>   -9.9911    1.0000 </r>
       <r>   -9.8226    1.0000 </r>
       <r>   -8.5600    1.0000 </r>
       <r>   -7.9167    1.0000 </r>
       <r>   -6.9498    1.0000 </r>
       <r>   -6.1406    1.0000 </r>
       <r>   -5.8736    1.0000 </r>
       <r>   -5.3828    1.0000 </r>
       <r>   -5.1169    1.0000 </r>
       <r>   -3.1368    0.0000 </r>
       <r>   -0.5333    0.0000 </r>
       <r>    1.1390    0.0000 </r>
       <r>    1.2683    0.0000 </r>
       <r>    1.8504    0.0000 </r>
       <r>    2.2304    0.0000 </r>
       <r>    2.2425    0.0000 </r>
       <r>    3.2408    0.0000 </r>
       <r>    3.6035    0.0000 </r>
      </set>
      <set comment="kpoint 22">
       <r>  -20.0224    1.0000 </r>
       <r>  -17.3819    1.0000 </r>
       <r>  -16.8458    1.0000 </r>
       <r>  -14.2265    1.0000 </r>
       <r>  -13.3763    1.0000 </r>
       <r>  -11.5979    1.0000 </r>
       <r>  -10.2261    1.0000 </r>
       <r>   -9.6598    1.0000 </r>
       <r>   -8.6529    1.0000 </r>
       <r>   -7.7757    1.0000 </r>
       <r>   -6.9290    1.0000 </r>
       <r>   -5.9853    1.0000 </r>
       <r>   -5.6384    1.0000 </r>
       <r>   -5.2970    1.0000 </r>
       <r>   -4.9825    1.0000 </r>
       <r>   -3.1439    0.0000 </r>
       <r>   -0.5189    0.0000 </r>
       <r>    1.0139    0.0000 </r>
       <r>    1.0694    0.0000 </r>
       <r>    1.6256    0.0000 </r>
       <r>    2.0213    0.0000 </r>
       <r>    2.1034    0.0000 </r>
       <r>    3.1121    0.0000 </r>
       <r>    3.4772    0.0000 </r>
      </set>
      <set comment="kpoint 23">
       <r>  -20.0726    1.0000 </r>
       <r>  -17.2604    1.0000 </r>
       <r>  -16.7786    1.0000 </r>
       <r>  -14.2249    1.0000 </r>
       <r>  -13.4764    1.0000 </r>
       <r>  -11.8316    1.0000 </r>
       <r>  -10.4569    1.0000 </r>
       <r>   -9.5075    1.0000 </r>
       <r>   -8.7387    1.0000 </r>
       <r>   -7.6311    1.0000 </r>
       <r>   -6.9075    1.0000 </r>
       <r>   -5.8295    1.0000 </r>
       <r>   -5.4101    1.0000 </r>
       <r>   -5.2176    1.0000 </r>
       <r>   -4.8546    1.0000 </r>
       <r>   -3.1298    0.0000 </r>
       <r>   -0.5135    0.0000 </r>
       <r>    0.8709    0.0000 </r>
       <r>    0.9005    0.0000 </r>
       <r>    1.3678    0.0000 </r>
       <r>    1.8491    0.0000 </r>
       <r>    1.9884    0.0000 </r>
       <r>    2.9958    0.0000 </r>
       <r>    3.3628    0.0000 </r>
      </set>
      <set comment="kpoint 24">
       <r>  -20.1198    1.0000 </r>
       <r>  -17.1347    1.0000 </r>
       <r>  -16.7137    1.0000 </r>
       <r>  -14.2160    1.0000 </r>
       <r>  -13.5734    1.0000 </r>
       <r>  -12.0536    1.0000 </r>
       <r>  -10.6779    1.0000 </r>
       <r>   -9.3711    1.0000 </r>
       <r>   -8.8167    1.0000 </r>
       <r>   -7.4856    1.0000 </r>
       <r>   -6.8845    1.0000 </r>
       <r>   -5.6757    1.0000 </r>
       <r>   -5.1927    1.0000 </r>
       <r>   -5.1467    1.0000 </r>
       <r>   -4.7351    1.0000 </r>
       <r>   -3.0928    0.0000 </r>
       <r>   -0.5162    0.0000 </r>
       <r>    0.6747    0.0000 </r>
       <r>    0.7990    0.0000 </r>
       <r>    1.0941    0.0000 </r>
       <r>    1.7138    0.0000 </r>
       <r>    1.8855    0.0000 </r>
       <r>    2.8919    0.0000 </r>
       <r>    3.2603    0.0000 </r>
      </set>
      <set comment="kpoint 25">
       <r>  -20.1629    1.0000 </r>
       <r>  -17.0078    1.0000 </r>
       <r>  -16.6524    1.0000 </r>
       <r>  -14.2008    1.0000 </r>
       <r>  -13.6664    1.0000 </r>
       <r>  -12.2604    1.0000 </r>
       <r>  -10.8860    1.0000 </r>
       <r>   -9.2528    1.0000 </r>
       <r>   -8.8865    1.0000 </r>
       <r>   -7.3424    1.0000 </r>
       <r>   -6.8605    1.0000 </r>
       <r>   -5.5270    1.0000 </r>
       <r>   -5.0860    1.0000 </r>
       <r>   -4.9899    1.0000 </r>
       <r>   -4.6257    1.0000 </r>
       <r>   -3.0328    0.0000 </r>
       <r>   -0.5262    0.0000 </r>
       <r>    0.4808    0.0000 </r>
       <r>    0.7093    0.0000 </r>
       <r>    0.8237    0.0000 </r>
       <r>    1.6037    0.0000 </r>
       <r>    1.7947    0.0000 </r>
       <r>    2.8003    0.0000 </r>
       <r>    3.1697    0.0000 </r>
      </set>
      <set comment="kpoint 26">
       <r>  -20.2014    1.0000 </r>
       <r>  -16.8825    1.0000 </r>
       <r>  -16.5960    1.0000 </r>
       <r>  -14.1806    1.0000 </r>
       <r>  -13.7546    1.0000 </r>
       <r>  -12.4482    1.0000 </r>
       <r>  -11.0781    1.0000 </r>
       <r>   -9.1529    1.0000 </r>
       <r>   -8.9475    1.0000 </r>
       <r>   -7.2052    1.0000 </r>
       <r>   -6.8361    1.0000 </r>
       <r>   -5.3865    1.0000 </r>
       <r>   -5.0362    1.0000 </r>
       <r>   -4.8049    1.0000 </r>
       <r>   -4.5278    1.0000 </r>
       <r>   -2.9508    0.0000 </r>
       <r>   -0.5431    0.0000 </r>
       <r>    0.2849    0.0000 </r>
       <r>    0.5753    0.0000 </r>
       <r>    0.6314    0.0000 </r>
       <r>    1.5127    0.0000 </r>
       <r>    1.7159    0.0000 </r>
       <r>    2.7209    0.0000 </r>
       <r>    3.0911    0.0000 </r>
      </set>
      <set comment="kpoint 27">
       <r>  -20.2347    1.0000 </r>
       <r>  -16.7628    1.0000 </r>
       <r>  -16.5457    1.0000 </r>
       <r>  -14.1570    1.0000 </r>
       <r>  -13.8372    1.0000 </r>
       <r>  -12.6135    1.0000 </r>
       <r>  -11.2509    1.0000 </r>
       <r>   -9.0711    1.0000 </r>
       <r>   -8.9996    1.0000 </r>
       <r>   -7.0783    1.0000 </r>
       <r>   -6.8126    1.0000 </r>
       <r>   -5.2578    1.0000 </r>
       <r>   -4.9971    1.0000 </r>
       <r>   -4.6412    1.0000 </r>
       <r>   -4.4429    0.9999 </r>
       <r>   -2.8502    0.0000 </r>
       <r>   -0.5660    0.0000 </r>
       <r>    0.0785    0.0000 </r>
       <r>    0.3693    0.0000 </r>
       <r>    0.5654    0.0000 </r>
       <r>    1.4379    0.0000 </r>
       <r>    1.6493    0.0000 </r>
       <r>    2.6539    0.0000 </r>
       <r>    3.0245    0.0000 </r>
      </set>
      <set comment="kpoint 28">
       <r>  -20.2624    1.0000 </r>
       <r>  -16.6530    1.0000 </r>
       <r>  -16.5027    1.0000 </r>
       <r>  -14.1325    1.0000 </r>
       <r>  -13.9125    1.0000 </r>
       <r>  -12.7525    1.0000 </r>
       <r>  -11.4008    1.0000 </r>
       <r>   -9.0424    1.0000 </r>
       <r>   -9.0064    1.0000 </r>
       <r>   -6.9662    1.0000 </r>
       <r>   -6.7910    1.0000 </r>
       <r>   -5.1448    1.0000 </r>
       <r>   -4.9677    1.0000 </r>
       <r>   -4.5019    1.0000 </r>
       <r>   -4.3720    0.9994 </r>
       <r>   -2.7370    0.0000 </r>
       <r>   -0.5937    0.0000 </r>
       <r>   -0.1366    0.0000 </r>
       <r>    0.2152    0.0000 </r>
       <r>    0.5113    0.0000 </r>
       <r>    1.3778    0.0000 </r>
       <r>    1.5948    0.0000 </r>
       <r>    2.5990    0.0000 </r>
       <r>    2.9699    0.0000 </r>
      </set>
      <set comment="kpoint 29">
       <r>  -20.2843    1.0000 </r>
       <r>  -16.5584    1.0000 </r>
       <r>  -16.4681    1.0000 </r>
       <r>  -14.1095    1.0000 </r>
       <r>  -13.9778    1.0000 </r>
       <r>  -12.8624    1.0000 </r>
       <r>  -11.5237    1.0000 </r>
       <r>   -9.0759    1.0000 </r>
       <r>   -8.9577    1.0000 </r>
       <r>   -6.8735    1.0000 </r>
       <r>   -6.7727    1.0000 </r>
       <r>   -5.0513    1.0000 </r>
       <r>   -4.9469    1.0000 </r>
       <r>   -4.3899    0.9996 </r>
       <r>   -4.3161    0.9979 </r>
       <r>   -2.6204    0.0000 </r>
       <r>   -0.6232    0.0000 </r>
       <r>   -0.3419    0.0000 </r>
       <r>    0.1066    0.0000 </r>
       <r>    0.4691    0.0000 </r>
       <r>    1.3316    0.0000 </r>
       <r>    1.5524    0.0000 </r>
       <r>    2.5564    0.0000 </r>
       <r>    2.9273    0.0000 </r>
      </set>
      <set comment="kpoint 30">
       <r>  -20.3001    1.0000 </r>
       <r>  -16.4848    1.0000 </r>
       <r>  -16.4427    1.0000 </r>
       <r>  -14.0907    1.0000 </r>
       <r>  -14.0294    1.0000 </r>
       <r>  -12.9413    1.0000 </r>
       <r>  -11.6155    1.0000 </r>
       <r>   -9.0999    1.0000 </r>
       <r>   -8.9238    1.0000 </r>
       <r>   -6.8040    1.0000 </r>
       <r>   -6.7588    1.0000 </r>
       <r>   -4.9812    1.0000 </r>
       <r>   -4.9331    1.0000 </r>
       <r>   -4.3080    0.9975 </r>
       <r>   -4.2756    0.9950 </r>
       <r>   -2.5143    0.0000 </r>
       <r>   -0.6501    0.0000 </r>
       <r>   -0.5150    0.0000 </r>
       <r>    0.0348    0.0000 </r>
       <r>    0.4390    0.0000 </r>
       <r>    1.2988    0.0000 </r>
       <r>    1.5220    0.0000 </r>
       <r>    2.5259    0.0000 </r>
       <r>    2.8969    0.0000 </r>
      </set>
      <set comment="kpoint 31">
       <r>  -20.3096    1.0000 </r>
       <r>  -16.4377    1.0000 </r>
       <r>  -16.4272    1.0000 </r>
       <r>  -14.0785    1.0000 </r>
       <r>  -14.0629    1.0000 </r>
       <r>  -12.9886    1.0000 </r>
       <r>  -11.6724    1.0000 </r>
       <r>   -9.1143    1.0000 </r>
       <r>   -8.9039    1.0000 </r>
       <r>   -6.7609    1.0000 </r>
       <r>   -6.7501    1.0000 </r>
       <r>   -4.9377    1.0000 </r>
       <r>   -4.9254    1.0000 </r>
       <r>   -4.2580    0.9929 </r>
       <r>   -4.2511    0.9919 </r>
       <r>   -2.4372    0.0000 </r>
       <r>   -0.6690    0.0000 </r>
       <r>   -0.6331    0.0000 </r>
       <r>   -0.0058    0.0000 </r>
       <r>    0.4209    0.0000 </r>
       <r>    1.2793    0.0000 </r>
       <r>    1.5039    0.0000 </r>
       <r>    2.5077    0.0000 </r>
       <r>    2.8786    0.0000 </r>
      </set>
      <set comment="kpoint 32">
       <r>  -20.3127    1.0000 </r>
       <r>  -16.4221    1.0000 </r>
       <r>  -16.4214    1.0000 </r>
       <r>  -14.0746    1.0000 </r>
       <r>  -14.0742    1.0000 </r>
       <r>  -13.0043    1.0000 </r>
       <r>  -11.6917    1.0000 </r>
       <r>   -9.1191    1.0000 </r>
       <r>   -8.8973    1.0000 </r>
       <r>   -6.7472    1.0000 </r>
       <r>   -6.7462    1.0000 </r>
       <r>   -4.9229    1.0000 </r>
       <r>   -4.9229    1.0000 </r>
       <r>   -4.2433    0.9905 </r>
       <r>   -4.2408    0.9901 </r>
       <r>   -2.4086    0.0000 </r>
       <r>   -0.6760    0.0000 </r>
       <r>   -0.6756    0.0000 </r>
       <r>   -0.0190    0.0000 </r>
       <r>    0.4149    0.0000 </r>
       <r>    1.2728    0.0000 </r>
       <r>    1.4978    0.0000 </r>
       <r>    2.5016    0.0000 </r>
       <r>    2.8725    0.0000 </r>
      </set>
      <set comment="kpoint 33">
       <r>  -20.3127    1.0000 </r>
       <r>  -16.4221    1.0000 </r>
       <r>  -16.4214    1.0000 </r>
       <r>  -14.0746    1.0000 </r>
       <r>  -14.0742    1.0000 </r>
       <r>  -13.0043    1.0000 </r>
       <r>  -11.6917    1.0000 </r>
       <r>   -9.1191    1.0000 </r>
       <r>   -8.8973    1.0000 </r>
       <r>   -6.7472    1.0000 </r>
       <r>   -6.7462    1.0000 </r>
       <r>   -4.9229    1.0000 </r>
       <r>   -4.9229    1.0000 </r>
       <r>   -4.2433    0.9905 </r>
       <r>   -4.2408    0.9901 </r>
       <r>   -2.4086    0.0000 </r>
       <r>   -0.6760    0.0000 </r>
       <r>   -0.6756    0.0000 </r>
       <r>   -0.0190    0.0000 </r>
       <r>    0.4149    0.0000 </r>
       <r>    1.2728    0.0000 </r>
       <r>    1.4978    0.0000 </r>
       <r>    2.5016    0.0000 </r>
       <r>    2.8725    0.0000 </r>
      </set>
      <set comment="kpoint 34">
       <r>  -20.3117    1.0000 </r>
       <r>  -16.4272    1.0000 </r>
       <r>  -16.4232    1.0000 </r>
       <r>  -14.0759    1.0000 </r>
       <r>  -14.0705    1.0000 </r>
       <r>  -12.9992    1.0000 </r>
       <r>  -11.6855    1.0000 </r>
       <r>   -9.1175    1.0000 </r>
       <r>   -8.8994    1.0000 </r>
       <r>   -6.7517    1.0000 </r>
       <r>   -6.7474    1.0000 </r>
       <r>   -4.9277    1.0000 </r>
       <r>   -4.9237    1.0000 </r>
       <r>   -4.2483    0.9914 </r>
       <r>   -4.2438    0.9906 </r>
       <r>   -2.4180    0.0000 </r>
       <r>   -0.6734    0.0000 </r>
       <r>   -0.6620    0.0000 </r>
       <r>   -0.0148    0.0000 </r>
       <r>    0.4168    0.0000 </r>
       <r>    1.2749    0.0000 </r>
       <r>    1.4997    0.0000 </r>
       <r>    2.5035    0.0000 </r>
       <r>    2.8744    0.0000 </r>
      </set>
      <set comment="kpoint 35">
       <r>  -20.3087    1.0000 </r>
       <r>  -16.4428    1.0000 </r>
       <r>  -16.4282    1.0000 </r>
       <r>  -14.0801    1.0000 </r>
       <r>  -14.0592    1.0000 </r>
       <r>  -12.9841    1.0000 </r>
       <r>  -11.6669    1.0000 </r>
       <r>   -9.1129    1.0000 </r>
       <r>   -8.9058    1.0000 </r>
       <r>   -6.7658    1.0000 </r>
       <r>   -6.7502    1.0000 </r>
       <r>   -4.9419    1.0000 </r>
       <r>   -4.9260    1.0000 </r>
       <r>   -4.2644    0.9937 </r>
       <r>   -4.2518    0.9920 </r>
       <r>   -2.4451    0.0000 </r>
       <r>   -0.6667    0.0000 </r>
       <r>   -0.6218    0.0000 </r>
       <r>   -0.0021    0.0000 </r>
       <r>    0.4226    0.0000 </r>
       <r>    1.2811    0.0000 </r>
       <r>    1.5056    0.0000 </r>
       <r>    2.5094    0.0000 </r>
       <r>    2.8803    0.0000 </r>
      </set>
      <set comment="kpoint 36">
       <r>  -20.3036    1.0000 </r>
       <r>  -16.4683    1.0000 </r>
       <r>  -16.4364    1.0000 </r>
       <r>  -14.0873    1.0000 </r>
       <r>  -14.0405    1.0000 </r>
       <r>  -12.9589    1.0000 </r>
       <r>  -11.6363    1.0000 </r>
       <r>   -9.1052    1.0000 </r>
       <r>   -8.9164    1.0000 </r>
       <r>   -6.7891    1.0000 </r>
       <r>   -6.7547    1.0000 </r>
       <r>   -4.9655    1.0000 </r>
       <r>   -4.9300    1.0000 </r>
       <r>   -4.2913    0.9964 </r>
       <r>   -4.2649    0.9938 </r>
       <r>   -2.4874    0.0000 </r>
       <r>   -0.6554    0.0000 </r>
       <r>   -0.5584    0.0000 </r>
       <r>    0.0196    0.0000 </r>
       <r>    0.4323    0.0000 </r>
       <r>    1.2916    0.0000 </r>
       <r>    1.5153    0.0000 </r>
       <r>    2.5192    0.0000 </r>
       <r>    2.8901    0.0000 </r>
      </set>
      <set comment="kpoint 37">
       <r>  -20.2964    1.0000 </r>
       <r>  -16.5031    1.0000 </r>
       <r>  -16.4476    1.0000 </r>
       <r>  -14.0976    1.0000 </r>
       <r>  -14.0147    1.0000 </r>
       <r>  -12.9235    1.0000 </r>
       <r>  -11.5941    1.0000 </r>
       <r>   -9.0944    1.0000 </r>
       <r>   -8.9315    1.0000 </r>
       <r>   -6.8215    1.0000 </r>
       <r>   -6.7607    1.0000 </r>
       <r>   -4.9982    1.0000 </r>
       <r>   -4.9354    1.0000 </r>
       <r>   -4.3287    0.9984 </r>
       <r>   -4.2830    0.9957 </r>
       <r>   -2.5410    0.0000 </r>
       <r>   -0.6399    0.0000 </r>
       <r>   -0.4768    0.0000 </r>
       <r>    0.0512    0.0000 </r>
       <r>    0.4459    0.0000 </r>
       <r>    1.3063    0.0000 </r>
       <r>    1.5290    0.0000 </r>
       <r>    2.5329    0.0000 </r>
       <r>    2.9038    0.0000 </r>
      </set>
      <set comment="kpoint 38">
       <r>  -20.2873    1.0000 </r>
       <r>  -16.5463    1.0000 </r>
       <r>  -16.4615    1.0000 </r>
       <r>  -14.1111    1.0000 </r>
       <r>  -13.9819    1.0000 </r>
       <r>  -12.8782    1.0000 </r>
       <r>  -11.5410    1.0000 </r>
       <r>   -9.0805    1.0000 </r>
       <r>   -8.9511    1.0000 </r>
       <r>   -6.8627    1.0000 </r>
       <r>   -6.7677    1.0000 </r>
       <r>   -5.0398    1.0000 </r>
       <r>   -4.9422    1.0000 </r>
       <r>   -4.3765    0.9995 </r>
       <r>   -4.3060    0.9974 </r>
       <r>   -2.6025    0.0000 </r>
       <r>   -0.6201    0.0000 </r>
       <r>   -0.3824    0.0000 </r>
       <r>    0.0943    0.0000 </r>
       <r>    0.4633    0.0000 </r>
       <r>    1.3252    0.0000 </r>
       <r>    1.5465    0.0000 </r>
       <r>    2.5505    0.0000 </r>
       <r>    2.9214    0.0000 </r>
      </set>
      <set comment="kpoint 39">
       <r>  -20.2762    1.0000 </r>
       <r>  -16.5970    1.0000 </r>
       <r>  -16.4778    1.0000 </r>
       <r>  -14.1279    1.0000 </r>
       <r>  -13.9426    1.0000 </r>
       <r>  -12.8233    1.0000 </r>
       <r>  -11.4776    1.0000 </r>
       <r>   -9.0636    1.0000 </r>
       <r>   -8.9753    1.0000 </r>
       <r>   -6.9124    1.0000 </r>
       <r>   -6.7754    1.0000 </r>
       <r>   -5.0897    1.0000 </r>
       <r>   -4.9503    1.0000 </r>
       <r>   -4.4343    0.9999 </r>
       <r>   -4.3337    0.9986 </r>
       <r>   -2.6688    0.0000 </r>
       <r>   -0.5962    0.0000 </r>
       <r>   -0.2818    0.0000 </r>
       <r>    0.1515    0.0000 </r>
       <r>    0.4846    0.0000 </r>
       <r>    1.3485    0.0000 </r>
       <r>    1.5679    0.0000 </r>
       <r>    2.5720    0.0000 </r>
       <r>    2.9429    0.0000 </r>
      </set>
      <set comment="kpoint 40">
       <r>  -20.2632    1.0000 </r>
       <r>  -16.6542    1.0000 </r>
       <r>  -16.4962    1.0000 </r>
       <r>  -14.1476    1.0000 </r>
       <r>  -13.8972    1.0000 </r>
       <r>  -12.7592    1.0000 </r>
       <r>  -11.4047    1.0000 </r>
       <r>   -9.0436    1.0000 </r>
       <r>   -9.0043    1.0000 </r>
       <r>   -6.9702    1.0000 </r>
       <r>   -6.7833    1.0000 </r>
       <r>   -5.1475    1.0000 </r>
       <r>   -4.9597    1.0000 </r>
       <r>   -4.5019    1.0000 </r>
       <r>   -4.3659    0.9993 </r>
       <r>   -2.7372    0.0000 </r>
       <r>   -0.5688    0.0000 </r>
       <r>   -0.1815    0.0000 </r>
       <r>    0.2261    0.0000 </r>
       <r>    0.5098    0.0000 </r>
       <r>    1.3762    0.0000 </r>
       <r>    1.5932    0.0000 </r>
       <r>    2.5975    0.0000 </r>
       <r>    2.9683    0.0000 </r>
      </set>
      <set comment="kpoint 41">
       <r>  -20.2483    1.0000 </r>
       <r>  -16.7169    1.0000 </r>
       <r>  -16.5164    1.0000 </r>
       <r>  -14.1700    1.0000 </r>
       <r>  -13.8460    1.0000 </r>
       <r>  -12.6867    1.0000 </r>
       <r>  -11.3229    1.0000 </r>
       <r>   -9.0383    1.0000 </r>
       <r>   -9.0206    1.0000 </r>
       <r>   -7.0358    1.0000 </r>
       <r>   -6.7909    1.0000 </r>
       <r>   -5.2127    1.0000 </r>
       <r>   -4.9701    1.0000 </r>
       <r>   -4.5789    1.0000 </r>
       <r>   -4.4024    0.9997 </r>
       <r>   -2.8061    0.0000 </r>
       <r>   -0.5377    0.0000 </r>
       <r>   -0.0874    0.0000 </r>
       <r>    0.3213    0.0000 </r>
       <r>    0.5387    0.0000 </r>
       <r>    1.4084    0.0000 </r>
       <r>    1.6225    0.0000 </r>
       <r>    2.6269    0.0000 </r>
       <r>    2.9976    0.0000 </r>
      </set>
      <set comment="kpoint 42">
       <r>  -20.2315    1.0000 </r>
       <r>  -16.7842    1.0000 </r>
       <r>  -16.5380    1.0000 </r>
       <r>  -14.1947    1.0000 </r>
       <r>  -13.7894    1.0000 </r>
       <r>  -12.6064    1.0000 </r>
       <r>  -11.2329    1.0000 </r>
       <r>   -9.0773    1.0000 </r>
       <r>   -8.9947    1.0000 </r>
       <r>   -7.1086    1.0000 </r>
       <r>   -6.7978    1.0000 </r>
       <r>   -5.2846    1.0000 </r>
       <r>   -4.9814    1.0000 </r>
       <r>   -4.6648    1.0000 </r>
       <r>   -4.4429    0.9999 </r>
       <r>   -2.8739    0.0000 </r>
       <r>   -0.5034    0.0000 </r>
       <r>   -0.0020    0.0000 </r>
       <r>    0.4373    0.0000 </r>
       <r>    0.5716    0.0000 </r>
       <r>    1.4453    0.0000 </r>
       <r>    1.6556    0.0000 </r>
       <r>    2.6602    0.0000 </r>
       <r>    3.0307    0.0000 </r>
      </set>
      <set comment="kpoint 43">
       <r>  -20.2130    1.0000 </r>
       <r>  -16.8552    1.0000 </r>
       <r>  -16.5607    1.0000 </r>
       <r>  -14.2211    1.0000 </r>
       <r>  -13.7280    1.0000 </r>
       <r>  -12.5191    1.0000 </r>
       <r>  -11.1354    1.0000 </r>
       <r>   -9.1214    1.0000 </r>
       <r>   -8.9657    1.0000 </r>
       <r>   -7.1882    1.0000 </r>
       <r>   -6.8034    1.0000 </r>
       <r>   -5.3626    1.0000 </r>
       <r>   -4.9936    1.0000 </r>
       <r>   -4.7593    1.0000 </r>
       <r>   -4.4869    1.0000 </r>
       <r>   -2.9397    0.0000 </r>
       <r>   -0.4660    0.0000 </r>
       <r>    0.0752    0.0000 </r>
       <r>    0.5711    0.0000 </r>
       <r>    0.6082    0.0000 </r>
       <r>    1.4874    0.0000 </r>
       <r>    1.6925    0.0000 </r>
       <r>    2.6974    0.0000 </r>
       <r>    3.0677    0.0000 </r>
      </set>
      <set comment="kpoint 44">
       <r>  -20.1928    1.0000 </r>
       <r>  -16.9290    1.0000 </r>
       <r>  -16.5841    1.0000 </r>
       <r>  -14.2489    1.0000 </r>
       <r>  -13.6620    1.0000 </r>
       <r>  -12.4256    1.0000 </r>
       <r>  -11.0311    1.0000 </r>
       <r>   -9.1706    1.0000 </r>
       <r>   -8.9339    1.0000 </r>
       <r>   -7.2741    1.0000 </r>
       <r>   -6.8074    1.0000 </r>
       <r>   -5.4459    1.0000 </r>
       <r>   -5.0065    1.0000 </r>
       <r>   -4.8618    1.0000 </r>
       <r>   -4.5343    1.0000 </r>
       <r>   -3.0029    0.0000 </r>
       <r>   -0.4261    0.0000 </r>
       <r>    0.1471    0.0000 </r>
       <r>    0.6487    0.0000 </r>
       <r>    0.7181    0.0000 </r>
       <r>    1.5349    0.0000 </r>
       <r>    1.7334    0.0000 </r>
       <r>    2.7386    0.0000 </r>
       <r>    3.1085    0.0000 </r>
      </set>
      <set comment="kpoint 45">
       <r>  -20.1709    1.0000 </r>
       <r>  -17.0048    1.0000 </r>
       <r>  -16.6080    1.0000 </r>
       <r>  -14.2775    1.0000 </r>
       <r>  -13.5921    1.0000 </r>
       <r>  -12.3266    1.0000 </r>
       <r>  -10.9203    1.0000 </r>
       <r>   -9.2248    1.0000 </r>
       <r>   -8.8992    1.0000 </r>
       <r>   -7.3656    1.0000 </r>
       <r>   -6.8092    1.0000 </r>
       <r>   -5.5338    1.0000 </r>
       <r>   -5.0198    1.0000 </r>
       <r>   -4.9720    1.0000 </r>
       <r>   -4.5846    1.0000 </r>
       <r>   -3.0631    0.0000 </r>
       <r>   -0.3838    0.0000 </r>
       <r>    0.2158    0.0000 </r>
       <r>    0.6929    0.0000 </r>
       <r>    0.8736    0.0000 </r>
       <r>    1.5888    0.0000 </r>
       <r>    1.7782    0.0000 </r>
       <r>    2.7838    0.0000 </r>
       <r>    3.1531    0.0000 </r>
      </set>
      <set comment="kpoint 46">
       <r>  -20.1475    1.0000 </r>
       <r>  -17.0819    1.0000 </r>
       <r>  -16.6320    1.0000 </r>
       <r>  -14.3064    1.0000 </r>
       <r>  -13.5185    1.0000 </r>
       <r>  -12.2228    1.0000 </r>
       <r>  -10.8039    1.0000 </r>
       <r>   -9.2839    1.0000 </r>
       <r>   -8.8617    1.0000 </r>
       <r>   -7.4623    1.0000 </r>
       <r>   -6.8087    1.0000 </r>
       <r>   -5.6255    1.0000 </r>
       <r>   -5.0892    1.0000 </r>
       <r>   -5.0334    1.0000 </r>
       <r>   -4.6374    1.0000 </r>
       <r>   -3.1201    0.0000 </r>
       <r>   -0.3398    0.0000 </r>
       <r>    0.2830    0.0000 </r>
       <r>    0.7410    0.0000 </r>
       <r>    1.0336    0.0000 </r>
       <r>    1.6503    0.0000 </r>
       <r>    1.8268    0.0000 </r>
       <r>    2.8330    0.0000 </r>
       <r>    3.2016    0.0000 </r>
      </set>
      <set comment="kpoint 47">
       <r>  -20.1227    1.0000 </r>
       <r>  -17.1597    1.0000 </r>
       <r>  -16.6558    1.0000 </r>
       <r>  -14.3354    1.0000 </r>
       <r>  -13.4418    1.0000 </r>
       <r>  -12.1148    1.0000 </r>
       <r>  -10.6822    1.0000 </r>
       <r>   -9.3477    1.0000 </r>
       <r>   -8.8214    1.0000 </r>
       <r>   -7.5637    1.0000 </r>
       <r>   -6.8056    1.0000 </r>
       <r>   -5.7205    1.0000 </r>
       <r>   -5.2130    1.0000 </r>
       <r>   -5.0472    1.0000 </r>
       <r>   -4.6925    1.0000 </r>
       <r>   -3.1737    0.0000 </r>
       <r>   -0.2943    0.0000 </r>
       <r>    0.3494    0.0000 </r>
       <r>    0.7929    0.0000 </r>
       <r>    1.1935    0.0000 </r>
       <r>    1.7218    0.0000 </r>
       <r>    1.8794    0.0000 </r>
       <r>    2.8861    0.0000 </r>
       <r>    3.2539    0.0000 </r>
      </set>
      <set comment="kpoint 48">
       <r>  -20.0967    1.0000 </r>
       <r>  -17.2376    1.0000 </r>
       <r>  -16.6794    1.0000 </r>
       <r>  -14.3640    1.0000 </r>
       <r>  -13.3623    1.0000 </r>
       <r>  -12.0032    1.0000 </r>
       <r>  -10.5559    1.0000 </r>
       <r>   -9.4157    1.0000 </r>
       <r>   -8.7785    1.0000 </r>
       <r>   -7.6690    1.0000 </r>
       <r>   -6.7997    1.0000 </r>
       <r>   -5.8178    1.0000 </r>
       <r>   -5.3430    1.0000 </r>
       <r>   -5.0611    1.0000 </r>
       <r>   -4.7493    1.0000 </r>
       <r>   -3.2239    0.0000 </r>
       <r>   -0.2478    0.0000 </r>
       <r>    0.4155    0.0000 </r>
       <r>    0.8485    0.0000 </r>
       <r>    1.3482    0.0000 </r>
       <r>    1.8069    0.0000 </r>
       <r>    1.9358    0.0000 </r>
       <r>    2.9434    0.0000 </r>
       <r>    3.3100    0.0000 </r>
      </set>
      <set comment="kpoint 49">
       <r>  -20.0695    1.0000 </r>
       <r>  -17.3150    1.0000 </r>
       <r>  -16.7024    1.0000 </r>
       <r>  -14.3919    1.0000 </r>
       <r>  -13.2805    1.0000 </r>
       <r>  -11.8884    1.0000 </r>
       <r>  -10.4255    1.0000 </r>
       <r>   -9.4878    1.0000 </r>
       <r>   -8.7330    1.0000 </r>
       <r>   -7.7776    1.0000 </r>
       <r>   -6.7910    1.0000 </r>
       <r>   -5.9171    1.0000 </r>
       <r>   -5.4787    1.0000 </r>
       <r>   -5.0749    1.0000 </r>
       <r>   -4.8075    1.0000 </r>
       <r>   -3.2707    0.0000 </r>
       <r>   -0.2008    0.0000 </r>
       <r>    0.4811    0.0000 </r>
       <r>    0.9079    0.0000 </r>
       <r>    1.4919    0.0000 </r>
       <r>    1.9102    0.0000 </r>
       <r>    1.9961    0.0000 </r>
       <r>    3.0047    0.0000 </r>
       <r>    3.3699    0.0000 </r>
      </set>
      <set comment="kpoint 50">
       <r>  -20.0415    1.0000 </r>
       <r>  -17.3914    1.0000 </r>
       <r>  -16.7246    1.0000 </r>
       <r>  -14.4190    1.0000 </r>
       <r>  -13.1968    1.0000 </r>
       <r>  -11.7709    1.0000 </r>
       <r>  -10.2916    1.0000 </r>
       <r>   -9.5632    1.0000 </r>
       <r>   -8.6851    1.0000 </r>
       <r>   -7.8887    1.0000 </r>
       <r>   -6.7795    1.0000 </r>
       <r>   -6.0174    1.0000 </r>
       <r>   -5.6195    1.0000 </r>
       <r>   -5.0884    1.0000 </r>
       <r>   -4.8666    1.0000 </r>
       <r>   -3.3142    0.0000 </r>
       <r>   -0.1535    0.0000 </r>
       <r>    0.5462    0.0000 </r>
       <r>    0.9711    0.0000 </r>
       <r>    1.6197    0.0000 </r>
       <r>    2.0357    0.0000 </r>
       <r>    2.0602    0.0000 </r>
       <r>    3.0702    0.0000 </r>
       <r>    3.4336    0.0000 </r>
      </set>
      <set comment="kpoint 51">
       <r>  -20.0127    1.0000 </r>
       <r>  -17.4662    1.0000 </r>
       <r>  -16.7459    1.0000 </r>
       <r>  -14.4449    1.0000 </r>
       <r>  -13.1119    1.0000 </r>
       <r>  -11.6511    1.0000 </r>
       <r>  -10.1551    1.0000 </r>
       <r>   -9.6415    1.0000 </r>
       <r>   -8.6349    1.0000 </r>
       <r>   -8.0015    1.0000 </r>
       <r>   -6.7653    1.0000 </r>
       <r>   -6.1182    1.0000 </r>
       <r>   -5.7649    1.0000 </r>
       <r>   -5.1016    1.0000 </r>
       <r>   -4.9261    1.0000 </r>
       <r>   -3.3544    0.0000 </r>
       <r>   -0.1067    0.0000 </r>
       <r>    0.6102    0.0000 </r>
       <r>    1.0381    0.0000 </r>
       <r>    1.7314    0.0000 </r>
       <r>    2.1283    0.0000 </r>
       <r>    2.1826    0.0000 </r>
       <r>    3.1400    0.0000 </r>
       <r>    3.5011    0.0000 </r>
      </set>
      <set comment="kpoint 52">
       <r>  -19.9834    1.0000 </r>
       <r>  -17.5389    1.0000 </r>
       <r>  -16.7662    1.0000 </r>
       <r>  -14.4695    1.0000 </r>
       <r>  -13.0262    1.0000 </r>
       <r>  -11.5294    1.0000 </r>
       <r>  -10.0170    1.0000 </r>
       <r>   -9.7219    1.0000 </r>
       <r>   -8.5825    1.0000 </r>
       <r>   -8.1149    1.0000 </r>
       <r>   -6.7487    1.0000 </r>
       <r>   -6.2189    1.0000 </r>
       <r>   -5.9145    1.0000 </r>
       <r>   -5.1143    1.0000 </r>
       <r>   -4.9855    1.0000 </r>
       <r>   -3.3913    0.0001 </r>
       <r>   -0.0607    0.0000 </r>
       <r>    0.6730    0.0000 </r>
       <r>    1.1089    0.0000 </r>
       <r>    1.8313    0.0000 </r>
       <r>    2.2002    0.0000 </r>
       <r>    2.3459    0.0000 </r>
       <r>    3.2141    0.0000 </r>
       <r>    3.5725    0.0000 </r>
      </set>
      <set comment="kpoint 53">
       <r>  -19.9540    1.0000 </r>
       <r>  -17.6090    1.0000 </r>
       <r>  -16.7852    1.0000 </r>
       <r>  -14.4925    1.0000 </r>
       <r>  -12.9403    1.0000 </r>
       <r>  -11.4061    1.0000 </r>
       <r>   -9.8786    1.0000 </r>
       <r>   -9.8038    1.0000 </r>
       <r>   -8.5283    1.0000 </r>
       <r>   -8.2272    1.0000 </r>
       <r>   -6.7298    1.0000 </r>
       <r>   -6.3189    1.0000 </r>
       <r>   -6.0678    1.0000 </r>
       <r>   -5.1264    1.0000 </r>
       <r>   -5.0445    1.0000 </r>
       <r>   -3.4251    0.0003 </r>
       <r>   -0.0161    0.0000 </r>
       <r>    0.7340    0.0000 </r>
       <r>    1.1834    0.0000 </r>
       <r>    1.9244    0.0000 </r>
       <r>    2.2760    0.0000 </r>
[...]
        <r>  0.0012  0.0002  0.0000  0.0005  0.0000  0.0000  0.0000  0.0000  0.0000 </r>
        <r>  0.0006  0.0001  0.0000  0.0009  0.0000  0.0000  0.0000  0.0000  0.0000 </r>
        <r>  0.0032  0.0010  0.0000  0.0004  0.0000  0.0000  0.0000  0.0000  0.0000 </r>
        <r>  0.0005  0.0006  0.0000  0.0004  0.0000  0.0000  0.0000  0.0000  0.0000 </r>
        <r>  0.0034  0.0001  0.0000  0.0014  0.0000  0.0000  0.0000  0.0000  0.0000 </r>
        <r>  0.0005  0.0004  0.0000  0.0012  0.0000  0.0000  0.0000  0.0000  0.0000 </r>
       </set>
      </set>
      <set comment="kpoint 96">
       <set comment="band 1">
        <r>  0.0150  0.0012  0.0000  0.0037  0.0000  0.0000  0.0000  0.0000  0.0000 </r>
        <r>  0.0150  0.0012  0.0000  0.0037  0.0000  0.0000  0.0000  0.0000  0.0000 </r>
        <r>  0.0866  0.0022  0.0000  0.0066  0.0000  0.0000  0.0000  0.0000  0.0000 </r>
        <r>  0.0976  0.0012  0.0000  0.0063  0.0000  0.0000  0.0000  0.0000  0.0000 </r>
        <r>  0.0976  0.0069  0.0000  0.0005  0.0000  0.0000  0.0000  0.0000  0.0000 </r>
        <r>  0.0976  0.0069  0.0000  0.0005  0.0000  0.0000  0.0000  0.0000  0.0000 </r>
        <r>  0.0976  0.0012  0.0000  0.0063  0.0000  0.0000  0.0000  0.0000  0.0000 </r>
        <r>  0.0866  0.0022  0.0000  0.0066  0.0000  0.0000  0.0000  0.0000  0.0000 </r>
       </set>
       <set comment="band 2">
        <r>  0.0363  0.0020  0.0000  0.0060  0.0000  0.0000  0.0000  0.0000  0.0000 </r>
        <r>  0.0363  0.0020  0.0000  0.0060  0.0000  0.0000  0.0000  0.0000  0.0000 </r>
        <r>  0.1561  0.0009  0.0000  0.0026  0.0000  0.0000  0.0000  0.0000  0.0000 </r>
        <r>  0.0473  0.0124  0.0000  0.0056  0.0000  0.0000  0.0000  0.0000  0.0000 </r>
        <r>  0.0471  0.0016  0.0000  0.0164  0.0000  0.0000  0.0000  0.0000  0.0000 </r>
        <r>  0.0471  0.0016  0.0000  0.0164  0.0000  0.0000  0.0000  0.0000  0.0000 </r>
        <r>  0.0473  0.0124  0.0000  0.0056  0.0000  0.0000  0.0000  0.0000  0.0000 </r>
        <r>  0.1562  0.0009  0.0000  0.0026  0.0000  0.0000  0.0000  0.0000  0.0000 </r>
       </set>
       <set comment="band 3">
        <r>  0.0000  0.0173  0.0000  0.0058  0.0000  0.0000  0.0000  0.0000  0.0000 </r>
        <r>  0.0000  0.0173  0.0000  0.0058  0.0000  0.0000  0.0000  0.0000  0.0000 </r>
        <r>  0.0000  0.0265  0.0000  0.0088  0.0000  0.0000  0.0000  0.0000  0.0000 </r>
        <r>  0.1387  0.0007  0.0000  0.0057  0.0000  0.0000  0.0000  0.0000  0.0000 </r>
        <r>  0.1389  0.0028  0.0000  0.0036  0.0000  0.0000  0.0000  0.0000  0.0000 </r>
        <r>  0.1389  0.0028  0.0000  0.0036  0.0000  0.0000  0.0000  0.0000  0.0000 </r>
        <r>  0.1387  0.0007  0.0000  0.0057  0.0000  0.0000  0.0000  0.0000  0.0000 </r>
        <r>  0.0000  0.0265  0.0000  0.0088  0.0000  0.0000  0.0000  0.0000  0.0000 </r>
       </set>
       <set comment="band 4">
        <r>  0.0807  0.0019  0.0000  0.0058  0.0000  0.0000  0.0000  0.0000  0.0000 </r>
        <r>  0.0807  0.0019  0.0000  0.0058  0.0000  0.0000  0.0000  0.0000  0.0000 </r>
        <r>  0.1021  0.0000  0.0000  0.0001  0.0000  0.0000  0.0000  0.0000  0.0000 </r>
        <r>  0.0152  0.0553  0.0000  0.0003  0.0000  0.0000  0.0000  0.0000  0.0000 </r>
        <r>  0.0151  0.0145  0.0000  0.0412  0.0000  0.0000  0.0000  0.0000  0.0000 </r>
        <r>  0.0151  0.0145  0.0000  0.0412  0.0000  0.0000  0.0000  0.0000  0.0000 </r>
        <r>  0.0152  0.0553  0.0000  0.0003  0.0000  0.0000  0.0000  0.0000  0.0000 </r>
        <r>  0.1021  0.0000  0.0000  0.0001  0.0000  0.0000  0.0000  0.0000  0.0000 </r>
       </set>
       <set comment="band 5">
        <r>  0.0000  0.0287  0.0000  0.0095  0.0000  0.0000  0.0000  0.0000  0.0000 </r>
        <r>  0.0000  0.0287  0.0000  0.0095  0.0000  0.0000  0.0000  0.0000  0.0000 </r>
        <r>  0.0000  0.0658  0.0000  0.0220  0.0000  0.0000  0.0000  0.0000  0.0000 </r>
        <r>  0.0816  0.0141  0.0000  0.0180  0.0000  0.0000  0.0000  0.0000  0.0000 </r>
        <r>  0.0816  0.0035  0.0000  0.0286  0.0000  0.0000  0.0000  0.0000  0.0000 </r>
        <r>  0.0816  0.0035  0.0000  0.0286  0.0000  0.0000  0.0000  0.0000  0.0000 </r>
        <r>  0.0815  0.0141  0.0000  0.0180  0.0000  0.0000  0.0000  0.0000  0.0000 </r>
        <r>  0.0000  0.0658  0.0000  0.0220  0.0000  0.0000  0.0000  0.0000  0.0000 </r>
       </set>
       <set comment="band 6">
        <r>  0.0950  0.0043  0.0000  0.0129  0.0000  0.0000  0.0000  0.0000  0.0000 </r>
        <r>  0.0950  0.0043  0.0000  0.0129  0.0000  0.0000  0.0000  0.0000  0.0000 </r>
        <r>  0.0374  0.0172  0.0000  0.0515  0.0000  0.0000  0.0000  0.0000  0.0000 </r>
        <r>  0.0007  0.0193  0.0000  0.0388  0.0000  0.0000  0.0000  0.0000  0.0000 </r>
        <r>  0.0007  0.0516  0.0000  0.0064  0.0000  0.0000  0.0000  0.0000  0.0000 </r>
        <r>  0.0007  0.0516  0.0000  0.0064  0.0000  0.0000  0.0000  0.0000  0.0000 </r>
        <r>  0.0007  0.0193  0.0000  0.0388  0.0000  0.0000  0.0000  0.0000  0.0000 </r>
        <r>  0.0374  0.0172  0.0000  0.0515  0.0000  0.0000  0.0000  0.0000  0.0000 </r>
       </set>
       <set comment="band 7">
        <r>  0.0000  0.0113  0.0000  0.0038  0.0000  0.0000  0.0000  0.0000  0.0000 </r>
        <r>  0.0000  0.0113  0.0000  0.0038  0.0000  0.0000  0.0000  0.0000  0.0000 </r>
        <r>  0.0000  0.0652  0.0000  0.0217  0.0000  0.0000  0.0000  0.0000  0.0000 </r>
        <r>  0.0092  0.0592  0.0000  0.0599  0.0000  0.0000  0.0000  0.0000  0.0000 </r>
        <r>  0.0092  0.0083  0.0000  0.1107  0.0000  0.0000  0.0000  0.0000  0.0000 </r>
        <r>  0.0092  0.0083  0.0000  0.1106  0.0000  0.0000  0.0000  0.0000  0.0000 </r>
        <r>  0.0092  0.0591  0.0000  0.0598  0.0000  0.0000  0.0000  0.0000  0.0000 </r>
        <r>  0.0000  0.0652  0.0000  0.0217  0.0000  0.0000  0.0000  0.0000  0.0000 </r>
       </set>
       <set comment="band 8">
        <r>  0.0969  0.0119  0.0000  0.0358  0.0000  0.0000  0.0000  0.0000  0.0000 </r>
        <r>  0.0968  0.0119  0.0000  0.0357  0.0000  0.0000  0.0000  0.0000  0.0000 </r>
        <r>  0.0310  0.0032  0.0000  0.0097  0.0000  0.0000  0.0000  0.0000  0.0000 </r>
        <r>  0.0263  0.0158  0.0000  0.0459  0.0000  0.0000  0.0000  0.0000  0.0000 </r>
        <r>  0.0263  0.0299  0.0000  0.0317  0.0000  0.0000  0.0000  0.0000  0.0000 </r>
        <r>  0.0263  0.0300  0.0000  0.0318  0.0000  0.0000  0.0000  0.0000  0.0000 </r>
        <r>  0.0263  0.0159  0.0000  0.0459  0.0000  0.0000  0.0000  0.0000  0.0000 </r>
        <r>  0.0310  0.0032  0.0000  0.0097  0.0000  0.0000  0.0000  0.0000  0.0000 </r>
       </set>
       <set comment="band 9">
        <r>  0.0000  0.0000  0.0242  0.0000  0.0000  0.0000  0.0000  0.0000  0.0000 </r>
        <r>  0.0000  0.0000  0.0243  0.0000  0.0000  0.0000  0.0000  0.0000  0.0000 </r>
        <r>  0.0000  0.0000  0.0588  0.0000  0.0000  0.0000  0.0000  0.0000  0.0000 </r>
        <r>  0.0000  0.0000  0.0643  0.0000  0.0000  0.0000  0.0000  0.0000  0.0000 </r>
        <r>  0.0000  0.0000  0.0643  0.0000  0.0000  0.0000  0.0000  0.0000  0.0000 </r>
        <r>  0.0000  0.0000  0.0643  0.0000  0.0000  0.0000  0.0000  0.0000  0.0000 </r>
        <r>  0.0000  0.0000  0.0643  0.0000  0.0000  0.0000  0.0000  0.0000  0.0000 </r>
        <r>  0.0000  0.0000  0.0588  0.0000  0.0000  0.0000  0.0000  0.0000  0.0000 </r>
       </set>
       <set comment="band 10">
        <r>  0.0306  0.0237  0.0000  0.0711  0.0000  0.0000  0.0000  0.0000  0.0000 </r>
        <r>  0.0306  0.0237  0.0000  0.0711  0.0000  0.0000  0.0000  0.0000  0.0000 </r>
        <r>  0.0156  0.0359  0.0000  0.1077  0.0000  0.0000  0.0000  0.0000  0.0000 </r>
        <r>  0.0013  0.0233  0.0000  0.0117  0.0000  0.0000  0.0000  0.0000  0.0000 </r>
        <r>  0.0013  0.0288  0.0000  0.0062  0.0000  0.0000  0.0000  0.0000  0.0000 </r>
        <r>  0.0013  0.0288  0.0000  0.0062  0.0000  0.0000  0.0000  0.0000  0.0000 </r>
        <r>  0.0013  0.0233  0.0000  0.0117  0.0000  0.0000  0.0000  0.0000  0.0000 </r>
        <r>  0.0156  0.0359  0.0000  0.1077  0.0000  0.0000  0.0000  0.0000  0.0000 </r>
       </set>
       <set comment="band 11">
        <r>  0.0000  0.0800  0.0000  0.0267  0.0000  0.0000  0.0000  0.0000  0.0000 </r>
        <r>  0.0000  0.0800  0.0000  0.0267  0.0000  0.0000  0.0000  0.0000  0.0000 </r>
        <r>  0.0000  0.0310  0.0000  0.0103  0.0000  0.0000  0.0000  0.0000  0.0000 </r>
        <r>  0.0015  0.0549  0.0000  0.0591  0.0000  0.0000  0.0000  0.0000  0.0000 </r>
        <r>  0.0015  0.1075  0.0000  0.0066  0.0000  0.0000  0.0000  0.0000  0.0000 </r>
        <r>  0.0015  0.1075  0.0000  0.0066  0.0000  0.0000  0.0000  0.0000  0.0000 </r>
        <r>  0.0015  0.0549  0.0000  0.0591  0.0000  0.0000  0.0000  0.0000  0.0000 </r>
        <r>  0.0000  0.0309  0.0000  0.0103  0.0000  0.0000  0.0000  0.0000  0.0000 </r>
       </set>
       <set comment="band 12">
        <r>  0.0000  0.0000  0.0316  0.0000  0.0000  0.0000  0.0000  0.0000  0.0000 </r>
        <r>  0.0000  0.0000  0.0316  0.0000  0.0000  0.0000  0.0000  0.0000  0.0000 </r>
        <r>  0.0000  0.0000  0.1030  0.0000  0.0000  0.0000  0.0000  0.0000  0.0000 </r>
        <r>  0.0000  0.0000  0.0437  0.0000  0.0000  0.0000  0.0000  0.0000  0.0000 </r>
        <r>  0.0000  0.0000  0.0436  0.0000  0.0000  0.0000  0.0000  0.0000  0.0000 </r>
        <r>  0.0000  0.0000  0.0436  0.0000  0.0000  0.0000  0.0000  0.0000  0.0000 </r>
        <r>  0.0000  0.0000  0.0437  0.0000  0.0000  0.0000  0.0000  0.0000  0.0000 </r>
        <r>  0.0000  0.0000  0.1030  0.0000  0.0000  0.0000  0.0000  0.0000  0.0000 </r>
       </set>
       <set comment="band 13">
        <r>  0.0228  0.0244  0.0000  0.0733  0.0000  0.0000  0.0000  0.0000  0.0000 </r>
        <r>  0.0228  0.0244  0.0000  0.0734  0.0000  0.0000  0.0000  0.0000  0.0000 </r>
        <r>  0.0094  0.0214  0.0000  0.0644  0.0000  0.0000  0.0000  0.0000  0.0000 </r>
        <r>  0.0158  0.0188  0.0000  0.0502  0.0000  0.0000  0.0000  0.0000  0.0000 </r>
        <r>  0.0158  0.0169  0.0000  0.0520  0.0000  0.0000  0.0000  0.0000  0.0000 </r>
        <r>  0.0158  0.0169  0.0000  0.0520  0.0000  0.0000  0.0000  0.0000  0.0000 </r>
        <r>  0.0158  0.0188  0.0000  0.0502  0.0000  0.0000  0.0000  0.0000  0.0000 </r>
        <r>  0.0094  0.0214  0.0000  0.0644  0.0000  0.0000  0.0000  0.0000  0.0000 </r>
       </set>
       <set comment="band 14">
        <r>  0.0000  0.0000  0.0000  0.0000  0.0000  0.0000  0.0000  0.0000  0.0000 </r>
        <r>  0.0000  0.0000  0.0000  0.0000  0.0000  0.0000  0.0000  0.0000  0.0000 </r>
        <r>  0.0000  0.0000  0.0000  0.0000  0.0000  0.0000  0.0000  0.0000  0.0000 </r>
        <r>  0.0000  0.0000  0.1183  0.0000  0.0000  0.0000  0.0000  0.0000  0.0000 </r>
        <r>  0.0000  0.0000  0.1184  0.0000  0.0000  0.0000  0.0000  0.0000  0.0000 </r>
        <r>  0.0000  0.0000  0.1184  0.0000  0.0000  0.0000  0.0000  0.0000  0.0000 </r>
        <r>  0.0000  0.0000  0.1183  0.0000  0.0000  0.0000  0.0000  0.0000  0.0000 </r>
        <r>  0.0000  0.0000  0.0000  0.0000  0.0000  0.0000  0.0000  0.0000  0.0000 </r>
       </set>
       <set comment="band 15">
        <r>  0.0000  0.0925  0.0000  0.0308  0.0000  0.0000  0.0000  0.0000  0.0000 </r>
        <r>  0.0000  0.0925  0.0000  0.0308  0.0000  0.0000  0.0000  0.0000  0.0000 </r>
        <r>  0.0000  0.0659  0.0000  0.0219  0.0000  0.0000  0.0000  0.0000  0.0000 </r>
        <r>  0.0026  0.0634  0.0000  0.0262  0.0000  0.0000  0.0000  0.0000  0.0000 </r>
        <r>  0.0026  0.0707  0.0000  0.0188  0.0000  0.0000  0.0000  0.0000  0.0000 </r>
        <r>  0.0026  0.0707  0.0000  0.0188  0.0000  0.0000  0.0000  0.0000  0.0000 </r>
        <r>  0.0026  0.0633  0.0000  0.0261  0.0000  0.0000  0.0000  0.0000  0.0000 </r>
        <r>  0.0000  0.0659  0.0000  0.0219  0.0000  0.0000  0.0000  0.0000  0.0000 </r>
       </set>
       <set comment="band 16">
        <r>  0.0000  0.0000  0.1164  0.0000  0.0000  0.0000  0.0000  0.0000  0.0000 </r>
        <r>  0.0000  0.0000  0.1164  0.0000  0.0000  0.0000  0.0000  0.0000  0.0000 </r>
        <r>  0.0000  0.0000  0.0992  0.0000  0.0000  0.0000  0.0000  0.0000  0.0000 </r>
        <r>  0.0000  0.0000  0.0062  0.0000  0.0000  0.0000  0.0000  0.0000  0.0000 </r>
        <r>  0.0000  0.0000  0.0061  0.0000  0.0000  0.0000  0.0000  0.0000  0.0000 </r>
        <r>  0.0000  0.0000  0.0061  0.0000  0.0000  0.0000  0.0000  0.0000  0.0000 </r>
        <r>  0.0000  0.0000  0.0062  0.0000  0.0000  0.0000  0.0000  0.0000  0.0000 </r>
        <r>  0.0000  0.0000  0.0992  0.0000  0.0000  0.0000  0.0000  0.0000  0.0000 </r>
       </set>
       <set comment="band 17">
        <r>  0.0000  0.0000  0.0000  0.0000  0.0000  0.0000  0.0000  0.0000  0.0000 </r>
        <r>  0.0000  0.0000  0.0000  0.0000  0.0000  0.0000  0.0000  0.0000  0.0000 </r>
        <r>  0.0000  0.0000  0.0000  0.0000  0.0000  0.0000  0.0000  0.0000  0.0000 </r>
        <r>  0.0000  0.0000  0.1237  0.0000  0.0000  0.0000  0.0000  0.0000  0.0000 </r>
        <r>  0.0000  0.0000  0.1237  0.0000  0.0000  0.0000  0.0000  0.0000  0.0000 </r>
        <r>  0.0000  0.0000  0.1237  0.0000  0.0000  0.0000  0.0000  0.0000  0.0000 </r>
        <r>  0.0000  0.0000  0.1237  0.0000  0.0000  0.0000  0.0000  0.0000  0.0000 </r>
        <r>  0.0000  0.0000  0.0000  0.0000  0.0000  0.0000  0.0000  0.0000  0.0000 </r>
       </set>
       <set comment="band 18">
        <r>  0.0000  0.0000  0.1138  0.0000  0.0000  0.0000  0.0000  0.0000  0.0000 </r>
        <r>  0.0000  0.0000  0.1138  0.0000  0.0000  0.0000  0.0000  0.0000  0.0000 </r>
        <r>  0.0000  0.0000  0.1145  0.0000  0.0000  0.0000  0.0000  0.0000  0.0000 </r>
        <r>  0.0000  0.0000  0.0004  0.0000  0.0000  0.0000  0.0000  0.0000  0.0000 </r>
        <r>  0.0000  0.0000  0.0004  0.0000  0.0000  0.0000  0.0000  0.0000  0.0000 </r>
        <r>  0.0000  0.0000  0.0004  0.0000  0.0000  0.0000  0.0000  0.0000  0.0000 </r>
        <r>  0.0000  0.0000  0.0004  0.0000  0.0000  0.0000  0.0000  0.0000  0.0000 </r>
        <r>  0.0000  0.0000  0.1145  0.0000  0.0000  0.0000  0.0000  0.0000  0.0000 </r>
       </set>
       <set comment="band 19">
        <r>  0.0008  0.0000  0.0000  0.0000  0.0000  0.0000  0.0000  0.0000  0.0000 </r>
        <r>  0.0008  0.0000  0.0000  0.0000  0.0000  0.0000  0.0000  0.0000  0.0000 </r>
        <r>  0.0020  0.0003  0.0000  0.0008  0.0000  0.0000  0.0000  0.0000  0.0000 </r>
        <r>  0.0032  0.0000  0.0000  0.0007  0.0000  0.0000  0.0000  0.0000  0.0000 </r>
        <r>  0.0032  0.0006  0.0000  0.0002  0.0000  0.0000  0.0000  0.0000  0.0000 </r>
        <r>  0.0032  0.0006  0.0000  0.0002  0.0000  0.0000  0.0000  0.0000  0.0000 </r>
        <r>  0.0032  0.0000  0.0000  0.0007  0.0000  0.0000  0.0000  0.0000  0.0000 </r>
        <r>  0.0020  0.0003  0.0000  0.0008  0.0000  0.0000  0.0000  0.0000  0.0000 </r>
       </set>
       <set comment="band 20">
        <r>  0.0000  0.0000  0.0092  0.0000  0.0000  0.0000  0.0000  0.0000  0.0000 </r>
        <r>  0.0000  0.0000  0.0092  0.0000  0.0000  0.0000  0.0000  0.0000  0.0000 </r>
        <r>  0.0000  0.0000  0.0069  0.0000  0.0000  0.0000  0.0000  0.0000  0.0000 </r>
        <r>  0.0000  0.0000  0.0157  0.0000  0.0000  0.0000  0.0000  0.0000  0.0000 </r>
        <r>  0.0000  0.0000  0.0157  0.0000  0.0000  0.0000  0.0000  0.0000  0.0000 </r>
        <r>  0.0000  0.0000  0.0157  0.0000  0.0000  0.0000  0.0000  0.0000  0.0000 </r>
        <r>  0.0000  0.0000  0.0157  0.0000  0.0000  0.0000  0.0000  0.0000  0.0000 </r>
        <r>  0.0000  0.0000  0.0069  0.0000  0.0000  0.0000  0.0000  0.0000  0.0000 </r>
       </set>
       <set comment="band 21">
        <r>  0.0000  0.0000  0.0000  0.0000  0.0000  0.0000  0.0000  0.0000  0.0000 </r>
        <r>  0.0000  0.0000  0.0000  0.0000  0.0000  0.0000  0.0000  0.0000  0.0000 </r>
        <r>  0.0002  0.0000  0.0000  0.0001  0.0000  0.0000  0.0000  0.0000  0.0000 </r>
        <r>  0.0004  0.0000  0.0000  0.0001  0.0000  0.0000  0.0000  0.0000  0.0000 </r>
        <r>  0.0004  0.0001  0.0000  0.0000  0.0000  0.0000  0.0000  0.0000  0.0000 </r>
        <r>  0.0004  0.0001  0.0000  0.0000  0.0000  0.0000  0.0000  0.0000  0.0000 </r>
        <r>  0.0004  0.0000  0.0000  0.0001  0.0000  0.0000  0.0000  0.0000  0.0000 </r>
        <r>  0.0002  0.0000  0.0000  0.0001  0.0000  0.0000  0.0000  0.0000  0.0000 </r>
       </set>
       <set comment="band 22">
        <r>  0.0000  0.0000  0.0598  0.0000  0.0000  0.0000  0.0000  0.0000  0.0000 </r>
        <r>  0.0000  0.0000  0.0599  0.0000  0.0000  0.0000  0.0000  0.0000  0.0000 </r>
        <r>  0.0000  0.0000  0.0427  0.0000  0.0000  0.0000  0.0000  0.0000  0.0000 </r>
        <r>  0.0000  0.0000  0.0541  0.0000  0.0000  0.0000  0.0000  0.0000  0.0000 </r>
        <r>  0.0000  0.0000  0.0541  0.0000  0.0000  0.0000  0.0000  0.0000  0.0000 </r>
        <r>  0.0000  0.0000  0.0541  0.0000  0.0000  0.0000  0.0000  0.0000  0.0000 </r>
        <r>  0.0000  0.0000  0.0541  0.0000  0.0000  0.0000  0.0000  0.0000  0.0000 </r>
        <r>  0.0000  0.0000  0.0426  0.0000  0.0000  0.0000  0.0000  0.0000  0.0000 </r>
       </set>
       <set comment="band 23">
        <r>  0.0000  0.0000  0.0178  0.0000  0.0000  0.0000  0.0000  0.0000  0.0000 </r>
        <r>  0.0000  0.0000  0.0178  0.0000  0.0000  0.0000  0.0000  0.0000  0.0000 </r>
        <r>  0.0000  0.0000  0.0059  0.0000  0.0000  0.0000  0.0000  0.0000  0.0000 </r>
        <r>  0.0000  0.0000  0.0013  0.0000  0.0000  0.0000  0.0000  0.0000  0.0000 </r>
        <r>  0.0000  0.0000  0.0013  0.0000  0.0000  0.0000  0.0000  0.0000  0.0000 </r>
        <r>  0.0000  0.0000  0.0013  0.0000  0.0000  0.0000  0.0000  0.0000  0.0000 </r>
        <r>  0.0000  0.0000  0.0013  0.0000  0.0000  0.0000  0.0000  0.0000  0.0000 </r>
        <r>  0.0000  0.0000  0.0059  0.0000  0.0000  0.0000  0.0000  0.0000  0.0000 </r>
       </set>
       <set comment="band 24">
        <r>  0.0004  0.0002  0.0000  0.0005  0.0000  0.0000  0.0000  0.0000  0.0000 </r>
        <r>  0.0004  0.0002  0.0000  0.0005  0.0000  0.0000  0.0000  0.0000  0.0000 </r>
        <r>  0.0012  0.0006  0.0000  0.0017  0.0000  0.0000  0.0000  0.0000  0.0000 </r>
        <r>  0.0027  0.0001  0.0000  0.0021  0.0000  0.0000  0.0000  0.0000  0.0000 </r>
        <r>  0.0030  0.0013  0.0000  0.0010  0.0000  0.0000  0.0000  0.0000  0.0000 </r>
        <r>  0.0027  0.0012  0.0000  0.0010  0.0000  0.0000  0.0000  0.0000  0.0000 </r>
        <r>  0.0030  0.0001  0.0000  0.0021  0.0000  0.0000  0.0000  0.0000  0.0000 </r>
        <r>  0.0011  0.0006  0.0000  0.0017  0.0000  0.0000  0.0000  0.0000  0.0000 </r>
       </set>
      </set>
     </set>
    </set>
   </array>
  </projected>
 </calculation>
 <structure name="finalpos" >
  <crystal>
   <varray name="basis" >
    <v>       5.17400000       0.00000000       0.00000000 </v>
    <v>       2.58700000       4.48100000       0.00000000 </v>
    <v>       0.00000000       0.00000000      20.00000000 </v>
   </varray>
   <i name="volume">    463.69388000 </i>
   <varray name="rec_basis" >
    <v>       0.19327406      -0.11158224       0.00000000 </v>
    <v>       0.00000000       0.22316447       0.00000000 </v>
    <v>       0.00000000       0.00000000       0.05000000 </v>
   </varray>
  </crystal>
  <varray name="positions" >
   <v>       0.17457326       0.17462620       0.00000000 </v>
   <v>       0.50792519       0.50792234       0.00000000 </v>
   <v>       0.00000000       0.00000000       0.00000000 </v>
   <v>       0.52377271       0.00000000       0.00000000 </v>
   <v>       0.68255138       0.15866994       0.00000000 </v>
   <v>       0.99994706       0.52387860       0.00000000 </v>
   <v>       0.15872573       0.68254854       0.00000000 </v>
   <v>       0.68249844       0.68254854       0.00000000 </v>
  </varray>
 </structure>
</modeling>
