 running on   12 total cores
 distrk:  each k-point on   12 cores,    1 groups
 distr:  one band on    1 cores,   12 groups
 using from now: INCAR     
 vasp.5.4.4.18Apr17-6-g9f103f2a35 (build Mar 30 2023 15:39:25) complex          
  
 POSCAR found type information on POSCAR  B  C 
 POSCAR found :  2 types and       8 ions
 scaLAPACK will be used

 ----------------------------------------------------------------------------- 
|                                                                             |
|           W    W    AA    RRRRR   N    N  II  N    N   GGGG   !!!           |
|           W    W   A  A   R    R  NN   N  II  NN   N  G    G  !!!           |
|           W    W  A    A  R    R  N N  N  II  N N  N  G       !!!           |
|           W WW W  AAAAAA  RRRRR   N  N N  II  N  N N  G  GGG   !            |
|           WW  WW  A    A  R   R   N   NN  II  N   NN  G    G                |
|           W    W  A    A  R    R  N    N  II  N    N   GGGG   !!!           |
|                                                                             |
|      For optimal performance we recommend to set                            |
|        NCORE= 4 - approx SQRT( number of cores)                             |
|      NCORE specifies how many cores store one orbital (NPAR=cpu/NCORE).     |
|      This setting can  greatly improve the performance of VASP for DFT.     |
|      The default,   NCORE=1            might be grossly inefficient         |
|      on modern multi-core architectures or massively parallel machines.     |
|      Do your own testing !!!!                                               |
|      Unfortunately you need to use the default for GW and RPA calculations. |
|      (for HF NCORE is supported but not extensively tested yet)             |
|                                                                             |
 ----------------------------------------------------------------------------- 

 LDA part: xc-table for Pade appr. of Perdew
 WARNING: stress and forces are not correct
 POSCAR, INCAR and KPOINTS ok, starting setup
 FFT: planning ...
 WAVECAR not read
 charge-density read from file: BC3                                     
 entering main loop
       N       E                     dE             d eps       ncg     rms          rms(c)
DAV:   1     0.169600612609E+03    0.16960E+03   -0.89347E+03  4608   0.787E+02
DAV:   2    -0.362442408374E+02   -0.20584E+03   -0.18737E+03  8172   0.157E+02
DAV:   3    -0.655289461116E+02   -0.29285E+02   -0.28657E+02  5412   0.738E+01
DAV:   4    -0.662454770533E+02   -0.71653E+00   -0.71542E+00  5748   0.143E+01
DAV:   5    -0.662633347705E+02   -0.17858E-01   -0.17850E-01  5736   0.208E+00
DAV:   6    -0.662640590742E+02   -0.72430E-03   -0.72429E-03  6072   0.436E-01
DAV:   7    -0.662640824020E+02   -0.23328E-04   -0.23327E-04  6204   0.645E-02
DAV:   8    -0.662640833594E+02   -0.95731E-06   -0.95674E-06  7044   0.108E-02
   1 F= -.66264083E+02 E0= -.66263119E+02  d E =-.192951E-02
 writing wavefunctions
