   8   8   1   0
  0.3200611E+02  0.5174714E-09  0.5173615E-09  0.1104441E-08  0.5000000E-15
  1.000000000000000E-004
  CAR 
 BC3                                     
      7.59383516    -20.52749758  301     -2.84789722      1.00000000
    -20.527  0.0000E+00  0.0000E+00
    -20.434  0.0000E+00  0.0000E+00
    -20.340  0.0000E+00  0.0000E+00
    -20.246  0.0000E+00  0.0000E+00
    -20.153  0.0000E+00  0.0000E+00
    -20.059  0.0000E+00  0.0000E+00
    -19.965  0.0000E+00  0.0000E+00
    -19.871  0.0000E+00  0.0000E+00
    -19.778  0.6383E-13  0.5983E-14
    -19.684  0.6978E-09  0.6542E-10
    -19.590  0.1396E-05  0.1309E-06
    -19.496  0.5253E-03  0.4937E-04
    -19.403  0.3905E-01  0.3709E-02
    -19.309  0.6222E+00  0.6204E-01
    -19.215  0.2446E+01  0.2914E+00
    -19.121  0.3135E+01  0.5852E+00
    -19.028  0.2414E+01  0.8115E+00
    -18.934  0.2459E+01  0.1042E+01
    -18.840  0.3362E+01  0.1357E+01
    -18.746  0.3343E+01  0.1671E+01
    -18.653  0.2499E+01  0.1905E+01
    -18.559  0.9157E+00  0.1991E+01
    -18.465  0.9628E-01  0.2000E+01
    -18.372  0.2306E-02  0.2000E+01
    -18.278  0.1125E-04  0.2000E+01
    -18.184  0.1052E-07  0.2000E+01
    -18.090  0.1816E-11  0.2000E+01
    -17.997  0.0000E+00  0.2000E+01
    -17.903  0.0000E+00  0.2000E+01
    -17.809  0.0000E+00  0.2000E+01
    -17.715  0.0000E+00  0.2000E+01
    -17.622  0.0000E+00  0.2000E+01
    -17.528  0.4121E-14  0.2000E+01
    -17.434  0.6290E-10  0.2000E+01
    -17.340  0.1749E-06  0.2000E+01
    -17.247  0.9085E-04  0.2000E+01
    -17.153  0.9205E-02  0.2001E+01
    -17.059  0.1959E+00  0.2019E+01
    -16.965  0.9934E+00  0.2112E+01
    -16.872  0.1529E+01  0.2256E+01
    -16.778  0.1222E+01  0.2370E+01
    -16.684  0.1066E+01  0.2470E+01
    -16.591  0.1592E+01  0.2619E+01
    -16.497  0.2432E+01  0.2847E+01
    -16.403  0.1802E+01  0.3016E+01
    -16.309  0.8918E+00  0.3100E+01
    -16.216  0.7048E+00  0.3166E+01
    -16.122  0.8109E+00  0.3242E+01
    -16.028  0.1544E+01  0.3387E+01
    -15.934  0.2596E+01  0.3630E+01
    -15.841  0.3374E+01  0.3946E+01
    -15.747  0.3935E+01  0.4315E+01
    -15.653  0.3668E+01  0.4659E+01
    -15.559  0.3328E+01  0.4971E+01
    -15.466  0.3635E+01  0.5312E+01
    -15.372  0.4207E+01  0.5706E+01
    -15.278  0.2613E+01  0.5951E+01
    -15.184  0.4997E+00  0.5998E+01
    -15.091  0.2288E-01  0.6000E+01
    -14.997  0.2204E-03  0.6000E+01
    -14.903  0.4144E-06  0.6000E+01
    -14.809  0.1456E-09  0.6000E+01
    -14.716  0.9315E-14  0.6000E+01
    -14.622  0.0000E+00  0.6000E+01
    -14.528  0.0000E+00  0.6000E+01
    -14.435  0.0000E+00  0.6000E+01
    -14.341  0.0000E+00  0.6000E+01
    -14.247  0.0000E+00  0.6000E+01
    -14.153  0.0000E+00  0.6000E+01
    -14.060  0.4479E-12  0.6000E+01
    -13.966  0.3238E-08  0.6000E+01
    -13.872  0.4305E-05  0.6000E+01
    -13.778  0.1087E-02  0.6000E+01
    -13.685  0.5520E-01  0.6005E+01
    -13.591  0.6268E+00  0.6064E+01
    -13.497  0.2000E+01  0.6252E+01
    -13.403  0.2881E+01  0.6522E+01
    -13.310  0.3003E+01  0.6803E+01
    -13.216  0.2795E+01  0.7065E+01
    -13.122  0.3019E+01  0.7348E+01
    -13.028  0.4182E+01  0.7740E+01
    -12.935  0.4273E+01  0.8141E+01
    -12.841  0.2263E+01  0.8353E+01
    -12.747  0.1148E+01  0.8460E+01
    -12.654  0.8931E+00  0.8544E+01
    -12.560  0.7968E+00  0.8619E+01
    -12.466  0.7400E+00  0.8688E+01
    -12.372  0.7723E+00  0.8761E+01
    -12.279  0.1125E+01  0.8866E+01
    -12.185  0.1476E+01  0.9004E+01
    -12.091  0.1415E+01  0.9137E+01
    -11.997  0.1613E+01  0.9288E+01
    -11.904  0.2473E+01  0.9520E+01
    -11.810  0.2630E+01  0.9766E+01
    -11.716  0.1815E+01  0.9937E+01
    -11.622  0.1337E+01  0.1006E+02
    -11.529  0.1233E+01  0.1018E+02
    -11.435  0.1244E+01  0.1029E+02
    -11.341  0.1384E+01  0.1042E+02
    -11.247  0.1588E+01  0.1057E+02
    -11.154  0.1213E+01  0.1069E+02
    -11.060  0.6337E+00  0.1075E+02
    -10.966  0.4843E+00  0.1079E+02
    -10.873  0.4661E+00  0.1083E+02
    -10.779  0.4703E+00  0.1088E+02
    -10.685  0.6863E+00  0.1094E+02
    -10.591  0.1425E+01  0.1108E+02
    -10.498  0.1726E+01  0.1124E+02
    -10.404  0.1416E+01  0.1137E+02
    -10.310  0.1468E+01  0.1151E+02
    -10.216  0.1755E+01  0.1167E+02
    -10.123  0.1511E+01  0.1182E+02
    -10.029  0.1254E+01  0.1193E+02
     -9.935  0.1195E+01  0.1204E+02
     -9.841  0.1192E+01  0.1216E+02
     -9.748  0.1193E+01  0.1227E+02
     -9.654  0.1174E+01  0.1238E+02
     -9.560  0.1144E+01  0.1249E+02
     -9.466  0.1251E+01  0.1260E+02
     -9.373  0.1752E+01  0.1277E+02
     -9.279  0.2279E+01  0.1298E+02
     -9.185  0.2569E+01  0.1322E+02
     -9.091  0.2111E+01  0.1342E+02
     -8.998  0.1556E+01  0.1357E+02
     -8.904  0.1581E+01  0.1371E+02
     -8.810  0.2293E+01  0.1393E+02
     -8.717  0.2949E+01  0.1420E+02
     -8.623  0.2235E+01  0.1441E+02
     -8.529  0.1906E+01  0.1459E+02
     -8.435  0.1990E+01  0.1478E+02
     -8.342  0.1994E+01  0.1497E+02
     -8.248  0.2046E+01  0.1516E+02
     -8.154  0.1996E+01  0.1535E+02
     -8.060  0.2699E+01  0.1560E+02
     -7.967  0.3984E+01  0.1597E+02
     -7.873  0.4162E+01  0.1636E+02
     -7.779  0.3263E+01  0.1667E+02
     -7.685  0.1747E+01  0.1683E+02
     -7.592  0.1287E+01  0.1695E+02
     -7.498  0.1988E+01  0.1714E+02
     -7.404  0.3301E+01  0.1745E+02
     -7.310  0.3145E+01  0.1774E+02
     -7.217  0.2662E+01  0.1799E+02
     -7.123  0.2815E+01  0.1826E+02
     -7.029  0.3024E+01  0.1854E+02
     -6.936  0.2975E+01  0.1882E+02
     -6.842  0.2077E+01  0.1901E+02
     -6.748  0.1160E+01  0.1912E+02
     -6.654  0.8866E+00  0.1920E+02
     -6.561  0.9319E+00  0.1929E+02
     -6.467  0.8861E+00  0.1938E+02
     -6.373  0.8729E+00  0.1946E+02
     -6.279  0.8914E+00  0.1954E+02
     -6.186  0.9693E+00  0.1963E+02
     -6.092  0.1468E+01  0.1977E+02
     -5.998  0.2683E+01  0.2002E+02
     -5.904  0.3401E+01  0.2034E+02
     -5.811  0.4099E+01  0.2072E+02
     -5.717  0.7511E+01  0.2143E+02
     -5.623  0.8142E+01  0.2219E+02
     -5.529  0.4480E+01  0.2261E+02
     -5.436  0.2708E+01  0.2286E+02
     -5.342  0.1781E+01  0.2303E+02
     -5.248  0.2034E+01  0.2322E+02
     -5.155  0.2535E+01  0.2346E+02
     -5.061  0.2500E+01  0.2369E+02
     -4.967  0.2397E+01  0.2392E+02
     -4.873  0.1793E+01  0.2409E+02
     -4.780  0.1066E+01  0.2419E+02
     -4.686  0.1003E+01  0.2428E+02
     -4.592  0.1520E+01  0.2442E+02
     -4.498  0.2264E+01  0.2464E+02
     -4.405  0.3529E+01  0.2497E+02
     -4.311  0.4668E+01  0.2540E+02
     -4.217  0.4099E+01  0.2579E+02
     -4.123  0.4828E+01  0.2624E+02
     -4.030  0.6507E+01  0.2685E+02
     -3.936  0.7378E+01  0.2754E+02
     -3.842  0.6867E+01  0.2819E+02
     -3.748  0.3754E+01  0.2854E+02
     -3.655  0.1748E+01  0.2870E+02
     -3.561  0.1562E+01  0.2885E+02
     -3.467  0.1709E+01  0.2901E+02
     -3.373  0.1994E+01  0.2920E+02
     -3.280  0.2648E+01  0.2944E+02
     -3.186  0.3387E+01  0.2976E+02
     -3.092  0.2130E+01  0.2996E+02
     -2.999  0.3980E+00  0.3000E+02
     -2.905  0.1758E-01  0.3000E+02
     -2.811  0.2076E-03  0.3000E+02
     -2.717  0.5757E-02  0.3000E+02
     -2.624  0.1526E+00  0.3001E+02
     -2.530  0.9482E+00  0.3010E+02
     -2.436  0.1832E+01  0.3028E+02
     -2.342  0.2128E+01  0.3047E+02
     -2.249  0.2228E+01  0.3068E+02
     -2.155  0.2005E+01  0.3087E+02
     -2.061  0.1851E+01  0.3105E+02
     -1.967  0.1905E+01  0.3122E+02
     -1.874  0.1902E+01  0.3140E+02
     -1.780  0.1308E+01  0.3152E+02
     -1.686  0.8493E+00  0.3160E+02
     -1.592  0.7882E+00  0.3168E+02
     -1.499  0.8565E+00  0.3176E+02
     -1.405  0.1067E+01  0.3186E+02
     -1.311  0.1053E+01  0.3196E+02
     -1.218  0.4113E+00  0.3200E+02
     -1.124  0.4300E-01  0.3200E+02
     -1.030  0.1005E-02  0.3200E+02
     -0.936  0.4747E-05  0.3200E+02
     -0.843  0.4276E-08  0.3200E+02
     -0.749  0.7099E-12  0.3200E+02
     -0.655  0.0000E+00  0.3200E+02
     -0.561  0.0000E+00  0.3200E+02
     -0.468  0.0000E+00  0.3200E+02
     -0.374  0.0000E+00  0.3200E+02
     -0.280  0.1234E-16  0.3200E+02
     -0.186  0.4360E-12  0.3200E+02
     -0.093  0.2748E-08  0.3200E+02
      0.001  0.3212E-05  0.3200E+02
      0.095  0.7313E-03  0.3200E+02
      0.189  0.3615E-01  0.3200E+02
      0.282  0.4795E+00  0.3205E+02
      0.376  0.2172E+01  0.3225E+02
      0.470  0.3822E+01  0.3261E+02
      0.564  0.3362E+01  0.3293E+02
      0.657  0.2597E+01  0.3317E+02
      0.751  0.2291E+01  0.3338E+02
      0.845  0.2189E+01  0.3359E+02
      0.938  0.2276E+01  0.3380E+02
      1.032  0.2899E+01  0.3407E+02
      1.126  0.3535E+01  0.3441E+02
      1.220  0.3131E+01  0.3470E+02
      1.313  0.3175E+01  0.3500E+02
      1.407  0.3825E+01  0.3535E+02
      1.501  0.3671E+01  0.3570E+02
      1.595  0.2874E+01  0.3597E+02
      1.688  0.2439E+01  0.3620E+02
      1.782  0.2288E+01  0.3641E+02
      1.876  0.2218E+01  0.3662E+02
      1.970  0.1996E+01  0.3681E+02
      2.063  0.1981E+01  0.3699E+02
      2.157  0.2838E+01  0.3726E+02
      2.251  0.3446E+01  0.3758E+02
      2.345  0.2444E+01  0.3781E+02
      2.438  0.1777E+01  0.3798E+02
      2.532  0.1600E+01  0.3813E+02
      2.626  0.1534E+01  0.3827E+02
      2.719  0.1547E+01  0.3842E+02
      2.813  0.2038E+01  0.3861E+02
      2.907  0.3404E+01  0.3893E+02
      3.001  0.3515E+01  0.3926E+02
      3.094  0.2566E+01  0.3950E+02
      3.188  0.2637E+01  0.3974E+02
      3.282  0.3074E+01  0.4003E+02
      3.376  0.2665E+01  0.4028E+02
      3.469  0.1878E+01  0.4046E+02
      3.563  0.1562E+01  0.4060E+02
      3.657  0.2244E+01  0.4081E+02
      3.751  0.3790E+01  0.4117E+02
      3.844  0.4564E+01  0.4160E+02
      3.938  0.4076E+01  0.4198E+02
      4.032  0.2948E+01  0.4226E+02
      4.126  0.2337E+01  0.4247E+02
      4.219  0.2121E+01  0.4267E+02
      4.313  0.2014E+01  0.4286E+02
      4.407  0.2204E+01  0.4307E+02
      4.500  0.3018E+01  0.4335E+02
      4.594  0.3150E+01  0.4365E+02
      4.688  0.2828E+01  0.4391E+02
      4.782  0.2863E+01  0.4418E+02
      4.875  0.2554E+01  0.4442E+02
      4.969  0.1856E+01  0.4459E+02
      5.063  0.1510E+01  0.4474E+02
      5.157  0.1438E+01  0.4487E+02
      5.250  0.1656E+01  0.4503E+02
      5.344  0.2135E+01  0.4523E+02
      5.438  0.2203E+01  0.4543E+02
      5.532  0.2478E+01  0.4566E+02
      5.625  0.3968E+01  0.4604E+02
      5.719  0.4650E+01  0.4647E+02
      5.813  0.3657E+01  0.4681E+02
      5.907  0.3263E+01  0.4712E+02
      6.000  0.3523E+01  0.4745E+02
      6.094  0.3006E+01  0.4773E+02
      6.188  0.1633E+01  0.4789E+02
      6.282  0.7864E+00  0.4796E+02
      6.375  0.3509E+00  0.4799E+02
      6.469  0.7801E-01  0.4800E+02
      6.563  0.4928E-02  0.4800E+02
      6.656  0.6818E-04  0.4800E+02
      6.750  0.1853E-06  0.4800E+02
      6.844  0.9399E-10  0.4800E+02
      6.938  0.8661E-14  0.4800E+02
      7.031  0.0000E+00  0.4800E+02
      7.125  0.0000E+00  0.4800E+02
      7.219  0.0000E+00  0.4800E+02
      7.313  0.0000E+00  0.4800E+02
      7.406  0.0000E+00  0.4800E+02
      7.500  0.0000E+00  0.4800E+02
      7.594  0.0000E+00  0.4800E+02
      7.59383516    -20.52749758  301     -2.84789722      1.00000000
    -20.527  0.0000E+00  0.0000E+00  0.0000E+00  0.0000E+00  0.0000E+00  0.0000E+00  0.0000E+00  0.0000E+00  0.0000E+00
    -20.434  0.0000E+00  0.0000E+00  0.0000E+00  0.0000E+00  0.0000E+00  0.0000E+00  0.0000E+00  0.0000E+00  0.0000E+00
    -20.340  0.0000E+00  0.0000E+00  0.0000E+00  0.0000E+00  0.0000E+00  0.0000E+00  0.0000E+00  0.0000E+00  0.0000E+00
    -20.246  0.0000E+00  0.0000E+00  0.0000E+00  0.0000E+00  0.0000E+00  0.0000E+00  0.0000E+00  0.0000E+00  0.0000E+00
    -20.153  0.0000E+00  0.0000E+00  0.0000E+00  0.0000E+00  0.0000E+00  0.0000E+00  0.0000E+00  0.0000E+00  0.0000E+00
    -20.059  0.0000E+00  0.0000E+00  0.0000E+00  0.0000E+00  0.0000E+00  0.0000E+00  0.0000E+00  0.0000E+00  0.0000E+00
    -19.965  0.0000E+00  0.0000E+00  0.0000E+00  0.0000E+00  0.0000E+00  0.0000E+00  0.0000E+00  0.0000E+00  0.0000E+00
    -19.871  0.0000E+00  0.0000E+00  0.0000E+00  0.0000E+00  0.0000E+00  0.0000E+00  0.0000E+00  0.0000E+00  0.0000E+00
    -19.778  0.1770E-14  0.1725E-17  0.2306E-25  0.1414E-17  0.0000E+00  0.0000E+00  0.0000E+00  0.0000E+00  0.0000E+00
    -19.684  0.1933E-10  0.2271E-13  0.2421E-21  0.1861E-13  0.0000E+00  0.0000E+00  0.0000E+00  0.0000E+00  0.0000E+00
    -19.590  0.3862E-07  0.5656E-10  0.4607E-18  0.4636E-10  0.0000E+00  0.0000E+00  0.0000E+00  0.0000E+00  0.0000E+00
    -19.496  0.1451E-04  0.2784E-07  0.1630E-15  0.2282E-07  0.0000E+00  0.0000E+00  0.0000E+00  0.0000E+00  0.0000E+00
    -19.403  0.1075E-02  0.2904E-05  0.1117E-13  0.2380E-05  0.0000E+00  0.0000E+00  0.0000E+00  0.0000E+00  0.0000E+00
    -19.309  0.1701E-01  0.7223E-04  0.1603E-12  0.5920E-04  0.0000E+00  0.0000E+00  0.0000E+00  0.0000E+00  0.0000E+00
    -19.215  0.6584E-01  0.5201E-03  0.5568E-12  0.4263E-03  0.0000E+00  0.0000E+00  0.0000E+00  0.0000E+00  0.0000E+00
    -19.121  0.8071E-01  0.1478E-02  0.6482E-12  0.1212E-02  0.0000E+00  0.0000E+00  0.0000E+00  0.0000E+00  0.0000E+00
    -19.028  0.5537E-01  0.2583E-02  0.4580E-12  0.2146E-02  0.0000E+00  0.0000E+00  0.0000E+00  0.0000E+00  0.0000E+00
    -18.934  0.4549E-01  0.4836E-02  0.3786E-12  0.4027E-02  0.0000E+00  0.0000E+00  0.0000E+00  0.0000E+00  0.0000E+00
    -18.840  0.5042E-01  0.1015E-01  0.4889E-12  0.6099E-02  0.0000E+00  0.0000E+00  0.0000E+00  0.0000E+00  0.0000E+00
    -18.746  0.3871E-01  0.1627E-01  0.4068E-12  0.3652E-02  0.0000E+00  0.0000E+00  0.0000E+00  0.0000E+00  0.0000E+00
    -18.653  0.1968E-01  0.1699E-01  0.2153E-12  0.8575E-03  0.0000E+00  0.0000E+00  0.0000E+00  0.0000E+00  0.0000E+00
    -18.559  0.5686E-02  0.6909E-02  0.6998E-13  0.1089E-03  0.0000E+00  0.0000E+00  0.0000E+00  0.0000E+00  0.0000E+00
    -18.465  0.5377E-03  0.7506E-03  0.7193E-14  0.5988E-05  0.0000E+00  0.0000E+00  0.0000E+00  0.0000E+00  0.0000E+00
    -18.372  0.1221E-04  0.1823E-04  0.1703E-15  0.9286E-07  0.0000E+00  0.0000E+00  0.0000E+00  0.0000E+00  0.0000E+00
    -18.278  0.5778E-07  0.8966E-07  0.8240E-18  0.3275E-09  0.0000E+00  0.0000E+00  0.0000E+00  0.0000E+00  0.0000E+00
    -18.184  0.5296E-10  0.8417E-10  0.7656E-21  0.2367E-12  0.0000E+00  0.0000E+00  0.0000E+00  0.0000E+00  0.0000E+00
    -18.090  0.9028E-14  0.1458E-13  0.1317E-24  0.3309E-16  0.0000E+00  0.0000E+00  0.0000E+00  0.0000E+00  0.0000E+00
    -17.997  0.0000E+00  0.0000E+00  0.0000E+00  0.0000E+00  0.0000E+00  0.0000E+00  0.0000E+00  0.0000E+00  0.0000E+00
    -17.903  0.0000E+00  0.0000E+00  0.0000E+00  0.0000E+00  0.0000E+00  0.0000E+00  0.0000E+00  0.0000E+00  0.0000E+00
    -17.809  0.0000E+00  0.0000E+00  0.0000E+00  0.0000E+00  0.0000E+00  0.0000E+00  0.0000E+00  0.0000E+00  0.0000E+00
    -17.715  0.0000E+00  0.0000E+00  0.0000E+00  0.0000E+00  0.0000E+00  0.0000E+00  0.0000E+00  0.0000E+00  0.0000E+00
    -17.622  0.0000E+00  0.0000E+00  0.0000E+00  0.0000E+00  0.0000E+00  0.0000E+00  0.0000E+00  0.0000E+00  0.0000E+00
    -17.528  0.2071E-15  0.1744E-16  0.2041E-26  0.2417E-19  0.0000E+00  0.0000E+00  0.0000E+00  0.0000E+00  0.0000E+00
    -17.434  0.3159E-11  0.2668E-12  0.3026E-22  0.4423E-15  0.0000E+00  0.0000E+00  0.0000E+00  0.0000E+00  0.0000E+00
    -17.340  0.8776E-08  0.7441E-09  0.8078E-19  0.1542E-11  0.0000E+00  0.0000E+00  0.0000E+00  0.0000E+00  0.0000E+00
    -17.247  0.4552E-05  0.3882E-06  0.3963E-16  0.1056E-08  0.0000E+00  0.0000E+00  0.0000E+00  0.0000E+00  0.0000E+00
    -17.153  0.4600E-03  0.3961E-04  0.3692E-14  0.1519E-06  0.0000E+00  0.0000E+00  0.0000E+00  0.0000E+00  0.0000E+00
    -17.059  0.9745E-02  0.8543E-03  0.6896E-13  0.5138E-05  0.0000E+00  0.0000E+00  0.0000E+00  0.0000E+00  0.0000E+00
    -16.965  0.4891E-01  0.4457E-02  0.2819E-12  0.4949E-04  0.0000E+00  0.0000E+00  0.0000E+00  0.0000E+00  0.0000E+00
    -16.872  0.7328E-01  0.7334E-02  0.2989E-12  0.1855E-03  0.0000E+00  0.0000E+00  0.0000E+00  0.0000E+00  0.0000E+00
    -16.778  0.5489E-01  0.6649E-02  0.1412E-12  0.4295E-03  0.0000E+00  0.0000E+00  0.0000E+00  0.0000E+00  0.0000E+00
    -16.684  0.4327E-01  0.6130E-02  0.8466E-13  0.1330E-02  0.0000E+00  0.0000E+00  0.0000E+00  0.0000E+00  0.0000E+00
    -16.591  0.5780E-01  0.6718E-02  0.1109E-12  0.6173E-02  0.0000E+00  0.0000E+00  0.0000E+00  0.0000E+00  0.0000E+00
    -16.497  0.8315E-01  0.7116E-02  0.1602E-12  0.1383E-01  0.0000E+00  0.0000E+00  0.0000E+00  0.0000E+00  0.0000E+00
    -16.403  0.5915E-01  0.5378E-02  0.1159E-12  0.1073E-01  0.0000E+00  0.0000E+00  0.0000E+00  0.0000E+00  0.0000E+00
    -16.309  0.2693E-01  0.4032E-02  0.5935E-13  0.4472E-02  0.0000E+00  0.0000E+00  0.0000E+00  0.0000E+00  0.0000E+00
    -16.216  0.1894E-01  0.3955E-02  0.2445E-13  0.3318E-02  0.0000E+00  0.0000E+00  0.0000E+00  0.0000E+00  0.0000E+00
    -16.122  0.1859E-01  0.4921E-02  0.1248E-13  0.4881E-02  0.0000E+00  0.0000E+00  0.0000E+00  0.0000E+00  0.0000E+00
    -16.028  0.2741E-01  0.9904E-02  0.3262E-13  0.1437E-01  0.0000E+00  0.0000E+00  0.0000E+00  0.0000E+00  0.0000E+00
    -15.934  0.3529E-01  0.1591E-01  0.7570E-13  0.3079E-01  0.0000E+00  0.0000E+00  0.0000E+00  0.0000E+00  0.0000E+00
    -15.841  0.2636E-01  0.1795E-01  0.1137E-12  0.5011E-01  0.0000E+00  0.0000E+00  0.0000E+00  0.0000E+00  0.0000E+00
    -15.747  0.1571E-01  0.2481E-01  0.1058E-12  0.5834E-01  0.0000E+00  0.0000E+00  0.0000E+00  0.0000E+00  0.0000E+00
    -15.653  0.9904E-02  0.3118E-01  0.6751E-13  0.4328E-01  0.0000E+00  0.0000E+00  0.0000E+00  0.0000E+00  0.0000E+00
    -15.559  0.7188E-02  0.2890E-01  0.4704E-13  0.3274E-01  0.0000E+00  0.0000E+00  0.0000E+00  0.0000E+00  0.0000E+00
    -15.466  0.5274E-02  0.2852E-01  0.3754E-13  0.3138E-01  0.0000E+00  0.0000E+00  0.0000E+00  0.0000E+00  0.0000E+00
    -15.372  0.3012E-02  0.3028E-01  0.2478E-13  0.3261E-01  0.0000E+00  0.0000E+00  0.0000E+00  0.0000E+00  0.0000E+00
    -15.278  0.9182E-03  0.1807E-01  0.1136E-13  0.1924E-01  0.0000E+00  0.0000E+00  0.0000E+00  0.0000E+00  0.0000E+00
    -15.184  0.1013E-03  0.3402E-02  0.1980E-14  0.3602E-02  0.0000E+00  0.0000E+00  0.0000E+00  0.0000E+00  0.0000E+00
    -15.091  0.3068E-05  0.1547E-03  0.8752E-16  0.1633E-03  0.0000E+00  0.0000E+00  0.0000E+00  0.0000E+00  0.0000E+00
    -14.997  0.2145E-07  0.1486E-05  0.8324E-18  0.1564E-05  0.0000E+00  0.0000E+00  0.0000E+00  0.0000E+00  0.0000E+00
    -14.903  0.3118E-10  0.2789E-08  0.1567E-20  0.2930E-08  0.0000E+00  0.0000E+00  0.0000E+00  0.0000E+00  0.0000E+00
    -14.809  0.8858E-14  0.9791E-12  0.5557E-24  0.1027E-11  0.0000E+00  0.0000E+00  0.0000E+00  0.0000E+00  0.0000E+00
    -14.716  0.4485E-18  0.6284E-16  0.3569E-28  0.6530E-16  0.0000E+00  0.0000E+00  0.0000E+00  0.0000E+00  0.0000E+00
    -14.622  0.0000E+00  0.0000E+00  0.0000E+00  0.0000E+00  0.0000E+00  0.0000E+00  0.0000E+00  0.0000E+00  0.0000E+00
    -14.528  0.0000E+00  0.0000E+00  0.0000E+00  0.0000E+00  0.0000E+00  0.0000E+00  0.0000E+00  0.0000E+00  0.0000E+00
    -14.435  0.0000E+00  0.0000E+00  0.0000E+00  0.0000E+00  0.0000E+00  0.0000E+00  0.0000E+00  0.0000E+00  0.0000E+00
    -14.341  0.0000E+00  0.0000E+00  0.0000E+00  0.0000E+00  0.0000E+00  0.0000E+00  0.0000E+00  0.0000E+00  0.0000E+00
    -14.247  0.0000E+00  0.0000E+00  0.0000E+00  0.0000E+00  0.0000E+00  0.0000E+00  0.0000E+00  0.0000E+00  0.0000E+00
    -14.153  0.0000E+00  0.0000E+00  0.0000E+00  0.0000E+00  0.0000E+00  0.0000E+00  0.0000E+00  0.0000E+00  0.0000E+00
    -14.060  0.4084E-13  0.5088E-15  0.1801E-25  0.9991E-17  0.0000E+00  0.0000E+00  0.0000E+00  0.0000E+00  0.0000E+00
    -13.966  0.2950E-09  0.3788E-11  0.1267E-21  0.8773E-13  0.0000E+00  0.0000E+00  0.0000E+00  0.0000E+00  0.0000E+00
    -13.872  0.3917E-06  0.5254E-08  0.1623E-18  0.1479E-09  0.0000E+00  0.0000E+00  0.0000E+00  0.0000E+00  0.0000E+00
    -13.778  0.9874E-04  0.1415E-05  0.3880E-16  0.5186E-07  0.0000E+00  0.0000E+00  0.0000E+00  0.0000E+00  0.0000E+00
    -13.685  0.4995E-02  0.7986E-04  0.1813E-14  0.4652E-05  0.0000E+00  0.0000E+00  0.0000E+00  0.0000E+00  0.0000E+00
    -13.591  0.5623E-01  0.1093E-02  0.1802E-13  0.1510E-03  0.0000E+00  0.0000E+00  0.0000E+00  0.0000E+00  0.0000E+00
    -13.497  0.1746E+00  0.4828E-02  0.4571E-13  0.1923E-02  0.0000E+00  0.0000E+00  0.0000E+00  0.0000E+00  0.0000E+00
    -13.403  0.2351E+00  0.1059E-01  0.4664E-13  0.8628E-02  0.0000E+00  0.0000E+00  0.0000E+00  0.0000E+00  0.0000E+00
    -13.310  0.2215E+00  0.1662E-01  0.3761E-13  0.1664E-01  0.0000E+00  0.0000E+00  0.0000E+00  0.0000E+00  0.0000E+00
    -13.216  0.1765E+00  0.2404E-01  0.3311E-13  0.2310E-01  0.0000E+00  0.0000E+00  0.0000E+00  0.0000E+00  0.0000E+00
    -13.122  0.1395E+00  0.4123E-01  0.2736E-13  0.3781E-01  0.0000E+00  0.0000E+00  0.0000E+00  0.0000E+00  0.0000E+00
    -13.028  0.1100E+00  0.8014E-01  0.1672E-13  0.7551E-01  0.0000E+00  0.0000E+00  0.0000E+00  0.0000E+00  0.0000E+00
    -12.935  0.7475E-01  0.8873E-01  0.1314E-13  0.8963E-01  0.0000E+00  0.0000E+00  0.0000E+00  0.0000E+00  0.0000E+00
    -12.841  0.2816E-01  0.4688E-01  0.6655E-14  0.5244E-01  0.0000E+00  0.0000E+00  0.0000E+00  0.0000E+00  0.0000E+00
    -12.747  0.3491E-02  0.2519E-01  0.2013E-14  0.3034E-01  0.0000E+00  0.0000E+00  0.0000E+00  0.0000E+00  0.0000E+00
    -12.654  0.1052E-03  0.1961E-01  0.1541E-14  0.2388E-01  0.0000E+00  0.0000E+00  0.0000E+00  0.0000E+00  0.0000E+00
    -12.560  0.1354E-05  0.1702E-01  0.3283E-14  0.2076E-01  0.0000E+00  0.0000E+00  0.0000E+00  0.0000E+00  0.0000E+00
    -12.466  0.8023E-04  0.1535E-01  0.3503E-14  0.1877E-01  0.0000E+00  0.0000E+00  0.0000E+00  0.0000E+00  0.0000E+00
    -12.372  0.2007E-02  0.1481E-01  0.2824E-14  0.1906E-01  0.0000E+00  0.0000E+00  0.0000E+00  0.0000E+00  0.0000E+00
    -12.279  0.1183E-01  0.1751E-01  0.3963E-14  0.2712E-01  0.0000E+00  0.0000E+00  0.0000E+00  0.0000E+00  0.0000E+00
    -12.185  0.2055E-01  0.2063E-01  0.5333E-14  0.3477E-01  0.0000E+00  0.0000E+00  0.0000E+00  0.0000E+00  0.0000E+00
    -12.091  0.1907E-01  0.2020E-01  0.3854E-14  0.3166E-01  0.0000E+00  0.0000E+00  0.0000E+00  0.0000E+00  0.0000E+00
    -11.997  0.4805E-01  0.2035E-01  0.7132E-14  0.2842E-01  0.0000E+00  0.0000E+00  0.0000E+00  0.0000E+00  0.0000E+00
    -11.904  0.1447E+00  0.2263E-01  0.1514E-13  0.2755E-01  0.0000E+00  0.0000E+00  0.0000E+00  0.0000E+00  0.0000E+00
    -11.810  0.1707E+00  0.2142E-01  0.1587E-13  0.2574E-01  0.0000E+00  0.0000E+00  0.0000E+00  0.0000E+00  0.0000E+00
    -11.716  0.1200E+00  0.1035E-01  0.1332E-13  0.2102E-01  0.0000E+00  0.0000E+00  0.0000E+00  0.0000E+00  0.0000E+00
    -11.622  0.9011E-01  0.3203E-02  0.6622E-14  0.1885E-01  0.0000E+00  0.0000E+00  0.0000E+00  0.0000E+00  0.0000E+00
    -11.529  0.7600E-01  0.2317E-02  0.4864E-14  0.1968E-01  0.0000E+00  0.0000E+00  0.0000E+00  0.0000E+00  0.0000E+00
    -11.435  0.6726E-01  0.2393E-02  0.7736E-14  0.2201E-01  0.0000E+00  0.0000E+00  0.0000E+00  0.0000E+00  0.0000E+00
    -11.341  0.6101E-01  0.2471E-02  0.7318E-14  0.2764E-01  0.0000E+00  0.0000E+00  0.0000E+00  0.0000E+00  0.0000E+00
    -11.247  0.5608E-01  0.2524E-02  0.9241E-14  0.3491E-01  0.0000E+00  0.0000E+00  0.0000E+00  0.0000E+00  0.0000E+00
    -11.154  0.5216E-01  0.2588E-02  0.9033E-14  0.2396E-01  0.0000E+00  0.0000E+00  0.0000E+00  0.0000E+00  0.0000E+00
    -11.060  0.4940E-01  0.2703E-02  0.3994E-14  0.6622E-02  0.0000E+00  0.0000E+00  0.0000E+00  0.0000E+00  0.0000E+00
    -10.966  0.4740E-01  0.2845E-02  0.1753E-14  0.2542E-02  0.0000E+00  0.0000E+00  0.0000E+00  0.0000E+00  0.0000E+00
    -10.873  0.4583E-01  0.2990E-02  0.2971E-14  0.2450E-02  0.0000E+00  0.0000E+00  0.0000E+00  0.0000E+00  0.0000E+00
    -10.779  0.4729E-01  0.3139E-02  0.3775E-14  0.2569E-02  0.0000E+00  0.0000E+00  0.0000E+00  0.0000E+00  0.0000E+00
    -10.685  0.9088E-01  0.3382E-02  0.4598E-14  0.2768E-02  0.0000E+00  0.0000E+00  0.0000E+00  0.0000E+00  0.0000E+00
    -10.591  0.2374E+00  0.4188E-02  0.9526E-14  0.3427E-02  0.0000E+00  0.0000E+00  0.0000E+00  0.0000E+00  0.0000E+00
    -10.498  0.2931E+00  0.5731E-02  0.1171E-13  0.4693E-02  0.0000E+00  0.0000E+00  0.0000E+00  0.0000E+00  0.0000E+00
    -10.404  0.2231E+00  0.7400E-02  0.1049E-13  0.6163E-02  0.0000E+00  0.0000E+00  0.0000E+00  0.0000E+00  0.0000E+00
    -10.310  0.2003E+00  0.1084E-01  0.1596E-13  0.9568E-02  0.0000E+00  0.0000E+00  0.0000E+00  0.0000E+00  0.0000E+00
    -10.216  0.2099E+00  0.1640E-01  0.2249E-13  0.1316E-01  0.0000E+00  0.0000E+00  0.0000E+00  0.0000E+00  0.0000E+00
    -10.123  0.1736E+00  0.1821E-01  0.1730E-13  0.1067E-01  0.0000E+00  0.0000E+00  0.0000E+00  0.0000E+00  0.0000E+00
    -10.029  0.1397E+00  0.1857E-01  0.1776E-13  0.8727E-02  0.0000E+00  0.0000E+00  0.0000E+00  0.0000E+00  0.0000E+00
     -9.935  0.1264E+00  0.1987E-01  0.2955E-13  0.9009E-02  0.0000E+00  0.0000E+00  0.0000E+00  0.0000E+00  0.0000E+00
     -9.841  0.1197E+00  0.2166E-01  0.2909E-13  0.9719E-02  0.0000E+00  0.0000E+00  0.0000E+00  0.0000E+00  0.0000E+00
     -9.748  0.1154E+00  0.2344E-01  0.1493E-13  0.1028E-01  0.0000E+00  0.0000E+00  0.0000E+00  0.0000E+00  0.0000E+00
     -9.654  0.1112E+00  0.2453E-01  0.1150E-13  0.1048E-01  0.0000E+00  0.0000E+00  0.0000E+00  0.0000E+00  0.0000E+00
     -9.560  0.1061E+00  0.2452E-01  0.1186E-13  0.1079E-01  0.0000E+00  0.0000E+00  0.0000E+00  0.0000E+00  0.0000E+00
     -9.466  0.9944E-01  0.2351E-01  0.1951E-13  0.1498E-01  0.0000E+00  0.0000E+00  0.0000E+00  0.0000E+00  0.0000E+00
     -9.373  0.9429E-01  0.2053E-01  0.4053E-13  0.2901E-01  0.0000E+00  0.0000E+00  0.0000E+00  0.0000E+00  0.0000E+00
     -9.279  0.1214E+00  0.1706E-01  0.5695E-13  0.3671E-01  0.0000E+00  0.0000E+00  0.0000E+00  0.0000E+00  0.0000E+00
     -9.185  0.1672E+00  0.1771E-01  0.7755E-13  0.3296E-01  0.0000E+00  0.0000E+00  0.0000E+00  0.0000E+00  0.0000E+00
     -9.091  0.1289E+00  0.1740E-01  0.6173E-13  0.2660E-01  0.0000E+00  0.0000E+00  0.0000E+00  0.0000E+00  0.0000E+00
     -8.998  0.6766E-01  0.1755E-01  0.2688E-13  0.2154E-01  0.0000E+00  0.0000E+00  0.0000E+00  0.0000E+00  0.0000E+00
     -8.904  0.5764E-01  0.2335E-01  0.2161E-13  0.1954E-01  0.0000E+00  0.0000E+00  0.0000E+00  0.0000E+00  0.0000E+00
     -8.810  0.1011E+00  0.3798E-01  0.3690E-13  0.3007E-01  0.0000E+00  0.0000E+00  0.0000E+00  0.0000E+00  0.0000E+00
     -8.717  0.1653E+00  0.4841E-01  0.4745E-13  0.4897E-01  0.0000E+00  0.0000E+00  0.0000E+00  0.0000E+00  0.0000E+00
     -8.623  0.1250E+00  0.4917E-01  0.3394E-13  0.3248E-01  0.0000E+00  0.0000E+00  0.0000E+00  0.0000E+00  0.0000E+00
     -8.529  0.7120E-01  0.7317E-01  0.4513E-12  0.1223E-01  0.0000E+00  0.0000E+00  0.0000E+00  0.0000E+00  0.0000E+00
     -8.435  0.6193E-01  0.8478E-01  0.1669E-08  0.7216E-02  0.0000E+00  0.0000E+00  0.0000E+00  0.0000E+00  0.0000E+00
     -8.342  0.6631E-01  0.7719E-01  0.1289E-05  0.5683E-02  0.0000E+00  0.0000E+00  0.0000E+00  0.0000E+00  0.0000E+00
     -8.248  0.6910E-01  0.7133E-01  0.1917E-03  0.4796E-02  0.0000E+00  0.0000E+00  0.0000E+00  0.0000E+00  0.0000E+00
     -8.154  0.5259E-01  0.4961E-01  0.5860E-02  0.3907E-02  0.0000E+00  0.0000E+00  0.0000E+00  0.0000E+00  0.0000E+00
     -8.060  0.2035E-01  0.1877E-01  0.4102E-01  0.2361E-02  0.0000E+00  0.0000E+00  0.0000E+00  0.0000E+00  0.0000E+00
     -7.967  0.2524E-02  0.3009E-02  0.7981E-01  0.1177E-02  0.0000E+00  0.0000E+00  0.0000E+00  0.0000E+00  0.0000E+00
     -7.873  0.7487E-04  0.5161E-03  0.6587E-01  0.5557E-03  0.0000E+00  0.0000E+00  0.0000E+00  0.0000E+00  0.0000E+00
     -7.779  0.4685E-05  0.1431E-03  0.4591E-01  0.1652E-03  0.0000E+00  0.0000E+00  0.0000E+00  0.0000E+00  0.0000E+00
     -7.685  0.3156E-03  0.5397E-03  0.3640E-01  0.2052E-04  0.0000E+00  0.0000E+00  0.0000E+00  0.0000E+00  0.0000E+00
     -7.592  0.5341E-02  0.8811E-02  0.3169E-01  0.2992E-05  0.0000E+00  0.0000E+00  0.0000E+00  0.0000E+00  0.0000E+00
     -7.498  0.2614E-01  0.4256E-01  0.3794E-01  0.3574E-04  0.0000E+00  0.0000E+00  0.0000E+00  0.0000E+00  0.0000E+00
     -7.404  0.5233E-01  0.8326E-01  0.5560E-01  0.3315E-03  0.0000E+00  0.0000E+00  0.0000E+00  0.0000E+00  0.0000E+00
     -7.310  0.5842E-01  0.8956E-01  0.4585E-01  0.4945E-02  0.0000E+00  0.0000E+00  0.0000E+00  0.0000E+00  0.0000E+00
     -7.217  0.5927E-01  0.8153E-01  0.2774E-01  0.2806E-01  0.0000E+00  0.0000E+00  0.0000E+00  0.0000E+00  0.0000E+00
     -7.123  0.6613E-01  0.8117E-01  0.2094E-01  0.5354E-01  0.0000E+00  0.0000E+00  0.0000E+00  0.0000E+00  0.0000E+00
     -7.029  0.7029E-01  0.7848E-01  0.1815E-01  0.5496E-01  0.0000E+00  0.0000E+00  0.0000E+00  0.0000E+00  0.0000E+00
     -6.936  0.7558E-01  0.7668E-01  0.1318E-01  0.5226E-01  0.0000E+00  0.0000E+00  0.0000E+00  0.0000E+00  0.0000E+00
     -6.842  0.5839E-01  0.7146E-01  0.4298E-02  0.5099E-01  0.0000E+00  0.0000E+00  0.0000E+00  0.0000E+00  0.0000E+00
     -6.748  0.2835E-01  0.5947E-01  0.4012E-03  0.3792E-01  0.0000E+00  0.0000E+00  0.0000E+00  0.0000E+00  0.0000E+00
     -6.654  0.1485E-01  0.7279E-01  0.8601E-05  0.2553E-01  0.0000E+00  0.0000E+00  0.0000E+00  0.0000E+00  0.0000E+00
     -6.561  0.1556E-01  0.8372E-01  0.3771E-07  0.2389E-01  0.0000E+00  0.0000E+00  0.0000E+00  0.0000E+00  0.0000E+00
     -6.467  0.1757E-01  0.7329E-01  0.3329E-10  0.2501E-01  0.0000E+00  0.0000E+00  0.0000E+00  0.0000E+00  0.0000E+00
     -6.373  0.1811E-01  0.6862E-01  0.4391E-08  0.2652E-01  0.0000E+00  0.0000E+00  0.0000E+00  0.0000E+00  0.0000E+00
     -6.279  0.1798E-01  0.6869E-01  0.2473E-05  0.2847E-01  0.0000E+00  0.0000E+00  0.0000E+00  0.0000E+00  0.0000E+00
     -6.186  0.1761E-01  0.7233E-01  0.2705E-03  0.3371E-01  0.0000E+00  0.0000E+00  0.0000E+00  0.0000E+00  0.0000E+00
     -6.092  0.1743E-01  0.9039E-01  0.6168E-02  0.6059E-01  0.0000E+00  0.0000E+00  0.0000E+00  0.0000E+00  0.0000E+00
     -5.998  0.1800E-01  0.1230E+00  0.3304E-01  0.1058E+00  0.0000E+00  0.0000E+00  0.0000E+00  0.0000E+00  0.0000E+00
     -5.904  0.1866E-01  0.1428E+00  0.5205E-01  0.1192E+00  0.0000E+00  0.0000E+00  0.0000E+00  0.0000E+00  0.0000E+00