    8    8    1    1
  0.3200611E+02  0.5174714E-09  0.5173615E-09  0.1104441E-08  0.5000000E-15
  1.000000000000000E-004
  CAR 
 BC3                                     
     30    192     24
 
  0.3330000E+00  0.3330000E+00  0.0000000E+00  0.5208333E-02
    1      -18.872349   1.000000
    2      -16.586678   1.000000
    3      -15.731925   1.000000
    4      -13.438907   1.000000
    5      -11.819393   1.000000
    6      -10.260170   1.000000
    7       -8.792457   1.000000
    8       -8.722244   1.000000
    9       -7.427621   1.000000
   10       -7.230557   1.000000
   11       -5.649244   1.000000
   12       -5.316589   1.000000
   13       -5.101069   1.000000
   14       -4.067916   1.000000
   15       -4.012523   1.000000
   16       -2.375515   0.000000
   17        1.080920   0.000000
   18        1.842594   0.000000
   19        2.200385   0.000000
   20        3.369701   0.000000
   21        3.931776   0.000000
   22        4.504749   0.000000
   23        4.635198   0.000000
   24        5.942263   0.000000
 
  0.3277143E+00  0.3277143E+00  0.0000000E+00  0.5208333E-02
    1      -18.881923   1.000000
    2      -16.564731   1.000000
    3      -15.726112   1.000000
    4      -13.431869   1.000000
    5      -11.847326   1.000000
    6      -10.300995   1.000000
    7       -8.766981   1.000000
    8       -8.765364   1.000000
    9       -7.445871   1.000000
   10       -7.194802   1.000000
   11       -5.655986   1.000000
   12       -5.284289   1.000000
   13       -5.049804   1.000000
   14       -4.064173   1.000000
   15       -3.993602   1.000000
   16       -2.365443   0.000000
   17        1.066889   0.000000
   18        1.823505   0.000000
   19        2.174706   0.000000
   20        3.326070   0.000000
   21        3.885671   0.000000
   22        4.479191   0.000000
   23        4.686286   0.000000
   24        5.991082   0.000000
 
  0.3224286E+00  0.3224286E+00  0.0000000E+00  0.5208333E-02
    1      -18.891528   1.000000
    2      -16.542431   1.000000
    3      -15.720156   1.000000
    4      -13.424653   1.000000
    5      -11.875346   1.000000
    6      -10.341707   1.000000
    7       -8.811832   1.000000
    8       -8.738515   1.000000
    9       -7.463968   1.000000
   10       -7.158625   1.000000
   11       -5.662551   1.000000
   12       -5.251823   1.000000
   13       -4.998870   1.000000
   14       -4.060356   1.000000
   15       -3.974543   1.000000
   16       -2.355039   0.000000
   17        1.052634   0.000000
   18        1.804125   0.000000
   19        2.149431   0.000000
   20        3.281116   0.000000
   21        3.841256   0.000000
   22        4.454027   0.000000
   23        4.737735   0.000000
   24        6.040736   0.000000
 
  0.3171429E+00  0.3171429E+00  0.0000000E+00  0.5208333E-02
    1      -18.901145   1.000000
    2      -16.519796   1.000000
    3      -15.714059   1.000000
    4      -13.417262   1.000000
    5      -11.903423   1.000000
    6      -10.382281   1.000000
    7       -8.856989   1.000000
    8       -8.711627   1.000000
    9       -7.481892   1.000000
   10       -7.122076   1.000000
   11       -5.668932   1.000000
   12       -5.219207   1.000000
   13       -4.948281   1.000000
   14       -4.056472   1.000000
   15       -3.955364   1.000000
   16       -2.344326   0.000000
   17        1.038183   0.000000
   18        1.784476   0.000000
   19        2.124562   0.000000
   20        3.234722   0.000000
   21        3.798543   0.000000
   22        4.429265   0.000000
   23        4.789560   0.000000
   24        6.089717   0.000000
 
  0.3118571E+00  0.3118571E+00  0.0000000E+00  0.5208333E-02
    1      -18.910767   1.000000
    2      -16.496845   1.000000
    3      -15.707825   1.000000
    4      -13.409701   1.000000
    5      -11.931533   1.000000
    6      -10.422716   1.000000
    7       -8.902264   1.000000
    8       -8.684839   1.000000
    9       -7.499637   1.000000
   10       -7.085272   1.000000
   11       -5.675076   1.000000
   12       -5.186464   1.000000
   13       -4.898058   1.000000
   14       -4.052507   1.000000
   15       -3.936090   1.000000
   16       -2.333251   0.000000
   17        1.023558   0.000000
   18        1.764590   0.000000
   19        2.100098   0.000000
   20        3.187097   0.000000
   21        3.757626   0.000000
   22        4.404899   0.000000
   23        4.841748   0.000000
   24        6.117813   0.000000
 
  0.3065714E+00  0.3065714E+00  0.0000000E+00  0.5208333E-02
    1      -18.920382   1.000000
    2      -16.473599   1.000000
    3      -15.701459   1.000000
    4      -13.401974   1.000000
    5      -11.959650   1.000000
    6      -10.462996   1.000000
    7       -8.947581   1.000000
    8       -8.658169   1.000000
    9       -7.517190   1.000000
   10       -7.048293   1.000000
   11       -5.680992   1.000000
   12       -5.153630   1.000000
   13       -4.848211   1.000000
   14       -4.048475   1.000000
   15       -3.916736   1.000000
   16       -2.321838   0.000000
   17        1.008772   0.000000
   18        1.744465   0.000000
   19        2.076040   0.000000
   20        3.138183   0.000000
   21        3.718454   0.000000
   22        4.380932   0.000000
   23        4.894297   0.000000
   24        6.119851   0.000000
 
  0.3012857E+00  0.3012857E+00  0.0000000E+00  0.5208333E-02
    1      -18.929978   1.000000
    2      -16.450073   1.000000
    3      -15.694963   1.000000
    4      -13.394086   1.000000
    5      -11.987750   1.000000
    6      -10.503105   1.000000
    7       -8.992871   1.000000
    8       -8.631636   1.000000
    9       -7.534541   1.000000
   10       -7.011199   1.000000
   11       -5.686667   1.000000
   12       -5.120714   1.000000
   13       -4.798759   1.000000
   14       -4.044369   1.000000
   15       -3.897292   1.000000
   16       -2.310085   0.000000
   17        0.993893   0.000000
   18        1.724147   0.000000
   19        2.052388   0.000000
   20        3.088046   0.000000
   21        3.680993   0.000000
   22        4.357364   0.000000
   23        4.947203   0.000000
   24        6.117882   0.000000
 
  0.2960000E+00  0.2960000E+00  0.0000000E+00  0.5208333E-02
    1      -18.939544   1.000000
    2      -16.426283   1.000000
    3      -15.688343   1.000000
    4      -13.386044   1.000000
    5      -12.015811   1.000000
    6      -10.543031   1.000000
    7       -9.038078   1.000000
    8       -8.605253   1.000000
    9       -7.551680   1.000000
   10       -6.974055   1.000000
   11       -5.692088   1.000000
   12       -5.087680   1.000000
   13       -4.749714   1.000000
   14       -4.040203   1.000000
   15       -3.877824   1.000000
   16       -2.297983   0.000000
   17        0.978941   0.000000
   18        1.703654   0.000000
   19        2.029141   0.000000
   20        3.036762   0.000000
   21        3.645181   0.000000
   22        4.334195   0.000000
   23        5.000466   0.000000
   24        6.060182   0.000000
 
  0.2907143E+00  0.2907143E+00  0.0000000E+00  0.5208333E-02
    1      -18.949070   1.000000
    2      -16.402250   1.000000
    3      -15.681603   1.000000
    4      -13.377853   1.000000
    5      -12.043812   1.000000
    6      -10.582762   1.000000
    7       -9.083159   1.000000
    8       -8.579115   1.000000
    9       -7.568603   1.000000
   10       -6.936912   1.000000
   11       -5.697264   1.000000
   12       -5.054635   1.000000
   13       -4.701072   1.000000
   14       -4.035989   1.000000
   15       -3.858346   1.000000
   16       -2.285542   0.000000
   17        0.963776   0.000000
   18        1.682972   0.000000
   19        2.006299   0.000000
   20        2.984430   0.000000
   21        3.610943   0.000000
   22        4.311424   0.000000
   23        5.054076   0.000000
   24        6.047589   0.000000
 
  0.2854286E+00  0.2854286E+00  0.0000000E+00  0.5208333E-02
    1      -18.958549   1.000000
    2      -16.377996   1.000000
    3      -15.674749   1.000000
    4      -13.369520   1.000000
    5      -12.071733   1.000000
    6      -10.622286   1.000000
    7       -9.128068   1.000000
    8       -8.553209   1.000000
    9       -7.585303   1.000000
   10       -6.899834   1.000000
   11       -5.702179   1.000000
   12       -5.021613   1.000000
   13       -4.652917   1.000000
   14       -4.031724   1.000000
   15       -3.838863   1.000000
   16       -2.272754   0.000000
   17        0.948520   0.000000
   18        1.662126   0.000000
   19        1.983864   0.000000
   20        2.931159   0.000000
   21        3.578196   0.000000
   22        4.289053   0.000000
   23        5.108029   0.000000
   24        6.033690   0.000000
 
  0.2801429E+00  0.2801429E+00  0.0000000E+00  0.5208333E-02
    1      -18.967970   1.000000
    2      -16.353535   1.000000
    3      -15.667786   1.000000
    4      -13.361049   1.000000
    5      -12.099556   1.000000
    6      -10.661595   1.000000
    7       -9.172763   1.000000
    8       -8.527561   1.000000
    9       -7.601772   1.000000
   10       -6.862857   1.000000
   11       -5.706817   1.000000
   12       -4.988586   1.000000
   13       -4.605238   1.000000
   14       -4.027433   1.000000
   15       -3.819389   1.000000
   16       -2.259620   0.000000
   17        0.933166   0.000000
   18        1.641137   0.000000
   19        1.961835   0.000000
   20        2.877059   0.000000
   21        3.546851   0.000000
   22        4.267083   0.000000
   23        5.162321   0.000000
   24        6.028075   0.000000
 
  0.2748571E+00  0.2748571E+00  0.0000000E+00  0.5208333E-02
    1      -18.977324   1.000000
    2      -16.328885   1.000000
    3      -15.660718   1.000000
    4      -13.352451   1.000000
    5      -12.127255   1.000000
    6      -10.700669   1.000000
    7       -9.217217   1.000000
    8       -8.502193   1.000000
    9       -7.617999   1.000000
   10       -6.826012   1.000000
   11       -5.711176   1.000000
   12       -4.955588   1.000000
   13       -4.558094   1.000000
   14       -4.023085   1.000000
   15       -3.799949   1.000000
   16       -2.246134   0.000000
   17        0.917774   0.000000
   18        1.620034   0.000000
   19        1.940213   0.000000
   20        2.822236   0.000000
   21        3.516818   0.000000
   22        4.245512   0.000000
   23        5.216939   0.000000
   24        6.021979   0.000000
 
  0.2695714E+00  0.2695714E+00  0.0000000E+00  0.5208333E-02
    1      -18.986604   1.000000
    2      -16.304067   1.000000
    3      -15.653551   1.000000
    4      -13.343729   1.000000
    5      -12.154813   1.000000
    6      -10.739495   1.000000
    7       -9.261385   1.000000
    8       -8.477125   1.000000
    9       -7.633982   1.000000
   10       -6.789345   1.000000
   11       -5.715245   1.000000
   12       -4.922658   1.000000
   13       -4.511391   1.000000
   14       -4.018687   1.000000
   15       -3.780550   1.000000
   16       -2.232293   0.000000
   17        0.902345   0.000000
   18        1.598813   0.000000
   19        1.918995   0.000000
   20        2.766830   0.000000
   21        3.488013   0.000000
   22        4.224340   0.000000
   23        5.271880   0.000000
   24        6.013760   0.000000
 
  0.2642857E+00  0.2642857E+00  0.0000000E+00  0.5208333E-02
    1      -18.995800   1.000000
    2      -16.279095   1.000000
    3      -15.646290   1.000000
    4      -13.334895   1.000000
    5      -12.182213   1.000000
    6      -10.778061   1.000000
    7       -9.305239   1.000000
    8       -8.452381   1.000000
    9       -7.649714   1.000000
   10       -6.752882   1.000000
   11       -5.719028   1.000000
   12       -4.889786   1.000000
   13       -4.465191   1.000000
   14       -4.014258   1.000000
   15       -3.761216   1.000000
   16       -2.218097   0.000000
   17        0.886886   0.000000
   18        1.577512   0.000000
   19        1.898185   0.000000
   20        2.710933   0.000000
   21        3.460352   0.000000
   22        4.203567   0.000000
   23        5.327128   0.000000
   24        6.004871   0.000000
 
  0.2590000E+00  0.2590000E+00  0.0000000E+00  0.5208333E-02
    1      -19.004905   1.000000
    2      -16.253987   1.000000
    3      -15.638942   1.000000
    4      -13.325950   1.000000
    5      -12.209437   1.000000
    6      -10.816349   1.000000
    7       -9.348754   1.000000
    8       -8.427988   1.000000
    9       -7.665189   1.000000
   10       -6.716650   1.000000
   11       -5.722508   1.000000
   12       -4.857004   1.000000
   13       -4.419475   1.000000
   14       -4.009794   1.000000
   15       -3.741953   1.000000
   16       -2.203542   0.000000
   17        0.871424   0.000000
   18        1.556127   0.000000
   19        1.877782   0.000000
   20        2.654652   0.000000
   21        3.433759   0.000000
   22        4.183198   0.000000
   23        5.382682   0.000000
   24        5.997267   0.000000
 
  0.2537143E+00  0.2537143E+00  0.0000000E+00  0.5208333E-02
    1      -19.013913   1.000000
    2      -16.228766   1.000000
    3      -15.631514   1.000000
    4      -13.316906   1.000000
    5      -12.236469   1.000000
    6      -10.854348   1.000000
    7       -9.391908   1.000000
    8       -8.403975   1.000000
    9       -7.680402   1.000000
   10       -6.680703   1.000000
   11       -5.725720   1.000000
   12       -4.824339   1.000000
   13       -4.374342   1.000000
   14       -4.005305   1.000000
   15       -3.722769   1.000000
   16       -2.188623   0.000000
   17        0.855975   0.000000
   18        1.534669   0.000000
   19        1.857785   0.000000
   20        2.598081   0.000000
   21        3.408162   0.000000
   22        4.163229   0.000000
   23        5.438516   0.000000
   24        5.989693   0.000000
 
  0.2484286E+00  0.2484286E+00  0.0000000E+00  0.5208333E-02
    1      -19.022816   1.000000
    2      -16.203449   1.000000
    3      -15.624010   1.000000
    4      -13.307772   1.000000
    5      -12.263290   1.000000
    6      -10.892046   1.000000
    7       -9.434673   1.000000
    8       -8.380329   1.000000
    9       -7.695350   1.000000
   10       -6.645040   1.000000
   11       -5.728631   1.000000
   12       -4.791815   1.000000
   13       -4.329750   1.000000
   14       -4.000794   1.000000
   15       -3.703697   1.000000
   16       -2.173343   0.000000
   17        0.840553   0.000000
   18        1.513147   0.000000
   19        1.838195   0.000000
   20        2.541317   0.000000
   21        3.383498   0.000000
   22        4.143659   0.000000
   23        5.494603   0.000000
   24        5.982151   0.000000
 
  0.2431429E+00  0.2431429E+00  0.0000000E+00  0.5208333E-02
    1      -19.031608   1.000000
    2      -16.178053   1.000000
    3      -15.616437   1.000000
    4      -13.298556   1.000000
    5      -12.289885   1.000000
    6      -10.929426   1.000000
    7       -9.477027   1.000000
    8       -8.357066   1.000000
    9       -7.710028   1.000000
   10       -6.609701   1.000000
   11       -5.731211   1.000000
   12       -4.759455   1.000000
   13       -4.285776   1.000000
   14       -3.996267   1.000000
   15       -3.684762   1.000000
   16       -2.157706   0.000000
   17        0.825169   0.000000
   18        1.491568   0.000000
   19        1.819012   0.000000
   20        2.484447   0.000000
   21        3.359709   0.000000
   22        4.124490   0.000000
   23        5.550911   0.000000
   24        5.973980   0.000000
 
  0.2378571E+00  0.2378571E+00  0.0000000E+00  0.5208333E-02
    1      -19.040284   1.000000
    2      -16.152600   1.000000
    3      -15.608803   1.000000
    4      -13.289267   1.000000
    5      -12.316237   1.000000
    6      -10.966471   1.000000
    7       -9.518948   1.000000
    8       -8.334223   1.000000
    9       -7.724431   1.000000
   10       -6.574712   1.000000
   11       -5.733491   1.000000
   12       -4.727280   1.000000
   13       -4.242406   1.000000
   14       -3.991728   1.000000
   15       -3.665970   1.000000
   16       -2.141705   0.000000
   17        0.809842   0.000000
   18        1.469939   0.000000
   19        1.800237   0.000000
   20        2.427554   0.000000
   21        3.336745   0.000000
   22        4.105723   0.000000
   23        5.607386   0.000000
   24        5.965884   0.000000
 
  0.2325714E+00  0.2325714E+00  0.0000000E+00  0.5208333E-02
    1      -19.048836   1.000000
    2      -16.127107   1.000000
    3      -15.601115   1.000000
    4      -13.279918   1.000000
    5      -12.342330   1.000000
    6      -11.003165   1.000000
    7       -9.560423   1.000000
    8       -8.311828   1.000000
    9       -7.738561   1.000000
   10       -6.540100   1.000000
   11       -5.735494   1.000000
   12       -4.695318   1.000000
   13       -4.199676   1.000000
   14       -3.987185   1.000000
   15       -3.647349   1.000000
   16       -2.125353   0.000000
   17        0.794583   0.000000
   18        1.448255   0.000000
   19        1.781868   0.000000
   20        2.370657   0.000000
   21        3.314559   0.000000
   22        4.087358   0.000000
   23        5.663933   0.000000
   24        5.957970   0.000000
 
  0.2272857E+00  0.2272857E+00  0.0000000E+00  0.5208333E-02
    1      -19.057259   1.000000
    2      -16.101596   1.000000
    3      -15.593379   1.000000
    4      -13.270517   1.000000
    5      -12.368150   1.000000
    6      -11.039490   1.000000
    7       -9.601418   1.000000
    8       -8.289879   1.000000
    9       -7.752406   1.000000
   10       -6.505887   1.000000
   11       -5.737178   1.000000
   12       -4.663586   1.000000
   13       -4.157567   1.000000
   14       -3.982640   1.000000
   15       -3.628888   1.000000
   16       -2.108623   0.000000
   17        0.779412   0.000000
   18        1.426530   0.000000
   19        1.763907   0.000000
   20        2.313956   0.000000
   21        3.293114   0.000000
   22        4.069394   0.000000
   23        5.720364   0.000000
   24        5.950238   0.000000
 
  0.2220000E+00  0.2220000E+00  0.0000000E+00  0.5208333E-02
    1      -19.065548   1.000000
    2      -16.076084   1.000000
    3      -15.585604   1.000000
    4      -13.261074   1.000000
    5      -12.393678   1.000000
    6      -11.075428   1.000000
    7       -9.641911   1.000000
    8       -8.268389   1.000000
    9       -7.765961   1.000000
   10       -6.472073   1.000000
   11       -5.738564   1.000000
   12       -4.632106   1.000000
   13       -4.116067   1.000000
   14       -3.978072   1.000000
   15       -3.610612   1.000000
   16       -2.091523   0.000000
   17        0.764347   0.000000
   18        1.404789   0.000000
   19        1.746355   0.000000
   20        2.257529   0.000000
   21        3.272374   0.000000
   22        4.051834   0.000000
   23        5.776229   0.000000
   24        5.943163   0.000000
 
  0.2167143E+00  0.2167143E+00  0.0000000E+00  0.5208333E-02
    1      -19.073698   1.000000
    2      -16.050595   1.000000
    3      -15.577798   1.000000
    4      -13.251603   1.000000
    5      -12.418902   1.000000
    6      -11.110962   1.000000
    7       -9.681898   1.000000
    8       -8.247386   1.000000
    9       -7.779237   1.000000
   10       -6.438717   1.000000
   11       -5.739665   1.000000
   12       -4.600914   1.000000
   13       -4.075278   1.000000
   14       -3.973538   1.000000
   15       -3.592536   1.000000
   16       -2.074071   0.000000
   17        0.749268   0.000000
   18        1.382947   0.000000
   19        1.729210   0.000000
   20        2.201312   0.000000
   21        3.252304   0.000000
   22        4.034675   0.000000
   23        5.830038   0.000000
   24        5.938167   0.000000
 
  0.2114286E+00  0.2114286E+00  0.0000000E+00  0.5208333E-02
    1      -19.081703   1.000000
    2      -16.025151   1.000000
    3      -15.569968   1.000000
    4      -13.242116   1.000000
    5      -12.443803   1.000000
    6      -11.146077   1.000000
    7       -9.721356   1.000000
    8       -8.226852   1.000000
    9       -7.792220   1.000000
   10       -6.405822   1.000000
   11       -5.740472   1.000000
   12       -4.570032   1.000000
   13       -4.035176   1.000000
   14       -3.969017   1.000000
   15       -3.574675   1.000000
   16       -2.056248   0.000000
   17        0.734462   0.000000
   18        1.361055   0.000000
   19        1.712474   0.000000
   20        2.145462   0.000000
   21        3.232884   0.000000
   22        4.017920   0.000000
   23        5.875063   0.000000
   24        5.941978   0.000000
 
  0.2061429E+00  0.2061429E+00  0.0000000E+00  0.5208333E-02
    1      -19.089559   1.000000
    2      -15.999769   1.000000
    3      -15.562125   1.000000
    4      -13.232624   1.000000
    5      -12.468370   1.000000
    6      -11.180745   1.000000
    7       -9.760248   1.000000
    8       -8.206787   1.000000
    9       -7.804907   1.000000
   10       -6.373408   1.000000
   11       -5.740974   1.000000
   12       -4.539466   1.000000
   13       -3.995798   1.000000
   14       -3.964513   1.000000
   15       -3.557074   1.000000
   16       -2.038063   0.000000
   17        0.719827   0.000000
   18        1.339077   0.000000
   19        1.696146   0.000000
   20        2.090070   0.000000
   21        3.214087   0.000000
   22        4.001568   0.000000
   23        5.893093   0.000000
   24        5.972839   0.000000
 
  0.2008571E+00  0.2008571E+00  0.0000000E+00  0.5208333E-02
    1      -19.097263   1.000000
    2      -15.974475   1.000000
    3      -15.554275   1.000000
    4      -13.223141   1.000000
    5      -12.492584   1.000000
    6      -11.214948   1.000000
    7       -9.798575   1.000000
    8       -8.187269   1.000000
    9       -7.817298   1.000000
   10       -6.341507   1.000000
   11       -5.741228   1.000000
   12       -4.509265   1.000000
   13       -3.960035   1.000000
   14       -3.957123   1.000000
   15       -3.539685   1.000000
   16       -2.019518   0.000000
   17        0.705334   0.000000
   18        1.317011   0.000000
   19        1.680227   0.000000
   20        2.035203   0.000000
   21        3.195892   0.000000
   22        3.985620   0.000000
   23        5.891335   0.000000
   24        6.023423   0.000000
 
  0.1955714E+00  0.1955714E+00  0.0000000E+00  0.5208333E-02
    1      -19.104808   1.000000
    2      -15.949290   1.000000
    3      -15.546428   1.000000
    4      -13.213680   1.000000
    5      -12.516430   1.000000
    6      -11.248665   1.000000
    7       -9.836309   1.000000
    8       -8.168239   1.000000
    9       -7.829391   1.000000
   10       -6.310127   1.000000
   11       -5.741207   1.000000
   12       -4.479428   1.000000
   13       -3.955587   1.000000
   14       -3.919173   1.000000
   15       -3.522549   1.000000
   16       -2.000616   0.000000
   17        0.691022   0.000000
   18        1.294838   0.000000
   19        1.664717   0.000000
   20        1.980977   0.000000
   21        3.178282   0.000000
   22        3.970077   0.000000
   23        5.884518   0.000000
   24        6.079011   0.000000
 
  0.1902857E+00  0.1902857E+00  0.0000000E+00  0.5208333E-02
    1      -19.112192   1.000000
    2      -15.924236   1.000000
    3      -15.538594   1.000000
    4      -13.204256   1.000000
    5      -12.539894   1.000000
    6      -11.281876   1.000000
    7       -9.873434   1.000000
    8       -8.149744   1.000000
    9       -7.841179   1.000000
   10       -6.279290   1.000000
   11       -5.740931   1.000000
   12       -4.449933   1.000000
   13       -3.951170   1.000000
   14       -3.881993   1.000000
   15       -3.505687   1.000000
   16       -1.981364   0.000000
   17        0.676918   0.000000
   18        1.272507   0.000000
   19        1.649616   0.000000
   20        1.927424   0.000000
   21        3.161239   0.000000
   22        3.954938   0.000000
   23        5.876153   0.000000
   24        6.136029   0.000000
 
  0.1850000E+00  0.1850000E+00  0.0000000E+00  0.5208333E-02
    1      -19.119412   1.000000
    2      -15.899340   1.000000
    3      -15.530782   1.000000
    4      -13.194881   1.000000
    5      -12.562961   1.000000
    6      -11.314553   1.000000
    7       -9.909926   1.000000
    8       -8.131769   1.000000
    9       -7.852668   1.000000
   10       -6.249023   1.000000
   11       -5.740407   1.000000
   12       -4.420950   1.000000
   13       -3.946795   1.000000
   14       -3.845578   1.000000
   15       -3.489106   1.000000
   16       -1.961768   0.000000
   17        0.663007   0.000000
   18        1.249969   0.000000
   19        1.634926   0.000000
   20        1.874672   0.000000
   21        3.144747   0.000000
   22        3.940208   0.000000
   23        5.867717   0.000000
   24        6.193751   0.000000
 
  0.1797143E+00  0.1797143E+00  0.0000000E+00  0.5208333E-02
    1      -19.126462   1.000000
    2      -15.874627   1.000000
    3      -15.523002   1.000000
    4      -13.185573   1.000000
    5      -12.585616   1.000000
    6      -11.346679   1.000000
    7       -9.945771   1.000000
    8       -8.114319   1.000000
    9       -7.863852   1.000000
   10       -6.219346   1.000000
   11       -5.739627   1.000000
   12       -4.392425   1.000000
   13       -3.942466   1.000000
   14       -3.809963   1.000000
   15       -3.472823   1.000000
   16       -1.941834   0.000000
   17        0.649316   0.000000
   18        1.227191   0.000000
   19        1.620645   0.000000
   20        1.822834   0.000000
   21        3.128795   0.000000
   22        3.925879   0.000000
   23        5.857541   0.000000
   24        6.251178   0.000000
 
  0.1744286E+00  0.1744286E+00  0.0000000E+00  0.5208333E-02
    1      -19.133340   1.000000
    2      -15.850120   1.000000
    3      -15.515263   1.000000
    4      -13.176347   1.000000
    5      -12.607841   1.000000
    6      -11.378222   1.000000
    7       -9.980943   1.000000
    8       -8.097407   1.000000
    9       -7.874729   1.000000
   10       -6.190251   1.000000
   11       -5.738619   1.000000
   12       -4.364382   1.000000
   13       -3.938182   1.000000
   14       -3.775089   1.000000
   15       -3.456845   1.000000
   16       -1.921557   0.000000
   17        0.635846   0.000000
   18        1.204112   0.000000
   19        1.606774   0.000000
   20        1.772025   0.000000
   21        3.113372   0.000000
   22        3.911959   0.000000
   23        5.850592   0.000000
   24        6.308657   0.000000
 
  0.1691429E+00  0.1691429E+00  0.0000000E+00  0.5208333E-02
    1      -19.140044   1.000000
    2      -15.825847   1.000000
    3      -15.507579   1.000000
    4      -13.167221   1.000000
    5      -12.629628   1.000000
    6      -11.409166   1.000000
    7      -10.015430   1.000000
    8       -8.081086   1.000000
    9       -7.885298   1.000000
   10       -6.161829   1.000000
   11       -5.737416   1.000000
   12       -4.336850   1.000000
   13       -3.933975   1.000000
   14       -3.741114   1.000000
   15       -3.441200   1.000000
   16       -1.900979   0.000000
   17        0.622617   0.000000
   18        1.180646   0.000000
   19        1.593313   0.000000
   20        1.722351   0.000000
   21        3.098467   0.000000
   22        3.898445   0.000000
   23        5.837891   0.000000
   24        6.315593   0.000000
 
  0.1638571E+00  0.1638571E+00  0.0000000E+00  0.5208333E-02
    1      -19.146568   1.000000
    2      -15.801834   1.000000
    3      -15.499956   1.000000
    4      -13.158208   1.000000
    5      -12.650957   1.000000
    6      -11.439482   1.000000
    7      -10.049207   1.000000
    8       -8.065271   1.000000
    9       -7.895556   1.000000
   10       -6.134031   1.000000
   11       -5.736011   1.000000
   12       -4.309851   1.000000
   13       -3.929816   1.000000
   14       -3.707975   1.000000
   15       -3.425887   1.000000
   16       -1.880096   0.000000
   17        0.609671   0.000000
   18        1.156735   0.000000
   19        1.580261   0.000000
   20        1.673976   0.000000
   21        3.084074   0.000000
   22        3.885336   0.000000
   23        5.827799   0.000000
   24        6.222630   0.000000
 
  0.1585714E+00  0.1585714E+00  0.0000000E+00  0.5208333E-02
    1      -19.152911   1.000000
    2      -15.778109   1.000000
    3      -15.492408   1.000000
    4      -13.149326   1.000000
    5      -12.671815   1.000000
    6      -11.469142   1.000000
    7      -10.082254   1.000000
    8       -8.050037   1.000000
    9       -7.905501   1.000000
   10       -6.106904   1.000000
   11       -5.734430   1.000000
   12       -4.283400   1.000000
   13       -3.925725   1.000000
   14       -3.675696   1.000000
   15       -3.410923   1.000000
   16       -1.858924   0.000000
   17        0.596996   0.000000
   18        1.132285   0.000000
   19        1.567621   0.000000
   20        1.627038   0.000000
   21        3.070183   0.000000
   22        3.872635   0.000000
   23        5.817878   0.000000
   24        6.183700   0.000000
 
  0.1532857E+00  0.1532857E+00  0.0000000E+00  0.5208333E-02
    1      -19.159070   1.000000
    2      -15.754699   1.000000
    3      -15.484941   1.000000
    4      -13.140590   1.000000
    5      -12.692183   1.000000
    6      -11.498120   1.000000
    7      -10.114549   1.000000
    8       -8.035316   1.000000
    9       -7.915126   1.000000
   10       -6.080451   1.000000
   11       -5.732663   1.000000
   12       -4.257532   1.000000
   13       -3.921623   1.000000
   14       -3.644288   1.000000
   15       -3.396318   1.000000
   16       -1.837466   0.000000
   17        0.584614   0.000000
   18        1.107219   0.000000
   19        1.555391   0.000000
   20        1.581691   0.000000