       N       E                     dE             d eps       ncg     rms          rms(c)
DAV:   1     0.141093020968E+03    0.14109E+03   -0.10555E+04  9216   0.859E+02
DAV:   2    -0.454723499943E+02   -0.18657E+03   -0.17165E+03 14532   0.172E+02
DAV:   3    -0.649568055364E+02   -0.19484E+02   -0.19275E+02 11052   0.666E+01
DAV:   4    -0.653077581255E+02   -0.35095E+00   -0.35067E+00 12600   0.106E+01
DAV:   5    -0.653165528602E+02   -0.87947E-02   -0.87933E-02 12120   0.154E+00
DAV:   6    -0.653169618323E+02   -0.40897E-03   -0.40896E-03 14268   0.331E-01
DAV:   7    -0.653169713762E+02   -0.95439E-05   -0.95443E-05 13044   0.395E-02
DAV:   8    -0.653169716809E+02   -0.30462E-06   -0.30429E-06 12420   0.581E-03
   1 F= -.65316972E+02 E0= -.65316972E+02  d E =-.274359E-06
