 vasp.5.4.4.18Apr17-6-g9f103f2a35 (build Mar 30 2023 15:39:25) complex          
  
 executed on             LinuxIFC date 2023.06.09  15:20:43
 running on   12 total cores
 distrk:  each k-point on   12 cores,    1 groups
 distr:  one band on NCORES_PER_BAND=   1 cores,   12 groups


--------------------------------------------------------------------------------------------------------


 INCAR:
 POTCAR:    PAW_PBE B 06Sep2000                   
 POTCAR:    PAW_PBE C 08Apr2002                   

 ----------------------------------------------------------------------------- 
|                                                                             |
|           W    W    AA    RRRRR   N    N  II  N    N   GGGG   !!!           |
|           W    W   A  A   R    R  NN   N  II  NN   N  G    G  !!!           |
|           W    W  A    A  R    R  N N  N  II  N N  N  G       !!!           |
|           W WW W  AAAAAA  RRRRR   N  N N  II  N  N N  G  GGG   !            |
|           WW  WW  A    A  R   R   N   NN  II  N   NN  G    G                |
|           W    W  A    A  R    R  N    N  II  N    N   GGGG   !!!           |
|                                                                             |
|      For optimal performance we recommend to set                            |
|        NCORE= 4 - approx SQRT( number of cores)                             |
|      NCORE specifies how many cores store one orbital (NPAR=cpu/NCORE).     |
|      This setting can  greatly improve the performance of VASP for DFT.     |
|      The default,   NCORE=1            might be grossly inefficient         |
|      on modern multi-core architectures or massively parallel machines.     |
|      Do your own testing !!!!                                               |
|      Unfortunately you need to use the default for GW and RPA calculations. |
|      (for HF NCORE is supported but not extensively tested yet)             |
|                                                                             |
 ----------------------------------------------------------------------------- 

 POTCAR:    PAW_PBE B 06Sep2000                   
   SHA256 =  a32ced30f5ae56fd4d10b4325ff17eb3e4e38ee0f4288bc219fb012fddfa6e97 B/
   COPYR  = (c) Copyright 06Sep2000 Georg Kresse                                
   COPYR  = This file is part of the software VASP. Any use, copying, and all ot
   COPYR  = If you do not have a valid VASP license, you may not use, copy or di
   VRHFIN =B: s2p1                                                              
   LEXCH  = PE                                                                  
   EATOM  =    71.1703 eV,    5.2309 Ry                                         
                                                                                
   TITEL  = PAW_PBE B 06Sep2000                                                 
   LULTRA =        F    use ultrasoft PP ?                                      
   IUNSCR =        1    unscreen: 0-lin 1-nonlin 2-no                           
   RPACOR =    1.200    partial core radius                                     
   POMASS =   10.811; ZVAL   =    3.000    mass and valenz                      
   RCORE  =    1.700    outmost cutoff radius                                   
   RWIGS  =    1.710; RWIGS  =    0.905    wigner-seitz radius (au A)           
   ENMAX  =  318.614; ENMIN  =  238.960 eV                                      
   ICORE  =        2    local potential                                         
   LCOR   =        T    correct aug charges                                     
   LPAW   =        T    paw PP                                                  
   EAUG   =  535.514                                                            
   DEXC   =    0.000                                                            
   RMAX   =    1.732    core radius for proj-oper                               
   RAUG   =    1.300    factor for augmentation sphere                          
   RDEP   =    1.757    radius for radial grids                                 
   RDEPT  =    1.436    core radius for aug-charge                              
                                                                                
   Atomic configuration                                                         
    4 entries                                                                   
     n  l   j            E        occ.                                          
     1  0  0.50      -180.5896   2.0000                                         
     2  0  0.50        -9.4431   2.0000                                         
     2  1  0.50        -3.6068   1.0000                                         
     3  2  1.50        -4.0817   0.0000                                         
   Description                                                                  
     l       E           TYP  RCUT    TYP  RCUT                                 
     0     -9.4430752     23  1.500                                             
     0      0.8675899     23  1.500                                             
     1     -3.6067955     23  1.700                                             
     1      6.1086146     23  1.700                                             
     2     -4.0817478      7  1.700                                             
  local pseudopotential read in
  partial core-charges read in
  partial kinetic energy density read in
  atomic valenz-charges read in
  non local Contribution for L=           0  read in
    real space projection operators read in
  non local Contribution for L=           0  read in
    real space projection operators read in
  non local Contribution for L=           1  read in
    real space projection operators read in
  non local Contribution for L=           1  read in
    real space projection operators read in
    PAW grid and wavefunctions read in
 
   number of l-projection  operators is LMAX  =           4
   number of lm-projection operators is LMMAX =           8
 
 POTCAR:    PAW_PBE C 08Apr2002                   
   SHA256 =  253f7b50bb8d59471dbedb8285d89021f4a42ed1a2c5d38a03a736e69125dd95 C/
   COPYR  = (c) Copyright 08Apr2002 Georg Kresse                                
   COPYR  = This file is part of the software VASP. Any use, copying, and all ot
   COPYR  = If you do not have a valid VASP license, you may not use, copy or di
   VRHFIN =C: s2p2                                                              
   LEXCH  = PE                                                                  
   EATOM  =   147.1560 eV,   10.8157 Ry                                         
                                                                                
   TITEL  = PAW_PBE C 08Apr2002                                                 
   LULTRA =        F    use ultrasoft PP ?                                      
   IUNSCR =        1    unscreen: 0-lin 1-nonlin 2-no                           
   RPACOR =    1.200    partial core radius                                     
   POMASS =   12.011; ZVAL   =    4.000    mass and valenz                      
   RCORE  =    1.500    outmost cutoff radius                                   
   RWIGS  =    1.630; RWIGS  =    0.863    wigner-seitz radius (au A)           
   ENMAX  =  400.000; ENMIN  =  300.000 eV                                      
   ICORE  =        2    local potential                                         
   LCOR   =        T    correct aug charges                                     
   LPAW   =        T    paw PP                                                  
   EAUG   =  644.873                                                            
   DEXC   =    0.000                                                            
   RMAX   =    1.529    core radius for proj-oper                               
   RAUG   =    1.300    factor for augmentation sphere                          
   RDEP   =    1.501    radius for radial grids                                 
   RDEPT  =    1.300    core radius for aug-charge                              
                                                                                
   Atomic configuration                                                         
    4 entries                                                                   
     n  l   j            E        occ.                                          
     1  0  0.50      -273.3789   2.0000                                         
     2  0  0.50       -13.7508   2.0000                                         
     2  1  0.50        -5.2854   2.0000                                         
     3  2  1.50        -5.4423   0.0000                                         
   Description                                                                  
     l       E           TYP  RCUT    TYP  RCUT                                 
     0    -13.7508458     23  1.200                                             
     0     -8.2022199     23  1.200                                             
     1     -5.2854383     23  1.500                                             
     1     34.0145650     23  1.500                                             
     2     -5.4423304      7  1.500                                             
  local pseudopotential read in
  partial core-charges read in
  partial kinetic energy density read in
  atomic valenz-charges read in
  non local Contribution for L=           0  read in
    real space projection operators read in
  non local Contribution for L=           0  read in
    real space projection operators read in
  non local Contribution for L=           1  read in
    real space projection operators read in
  non local Contribution for L=           1  read in
    real space projection operators read in
    PAW grid and wavefunctions read in
 
   number of l-projection  operators is LMAX  =           4
   number of lm-projection operators is LMMAX =           8
 
  PAW_PBE B 06Sep2000                   :
 energy of atom  1       EATOM=  -71.1703
 kinetic energy error for atom=    0.0015 (will be added to EATOM!!)
  PAW_PBE C 08Apr2002                   :
 energy of atom  2       EATOM= -147.1560
 kinetic energy error for atom=    0.0116 (will be added to EATOM!!)
 
 
 POSCAR: BC3 with lattice parameter 5.174Ang, len
  positions in direct lattice
  velocities in cartesian coordinates
 exchange correlation table for  LEXCH =        8
   RHO(1)=    0.500       N(1)  =     2000
   RHO(2)=  100.500       N(2)  =     4000
 


--------------------------------------------------------------------------------------------------------


 ion  position               nearest neighbor table
   1  0.175  0.175  0.000-   6 1.56   3 1.57   4 1.57
   2  0.508  0.508  0.000-   5 1.56   8 1.57   7 1.57
   3  1.000  1.000  0.000-   5 1.42   7 1.42   1 1.57
   4  0.524  1.000  0.000-   5 1.42   8 1.42   1 1.57
   5  0.683  0.159  0.000-   4 1.42   3 1.42   2 1.56
   6  1.000  0.524  0.000-   8 1.42   7 1.42   1 1.56
   7  0.159  0.683  0.000-   6 1.42   3 1.42   2 1.57
   8  0.683  0.683  0.000-   6 1.42   4 1.42   2 1.57
 
  LATTYP: Found a base centered orthorhombic cell.
 ALAT       =     5.1747137496
 B/A-ratio  =     1.7315605478
 C/A-ratio  =     2.1343039342
  
  Lattice vectors:
  
 A1 = (  -2.5873568748,  -4.4801650874,   0.0000000000)
 A2 = (  -2.5873568748,   4.4801650874,   0.0000000000)
 A3 = (   0.0000000000,   0.0000000000, -11.0444119143)


Analysis of symmetry for initial positions (statically):
=====================================================================
 Subroutine PRICEL returns:
 Original cell was already a primitive cell.
 

 Routine SETGRP: Setting up the symmetry group for a 
 base centered orthorhombic supercell.


 Subroutine GETGRP returns: Found  8 space group operations
 (whereof  2 operations were pure point group operations)
 out of a pool of  8 trial point group operations.


The static configuration has the point symmetry C_1h.
 The point group associated with its full space group is D_2h.


Analysis of symmetry for dynamics (positions and initial velocities):
=====================================================================
 Subroutine PRICEL returns:
 Original cell was already a primitive cell.
 

 Routine SETGRP: Setting up the symmetry group for a 
 base centered orthorhombic supercell.


 Subroutine GETGRP returns: Found  8 space group operations
 (whereof  2 operations were pure point group operations)
 out of a pool of  8 trial point group operations.


The dynamic configuration has the point symmetry C_1h.
 The point group associated with its full space group is D_2h.


 Subroutine INISYM returns: Found  8 space group operations
 (whereof  2 operations are pure point group operations),
 and found     1 'primitive' translations

 
 
 KPOINTS: K-points for BC3 bandstructure          
  interpolating k-points between supplied coordinates
  k-points in reciprocal lattice
Space group operators:
 irot       det(A)        alpha          n_x          n_y          n_z        tau_x        tau_y        tau_z
    1     1.000000     0.000000     1.000000     0.000000     0.000000     0.000000     0.000000     0.000000
    2    -1.000000   180.000000     0.000000     0.000000     1.000000     0.000000     0.000000     0.000000
    3    -1.000000     0.000000     1.000000     0.000000     0.000000    -0.317502    -0.317451     0.000000
    4     1.000000   180.000000     0.000000     0.000000     1.000000    -0.317502    -0.317451     0.000000
    5     1.000000   180.000000    -0.000000     1.000000     0.000000    -0.476227    -0.000000     0.000000
    6    -1.000000   180.000000    -0.000000     1.000000     0.000000    -0.841274     0.682549     0.000000
    7     1.000000   180.000000     1.000000     0.000000     0.000000    -0.841274     0.682549     0.000000
    8    -1.000000   180.000000     1.000000     0.000000     0.000000    -0.476227    -0.000000     0.000000


--------------------------------------------------------------------------------------------------------




 Dimension of arrays:
   k-points           NKPTS =    192   k-points in BZ     NKDIM =    192   number of bands    NBANDS=     24
   number of dos      NEDOS =    301   number of ions     NIONS =      8
   non local maximal  LDIM  =      4   non local SUM 2l+1 LMDIM =      8
   total plane-waves  NPLWV = 103680
   max r-space proj   IRMAX =      1   max aug-charges    IRDMAX=   6513
   dimension x,y,z NGX =    36 NGY =   36 NGZ =   80
   dimension x,y,z NGXF=    72 NGYF=   72 NGZF=  160
   support grid    NGXF=    72 NGYF=   72 NGZF=  160
   ions per type =               2   6
   NGX,Y,Z   is equivalent  to a cutoff of  11.57, 11.57, 12.04 a.u.
   NGXF,Y,Z  is equivalent  to a cutoff of  23.13, 23.14, 24.08 a.u.

 SYSTEM =  BC3                                     
 POSCAR =  BC3 with lattice parameter 5.174Ang, len

 Startparameter for this run:
   NWRITE =      2    write-flag & timer
   PREC   = accura    normal or accurate (medium, high low for compatibility)
   ISTART =      0    job   : 0-new  1-cont  2-samecut
   ICHARG =     11    charge: 1-file 2-atom 10-const
   ISPIN  =      1    spin polarized calculation?
   LNONCOLLINEAR =      F non collinear calculations
   LSORBIT =      F    spin-orbit coupling
   INIWAV =      1    electr: 0-lowe 1-rand  2-diag
   LASPH  =      F    aspherical Exc in radial PAW
   METAGGA=      F    non-selfconsistent MetaGGA calc.

 Electronic Relaxation 1
   ENCUT  =  450.0 eV  33.07 Ry    5.75 a.u.   8.95  8.95 19.10*2*pi/ulx,y,z
   ENINI  =  450.0     initial cutoff
   ENAUG  =  644.9 eV  augmentation charge cutoff
   NELM   =     60;   NELMIN=  2; NELMDL= -5     # of ELM steps 
   EDIFF  = 0.1E-05   stopping-criterion for ELM
   LREAL  =      F    real-space projection
   NLSPLINE    = F    spline interpolate recip. space projectors
   LCOMPAT=      F    compatible to vasp.4.4
   GGA_COMPAT  = T    GGA compatible to vasp.4.4-vasp.4.6
   LMAXPAW     = -100 max onsite density
   LMAXMIX     =    2 max onsite mixed and CHGCAR
   VOSKOWN=      0    Vosko Wilk Nusair interpolation
   ROPT   =    0.00000   0.00000
 Ionic relaxation
   EDIFFG = -.1E-02   stopping-criterion for IOM
   NSW    =      0    number of steps for IOM
   NBLOCK =      1;   KBLOCK =      1    inner block; outer block 
   IBRION =     -1    ionic relax: 0-MD 1-quasi-New 2-CG
   NFREE  =      0    steps in history (QN), initial steepest desc. (CG)
   ISIF   =      2    stress and relaxation
   IWAVPR =     10    prediction:  0-non 1-charg 2-wave 3-comb
   ISYM   =      2    0-nonsym 1-usesym 2-fastsym
   LCORR  =      T    Harris-Foulkes like correction to forces

   POTIM  = 0.5000    time-step for ionic-motion
   TEIN   =    0.0    initial temperature
   TEBEG  =    0.0;   TEEND  =   0.0 temperature during run
   SMASS  =  -3.00    Nose mass-parameter (am)
   estimated Nose-frequenzy (Omega)   =  0.10E-29 period in steps =****** mass=  -0.612E-27a.u.
   SCALEE = 1.0000    scale energy and forces
   NPACO  =    256;   APACO  = 16.0  distance and # of slots for P.C.
   PSTRESS=    0.0 pullay stress

  Mass of Ions in am
   POMASS =  10.81 12.01
  Ionic Valenz
   ZVAL   =   3.00  4.00
  Atomic Wigner-Seitz radii
   RWIGS  =  -1.00 -1.00
  virtual crystal weights 
   VCA    =   1.00  1.00
   NELECT =      30.0000    total number of electrons
   NUPDOWN=      -1.0000    fix difference up-down

 DOS related values:
   EMIN   =  10.00;   EMAX   =-10.00  energy-range for DOS
   EFERMI =   0.00
   ISMEAR =     0;   SIGMA  =   0.10  broadening in eV -4-tet -1-fermi 0-gaus

 Electronic relaxation 2 (details)
   IALGO  =     38    algorithm
   LDIAG  =      T    sub-space diagonalisation (order eigenvalues)
   LSUBROT=      F    optimize rotation matrix (better conditioning)
   TURBO    =      0    0=normal 1=particle mesh
   IRESTART =      0    0=no restart 2=restart with 2 vectors
   NREBOOT  =      0    no. of reboots
   NMIN     =      0    reboot dimension
   EREF     =   0.00    reference energy to select bands
   IMIX   =      4    mixing-type and parameters
     AMIX     =   0.40;   BMIX     =  1.00
     AMIX_MAG =   1.60;   BMIX_MAG =  1.00
     AMIN     =   0.10
     WC   =   100.;   INIMIX=   1;  MIXPRE=   1;  MAXMIX= -45

 Intra band minimization:
   WEIMIN = 0.0000     energy-eigenvalue tresh-hold
   EBREAK =  0.10E-07  absolut break condition
   DEPER  =   0.30     relativ break condition  

   TIME   =   0.40     timestep for ELM

  volume/ion in A,a.u.               =      32.01       215.99
  Fermi-wavevector in a.u.,A,eV,Ry     =   0.801077  1.513816  8.731190  0.641724
  Thomas-Fermi vector in A             =   1.908495
 
 Write flags
   LWAVE        =      T    write WAVECAR
   LDOWNSAMPLE  =      F    k-point downsampling of WAVECAR
   LCHARG       =      T    write CHGCAR
   LVTOT        =      F    write LOCPOT, total local potential
   LVHAR        =      F    write LOCPOT, Hartree potential only
   LELF         =      F    write electronic localiz. function (ELF)
   LORBIT       =     11    0 simple, 1 ext, 2 COOP (PROOUT), +10 PAW based schemes


 Dipole corrections
   LMONO  =      F    monopole corrections only (constant potential shift)
   LDIPOL =      F    correct potential (dipole corrections)
   IDIPOL =      0    1-x, 2-y, 3-z, 4-all directions 
   EPSILON=  1.0000000 bulk dielectric constant

 Exchange correlation treatment:
   GGA     =    --    GGA type
   LEXCH   =     8    internal setting for exchange type
   VOSKOWN=      0    Vosko Wilk Nusair interpolation
   LHFCALC =     F    Hartree Fock is set to
   LHFONE  =     F    Hartree Fock one center treatment
   AEXX    =    0.0000 exact exchange contribution

 Linear response parameters
   LEPSILON=     F    determine dielectric tensor
   LRPA    =     F    only Hartree local field effects (RPA)
   LNABLA  =     F    use nabla operator in PAW spheres
   LVEL    =     F    velocity operator in full k-point grid
   LINTERFAST=   F  fast interpolation
   KINTER  =     0    interpolate to denser k-point grid
   CSHIFT  =0.1000    complex shift for real part using Kramers Kronig
   OMEGAMAX=  -1.0    maximum frequency
   DEG_THRESHOLD= 0.2000000E-02 threshold for treating states as degnerate
   RTIME   =   -0.100 relaxation time in fs
  (WPLASMAI=    0.000 imaginary part of plasma frequency in eV, 0.658/RTIME)
   DFIELD  = 0.0000000 0.0000000 0.0000000 field for delta impulse in time
 
 Orbital magnetization related:
   ORBITALMAG=     F  switch on orbital magnetization
   LCHIMAG   =     F  perturbation theory with respect to B field
   DQ        =  0.001000  dq finite difference perturbation B field
   LLRAUG    =     F  two centre corrections for induced B field



--------------------------------------------------------------------------------------------------------


 Static calculation
 charge density and potential remain constant during run
 non-spin polarized calculation
 Variant of blocked Davidson
 Davidson routine will perform the subspace rotation
 perform sub-space diagonalisation
    after iterative eigenvector-optimisation
 no mixing
 using additional bands            9
 reciprocal scheme for non local part
 use partial core corrections
 calculate Harris-corrections to forces 
   (improved forces if not selfconsistent)
 use gradient corrections 
 WARNING: stress and forces are not correct
  (second derivative of E(xc) not defined)
 use of overlap-Matrix (Vanderbilt PP)
 Gauss-broadening in eV      SIGMA  =   0.10


--------------------------------------------------------------------------------------------------------


  energy-cutoff  :      450.00
  volume of cell :      256.05
      direct lattice vectors                 reciprocal lattice vectors
     5.174713750  0.000000000  0.000000000     0.193247404 -0.111603030  0.000000000
     2.587356875  4.480165087  0.000000000    -0.000000000  0.223206061  0.000000000
     0.000000000  0.000000000 11.044411914     0.000000000  0.000000000  0.090543526

  length of vectors
     5.174713750  5.173615255 11.044411914     0.223158678  0.223206061  0.090543526


 
 k-points in units of 2pi/SCALE and weight: K-points for BC3 bandstructure          
   0.06435139  0.03716381  0.00000000       0.005
   0.06332994  0.03657391  0.00000000       0.005
   0.06230848  0.03598401  0.00000000       0.005
   0.06128703  0.03539410  0.00000000       0.005
   0.06026558  0.03480420  0.00000000       0.005
   0.05924413  0.03421430  0.00000000       0.005
   0.05822268  0.03362440  0.00000000       0.005
   0.05720123  0.03303450  0.00000000       0.005
   0.05617978  0.03244460  0.00000000       0.005
   0.05515833  0.03185469  0.00000000       0.005
   0.05413688  0.03126479  0.00000000       0.005
   0.05311543  0.03067489  0.00000000       0.005
   0.05209398  0.03008499  0.00000000       0.005
   0.05107253  0.02949509  0.00000000       0.005
   0.05005108  0.02890518  0.00000000       0.005
   0.04902963  0.02831528  0.00000000       0.005
   0.04800818  0.02772538  0.00000000       0.005
   0.04698673  0.02713548  0.00000000       0.005
   0.04596528  0.02654558  0.00000000       0.005
   0.04494382  0.02595568  0.00000000       0.005
   0.04392237  0.02536577  0.00000000       0.005
   0.04290092  0.02477587  0.00000000       0.005
   0.04187947  0.02418597  0.00000000       0.005
   0.04085802  0.02359607  0.00000000       0.005
   0.03983657  0.02300617  0.00000000       0.005
   0.03881512  0.02241627  0.00000000       0.005
   0.03779367  0.02182636  0.00000000       0.005
   0.03677222  0.02123646  0.00000000       0.005
   0.03575077  0.02064656  0.00000000       0.005
   0.03472932  0.02005666  0.00000000       0.005
   0.03370787  0.01946676  0.00000000       0.005
   0.03268642  0.01887686  0.00000000       0.005
   0.03166497  0.01828695  0.00000000       0.005
   0.03064352  0.01769705  0.00000000       0.005
   0.02962207  0.01710715  0.00000000       0.005
   0.02860062  0.01651725  0.00000000       0.005
   0.02757917  0.01592735  0.00000000       0.005
   0.02655771  0.01533745  0.00000000       0.005
   0.02553626  0.01474754  0.00000000       0.005
   0.02451481  0.01415764  0.00000000       0.005
   0.02349336  0.01356774  0.00000000       0.005
   0.02247191  0.01297784  0.00000000       0.005
   0.02145046  0.01238794  0.00000000       0.005
   0.02042901  0.01179803  0.00000000       0.005
   0.01940756  0.01120813  0.00000000       0.005
   0.01838611  0.01061823  0.00000000       0.005
   0.01736466  0.01002833  0.00000000       0.005
   0.01634321  0.00943843  0.00000000       0.005
   0.01532176  0.00884853  0.00000000       0.005
   0.01430031  0.00825862  0.00000000       0.005
   0.01327886  0.00766872  0.00000000       0.005
   0.01225741  0.00707882  0.00000000       0.005
   0.01123596  0.00648892  0.00000000       0.005
   0.01021451  0.00589902  0.00000000       0.005
   0.00919306  0.00530912  0.00000000       0.005
   0.00817160  0.00471921  0.00000000       0.005
   0.00715015  0.00412931  0.00000000       0.005
   0.00612870  0.00353941  0.00000000       0.005
   0.00510725  0.00294951  0.00000000       0.005
   0.00408580  0.00235961  0.00000000       0.005
   0.00306435  0.00176971  0.00000000       0.005
   0.00204290  0.00117980  0.00000000       0.005
   0.00102145  0.00058990  0.00000000       0.005
   0.00000000  0.00000000  0.00000000       0.005
   0.00000000  0.00000000  0.00000000       0.005
  -0.00000000  0.00177148  0.00000000       0.005
  -0.00000000  0.00354295  0.00000000       0.005
  -0.00000000  0.00531443  0.00000000       0.005
  -0.00000000  0.00708591  0.00000000       0.005
  -0.00000000  0.00885738  0.00000000       0.005
  -0.00000000  0.01062886  0.00000000       0.005
  -0.00000000  0.01240034  0.00000000       0.005
  -0.00000000  0.01417181  0.00000000       0.005
  -0.00000000  0.01594329  0.00000000       0.005
  -0.00000000  0.01771477  0.00000000       0.005
  -0.00000000  0.01948624  0.00000000       0.005
  -0.00000000  0.02125772  0.00000000       0.005
  -0.00000000  0.02302920  0.00000000       0.005
  -0.00000000  0.02480067  0.00000000       0.005
  -0.00000000  0.02657215  0.00000000       0.005
  -0.00000000  0.02834363  0.00000000       0.005
  -0.00000000  0.03011510  0.00000000       0.005
  -0.00000000  0.03188658  0.00000000       0.005
  -0.00000000  0.03365806  0.00000000       0.005
  -0.00000000  0.03542953  0.00000000       0.005
  -0.00000000  0.03720101  0.00000000       0.005
  -0.00000000  0.03897249  0.00000000       0.005
  -0.00000000  0.04074396  0.00000000       0.005
  -0.00000000  0.04251544  0.00000000       0.005
  -0.00000000  0.04428692  0.00000000       0.005
  -0.00000000  0.04605839  0.00000000       0.005
  -0.00000000  0.04782987  0.00000000       0.005
  -0.00000000  0.04960135  0.00000000       0.005
  -0.00000000  0.05137282  0.00000000       0.005
  -0.00000000  0.05314430  0.00000000       0.005
  -0.00000000  0.05491578  0.00000000       0.005
  -0.00000000  0.05668725  0.00000000       0.005
  -0.00000000  0.05845873  0.00000000       0.005
  -0.00000000  0.06023021  0.00000000       0.005
  -0.00000000  0.06200168  0.00000000       0.005
  -0.00000000  0.06377316  0.00000000       0.005
  -0.00000000  0.06554464  0.00000000       0.005
  -0.00000000  0.06731611  0.00000000       0.005
  -0.00000000  0.06908759  0.00000000       0.005
  -0.00000000  0.07085907  0.00000000       0.005
  -0.00000000  0.07263054  0.00000000       0.005
  -0.00000000  0.07440202  0.00000000       0.005
  -0.00000000  0.07617350  0.00000000       0.005
  -0.00000000  0.07794497  0.00000000       0.005
  -0.00000000  0.07971645  0.00000000       0.005
  -0.00000000  0.08148793  0.00000000       0.005
  -0.00000000  0.08325940  0.00000000       0.005
  -0.00000000  0.08503088  0.00000000       0.005
  -0.00000000  0.08680236  0.00000000       0.005
  -0.00000000  0.08857383  0.00000000       0.005
  -0.00000000  0.09034531  0.00000000       0.005
  -0.00000000  0.09211679  0.00000000       0.005
  -0.00000000  0.09388826  0.00000000       0.005
  -0.00000000  0.09565974  0.00000000       0.005
  -0.00000000  0.09743122  0.00000000       0.005
  -0.00000000  0.09920269  0.00000000       0.005
  -0.00000000  0.10097417  0.00000000       0.005
  -0.00000000  0.10274565  0.00000000       0.005
  -0.00000000  0.10451712  0.00000000       0.005
  -0.00000000  0.10628860  0.00000000       0.005
  -0.00000000  0.10806008  0.00000000       0.005
  -0.00000000  0.10983155  0.00000000       0.005
  -0.00000000  0.11160303  0.00000000       0.005
  -0.00000000  0.11160303  0.00000000       0.005
   0.00102145  0.11042146  0.00000000       0.005
   0.00204290  0.10923988  0.00000000       0.005
   0.00306435  0.10805831  0.00000000       0.005
   0.00408580  0.10687673  0.00000000       0.005
   0.00510725  0.10569516  0.00000000       0.005
   0.00612870  0.10451358  0.00000000       0.005
   0.00715015  0.10333201  0.00000000       0.005
   0.00817160  0.10215043  0.00000000       0.005
   0.00919306  0.10096886  0.00000000       0.005
   0.01021451  0.09978728  0.00000000       0.005
   0.01123596  0.09860571  0.00000000       0.005
   0.01225741  0.09742413  0.00000000       0.005
   0.01327886  0.09624256  0.00000000       0.005
   0.01430031  0.09506098  0.00000000       0.005
   0.01532176  0.09387941  0.00000000       0.005
   0.01634321  0.09269783  0.00000000       0.005
   0.01736466  0.09151626  0.00000000       0.005
   0.01838611  0.09033468  0.00000000       0.005
   0.01940756  0.08915311  0.00000000       0.005
   0.02042901  0.08797153  0.00000000       0.005
   0.02145046  0.08678996  0.00000000       0.005
   0.02247191  0.08560838  0.00000000       0.005
   0.02349336  0.08442681  0.00000000       0.005
   0.02451481  0.08324523  0.00000000       0.005
   0.02553626  0.08206366  0.00000000       0.005
   0.02655771  0.08088208  0.00000000       0.005
   0.02757917  0.07970051  0.00000000       0.005
   0.02860062  0.07851893  0.00000000       0.005
   0.02962207  0.07733736  0.00000000       0.005
   0.03064352  0.07615578  0.00000000       0.005
   0.03166497  0.07497421  0.00000000       0.005
   0.03268642  0.07379263  0.00000000       0.005
   0.03370787  0.07261106  0.00000000       0.005
   0.03472932  0.07142948  0.00000000       0.005
   0.03575077  0.07024791  0.00000000       0.005
   0.03677222  0.06906633  0.00000000       0.005
   0.03779367  0.06788476  0.00000000       0.005
   0.03881512  0.06670318  0.00000000       0.005
   0.03983657  0.06552161  0.00000000       0.005
   0.04085802  0.06434003  0.00000000       0.005
   0.04187947  0.06315846  0.00000000       0.005
   0.04290092  0.06197688  0.00000000       0.005
   0.04392237  0.06079531  0.00000000       0.005
   0.04494382  0.05961373  0.00000000       0.005
   0.04596528  0.05843216  0.00000000       0.005
   0.04698673  0.05725058  0.00000000       0.005
   0.04800818  0.05606901  0.00000000       0.005
   0.04902963  0.05488743  0.00000000       0.005
   0.05005108  0.05370586  0.00000000       0.005
   0.05107253  0.05252428  0.00000000       0.005
   0.05209398  0.05134271  0.00000000       0.005
   0.05311543  0.05016113  0.00000000       0.005
   0.05413688  0.04897956  0.00000000       0.005
   0.05515833  0.04779798  0.00000000       0.005
   0.05617978  0.04661641  0.00000000       0.005
   0.05720123  0.04543483  0.00000000       0.005
   0.05822268  0.04425326  0.00000000       0.005
   0.05924413  0.04307168  0.00000000       0.005
   0.06026558  0.04189011  0.00000000       0.005
   0.06128703  0.04070853  0.00000000       0.005
   0.06230848  0.03952696  0.00000000       0.005
   0.06332994  0.03834538  0.00000000       0.005
   0.06435139  0.03716381  0.00000000       0.005
 
 k-points in reciprocal lattice and weights: K-points for BC3 bandstructure          
   0.33300000  0.33300000  0.00000000       0.005
   0.32771429  0.32771429  0.00000000       0.005
   0.32242857  0.32242857  0.00000000       0.005
   0.31714286  0.31714286  0.00000000       0.005
   0.31185714  0.31185714  0.00000000       0.005
   0.30657143  0.30657143  0.00000000       0.005
   0.30128571  0.30128571  0.00000000       0.005
   0.29600000  0.29600000  0.00000000       0.005
   0.29071429  0.29071429  0.00000000       0.005
   0.28542857  0.28542857  0.00000000       0.005
   0.28014286  0.28014286  0.00000000       0.005
   0.27485714  0.27485714  0.00000000       0.005
   0.26957143  0.26957143  0.00000000       0.005
   0.26428571  0.26428571  0.00000000       0.005
   0.25900000  0.25900000  0.00000000       0.005
   0.25371429  0.25371429  0.00000000       0.005
   0.24842857  0.24842857  0.00000000       0.005
   0.24314286  0.24314286  0.00000000       0.005
   0.23785714  0.23785714  0.00000000       0.005
   0.23257143  0.23257143  0.00000000       0.005
   0.22728571  0.22728571  0.00000000       0.005
   0.22200000  0.22200000  0.00000000       0.005
   0.21671429  0.21671429  0.00000000       0.005
   0.21142857  0.21142857  0.00000000       0.005
   0.20614286  0.20614286  0.00000000       0.005
   0.20085714  0.20085714  0.00000000       0.005
   0.19557143  0.19557143  0.00000000       0.005
   0.19028571  0.19028571  0.00000000       0.005
   0.18500000  0.18500000  0.00000000       0.005
   0.17971429  0.17971429  0.00000000       0.005
   0.17442857  0.17442857  0.00000000       0.005
   0.16914286  0.16914286  0.00000000       0.005
   0.16385714  0.16385714  0.00000000       0.005
   0.15857143  0.15857143  0.00000000       0.005
   0.15328571  0.15328571  0.00000000       0.005
   0.14800000  0.14800000  0.00000000       0.005
   0.14271429  0.14271429  0.00000000       0.005
   0.13742857  0.13742857  0.00000000       0.005
   0.13214286  0.13214286  0.00000000       0.005
   0.12685714  0.12685714  0.00000000       0.005
   0.12157143  0.12157143  0.00000000       0.005
   0.11628571  0.11628571  0.00000000       0.005
   0.11100000  0.11100000  0.00000000       0.005
   0.10571429  0.10571429  0.00000000       0.005
   0.10042857  0.10042857  0.00000000       0.005
   0.09514286  0.09514286  0.00000000       0.005
   0.08985714  0.08985714  0.00000000       0.005
   0.08457143  0.08457143  0.00000000       0.005
   0.07928571  0.07928571  0.00000000       0.005
   0.07400000  0.07400000  0.00000000       0.005
   0.06871429  0.06871429  0.00000000       0.005
   0.06342857  0.06342857  0.00000000       0.005
   0.05814286  0.05814286  0.00000000       0.005
   0.05285714  0.05285714  0.00000000       0.005
   0.04757143  0.04757143  0.00000000       0.005
   0.04228571  0.04228571  0.00000000       0.005
   0.03700000  0.03700000  0.00000000       0.005
   0.03171429  0.03171429  0.00000000       0.005
   0.02642857  0.02642857  0.00000000       0.005
   0.02114286  0.02114286  0.00000000       0.005
   0.01585714  0.01585714  0.00000000       0.005
   0.01057143  0.01057143  0.00000000       0.005
   0.00528571  0.00528571  0.00000000       0.005
   0.00000000  0.00000000  0.00000000       0.005
   0.00000000  0.00000000  0.00000000       0.005
   0.00000000  0.00793651  0.00000000       0.005
   0.00000000  0.01587302  0.00000000       0.005
   0.00000000  0.02380952  0.00000000       0.005
   0.00000000  0.03174603  0.00000000       0.005
   0.00000000  0.03968254  0.00000000       0.005
   0.00000000  0.04761905  0.00000000       0.005
   0.00000000  0.05555556  0.00000000       0.005
   0.00000000  0.06349206  0.00000000       0.005
   0.00000000  0.07142857  0.00000000       0.005
   0.00000000  0.07936508  0.00000000       0.005
   0.00000000  0.08730159  0.00000000       0.005
   0.00000000  0.09523810  0.00000000       0.005
   0.00000000  0.10317460  0.00000000       0.005
   0.00000000  0.11111111  0.00000000       0.005
   0.00000000  0.11904762  0.00000000       0.005
   0.00000000  0.12698413  0.00000000       0.005
   0.00000000  0.13492063  0.00000000       0.005
   0.00000000  0.14285714  0.00000000       0.005
   0.00000000  0.15079365  0.00000000       0.005
   0.00000000  0.15873016  0.00000000       0.005
   0.00000000  0.16666667  0.00000000       0.005
   0.00000000  0.17460317  0.00000000       0.005
   0.00000000  0.18253968  0.00000000       0.005
   0.00000000  0.19047619  0.00000000       0.005
   0.00000000  0.19841270  0.00000000       0.005
   0.00000000  0.20634921  0.00000000       0.005
   0.00000000  0.21428571  0.00000000       0.005
   0.00000000  0.22222222  0.00000000       0.005
   0.00000000  0.23015873  0.00000000       0.005
   0.00000000  0.23809524  0.00000000       0.005
   0.00000000  0.24603175  0.00000000       0.005
   0.00000000  0.25396825  0.00000000       0.005
   0.00000000  0.26190476  0.00000000       0.005
   0.00000000  0.26984127  0.00000000       0.005
   0.00000000  0.27777778  0.00000000       0.005
   0.00000000  0.28571429  0.00000000       0.005
   0.00000000  0.29365079  0.00000000       0.005
   0.00000000  0.30158730  0.00000000       0.005
   0.00000000  0.30952381  0.00000000       0.005
   0.00000000  0.31746032  0.00000000       0.005
   0.00000000  0.32539683  0.00000000       0.005
   0.00000000  0.33333333  0.00000000       0.005
   0.00000000  0.34126984  0.00000000       0.005
   0.00000000  0.34920635  0.00000000       0.005
   0.00000000  0.35714286  0.00000000       0.005
   0.00000000  0.36507937  0.00000000       0.005
   0.00000000  0.37301587  0.00000000       0.005
   0.00000000  0.38095238  0.00000000       0.005
   0.00000000  0.38888889  0.00000000       0.005
   0.00000000  0.39682540  0.00000000       0.005
   0.00000000  0.40476190  0.00000000       0.005
   0.00000000  0.41269841  0.00000000       0.005
   0.00000000  0.42063492  0.00000000       0.005
   0.00000000  0.42857143  0.00000000       0.005
   0.00000000  0.43650794  0.00000000       0.005
   0.00000000  0.44444444  0.00000000       0.005
   0.00000000  0.45238095  0.00000000       0.005
   0.00000000  0.46031746  0.00000000       0.005
   0.00000000  0.46825397  0.00000000       0.005
   0.00000000  0.47619048  0.00000000       0.005
   0.00000000  0.48412698  0.00000000       0.005
   0.00000000  0.49206349  0.00000000       0.005
   0.00000000  0.50000000  0.00000000       0.005
   0.00000000  0.50000000  0.00000000       0.005
   0.00528571  0.49734921  0.00000000       0.005
   0.01057143  0.49469841  0.00000000       0.005
   0.01585714  0.49204762  0.00000000       0.005
   0.02114286  0.48939683  0.00000000       0.005
   0.02642857  0.48674603  0.00000000       0.005
   0.03171429  0.48409524  0.00000000       0.005
   0.03700000  0.48144444  0.00000000       0.005
   0.04228571  0.47879365  0.00000000       0.005
   0.04757143  0.47614286  0.00000000       0.005
   0.05285714  0.47349206  0.00000000       0.005
   0.05814286  0.47084127  0.00000000       0.005
   0.06342857  0.46819048  0.00000000       0.005
   0.06871429  0.46553968  0.00000000       0.005
   0.07400000  0.46288889  0.00000000       0.005
   0.07928571  0.46023810  0.00000000       0.005
   0.08457143  0.45758730  0.00000000       0.005
   0.08985714  0.45493651  0.00000000       0.005
   0.09514286  0.45228571  0.00000000       0.005
   0.10042857  0.44963492  0.00000000       0.005
   0.10571429  0.44698413  0.00000000       0.005
   0.11100000  0.44433333  0.00000000       0.005
   0.11628571  0.44168254  0.00000000       0.005
   0.12157143  0.43903175  0.00000000       0.005
   0.12685714  0.43638095  0.00000000       0.005
   0.13214286  0.43373016  0.00000000       0.005
   0.13742857  0.43107937  0.00000000       0.005
   0.14271429  0.42842857  0.00000000       0.005
   0.14800000  0.42577778  0.00000000       0.005
   0.15328571  0.42312698  0.00000000       0.005
   0.15857143  0.42047619  0.00000000       0.005
   0.16385714  0.41782540  0.00000000       0.005
   0.16914286  0.41517460  0.00000000       0.005
   0.17442857  0.41252381  0.00000000       0.005
   0.17971429  0.40987302  0.00000000       0.005
   0.18500000  0.40722222  0.00000000       0.005
   0.19028571  0.40457143  0.00000000       0.005
   0.19557143  0.40192063  0.00000000       0.005
   0.20085714  0.39926984  0.00000000       0.005
   0.20614286  0.39661905  0.00000000       0.005
   0.21142857  0.39396825  0.00000000       0.005
   0.21671429  0.39131746  0.00000000       0.005
   0.22200000  0.38866667  0.00000000       0.005
   0.22728571  0.38601587  0.00000000       0.005
   0.23257143  0.38336508  0.00000000       0.005
   0.23785714  0.38071429  0.00000000       0.005
   0.24314286  0.37806349  0.00000000       0.005
   0.24842857  0.37541270  0.00000000       0.005
   0.25371429  0.37276190  0.00000000       0.005
   0.25900000  0.37011111  0.00000000       0.005
   0.26428571  0.36746032  0.00000000       0.005
   0.26957143  0.36480952  0.00000000       0.005
   0.27485714  0.36215873  0.00000000       0.005
   0.28014286  0.35950794  0.00000000       0.005
   0.28542857  0.35685714  0.00000000       0.005
   0.29071429  0.35420635  0.00000000       0.005
   0.29600000  0.35155556  0.00000000       0.005
   0.30128571  0.34890476  0.00000000       0.005
   0.30657143  0.34625397  0.00000000       0.005
   0.31185714  0.34360317  0.00000000       0.005
   0.31714286  0.34095238  0.00000000       0.005
   0.32242857  0.33830159  0.00000000       0.005
   0.32771429  0.33565079  0.00000000       0.005
   0.33300000  0.33300000  0.00000000       0.005
 
 position of ions in fractional coordinates (direct lattice) 
   0.17460303  0.17456665  0.00000000
   0.50789541  0.50798189  0.00000000
   0.99988063  0.99998941  0.00000000
   0.52390268  0.99998941  0.00000000
   0.68254532  0.15868208  0.00000000
   0.99995312  0.52386646  0.00000000
   0.15859576  0.68255913  0.00000000
   0.68261781  0.68255913  0.00000000
 
 position of ions in cartesian coordinates  (Angst):
   1.35518692  0.78208741  0.00000000
   3.94254380  2.27584272  0.00000000
   7.76142549  4.48011762  0.00000000
   5.29837586  4.48011762  0.00000000
   3.94254380  0.71092190  0.00000000
   6.52990067  2.34700823  0.00000000
   2.58671174  3.05797760  0.00000000
   5.29837586  3.05797760  0.00000000
 


--------------------------------------------------------------------------------------------------------


 k-point  1 :   0.3330 0.3330 0.0000  plane waves:    5532
 k-point  2 :   0.3277 0.3277 0.0000  plane waves:    5529
 k-point  3 :   0.3224 0.3224 0.0000  plane waves:    5534
 k-point  4 :   0.3171 0.3171 0.0000  plane waves:    5536
 k-point  5 :   0.3119 0.3119 0.0000  plane waves:    5538
 k-point  6 :   0.3066 0.3066 0.0000  plane waves:    5540
 k-point  7 :   0.3013 0.3013 0.0000  plane waves:    5536
 k-point  8 :   0.2960 0.2960 0.0000  plane waves:    5526
 k-point  9 :   0.2907 0.2907 0.0000  plane waves:    5524
 k-point 10 :   0.2854 0.2854 0.0000  plane waves:    5526
 k-point 11 :   0.2801 0.2801 0.0000  plane waves:    5530
 k-point 12 :   0.2749 0.2749 0.0000  plane waves:    5534
 k-point 13 :   0.2696 0.2696 0.0000  plane waves:    5536
 k-point 14 :   0.2643 0.2643 0.0000  plane waves:    5538
 k-point 15 :   0.2590 0.2590 0.0000  plane waves:    5534
 k-point 16 :   0.2537 0.2537 0.0000  plane waves:    5534
 k-point 17 :   0.2484 0.2484 0.0000  plane waves:    5532
 k-point 18 :   0.2431 0.2431 0.0000  plane waves:    5529
 k-point 19 :   0.2379 0.2379 0.0000  plane waves:    5527
 k-point 20 :   0.2326 0.2326 0.0000  plane waves:    5533
 k-point 21 :   0.2273 0.2273 0.0000  plane waves:    5535
 k-point 22 :   0.2220 0.2220 0.0000  plane waves:    5529
 k-point 23 :   0.2167 0.2167 0.0000  plane waves:    5533
 k-point 24 :   0.2114 0.2114 0.0000  plane waves:    5535
 k-point 25 :   0.2061 0.2061 0.0000  plane waves:    5531
 k-point 26 :   0.2009 0.2009 0.0000  plane waves:    5533
 k-point 27 :   0.1956 0.1956 0.0000  plane waves:    5529
 k-point 28 :   0.1903 0.1903 0.0000  plane waves:    5527
 k-point 29 :   0.1850 0.1850 0.0000  plane waves:    5523
 k-point 30 :   0.1797 0.1797 0.0000  plane waves:    5521
 k-point 31 :   0.1744 0.1744 0.0000  plane waves:    5511
 k-point 32 :   0.1691 0.1691 0.0000  plane waves:    5515
 k-point 33 :   0.1639 0.1639 0.0000  plane waves:    5515
 k-point 34 :   0.1586 0.1586 0.0000  plane waves:    5517
 k-point 35 :   0.1533 0.1533 0.0000  plane waves:    5513
 k-point 36 :   0.1480 0.1480 0.0000  plane waves:    5517
 k-point 37 :   0.1427 0.1427 0.0000  plane waves:    5517
 k-point 38 :   0.1374 0.1374 0.0000  plane waves:    5517
 k-point 39 :   0.1321 0.1321 0.0000  plane waves:    5513
 k-point 40 :   0.1269 0.1269 0.0000  plane waves:    5517
 k-point 41 :   0.1216 0.1216 0.0000  plane waves:    5517
 k-point 42 :   0.1163 0.1163 0.0000  plane waves:    5517
 k-point 43 :   0.1110 0.1110 0.0000  plane waves:    5517
 k-point 44 :   0.1057 0.1057 0.0000  plane waves:    5517
 k-point 45 :   0.1004 0.1004 0.0000  plane waves:    5509
 k-point 46 :   0.0951 0.0951 0.0000  plane waves:    5511
 k-point 47 :   0.0899 0.0899 0.0000  plane waves:    5513
 k-point 48 :   0.0846 0.0846 0.0000  plane waves:    5515
 k-point 49 :   0.0793 0.0793 0.0000  plane waves:    5515
 k-point 50 :   0.0740 0.0740 0.0000  plane waves:    5517
 k-point 51 :   0.0687 0.0687 0.0000  plane waves:    5515
 k-point 52 :   0.0634 0.0634 0.0000  plane waves:    5507
 k-point 53 :   0.0581 0.0581 0.0000  plane waves:    5507
 k-point 54 :   0.0529 0.0529 0.0000  plane waves:    5503
 k-point 55 :   0.0476 0.0476 0.0000  plane waves:    5505
 k-point 56 :   0.0423 0.0423 0.0000  plane waves:    5513
 k-point 57 :   0.0370 0.0370 0.0000  plane waves:    5519
 k-point 58 :   0.0317 0.0317 0.0000  plane waves:    5519
 k-point 59 :   0.0264 0.0264 0.0000  plane waves:    5525
 k-point 60 :   0.0211 0.0211 0.0000  plane waves:    5521
 k-point 61 :   0.0159 0.0159 0.0000  plane waves:    5517
 k-point 62 :   0.0106 0.0106 0.0000  plane waves:    5517
 k-point 63 :   0.0053 0.0053 0.0000  plane waves:    5517
 k-point 64 :   0.0000 0.0000 0.0000  plane waves:    5521
 k-point 65 :   0.0000 0.0000 0.0000  plane waves:    5521
 k-point 66 :   0.0000 0.0079 0.0000  plane waves:    5517
 k-point 67 :   0.0000 0.0159 0.0000  plane waves:    5517
 k-point 68 :   0.0000 0.0238 0.0000  plane waves:    5521
 k-point 69 :   0.0000 0.0317 0.0000  plane waves:    5519
 k-point 70 :   0.0000 0.0397 0.0000  plane waves:    5517
 k-point 71 :   0.0000 0.0476 0.0000  plane waves:    5509
 k-point 72 :   0.0000 0.0556 0.0000  plane waves:    5505
 k-point 73 :   0.0000 0.0635 0.0000  plane waves:    5505
 k-point 74 :   0.0000 0.0714 0.0000  plane waves:    5519
 k-point 75 :   0.0000 0.0794 0.0000  plane waves:    5513
 k-point 76 :   0.0000 0.0873 0.0000  plane waves:    5517
 k-point 77 :   0.0000 0.0952 0.0000  plane waves:    5509
 k-point 78 :   0.0000 0.1032 0.0000  plane waves:    5517
 k-point 79 :   0.0000 0.1111 0.0000  plane waves:    5517
 k-point 80 :   0.0000 0.1190 0.0000  plane waves:    5521
 k-point 81 :   0.0000 0.1270 0.0000  plane waves:    5513
 k-point 82 :   0.0000 0.1349 0.0000  plane waves:    5513
 k-point 83 :   0.0000 0.1429 0.0000  plane waves:    5517
 k-point 84 :   0.0000 0.1508 0.0000  plane waves:    5513
 k-point 85 :   0.0000 0.1587 0.0000  plane waves:    5513
 k-point 86 :   0.0000 0.1667 0.0000  plane waves:    5515
 k-point 87 :   0.0000 0.1746 0.0000  plane waves:    5507
 k-point 88 :   0.0000 0.1825 0.0000  plane waves:    5523
 k-point 89 :   0.0000 0.1905 0.0000  plane waves:    5523
 k-point 90 :   0.0000 0.1984 0.0000  plane waves:    5529
 k-point 91 :   0.0000 0.2063 0.0000  plane waves:    5531
 k-point 92 :   0.0000 0.2143 0.0000  plane waves:    5533
 k-point 93 :   0.0000 0.2222 0.0000  plane waves:    5529
 k-point 94 :   0.0000 0.2302 0.0000  plane waves:    5533
 k-point 95 :   0.0000 0.2381 0.0000  plane waves:    5531
 k-point 96 :   0.0000 0.2460 0.0000  plane waves:    5531
 k-point 97 :   0.0000 0.2540 0.0000  plane waves:    5538
 k-point 98 :   0.0000 0.2619 0.0000  plane waves:    5536
 k-point 99 :   0.0000 0.2698 0.0000  plane waves:    5536
 k-point ** :   0.0000 0.2778 0.0000  plane waves:    5530
 k-point ** :   0.0000 0.2857 0.0000  plane waves:    5526
 k-point ** :   0.0000 0.2937 0.0000  plane waves:    5528
 k-point ** :   0.0000 0.3016 0.0000  plane waves:    5536
 k-point ** :   0.0000 0.3095 0.0000  plane waves:    5540
 k-point ** :   0.0000 0.3175 0.0000  plane waves:    5536
 k-point ** :   0.0000 0.3254 0.0000  plane waves:    5530
 k-point ** :   0.0000 0.3333 0.0000  plane waves:    5532
 k-point ** :   0.0000 0.3413 0.0000  plane waves:    5534
 k-point ** :   0.0000 0.3492 0.0000  plane waves:    5536
 k-point ** :   0.0000 0.3571 0.0000  plane waves:    5538
 k-point ** :   0.0000 0.3651 0.0000  plane waves:    5538
 k-point ** :   0.0000 0.3730 0.0000  plane waves:    5538
 k-point ** :   0.0000 0.3810 0.0000  plane waves:    5538
 k-point ** :   0.0000 0.3889 0.0000  plane waves:    5542
 k-point ** :   0.0000 0.3968 0.0000  plane waves:    5542
 k-point ** :   0.0000 0.4048 0.0000  plane waves:    5550
 k-point ** :   0.0000 0.4127 0.0000  plane waves:    5542
 k-point ** :   0.0000 0.4206 0.0000  plane waves:    5542
 k-point ** :   0.0000 0.4286 0.0000  plane waves:    5544
 k-point ** :   0.0000 0.4365 0.0000  plane waves:    5548
 k-point ** :   0.0000 0.4444 0.0000  plane waves:    5544
 k-point ** :   0.0000 0.4524 0.0000  plane waves:    5542
 k-point ** :   0.0000 0.4603 0.0000  plane waves:    5542
 k-point ** :   0.0000 0.4683 0.0000  plane waves:    5544
 k-point ** :   0.0000 0.4762 0.0000  plane waves:    5538
 k-point ** :   0.0000 0.4841 0.0000  plane waves:    5532
 k-point ** :   0.0000 0.4921 0.0000  plane waves:    5536
 k-point ** :   0.0000 0.5000 0.0000  plane waves:    5532
 k-point ** :   0.0000 0.5000 0.0000  plane waves:    5532
 k-point ** :   0.0053 0.4973 0.0000  plane waves:    5536
 k-point ** :   0.0106 0.4947 0.0000  plane waves:    5537
 k-point ** :   0.0159 0.4920 0.0000  plane waves:    5539
 k-point ** :   0.0211 0.4894 0.0000  plane waves:    5547
 k-point ** :   0.0264 0.4867 0.0000  plane waves:    5543
 k-point ** :   0.0317 0.4841 0.0000  plane waves:    5551
 k-point ** :   0.0370 0.4814 0.0000  plane waves:    5546
 k-point ** :   0.0423 0.4788 0.0000  plane waves:    5554
 k-point ** :   0.0476 0.4761 0.0000  plane waves:    5557
 k-point ** :   0.0529 0.4735 0.0000  plane waves:    5552
 k-point ** :   0.0581 0.4708 0.0000  plane waves:    5550
 k-point ** :   0.0634 0.4682 0.0000  plane waves:    5550
 k-point ** :   0.0687 0.4655 0.0000  plane waves:    5549
 k-point ** :   0.0740 0.4629 0.0000  plane waves:    5553
 k-point ** :   0.0793 0.4602 0.0000  plane waves:    5545
 k-point ** :   0.0846 0.4576 0.0000  plane waves:    5546
 k-point ** :   0.0899 0.4549 0.0000  plane waves:    5544
 k-point ** :   0.0951 0.4523 0.0000  plane waves:    5546
 k-point ** :   0.1004 0.4496 0.0000  plane waves:    5544
 k-point ** :   0.1057 0.4470 0.0000  plane waves:    5544
 k-point ** :   0.1110 0.4443 0.0000  plane waves:    5541
 k-point ** :   0.1163 0.4417 0.0000  plane waves:    5543
 k-point ** :   0.1216 0.4390 0.0000  plane waves:    5547
 k-point ** :   0.1269 0.4364 0.0000  plane waves:    5549
 k-point ** :   0.1321 0.4337 0.0000  plane waves:    5551
 k-point ** :   0.1374 0.4311 0.0000  plane waves:    5551
 k-point ** :   0.1427 0.4284 0.0000  plane waves:    5550
 k-point ** :   0.1480 0.4258 0.0000  plane waves:    5554
 k-point ** :   0.1533 0.4231 0.0000  plane waves:    5555
 k-point ** :   0.1586 0.4205 0.0000  plane waves:    5561
 k-point ** :   0.1639 0.4178 0.0000  plane waves:    5569
 k-point ** :   0.1691 0.4152 0.0000  plane waves:    5571
 k-point ** :   0.1744 0.4125 0.0000  plane waves:    5563
 k-point ** :   0.1797 0.4099 0.0000  plane waves:    5567
 k-point ** :   0.1850 0.4072 0.0000  plane waves:    5567
 k-point ** :   0.1903 0.4046 0.0000  plane waves:    5565
 k-point ** :   0.1956 0.4019 0.0000  plane waves:    5559
 k-point ** :   0.2009 0.3993 0.0000  plane waves:    5559
 k-point ** :   0.2061 0.3966 0.0000  plane waves:    5557
 k-point ** :   0.2114 0.3940 0.0000  plane waves:    5567
 k-point ** :   0.2167 0.3913 0.0000  plane waves:    5567
 k-point ** :   0.2220 0.3887 0.0000  plane waves:    5563
 k-point ** :   0.2273 0.3860 0.0000  plane waves:    5559
 k-point ** :   0.2326 0.3834 0.0000  plane waves:    5554
 k-point ** :   0.2379 0.3807 0.0000  plane waves:    5548
 k-point ** :   0.2431 0.3781 0.0000  plane waves:    5544
 k-point ** :   0.2484 0.3754 0.0000  plane waves:    5541
 k-point ** :   0.2537 0.3728 0.0000  plane waves:    5541
 k-point ** :   0.2590 0.3701 0.0000  plane waves:    5535
 k-point ** :   0.2643 0.3675 0.0000  plane waves:    5533
 k-point ** :   0.2696 0.3648 0.0000  plane waves:    5524
 k-point ** :   0.2749 0.3622 0.0000  plane waves:    5527
 k-point ** :   0.2801 0.3595 0.0000  plane waves:    5526
 k-point ** :   0.2854 0.3569 0.0000  plane waves:    5532
 k-point ** :   0.2907 0.3542 0.0000  plane waves:    5542
 k-point ** :   0.2960 0.3516 0.0000  plane waves:    5542
 k-point ** :   0.3013 0.3489 0.0000  plane waves:    5541
 k-point ** :   0.3066 0.3463 0.0000  plane waves:    5539
 k-point ** :   0.3119 0.3436 0.0000  plane waves:    5535
 k-point ** :   0.3171 0.3410 0.0000  plane waves:    5541
 k-point ** :   0.3224 0.3383 0.0000  plane waves:    5535
 k-point ** :   0.3277 0.3357 0.0000  plane waves:    5531
 k-point ** :   0.3330 0.3330 0.0000  plane waves:    5532

 maximum and minimum number of plane-waves per node :      5571     5503

 maximum number of plane-waves:      5571
 maximum index in each direction: 
   IXMAX=    8   IYMAX=    8   IZMAX=   19
   IXMIN=   -9   IYMIN=   -9   IZMIN=  -19


 serial   3D FFT for wavefunctions
 parallel 3D FFT for charge:
    minimum data exchange during FFTs selected (reduces bandwidth)


 total amount of memory used by VASP MPI-rank0   213440. kBytes
=======================================================================

   base      :      30000. kBytes
   nonl-proj :     137848. kBytes
   fftplans  :       2770. kBytes
   grid      :       8073. kBytes
   one-center:         24. kBytes
   wavefun   :      34725. kBytes
 
     INWAV:  cpu time    0.0000: real time    0.0000
 initial charge density was supplied:
 number of electron      30.0000001 magnetization 
 keeping initial charge density in first step


--------------------------------------------------------------------------------------------------------


 Maximum index for augmentation-charges          427 (set IRDMAX)


--------------------------------------------------------------------------------------------------------


 First call to EWALD:  gamma=   0.279
 Maximum number of real-space cells 4x 4x 2
 Maximum number of reciprocal cells 2x 2x 4

    FEWALD:  cpu time    0.0019: real time    0.0022


--------------------------------------- Iteration      1(   1)  ---------------------------------------


    POTLOK:  cpu time    0.0802: real time    0.0812
    SETDIJ:  cpu time    0.0030: real time    0.0030
     EDDAV:  cpu time   15.4243: real time   15.4286
       DOS:  cpu time    0.0027: real time    0.0027
    --------------------------------------------
      LOOP:  cpu time   15.5102: real time   15.5155

 eigenvalue-minimisations  :  9216
 total energy-change (2. order) : 0.1410930E+03  (-0.1055455E+04)
 number of electron      30.0000001 magnetization 
 augmentation part       30.0000001 magnetization 

 Free energy of the ion-electron system (eV)
  ---------------------------------------------------
  alpha Z        PSCENC =        19.81068387
  Ewald energy   TEWEN  =      1439.15139366
  -Hartree energ DENC   =     -2358.51759210
  -exchange      EXHF   =         0.00000000
  -V(xc)+E(xc)   XCENC  =        96.02370229
  PAW double counting   =      2894.69470930    -2897.22195439
  entropy T*S    EENTRO =        -0.01067723
  eigenvalues    EBANDS =       -78.04114397
  atomic energy  EATOM  =      1025.20389953
  Solvation  Ediel_sol  =         0.00000000
  ---------------------------------------------------
  free energy    TOTEN  =       141.09302097 eV

  energy without entropy =      141.10369820  energy(sigma->0) =      141.09835958


--------------------------------------------------------------------------------------------------------




--------------------------------------- Iteration      1(   2)  ---------------------------------------


     EDDAV:  cpu time   21.8330: real time   21.8390
       DOS:  cpu time    0.0027: real time    0.0027
    --------------------------------------------
      LOOP:  cpu time   21.8357: real time   21.8417

 eigenvalue-minimisations  : 14532
 total energy-change (2. order) :-0.1865654E+03  (-0.1716514E+03)
 number of electron      30.0000001 magnetization 
 augmentation part       30.0000001 magnetization 

 Free energy of the ion-electron system (eV)
  ---------------------------------------------------
  alpha Z        PSCENC =        19.81068387
  Ewald energy   TEWEN  =      1439.15139366
  -Hartree energ DENC   =     -2358.51759210
  -exchange      EXHF   =         0.00000000
  -V(xc)+E(xc)   XCENC  =        96.02370229
  PAW double counting   =      2894.69470930    -2897.22195439
  entropy T*S    EENTRO =        -0.00728402
  eigenvalues    EBANDS =      -264.60990815
  atomic energy  EATOM  =      1025.20389953
  Solvation  Ediel_sol  =         0.00000000
  ---------------------------------------------------
  free energy    TOTEN  =       -45.47234999 eV

  energy without entropy =      -45.46506598  energy(sigma->0) =      -45.46870799


--------------------------------------------------------------------------------------------------------




--------------------------------------- Iteration      1(   3)  ---------------------------------------


     EDDAV:  cpu time   17.6178: real time   17.6226
       DOS:  cpu time    0.0024: real time    0.0024
    --------------------------------------------
      LOOP:  cpu time   17.6202: real time   17.6250

 eigenvalue-minimisations  : 11052
 total energy-change (2. order) :-0.1948446E+02  (-0.1927536E+02)
 number of electron      30.0000001 magnetization 
 augmentation part       30.0000001 magnetization 

 Free energy of the ion-electron system (eV)
  ---------------------------------------------------
  alpha Z        PSCENC =        19.81068387
  Ewald energy   TEWEN  =      1439.15139366
  -Hartree energ DENC   =     -2358.51759210
  -exchange      EXHF   =         0.00000000
  -V(xc)+E(xc)   XCENC  =        96.02370229
  PAW double counting   =      2894.69470930    -2897.22195439
  entropy T*S    EENTRO =        -0.00004520
  eigenvalues    EBANDS =      -284.10160251
  atomic energy  EATOM  =      1025.20389953
  Solvation  Ediel_sol  =         0.00000000
  ---------------------------------------------------
  free energy    TOTEN  =       -64.95680554 eV

  energy without entropy =      -64.95676034  energy(sigma->0) =      -64.95678294


--------------------------------------------------------------------------------------------------------




--------------------------------------- Iteration      1(   4)  ---------------------------------------


     EDDAV:  cpu time   19.4906: real time   19.4955
       DOS:  cpu time    0.0020: real time    0.0020
    --------------------------------------------
      LOOP:  cpu time   19.4926: real time   19.4975

 eigenvalue-minimisations  : 12600
 total energy-change (2. order) :-0.3509526E+00  (-0.3506727E+00)
 number of electron      30.0000001 magnetization 
 augmentation part       30.0000001 magnetization 

 Free energy of the ion-electron system (eV)
  ---------------------------------------------------
  alpha Z        PSCENC =        19.81068387
  Ewald energy   TEWEN  =      1439.15139366
  -Hartree energ DENC   =     -2358.51759210
  -exchange      EXHF   =         0.00000000
  -V(xc)+E(xc)   XCENC  =        96.02370229
  PAW double counting   =      2894.69470930    -2897.22195439
  entropy T*S    EENTRO =        -0.00000027
  eigenvalues    EBANDS =      -284.45260002
  atomic energy  EATOM  =      1025.20389953
  Solvation  Ediel_sol  =         0.00000000
  ---------------------------------------------------
  free energy    TOTEN  =       -65.30775813 eV

  energy without entropy =      -65.30775785  energy(sigma->0) =      -65.30775799


--------------------------------------------------------------------------------------------------------




--------------------------------------- Iteration      1(   5)  ---------------------------------------


     EDDAV:  cpu time   18.8699: real time   18.8752
       DOS:  cpu time    0.0020: real time    0.0020
    --------------------------------------------
      LOOP:  cpu time   18.8719: real time   18.8772

 eigenvalue-minimisations  : 12120
 total energy-change (2. order) :-0.8794735E-02  (-0.8793289E-02)
 number of electron      30.0000001 magnetization 
 augmentation part       30.0000001 magnetization 

 Free energy of the ion-electron system (eV)
  ---------------------------------------------------
  alpha Z        PSCENC =        19.81068387
  Ewald energy   TEWEN  =      1439.15139366
  -Hartree energ DENC   =     -2358.51759210
  -exchange      EXHF   =         0.00000000
  -V(xc)+E(xc)   XCENC  =        96.02370229
  PAW double counting   =      2894.69470930    -2897.22195439
  entropy T*S    EENTRO =        -0.00000027
  eigenvalues    EBANDS =      -284.46139476
  atomic energy  EATOM  =      1025.20389953
  Solvation  Ediel_sol  =         0.00000000
  ---------------------------------------------------
  free energy    TOTEN  =       -65.31655286 eV

  energy without entropy =      -65.31655259  energy(sigma->0) =      -65.31655272


--------------------------------------------------------------------------------------------------------




--------------------------------------- Iteration      1(   6)  ---------------------------------------


     EDDAV:  cpu time   21.4573: real time   21.4670
       DOS:  cpu time    0.0020: real time    0.0020
    --------------------------------------------
      LOOP:  cpu time   21.4593: real time   21.4690

 eigenvalue-minimisations  : 14268
 total energy-change (2. order) :-0.4089721E-03  (-0.4089583E-03)
 number of electron      30.0000001 magnetization 
 augmentation part       30.0000001 magnetization 

 Free energy of the ion-electron system (eV)
  ---------------------------------------------------
  alpha Z        PSCENC =        19.81068387
  Ewald energy   TEWEN  =      1439.15139366
  -Hartree energ DENC   =     -2358.51759210
  -exchange      EXHF   =         0.00000000
  -V(xc)+E(xc)   XCENC  =        96.02370229
  PAW double counting   =      2894.69470930    -2897.22195439
  entropy T*S    EENTRO =        -0.00000027
  eigenvalues    EBANDS =      -284.46180373
  atomic energy  EATOM  =      1025.20389953
  Solvation  Ediel_sol  =         0.00000000
  ---------------------------------------------------
  free energy    TOTEN  =       -65.31696183 eV

  energy without entropy =      -65.31696156  energy(sigma->0) =      -65.31696170


--------------------------------------------------------------------------------------------------------




--------------------------------------- Iteration      1(   7)  ---------------------------------------


     EDDAV:  cpu time   19.9753: real time   19.9794
       DOS:  cpu time    0.0020: real time    0.0020
    --------------------------------------------
      LOOP:  cpu time   19.9773: real time   19.9814

 eigenvalue-minimisations  : 13044
 total energy-change (2. order) :-0.9543890E-05  (-0.9544309E-05)
 number of electron      30.0000001 magnetization 
 augmentation part       30.0000001 magnetization 

 Free energy of the ion-electron system (eV)
  ---------------------------------------------------
  alpha Z        PSCENC =        19.81068387
  Ewald energy   TEWEN  =      1439.15139366
  -Hartree energ DENC   =     -2358.51759210
  -exchange      EXHF   =         0.00000000
  -V(xc)+E(xc)   XCENC  =        96.02370229
  PAW double counting   =      2894.69470930    -2897.22195439
  entropy T*S    EENTRO =        -0.00000027
  eigenvalues    EBANDS =      -284.46181327
  atomic energy  EATOM  =      1025.20389953
  Solvation  Ediel_sol  =         0.00000000
  ---------------------------------------------------
  free energy    TOTEN  =       -65.31697138 eV

  energy without entropy =      -65.31697110  energy(sigma->0) =      -65.31697124


--------------------------------------------------------------------------------------------------------




--------------------------------------- Iteration      1(   8)  ---------------------------------------


     EDDAV:  cpu time   19.3602: real time   19.3663
       DOS:  cpu time    0.0021: real time    0.0021
    --------------------------------------------
      LOOP:  cpu time   19.3623: real time   19.3684

 eigenvalue-minimisations  : 12420
 total energy-change (2. order) :-0.3046187E-06  (-0.3042929E-06)
 number of electron      30.0000001 magnetization 
 augmentation part       30.0000001 magnetization 

 Free energy of the ion-electron system (eV)
  ---------------------------------------------------
  alpha Z        PSCENC =        19.81068387
  Ewald energy   TEWEN  =      1439.15139366
  -Hartree energ DENC   =     -2358.51759210
  -exchange      EXHF   =         0.00000000
  -V(xc)+E(xc)   XCENC  =        96.02370229
  PAW double counting   =      2894.69470930    -2897.22195439
  entropy T*S    EENTRO =        -0.00000027
  eigenvalues    EBANDS =      -284.46181358
  atomic energy  EATOM  =      1025.20389953
  Solvation  Ediel_sol  =         0.00000000
  ---------------------------------------------------
  free energy    TOTEN  =       -65.31697168 eV

  energy without entropy =      -65.31697141  energy(sigma->0) =      -65.31697154


--------------------------------------------------------------------------------------------------------




 average (electrostatic) potential at core
  the test charge radii are     0.7672  0.6991
  (the norm of the test charge is              1.0000)
       1 -33.9545       2 -33.9545       3 -56.4557       4 -56.4558       5 -56.4549
       6 -56.4550       7 -56.4557       8 -56.4558
 
 
 
 E-fermi :  -2.8479     XC(G=0):  -3.7713     alpha+bet : -3.2155


 k-point     1 :       0.3330    0.3330    0.0000
  band No.  band energies     occupation 
      1     -18.8723      2.00000
      2     -16.5867      2.00000
      3     -15.7319      2.00000
      4     -13.4389      2.00000
      5     -11.8194      2.00000
      6     -10.2602      2.00000
      7      -8.7925      2.00000
      8      -8.7222      2.00000
      9      -7.4276      2.00000
     10      -7.2306      2.00000
     11      -5.6492      2.00000
     12      -5.3166      2.00000
     13      -5.1011      2.00000
     14      -4.0679      2.00000
     15      -4.0125      2.00000
     16      -2.3755      0.00000
     17       1.0809      0.00000
     18       1.8426      0.00000
     19       2.2004      0.00000
     20       3.3697      0.00000
     21       3.9318      0.00000
     22       4.5047      0.00000
     23       4.6352      0.00000
     24       5.9423      0.00000

 k-point     2 :       0.3277    0.3277    0.0000
  band No.  band energies     occupation 
      1     -18.8819      2.00000
      2     -16.5647      2.00000
      3     -15.7261      2.00000
      4     -13.4319      2.00000
      5     -11.8473      2.00000
      6     -10.3010      2.00000
      7      -8.7670      2.00000
      8      -8.7654      2.00000
      9      -7.4459      2.00000
     10      -7.1948      2.00000
     11      -5.6560      2.00000
     12      -5.2843      2.00000
     13      -5.0498      2.00000
     14      -4.0642      2.00000
     15      -3.9936      2.00000
     16      -2.3654      0.00000
     17       1.0669      0.00000
     18       1.8235      0.00000
     19       2.1747      0.00000
     20       3.3261      0.00000
     21       3.8857      0.00000
     22       4.4792      0.00000
     23       4.6863      0.00000
     24       5.9911      0.00000

 k-point     3 :       0.3224    0.3224    0.0000
  band No.  band energies     occupation 
      1     -18.8915      2.00000
      2     -16.5424      2.00000
      3     -15.7202      2.00000
      4     -13.4247      2.00000
      5     -11.8753      2.00000
      6     -10.3417      2.00000
      7      -8.8118      2.00000
      8      -8.7385      2.00000
      9      -7.4640      2.00000
     10      -7.1586      2.00000
     11      -5.6626      2.00000
     12      -5.2518      2.00000
     13      -4.9989      2.00000
     14      -4.0604      2.00000
     15      -3.9745      2.00000
     16      -2.3550      0.00000
     17       1.0526      0.00000
     18       1.8041      0.00000
     19       2.1494      0.00000
     20       3.2811      0.00000
     21       3.8413      0.00000
     22       4.4540      0.00000
     23       4.7377      0.00000
     24       6.0407      0.00000

 k-point     4 :       0.3171    0.3171    0.0000
  band No.  band energies     occupation 
      1     -18.9011      2.00000
      2     -16.5198      2.00000
      3     -15.7141      2.00000
      4     -13.4173      2.00000
      5     -11.9034      2.00000
      6     -10.3823      2.00000
      7      -8.8570      2.00000
      8      -8.7116      2.00000
      9      -7.4819      2.00000
     10      -7.1221      2.00000
     11      -5.6689      2.00000
     12      -5.2192      2.00000
     13      -4.9483      2.00000
     14      -4.0565      2.00000
     15      -3.9554      2.00000
     16      -2.3443      0.00000
     17       1.0382      0.00000
     18       1.7845      0.00000
     19       2.1246      0.00000
     20       3.2347      0.00000
     21       3.7985      0.00000
     22       4.4293      0.00000
     23       4.7896      0.00000
     24       6.0897      0.00000

 k-point     5 :       0.3119    0.3119    0.0000
  band No.  band energies     occupation 
      1     -18.9108      2.00000
      2     -16.4968      2.00000
      3     -15.7078      2.00000
      4     -13.4097      2.00000
      5     -11.9315      2.00000
      6     -10.4227      2.00000
      7      -8.9023      2.00000
      8      -8.6848      2.00000
      9      -7.4996      2.00000
     10      -7.0853      2.00000
     11      -5.6751      2.00000
     12      -5.1865      2.00000
     13      -4.8981      2.00000
     14      -4.0525      2.00000
     15      -3.9361      2.00000
     16      -2.3333      0.00000
     17       1.0236      0.00000
     18       1.7646      0.00000
     19       2.1001      0.00000
     20       3.1871      0.00000
     21       3.7576      0.00000
     22       4.4049      0.00000
     23       4.8417      0.00000
     24       6.1178      0.00000

 k-point     6 :       0.3066    0.3066    0.0000
  band No.  band energies     occupation 
      1     -18.9204      2.00000
      2     -16.4736      2.00000
      3     -15.7015      2.00000
      4     -13.4020      2.00000
      5     -11.9596      2.00000
      6     -10.4630      2.00000
      7      -8.9476      2.00000
      8      -8.6582      2.00000
      9      -7.5172      2.00000
     10      -7.0483      2.00000
     11      -5.6810      2.00000
     12      -5.1536      2.00000
     13      -4.8482      2.00000
     14      -4.0485      2.00000
     15      -3.9167      2.00000
     16      -2.3218      0.00000
     17       1.0088      0.00000
     18       1.7445      0.00000
     19       2.0760      0.00000
     20       3.1382      0.00000
     21       3.7185      0.00000
     22       4.3809      0.00000
     23       4.8943      0.00000
     24       6.1199      0.00000

 k-point     7 :       0.3013    0.3013    0.0000
  band No.  band energies     occupation 
      1     -18.9300      2.00000
      2     -16.4501      2.00000
      3     -15.6950      2.00000
      4     -13.3941      2.00000
      5     -11.9877      2.00000
      6     -10.5031      2.00000
      7      -8.9929      2.00000
      8      -8.6316      2.00000
      9      -7.5345      2.00000
     10      -7.0112      2.00000
     11      -5.6867      2.00000
     12      -5.1207      2.00000
     13      -4.7988      2.00000
     14      -4.0444      2.00000
     15      -3.8973      2.00000
     16      -2.3101      0.00000
     17       0.9939      0.00000
     18       1.7241      0.00000
     19       2.0524      0.00000
     20       3.0880      0.00000
     21       3.6810      0.00000
     22       4.3574      0.00000
     23       4.9472      0.00000
     24       6.1179      0.00000

 k-point     8 :       0.2960    0.2960    0.0000
  band No.  band energies     occupation 
      1     -18.9395      2.00000
      2     -16.4263      2.00000
      3     -15.6883      2.00000
      4     -13.3860      2.00000
      5     -12.0158      2.00000
      6     -10.5430      2.00000
      7      -9.0381      2.00000
      8      -8.6053      2.00000
      9      -7.5517      2.00000
     10      -6.9741      2.00000
     11      -5.6921      2.00000
     12      -5.0877      2.00000
     13      -4.7497      2.00000
     14      -4.0402      2.00000
     15      -3.8778      2.00000
     16      -2.2980      0.00000
     17       0.9789      0.00000
     18       1.7037      0.00000
     19       2.0291      0.00000
     20       3.0368      0.00000
     21       3.6452      0.00000
     22       4.3342      0.00000
     23       5.0005      0.00000
     24       6.0602      0.00000

 k-point     9 :       0.2907    0.2907    0.0000
  band No.  band energies     occupation 
      1     -18.9491      2.00000
      2     -16.4022      2.00000
      3     -15.6816      2.00000
      4     -13.3779      2.00000
      5     -12.0438      2.00000
      6     -10.5828      2.00000
      7      -9.0832      2.00000
      8      -8.5791      2.00000
      9      -7.5686      2.00000
     10      -6.9369      2.00000
     11      -5.6973      2.00000
     12      -5.0546      2.00000
     13      -4.7011      2.00000
     14      -4.0360      2.00000
     15      -3.8583      2.00000
     16      -2.2855      0.00000
     17       0.9638      0.00000
     18       1.6830      0.00000
     19       2.0063      0.00000
     20       2.9844      0.00000
     21       3.6109      0.00000
     22       4.3114      0.00000
     23       5.0541      0.00000
     24       6.0476      0.00000

 k-point    10 :       0.2854    0.2854    0.0000
  band No.  band energies     occupation 
      1     -18.9585      2.00000
      2     -16.3780      2.00000
      3     -15.6747      2.00000
      4     -13.3695      2.00000
      5     -12.0717      2.00000
      6     -10.6223      2.00000
      7      -9.1281      2.00000
      8      -8.5532      2.00000
      9      -7.5853      2.00000
     10      -6.8998      2.00000
     11      -5.7022      2.00000
     12      -5.0216      2.00000
     13      -4.6529      2.00000
     14      -4.0317      2.00000
     15      -3.8389      2.00000
     16      -2.2728      0.00000
     17       0.9485      0.00000
     18       1.6621      0.00000
     19       1.9839      0.00000
     20       2.9312      0.00000
     21       3.5782      0.00000
     22       4.2891      0.00000
     23       5.1080      0.00000
     24       6.0337      0.00000

 k-point    11 :       0.2801    0.2801    0.0000
  band No.  band energies     occupation 
      1     -18.9680      2.00000
      2     -16.3535      2.00000
      3     -15.6678      2.00000
      4     -13.3610      2.00000
      5     -12.0996      2.00000
      6     -10.6616      2.00000
      7      -9.1728      2.00000
      8      -8.5276      2.00000
      9      -7.6018      2.00000
     10      -6.8629      2.00000
     11      -5.7068      2.00000
     12      -4.9886      2.00000
     13      -4.6052      2.00000
     14      -4.0274      2.00000
     15      -3.8194      2.00000
     16      -2.2596      0.00000
     17       0.9332      0.00000
     18       1.6411      0.00000
     19       1.9618      0.00000
     20       2.8771      0.00000
     21       3.5469      0.00000
     22       4.2671      0.00000
     23       5.1623      0.00000
     24       6.0281      0.00000

 k-point    12 :       0.2749    0.2749    0.0000
  band No.  band energies     occupation 
      1     -18.9773      2.00000
      2     -16.3289      2.00000
      3     -15.6607      2.00000
      4     -13.3525      2.00000
      5     -12.1273      2.00000
      6     -10.7007      2.00000
      7      -9.2172      2.00000
      8      -8.5022      2.00000
      9      -7.6180      2.00000
     10      -6.8260      2.00000
     11      -5.7112      2.00000
     12      -4.9556      2.00000
     13      -4.5581      2.00000
     14      -4.0231      2.00000
     15      -3.7999      2.00000
     16      -2.2461      0.00000
     17       0.9178      0.00000
     18       1.6200      0.00000
     19       1.9402      0.00000
     20       2.8222      0.00000
     21       3.5168      0.00000
     22       4.2455      0.00000
     23       5.2169      0.00000
     24       6.0220      0.00000

 k-point    13 :       0.2696    0.2696    0.0000
  band No.  band energies     occupation 
      1     -18.9866      2.00000
      2     -16.3041      2.00000
      3     -15.6536      2.00000
      4     -13.3437      2.00000
      5     -12.1548      2.00000
      6     -10.7395      2.00000
      7      -9.2614      2.00000
      8      -8.4771      2.00000
      9      -7.6340      2.00000
     10      -6.7893      2.00000
     11      -5.7152      2.00000
     12      -4.9227      2.00000
     13      -4.5114      2.00000
     14      -4.0187      2.00000
     15      -3.7806      2.00000
     16      -2.2323      0.00000
     17       0.9023      0.00000
     18       1.5988      0.00000
     19       1.9190      0.00000
     20       2.7668      0.00000
     21       3.4880      0.00000
     22       4.2243      0.00000
     23       5.2719      0.00000
     24       6.0138      0.00000

 k-point    14 :       0.2643    0.2643    0.0000
  band No.  band energies     occupation 
      1     -18.9958      2.00000
      2     -16.2791      2.00000
      3     -15.6463      2.00000
      4     -13.3349      2.00000
      5     -12.1822      2.00000
      6     -10.7781      2.00000
      7      -9.3052      2.00000
      8      -8.4524      2.00000
      9      -7.6497      2.00000
     10      -6.7529      2.00000
     11      -5.7190      2.00000
     12      -4.8898      2.00000
     13      -4.4652      2.00000
     14      -4.0143      2.00000
     15      -3.7612      2.00000
     16      -2.2181      0.00000
     17       0.8869      0.00000
     18       1.5775      0.00000
     19       1.8982      0.00000
     20       2.7109      0.00000
     21       3.4604      0.00000
     22       4.2036      0.00000
     23       5.3271      0.00000
     24       6.0049      0.00000

 k-point    15 :       0.2590    0.2590    0.0000
  band No.  band energies     occupation 
      1     -19.0049      2.00000
      2     -16.2540      2.00000
      3     -15.6389      2.00000
      4     -13.3260      2.00000
      5     -12.2094      2.00000
      6     -10.8163      2.00000
      7      -9.3488      2.00000
      8      -8.4280      2.00000
      9      -7.6652      2.00000
     10      -6.7167      2.00000
     11      -5.7225      2.00000
     12      -4.8570      2.00000
     13      -4.4195      2.00000
     14      -4.0098      2.00000
[...]
      1     -18.8812      2.00000
      2     -16.5222      2.00000
      3     -15.8154      2.00000
      4     -13.2768      2.00000
      5     -12.0187      2.00000
      6     -10.2208      2.00000
      7      -8.8337      2.00000
      8      -8.7655      2.00000
      9      -7.4462      2.00000
     10      -7.0428      2.00000
     11      -5.7855      2.00000
     12      -5.2135      2.00000
     13      -4.9787      2.00000
     14      -4.2365      2.00000
     15      -4.0616      2.00000
     16      -2.1831      0.00000
     17       0.7101      0.00000
     18       2.1734      0.00000
     19       2.2192      0.00000
     20       3.2651      0.00000
     21       3.8277      0.00000
     22       4.4789      0.00000
     23       4.8181      0.00000
     24       6.0768      0.00000

 k-point   182 :       0.2801    0.3595    0.0000
  band No.  band energies     occupation 
      1     -18.8818      2.00000
      2     -16.5280      2.00000
      3     -15.8012      2.00000
      4     -13.3015      2.00000
      5     -11.9930      2.00000
      6     -10.2346      2.00000
      7      -8.8267      2.00000
      8      -8.7635      2.00000
      9      -7.4471      2.00000
     10      -7.0653      2.00000
     11      -5.7649      2.00000
     12      -5.2236      2.00000
     13      -4.9871      2.00000
     14      -4.2102      2.00000
     15      -4.0496      2.00000
     16      -2.2097      0.00000
     17       0.7535      0.00000
     18       2.1664      0.00000
     19       2.1722      0.00000
     20       3.2741      0.00000
     21       3.8343      0.00000
     22       4.4776      0.00000
     23       4.7979      0.00000
     24       6.0903      0.00000

 k-point   183 :       0.2854    0.3569    0.0000
  band No.  band energies     occupation 
      1     -18.8822      2.00000
      2     -16.5339      2.00000
      3     -15.7880      2.00000
      4     -13.3247      2.00000
      5     -11.9683      2.00000
      6     -10.2468      2.00000
      7      -8.8199      2.00000
      8      -8.7611      2.00000
      9      -7.4475      2.00000
     10      -7.0871      2.00000
     11      -5.7456      2.00000
     12      -5.2336      2.00000
     13      -4.9963      2.00000
     14      -4.1853      2.00000
     15      -4.0390      2.00000
     16      -2.2355      0.00000
     17       0.7973      0.00000
     18       2.1152      0.00000
     19       2.1718      0.00000
     20       3.2830      0.00000
     21       3.8416      0.00000
     22       4.4770      0.00000
     23       4.7784      0.00000
     24       6.0729      0.00000

 k-point   184 :       0.2907    0.3542    0.0000
  band No.  band energies     occupation 
      1     -18.8822      2.00000
      2     -16.5399      2.00000
      3     -15.7758      2.00000
      4     -13.3461      2.00000
      5     -11.9447      2.00000
      6     -10.2574      2.00000
      7      -8.8132      2.00000
      8      -8.7587      2.00000
      9      -7.4474      2.00000
     10      -7.1082      2.00000
     11      -5.7278      2.00000
     12      -5.2436      2.00000
     13      -5.0062      2.00000
     14      -4.1621      2.00000
     15      -4.0297      2.00000
     16      -2.2601      0.00000
     17       0.8409      0.00000
     18       2.0660      0.00000
     19       2.1721      0.00000
     20       3.2920      0.00000
     21       3.8496      0.00000
     22       4.4771      0.00000
     23       4.7596      0.00000
     24       6.0568      0.00000

 k-point   185 :       0.2960    0.3516    0.0000
  band No.  band energies     occupation 
      1     -18.8820      2.00000
      2     -16.5460      2.00000
      3     -15.7649      2.00000
      4     -13.3657      2.00000
      5     -11.9224      2.00000
      6     -10.2660      2.00000
      7      -8.8064      2.00000
      8      -8.7566      2.00000
      9      -7.4468      2.00000
     10      -7.1284      2.00000
     11      -5.7115      2.00000
     12      -5.2535      2.00000
     13      -5.0167      2.00000
     14      -4.1408      2.00000
     15      -4.0219      2.00000
     16      -2.2831      0.00000
     17       0.8839      0.00000
     18       2.0194      0.00000
     19       2.1731      0.00000
     20       3.3011      0.00000
     21       3.8583      0.00000
     22       4.4780      0.00000
     23       4.7416      0.00000
     24       6.0401      0.00000

 k-point   186 :       0.3013    0.3489    0.0000
  band No.  band energies     occupation 
      1     -18.8815      2.00000
      2     -16.5520      2.00000
      3     -15.7553      2.00000
      4     -13.3832      2.00000
      5     -11.9017      2.00000
      6     -10.2726      2.00000
      7      -8.7997      2.00000
      8      -8.7546      2.00000
      9      -7.4456      2.00000
     10      -7.1474      2.00000
     11      -5.6969      2.00000
     12      -5.2633      2.00000
     13      -5.0277      2.00000
     14      -4.1218      2.00000
     15      -4.0156      2.00000
     16      -2.3042      0.00000
     17       0.9254      0.00000
     18       1.9760      0.00000
     19       2.1748      0.00000
     20       3.3103      0.00000
     21       3.8675      0.00000
     22       4.4796      0.00000
     23       4.7242      0.00000
     24       6.0247      0.00000

 k-point   187 :       0.3066    0.3463    0.0000
  band No.  band energies     occupation 
      1     -18.8807      2.00000
      2     -16.5580      2.00000
      3     -15.7472      2.00000
      4     -13.3985      2.00000
      5     -11.8828      2.00000
      6     -10.2769      2.00000
      7      -8.7933      2.00000
      8      -8.7528      2.00000
      9      -7.4439      2.00000
     10      -7.1652      2.00000
     11      -5.6840      2.00000
     12      -5.2728      2.00000
     13      -5.0392      2.00000
     14      -4.1052      2.00000
     15      -4.0108      2.00000
     16      -2.3231      0.00000
     17       0.9645      0.00000
     18       1.9366      0.00000
     19       2.1772      0.00000
     20       3.3197      0.00000
     21       3.8772      0.00000
     22       4.4819      0.00000
     23       4.7076      0.00000
     24       6.0106      0.00000

 k-point   188 :       0.3119    0.3436    0.0000
  band No.  band energies     occupation 
      1     -18.8796      2.00000
      2     -16.5640      2.00000
      3     -15.7407      2.00000
      4     -13.4115      2.00000
      5     -11.8658      2.00000
      6     -10.2788      2.00000
      7      -8.7878      2.00000
      8      -8.7505      2.00000
      9      -7.4417      2.00000
     10      -7.1815      2.00000
     11      -5.6730      2.00000
     12      -5.2821      2.00000
     13      -5.0511      2.00000
     14      -4.0915      2.00000
     15      -4.0078      2.00000
     16      -2.3396      0.00000
     17       1.0002      0.00000
     18       1.9023      0.00000
     19       2.1804      0.00000
     20       3.3292      0.00000
     21       3.8874      0.00000
     22       4.4850      0.00000
     23       4.6917      0.00000
     24       5.9949      0.00000

 k-point   189 :       0.3171    0.3410    0.0000
  band No.  band energies     occupation 
      1     -18.8782      2.00000
      2     -16.5698      2.00000
      3     -15.7358      2.00000
      4     -13.4222      2.00000
      5     -11.8508      2.00000
      6     -10.2782      2.00000
      7      -8.7844      2.00000
      8      -8.7469      2.00000
      9      -7.4390      2.00000
     10      -7.1963      2.00000
     11      -5.6640      2.00000
     12      -5.2911      2.00000
     13      -5.0633      2.00000
     14      -4.0807      2.00000
     15      -4.0064      2.00000
     16      -2.3533      0.00000
     17       1.0311      0.00000
     18       1.8744      0.00000
     19       2.1843      0.00000
     20       3.3389      0.00000
     21       3.8979      0.00000
     22       4.4888      0.00000
     23       4.6765      0.00000
     24       5.9809      0.00000

 k-point   190 :       0.3224    0.3383    0.0000
  band No.  band energies     occupation 
      1     -18.8765      2.00000
      2     -16.5756      2.00000
      3     -15.7327      2.00000
      4     -13.4303      2.00000
      5     -11.8381      2.00000
      6     -10.2749      2.00000
      7      -8.7840      2.00000
      8      -8.7409      2.00000
      9      -7.4357      2.00000
     10      -7.2095      2.00000
     11      -5.6570      2.00000
     12      -5.2999      2.00000
     13      -5.0757      2.00000
     14      -4.0730      2.00000
     15      -4.0067      2.00000
     16      -2.3639      0.00000
     17       1.0558      0.00000
     18       1.8543      0.00000
     19       2.1890      0.00000
     20       3.3489      0.00000
     21       3.9089      0.00000
     22       4.4934      0.00000
     23       4.6620      0.00000
     24       5.9675      0.00000

 k-point   191 :       0.3277    0.3357    0.0000
  band No.  band energies     occupation 
      1     -18.8746      2.00000
      2     -16.5812      2.00000
      3     -15.7314      2.00000
      4     -13.4359      2.00000
      5     -11.8276      2.00000
      6     -10.2689      2.00000
      7      -8.7868      2.00000
      8      -8.7325      2.00000
      9      -7.4319      2.00000
     10      -7.2209      2.00000
     11      -5.6520      2.00000
     12      -5.3084      2.00000
     13      -5.0883      2.00000
     14      -4.0687      2.00000
     15      -4.0087      2.00000
     16      -2.3714      0.00000
     17       1.0728      0.00000
     18       1.8433      0.00000
     19       2.1943      0.00000
     20       3.3592      0.00000
     21       3.9202      0.00000
     22       4.4987      0.00000
     23       4.6482      0.00000
     24       5.9561      0.00000

 k-point   192 :       0.3330    0.3330    0.0000
  band No.  band energies     occupation 
      1     -18.8723      2.00000
      2     -16.5867      2.00000
      3     -15.7319      2.00000
      4     -13.4389      2.00000
      5     -11.8194      2.00000
      6     -10.2602      2.00000
      7      -8.7925      2.00000
      8      -8.7222      2.00000
      9      -7.4276      2.00000
     10      -7.2306      2.00000
     11      -5.6492      2.00000
     12      -5.3166      2.00000
     13      -5.1011      2.00000
     14      -4.0679      2.00000
     15      -4.0125      2.00000
     16      -2.3755      0.00000
     17       1.0809      0.00000
     18       1.8426      0.00000
     19       2.2004      0.00000
     20       3.3697      0.00000
     21       3.9318      0.00000
     22       4.5047      0.00000
     23       4.6352      0.00000
     24       5.9423      0.00000


--------------------------------------------------------------------------------------------------------


 soft charge-density along one line, spin component           1
         0         1         2         3         4         5         6         7         8         9
 total charge-density along one line
 
 pseudopotential strength for first ion, spin component:           1
  6.694  10.211  -0.000   0.000  -0.000  -0.000   0.000  -0.000
 10.211  15.572  -0.000   0.000  -0.000  -0.000   0.000  -0.000
 -0.000  -0.000  -2.297  -0.000  -0.000  -3.938  -0.000  -0.000
  0.000   0.000  -0.000  -2.302   0.000  -0.000  -3.945   0.000
 -0.000  -0.000  -0.000   0.000  -2.297  -0.000   0.000  -3.938
 -0.000  -0.000  -3.938  -0.000  -0.000  -6.553  -0.000  -0.000
  0.000   0.000  -0.000  -3.945   0.000  -0.000  -6.562   0.000
 -0.000  -0.000  -0.000   0.000  -3.938  -0.000   0.000  -6.553
 total augmentation occupancy for first ion, spin component:           1
  2.000   0.000   0.000   0.000   0.000   0.000   0.000   0.000
  0.000   0.000   0.000   0.000   0.000   0.000   0.000   0.000
  0.000   0.000   0.333   0.000   0.000   0.000   0.000   0.000
  0.000   0.000   0.000   0.333   0.000   0.000   0.000   0.000
  0.000   0.000   0.000   0.000   0.333   0.000   0.000   0.000
  0.000   0.000   0.000   0.000   0.000   0.000   0.000   0.000
  0.000   0.000   0.000   0.000   0.000   0.000   0.000   0.000
  0.000   0.000   0.000   0.000   0.000   0.000   0.000   0.000


------------------------ aborting loop because EDIFF is reached ----------------------------------------


 


 total charge     
 
# of ion       s       p       d       tot
------------------------------------------
    1        0.740   1.287   0.000   2.027
    2        0.740   1.287   0.000   2.027
    3        0.865   1.758   0.000   2.623
    4        0.864   1.798   0.000   2.662
    5        0.865   1.742   0.000   2.606
    6        0.865   1.742   0.000   2.606
    7        0.864   1.798   0.000   2.662
    8        0.865   1.758   0.000   2.623
--------------------------------------------------
tot          6.668  13.170   0.000  19.837
 
    CHARGE:  cpu time    1.0209: real time    1.0211
    FORLOC:  cpu time    0.0058: real time    0.0058
    FORNL :  cpu time    1.7118: real time    1.7121
    STRESS:  cpu time   10.6131: real time   10.6214
    FORCOR:  cpu time    0.0789: real time    0.0789
    FORHAR:  cpu time    0.0204: real time    0.0204
    OFIELD:  cpu time    0.0007: real time    0.0007

  FORCE on cell =-STRESS in cart. coord.  units (eV):
  Direction    XX          YY          ZZ          XY          YZ          ZX
  --------------------------------------------------------------------------------------
  Alpha Z    19.81068    19.81068    19.81068
  Ewald    2335.91584  2335.89008 -3232.65577     0.00000    -0.00000    -0.00000
  Hartree  2305.17181  2305.61173 -2243.24429    -0.00000    -0.00000    -0.00000
  E(xc)    -107.45297  -107.41973  -111.22267     0.00000     0.00000    -0.00000
  Local   -4964.75203 -4962.36781  5136.34603     0.00004     0.00000    -0.00000
  n-local   -25.05126   -24.66192   -13.44310     0.17244    -0.00000    -0.00000
  augment    -1.96964    -1.98003    -1.92984    -0.00003    -0.00000     0.00000
  Kinetic   442.56352   437.01138   449.43698    -1.98015     0.00000     0.00000
  Fock        0.00000     0.00000     0.00000     0.00000     0.00000     0.00000
  -------------------------------------------------------------------------------------
  Total       4.23594     1.89438     3.09802     0.00000     0.00000     0.00000
  in kB      26.50561    11.85373    19.38527     0.00000     0.00000     0.00000
  external pressure =       19.25 kB  Pullay stress =        0.00 kB


 VOLUME and BASIS-vectors are now :
 -----------------------------------------------------------------------------
  energy-cutoff  :      450.00
  volume of cell :      256.05
      direct lattice vectors                 reciprocal lattice vectors
     5.174713750  0.000000000  0.000000000     0.193247404 -0.111603030  0.000000000
     2.587356875  4.480165087  0.000000000    -0.000000000  0.223206061  0.000000000
     0.000000000  0.000000000 11.044411914     0.000000000  0.000000000  0.090543526

  length of vectors
     5.174713750  5.173615255 11.044411914     0.223158678  0.223206061  0.090543526


 FORCES acting on ions
    electron-ion (+dipol)            ewald-force                    non-local-force                 convergence-correction
 -----------------------------------------------------------------------------------------------
   0.198E-05 -.316E+00 0.168E-06   0.147E-11 -.729E-01 -.970E-19   -.139E-16 -.454E+00 0.662E-23   -.389E-04 0.448E+00 -.402E-11
   -.150E-05 0.316E+00 -.170E-06   -.126E-10 0.729E-01 0.170E-18   0.694E-17 0.454E+00 -.662E-23   0.569E-04 -.448E+00 -.348E-11
   -.458E+02 -.280E+02 -.384E-06   0.479E+02 0.276E+02 0.102E-18   -.364E+01 -.166E+01 -.132E-22   0.958E+00 0.146E+01 -.699E-11
   0.458E+02 -.280E+02 0.495E-06   -.479E+02 0.276E+02 0.170E-18   0.364E+01 -.166E+01 0.000E+00   -.959E+00 0.146E+01 -.640E-11
   -.127E-05 -.539E+02 -.556E-06   0.147E-10 0.553E+02 0.113E-18   -.111E-15 -.447E+01 -.265E-22   0.268E-03 0.194E+01 -.592E-11
   -.494E-05 0.539E+02 0.504E-06   0.367E-11 -.553E+02 -.562E-18   0.111E-15 0.447E+01 0.265E-22   0.143E-03 -.194E+01 -.690E-11
   -.458E+02 0.280E+02 -.548E-06   0.479E+02 -.276E+02 -.220E-18   -.364E+01 0.166E+01 -.993E-23   0.958E+00 -.146E+01 -.591E-11
   0.458E+02 0.280E+02 0.319E-06   -.479E+02 -.276E+02 0.324E-18   0.364E+01 0.166E+01 0.662E-23   -.959E+00 -.146E+01 -.643E-11
 -----------------------------------------------------------------------------------------------
   -.102E-04 -.665E-05 -.173E-06   -.711E-14 -.142E-13 0.000E+00   0.000E+00 -.222E-15 -.165E-22   -.164E-04 0.346E-03 -.461E-10
 
 
 POSITION                                       TOTAL-FORCE (eV/Angst)
 -----------------------------------------------------------------------------------
      1.35519      0.78209      0.00000         0.000000     -0.395171      0.000000
      3.94254      2.27584      0.00000         0.000000      0.395171      0.000000
      7.76143      4.48012      0.00000        -0.532099     -0.529177      0.000000
      5.29838      4.48012      0.00000         0.532099     -0.529177      0.000000
      3.94254      0.71092      0.00000         0.000000     -1.080846      0.000000
      6.52990      2.34701      0.00000         0.000000      1.080846      0.000000
      2.58671      3.05798      0.00000        -0.532099      0.529177     -0.000000
      5.29838      3.05798      0.00000         0.532099      0.529177     -0.000000
 -----------------------------------------------------------------------------------
    total drift:                               -0.000027      0.000339     -0.000000


--------------------------------------------------------------------------------------------------------



  FREE ENERGIE OF THE ION-ELECTRON SYSTEM (eV)
  ---------------------------------------------------
  free  energy   TOTEN  =       -65.31697168 eV

  energy  without entropy=      -65.31697141  energy(sigma->0) =      -65.31697154
 


--------------------------------------------------------------------------------------------------------


    POTLOK:  cpu time    0.0788: real time    0.0788


--------------------------------------------------------------------------------------------------------


 writing wavefunctions
     LOOP+:  cpu time  169.9855: real time  171.9133
    4ORBIT:  cpu time    0.0000: real time    0.0000
 


 total charge     
 
# of ion       s       p       d       tot
------------------------------------------
    1        0.740   1.287   0.000   2.027
    2        0.740   1.287   0.000   2.027
    3        0.865   1.758   0.000   2.623
    4        0.864   1.798   0.000   2.662
    5        0.865   1.742   0.000   2.606
    6        0.865   1.742   0.000   2.606
    7        0.864   1.798   0.000   2.662
    8        0.865   1.758   0.000   2.623
--------------------------------------------------
tot          6.668  13.170   0.000  19.837
 

 total amount of memory used by VASP MPI-rank0   213440. kBytes
=======================================================================

   base      :      30000. kBytes
   nonl-proj :     137848. kBytes
   fftplans  :       2770. kBytes
   grid      :       8073. kBytes
   one-center:         24. kBytes
   wavefun   :      34725. kBytes
 
  
  
 General timing and accounting informations for this job:
 ========================================================
  
                  Total CPU time used (sec):      177.369
                            User time (sec):      176.111
                          System time (sec):        1.258
                         Elapsed time (sec):      179.936
  
                   Maximum memory used (kb):      320552.
                   Average memory used (kb):           0.
  
                          Minor page faults:        40782
                          Major page faults:            0
                 Voluntary context switches:         9136
