PROCAR lm decomposed
# of k-points:  192         # of bands:   24         # of ions:    8

 k-point     1 :    0.33300000 0.33300000 0.00000000     weight = 0.00520833

band     1 # energy  -18.87234872 # occ.  2.00000000
 
ion      s     py     pz     px    dxy    dyz    dz2    dxz  x2-y2    tot
    1  0.015  0.001  0.000  0.004  0.000  0.000  0.000  0.000  0.000  0.020
    2  0.015  0.001  0.000  0.004  0.000  0.000  0.000  0.000  0.000  0.020
    3  0.087  0.002  0.000  0.007  0.000  0.000  0.000  0.000  0.000  0.095
    4  0.098  0.001  0.000  0.006  0.000  0.000  0.000  0.000  0.000  0.105
    5  0.098  0.007  0.000  0.001  0.000  0.000  0.000  0.000  0.000  0.105
    6  0.098  0.007  0.000  0.001  0.000  0.000  0.000  0.000  0.000  0.105
    7  0.098  0.001  0.000  0.006  0.000  0.000  0.000  0.000  0.000  0.105
    8  0.087  0.002  0.000  0.007  0.000  0.000  0.000  0.000  0.000  0.095
tot    0.594  0.023  0.000  0.034  0.000  0.000  0.000  0.000  0.000  0.651
 
band     2 # energy  -16.58667792 # occ.  2.00000000
 
ion      s     py     pz     px    dxy    dyz    dz2    dxz  x2-y2    tot
    1  0.036  0.002  0.000  0.006  0.000  0.000  0.000  0.000  0.000  0.044
    2  0.036  0.002  0.000  0.006  0.000  0.000  0.000  0.000  0.000  0.044
    3  0.156  0.001  0.000  0.003  0.000  0.000  0.000  0.000  0.000  0.160
    4  0.047  0.012  0.000  0.006  0.000  0.000  0.000  0.000  0.000  0.065
    5  0.047  0.002  0.000  0.016  0.000  0.000  0.000  0.000  0.000  0.065
    6  0.047  0.002  0.000  0.016  0.000  0.000  0.000  0.000  0.000  0.065
    7  0.047  0.012  0.000  0.006  0.000  0.000  0.000  0.000  0.000  0.065
    8  0.156  0.001  0.000  0.003  0.000  0.000  0.000  0.000  0.000  0.160
tot    0.574  0.034  0.000  0.061  0.000  0.000  0.000  0.000  0.000  0.669
 
band     3 # energy  -15.73192486 # occ.  2.00000000
 
ion      s     py     pz     px    dxy    dyz    dz2    dxz  x2-y2    tot
    1  0.000  0.017  0.000  0.006  0.000  0.000  0.000  0.000  0.000  0.023
    2  0.000  0.017  0.000  0.006  0.000  0.000  0.000  0.000  0.000  0.023
    3  0.000  0.027  0.000  0.009  0.000  0.000  0.000  0.000  0.000  0.035
    4  0.139  0.001  0.000  0.006  0.000  0.000  0.000  0.000  0.000  0.145
    5  0.139  0.003  0.000  0.004  0.000  0.000  0.000  0.000  0.000  0.145
    6  0.139  0.003  0.000  0.004  0.000  0.000  0.000  0.000  0.000  0.145
    7  0.139  0.001  0.000  0.006  0.000  0.000  0.000  0.000  0.000  0.145
    8  0.000  0.027  0.000  0.009  0.000  0.000  0.000  0.000  0.000  0.035
tot    0.555  0.094  0.000  0.048  0.000  0.000  0.000  0.000  0.000  0.698
 
band     4 # energy  -13.43890693 # occ.  2.00000000
 
ion      s     py     pz     px    dxy    dyz    dz2    dxz  x2-y2    tot
    1  0.081  0.002  0.000  0.006  0.000  0.000  0.000  0.000  0.000  0.088
    2  0.081  0.002  0.000  0.006  0.000  0.000  0.000  0.000  0.000  0.088
    3  0.102  0.000  0.000  0.000  0.000  0.000  0.000  0.000  0.000  0.102
    4  0.015  0.055  0.000  0.000  0.000  0.000  0.000  0.000  0.000  0.071
    5  0.015  0.014  0.000  0.041  0.000  0.000  0.000  0.000  0.000  0.071
    6  0.015  0.014  0.000  0.041  0.000  0.000  0.000  0.000  0.000  0.071
    7  0.015  0.055  0.000  0.000  0.000  0.000  0.000  0.000  0.000  0.071
    8  0.102  0.000  0.000  0.000  0.000  0.000  0.000  0.000  0.000  0.102
tot    0.426  0.144  0.000  0.095  0.000  0.000  0.000  0.000  0.000  0.664
 
band     5 # energy  -11.81939266 # occ.  2.00000000
 
ion      s     py     pz     px    dxy    dyz    dz2    dxz  x2-y2    tot
    1  0.000  0.029  0.000  0.010  0.000  0.000  0.000  0.000  0.000  0.038
    2  0.000  0.029  0.000  0.010  0.000  0.000  0.000  0.000  0.000  0.038
    3  0.000  0.066  0.000  0.022  0.000  0.000  0.000  0.000  0.000  0.088
    4  0.082  0.014  0.000  0.018  0.000  0.000  0.000  0.000  0.000  0.114
    5  0.082  0.003  0.000  0.029  0.000  0.000  0.000  0.000  0.000  0.114
    6  0.082  0.003  0.000  0.029  0.000  0.000  0.000  0.000  0.000  0.114
    7  0.082  0.014  0.000  0.018  0.000  0.000  0.000  0.000  0.000  0.114
    8  0.000  0.066  0.000  0.022  0.000  0.000  0.000  0.000  0.000  0.088
tot    0.326  0.224  0.000  0.157  0.000  0.000  0.000  0.000  0.000  0.707
 
band     6 # energy  -10.26017034 # occ.  2.00000000
 
ion      s     py     pz     px    dxy    dyz    dz2    dxz  x2-y2    tot
    1  0.095  0.004  0.000  0.013  0.000  0.000  0.000  0.000  0.000  0.112
    2  0.095  0.004  0.000  0.013  0.000  0.000  0.000  0.000  0.000  0.112
    3  0.037  0.017  0.000  0.052  0.000  0.000  0.000  0.000  0.000  0.106
    4  0.001  0.019  0.000  0.039  0.000  0.000  0.000  0.000  0.000  0.059
    5  0.001  0.052  0.000  0.006  0.000  0.000  0.000  0.000  0.000  0.059
    6  0.001  0.052  0.000  0.006  0.000  0.000  0.000  0.000  0.000  0.059
    7  0.001  0.019  0.000  0.039  0.000  0.000  0.000  0.000  0.000  0.059
    8  0.037  0.017  0.000  0.052  0.000  0.000  0.000  0.000  0.000  0.106
tot    0.267  0.185  0.000  0.219  0.000  0.000  0.000  0.000  0.000  0.672
 
band     7 # energy   -8.79245728 # occ.  2.00000000
 
ion      s     py     pz     px    dxy    dyz    dz2    dxz  x2-y2    tot
    1  0.000  0.011  0.000  0.004  0.000  0.000  0.000  0.000  0.000  0.015
    2  0.000  0.011  0.000  0.004  0.000  0.000  0.000  0.000  0.000  0.015
    3  0.000  0.065  0.000  0.022  0.000  0.000  0.000  0.000  0.000  0.087
    4  0.009  0.059  0.000  0.060  0.000  0.000  0.000  0.000  0.000  0.128
    5  0.009  0.008  0.000  0.111  0.000  0.000  0.000  0.000  0.000  0.128
    6  0.009  0.008  0.000  0.111  0.000  0.000  0.000  0.000  0.000  0.128
    7  0.009  0.059  0.000  0.060  0.000  0.000  0.000  0.000  0.000  0.128
    8  0.000  0.065  0.000  0.022  0.000  0.000  0.000  0.000  0.000  0.087
tot    0.037  0.287  0.000  0.393  0.000  0.000  0.000  0.000  0.000  0.717
 
band     8 # energy   -8.72224429 # occ.  2.00000000
 
ion      s     py     pz     px    dxy    dyz    dz2    dxz  x2-y2    tot
    1  0.097  0.012  0.000  0.036  0.000  0.000  0.000  0.000  0.000  0.145
    2  0.097  0.012  0.000  0.036  0.000  0.000  0.000  0.000  0.000  0.145
    3  0.031  0.003  0.000  0.010  0.000  0.000  0.000  0.000  0.000  0.044
    4  0.026  0.016  0.000  0.046  0.000  0.000  0.000  0.000  0.000  0.088
    5  0.026  0.030  0.000  0.032  0.000  0.000  0.000  0.000  0.000  0.088
    6  0.026  0.030  0.000  0.032  0.000  0.000  0.000  0.000  0.000  0.088
    7  0.026  0.016  0.000  0.046  0.000  0.000  0.000  0.000  0.000  0.088
    8  0.031  0.003  0.000  0.010  0.000  0.000  0.000  0.000  0.000  0.044
tot    0.361  0.123  0.000  0.245  0.000  0.000  0.000  0.000  0.000  0.729
 
band     9 # energy   -7.42762101 # occ.  2.00000000
 
ion      s     py     pz     px    dxy    dyz    dz2    dxz  x2-y2    tot
    1  0.000  0.000  0.024  0.000  0.000  0.000  0.000  0.000  0.000  0.024
    2  0.000  0.000  0.024  0.000  0.000  0.000  0.000  0.000  0.000  0.024
    3  0.000  0.000  0.059  0.000  0.000  0.000  0.000  0.000  0.000  0.059
    4  0.000  0.000  0.064  0.000  0.000  0.000  0.000  0.000  0.000  0.064
    5  0.000  0.000  0.064  0.000  0.000  0.000  0.000  0.000  0.000  0.064
    6  0.000  0.000  0.064  0.000  0.000  0.000  0.000  0.000  0.000  0.064
    7  0.000  0.000  0.064  0.000  0.000  0.000  0.000  0.000  0.000  0.064
    8  0.000  0.000  0.059  0.000  0.000  0.000  0.000  0.000  0.000  0.059
tot    0.000  0.000  0.423  0.000  0.000  0.000  0.000  0.000  0.000  0.423
 
band    10 # energy   -7.23055684 # occ.  2.00000000
 
ion      s     py     pz     px    dxy    dyz    dz2    dxz  x2-y2    tot
    1  0.031  0.024  0.000  0.071  0.000  0.000  0.000  0.000  0.000  0.125
    2  0.031  0.024  0.000  0.071  0.000  0.000  0.000  0.000  0.000  0.125
    3  0.016  0.036  0.000  0.108  0.000  0.000  0.000  0.000  0.000  0.159
    4  0.001  0.023  0.000  0.012  0.000  0.000  0.000  0.000  0.000  0.036
    5  0.001  0.029  0.000  0.006  0.000  0.000  0.000  0.000  0.000  0.036
    6  0.001  0.029  0.000  0.006  0.000  0.000  0.000  0.000  0.000  0.036
    7  0.001  0.023  0.000  0.012  0.000  0.000  0.000  0.000  0.000  0.036
    8  0.016  0.036  0.000  0.108  0.000  0.000  0.000  0.000  0.000  0.159
tot    0.098  0.224  0.000  0.393  0.000  0.000  0.000  0.000  0.000  0.714
 
band    11 # energy   -5.64924392 # occ.  2.00000000
 
ion      s     py     pz     px    dxy    dyz    dz2    dxz  x2-y2    tot
    1  0.000  0.080  0.000  0.027  0.000  0.000  0.000  0.000  0.000  0.107
    2  0.000  0.080  0.000  0.027  0.000  0.000  0.000  0.000  0.000  0.107
    3  0.000  0.031  0.000  0.010  0.000  0.000  0.000  0.000  0.000  0.041
    4  0.002  0.055  0.000  0.059  0.000  0.000  0.000  0.000  0.000  0.116
    5  0.002  0.107  0.000  0.007  0.000  0.000  0.000  0.000  0.000  0.116
    6  0.002  0.107  0.000  0.007  0.000  0.000  0.000  0.000  0.000  0.116
    7  0.002  0.055  0.000  0.059  0.000  0.000  0.000  0.000  0.000  0.116
    8  0.000  0.031  0.000  0.010  0.000  0.000  0.000  0.000  0.000  0.041
tot    0.006  0.546  0.000  0.206  0.000  0.000  0.000  0.000  0.000  0.758
 
band    12 # energy   -5.31658916 # occ.  2.00000000
 
ion      s     py     pz     px    dxy    dyz    dz2    dxz  x2-y2    tot
    1  0.000  0.000  0.032  0.000  0.000  0.000  0.000  0.000  0.000  0.032
    2  0.000  0.000  0.032  0.000  0.000  0.000  0.000  0.000  0.000  0.032
    3  0.000  0.000  0.103  0.000  0.000  0.000  0.000  0.000  0.000  0.103
    4  0.000  0.000  0.044  0.000  0.000  0.000  0.000  0.000  0.000  0.044
    5  0.000  0.000  0.044  0.000  0.000  0.000  0.000  0.000  0.000  0.044
    6  0.000  0.000  0.044  0.000  0.000  0.000  0.000  0.000  0.000  0.044
    7  0.000  0.000  0.044  0.000  0.000  0.000  0.000  0.000  0.000  0.044
    8  0.000  0.000  0.103  0.000  0.000  0.000  0.000  0.000  0.000  0.103
tot    0.000  0.000  0.444  0.000  0.000  0.000  0.000  0.000  0.000  0.444
 
band    13 # energy   -5.10106873 # occ.  2.00000000
 
ion      s     py     pz     px    dxy    dyz    dz2    dxz  x2-y2    tot
    1  0.023  0.025  0.000  0.073  0.000  0.000  0.000  0.000  0.000  0.121
    2  0.023  0.025  0.000  0.073  0.000  0.000  0.000  0.000  0.000  0.121
    3  0.009  0.021  0.000  0.064  0.000  0.000  0.000  0.000  0.000  0.095
    4  0.016  0.019  0.000  0.050  0.000  0.000  0.000  0.000  0.000  0.085
    5  0.016  0.017  0.000  0.052  0.000  0.000  0.000  0.000  0.000  0.085
    6  0.016  0.017  0.000  0.052  0.000  0.000  0.000  0.000  0.000  0.085
    7  0.016  0.019  0.000  0.050  0.000  0.000  0.000  0.000  0.000  0.085
    8  0.009  0.021  0.000  0.064  0.000  0.000  0.000  0.000  0.000  0.095
tot    0.128  0.163  0.000  0.479  0.000  0.000  0.000  0.000  0.000  0.771
 
band    14 # energy   -4.06791577 # occ.  2.00000000
 
ion      s     py     pz     px    dxy    dyz    dz2    dxz  x2-y2    tot
    1  0.000  0.000  0.000  0.000  0.000  0.000  0.000  0.000  0.000  0.000
    2  0.000  0.000  0.000  0.000  0.000  0.000  0.000  0.000  0.000  0.000
    3  0.000  0.000  0.000  0.000  0.000  0.000  0.000  0.000  0.000  0.000
    4  0.000  0.000  0.118  0.000  0.000  0.000  0.000  0.000  0.000  0.118
    5  0.000  0.000  0.118  0.000  0.000  0.000  0.000  0.000  0.000  0.118
    6  0.000  0.000  0.118  0.000  0.000  0.000  0.000  0.000  0.000  0.118
    7  0.000  0.000  0.118  0.000  0.000  0.000  0.000  0.000  0.000  0.118
    8  0.000  0.000  0.000  0.000  0.000  0.000  0.000  0.000  0.000  0.000
tot    0.000  0.000  0.473  0.000  0.000  0.000  0.000  0.000  0.000  0.473
 
band    15 # energy   -4.01252288 # occ.  2.00000000
 
ion      s     py     pz     px    dxy    dyz    dz2    dxz  x2-y2    tot
    1  0.000  0.093  0.000  0.031  0.000  0.000  0.000  0.000  0.000  0.123
    2  0.000  0.093  0.000  0.031  0.000  0.000  0.000  0.000  0.000  0.123
    3  0.000  0.066  0.000  0.022  0.000  0.000  0.000  0.000  0.000  0.088
    4  0.003  0.063  0.000  0.026  0.000  0.000  0.000  0.000  0.000  0.092
    5  0.003  0.071  0.000  0.019  0.000  0.000  0.000  0.000  0.000  0.092
    6  0.003  0.071  0.000  0.019  0.000  0.000  0.000  0.000  0.000  0.092
    7  0.003  0.063  0.000  0.026  0.000  0.000  0.000  0.000  0.000  0.092
    8  0.000  0.066  0.000  0.022  0.000  0.000  0.000  0.000  0.000  0.088
tot    0.010  0.585  0.000  0.195  0.000  0.000  0.000  0.000  0.000  0.791
 
band    16 # energy   -2.37551500 # occ.  0.00000000
 
ion      s     py     pz     px    dxy    dyz    dz2    dxz  x2-y2    tot
    1  0.000  0.000  0.116  0.000  0.000  0.000  0.000  0.000  0.000  0.116
    2  0.000  0.000  0.116  0.000  0.000  0.000  0.000  0.000  0.000  0.116
    3  0.000  0.000  0.099  0.000  0.000  0.000  0.000  0.000  0.000  0.099
    4  0.000  0.000  0.006  0.000  0.000  0.000  0.000  0.000  0.000  0.006
    5  0.000  0.000  0.006  0.000  0.000  0.000  0.000  0.000  0.000  0.006
    6  0.000  0.000  0.006  0.000  0.000  0.000  0.000  0.000  0.000  0.006
    7  0.000  0.000  0.006  0.000  0.000  0.000  0.000  0.000  0.000  0.006
    8  0.000  0.000  0.099  0.000  0.000  0.000  0.000  0.000  0.000  0.099
tot    0.000  0.000  0.456  0.000  0.000  0.000  0.000  0.000  0.000  0.456
 
band    17 # energy    1.08092009 # occ.  0.00000000
 
ion      s     py     pz     px    dxy    dyz    dz2    dxz  x2-y2    tot
    1  0.000  0.000  0.000  0.000  0.000  0.000  0.000  0.000  0.000  0.000
    2  0.000  0.000  0.000  0.000  0.000  0.000  0.000  0.000  0.000  0.000
    3  0.000  0.000  0.000  0.000  0.000  0.000  0.000  0.000  0.000  0.000
    4  0.000  0.000  0.124  0.000  0.000  0.000  0.000  0.000  0.000  0.124
    5  0.000  0.000  0.124  0.000  0.000  0.000  0.000  0.000  0.000  0.124
    6  0.000  0.000  0.124  0.000  0.000  0.000  0.000  0.000  0.000  0.124
    7  0.000  0.000  0.124  0.000  0.000  0.000  0.000  0.000  0.000  0.124
    8  0.000  0.000  0.000  0.000  0.000  0.000  0.000  0.000  0.000  0.000
tot    0.000  0.000  0.495  0.000  0.000  0.000  0.000  0.000  0.000  0.495
 
band    18 # energy    1.84259402 # occ.  0.00000000
 
ion      s     py     pz     px    dxy    dyz    dz2    dxz  x2-y2    tot
    1  0.000  0.000  0.116  0.000  0.000  0.000  0.000  0.000  0.000  0.116
    2  0.000  0.000  0.116  0.000  0.000  0.000  0.000  0.000  0.000  0.116
    3  0.000  0.000  0.115  0.000  0.000  0.000  0.000  0.000  0.000  0.115
    4  0.000  0.000  0.000  0.000  0.000  0.000  0.000  0.000  0.000  0.000
    5  0.000  0.000  0.000  0.000  0.000  0.000  0.000  0.000  0.000  0.000
    6  0.000  0.000  0.000  0.000  0.000  0.000  0.000  0.000  0.000  0.000
    7  0.000  0.000  0.000  0.000  0.000  0.000  0.000  0.000  0.000  0.000
    8  0.000  0.000  0.115  0.000  0.000  0.000  0.000  0.000  0.000  0.115
tot    0.000  0.000  0.464  0.000  0.000  0.000  0.000  0.000  0.000  0.464
 
band    19 # energy    2.20038477 # occ.  0.00000000
 
ion      s     py     pz     px    dxy    dyz    dz2    dxz  x2-y2    tot
    1  0.001  0.000  0.000  0.000  0.000  0.000  0.000  0.000  0.000  0.001
    2  0.001  0.000  0.000  0.000  0.000  0.000  0.000  0.000  0.000  0.001
    3  0.002  0.000  0.000  0.001  0.000  0.000  0.000  0.000  0.000  0.003
    4  0.003  0.000  0.000  0.001  0.000  0.000  0.000  0.000  0.000  0.004
    5  0.003  0.001  0.000  0.000  0.000  0.000  0.000  0.000  0.000  0.004
    6  0.003  0.001  0.000  0.000  0.000  0.000  0.000  0.000  0.000  0.004
    7  0.003  0.000  0.000  0.001  0.000  0.000  0.000  0.000  0.000  0.004
    8  0.002  0.000  0.000  0.001  0.000  0.000  0.000  0.000  0.000  0.003
tot    0.017  0.002  0.000  0.003  0.000  0.000  0.000  0.000  0.000  0.021
 
band    20 # energy    3.36970126 # occ.  0.00000000
 
ion      s     py     pz     px    dxy    dyz    dz2    dxz  x2-y2    tot
    1  0.000  0.000  0.016  0.000  0.000  0.000  0.000  0.000  0.000  0.016
    2  0.000  0.000  0.016  0.000  0.000  0.000  0.000  0.000  0.000  0.016
    3  0.000  0.000  0.021  0.000  0.000  0.000  0.000  0.000  0.000  0.021
    4  0.000  0.000  0.047  0.000  0.000  0.000  0.000  0.000  0.000  0.047
    5  0.000  0.000  0.047  0.000  0.000  0.000  0.000  0.000  0.000  0.047
    6  0.000  0.000  0.047  0.000  0.000  0.000  0.000  0.000  0.000  0.047
    7  0.000  0.000  0.047  0.000  0.000  0.000  0.000  0.000  0.000  0.047
    8  0.000  0.000  0.021  0.000  0.000  0.000  0.000  0.000  0.000  0.021
tot    0.000  0.000  0.261  0.000  0.000  0.000  0.000  0.000  0.000  0.261
 
band    21 # energy    3.93177581 # occ.  0.00000000
 
ion      s     py     pz     px    dxy    dyz    dz2    dxz  x2-y2    tot
    1  0.000  0.000  0.072  0.000  0.000  0.000  0.000  0.000  0.000  0.072
    2  0.000  0.000  0.072  0.000  0.000  0.000  0.000  0.000  0.000  0.072
    3  0.000  0.000  0.035  0.000  0.000  0.000  0.000  0.000  0.000  0.035
    4  0.000  0.000  0.024  0.000  0.000  0.000  0.000  0.000  0.000  0.024
    5  0.000  0.000  0.024  0.000  0.000  0.000  0.000  0.000  0.000  0.024
    6  0.000  0.000  0.024  0.000  0.000  0.000  0.000  0.000  0.000  0.024
    7  0.000  0.000  0.024  0.000  0.000  0.000  0.000  0.000  0.000  0.024
    8  0.000  0.000  0.035  0.000  0.000  0.000  0.000  0.000  0.000  0.035
tot    0.000  0.000  0.309  0.000  0.000  0.000  0.000  0.000  0.000  0.309
 
band    22 # energy    4.50474912 # occ.  0.00000000
 
ion      s     py     pz     px    dxy    dyz    dz2    dxz  x2-y2    tot
    1  0.000  0.000  0.000  0.000  0.000  0.000  0.000  0.000  0.000  0.000
    2  0.000  0.000  0.000  0.000  0.000  0.000  0.000  0.000  0.000  0.000
    3  0.001  0.000  0.000  0.001  0.000  0.000  0.000  0.000  0.000  0.002
    4  0.004  0.000  0.000  0.001  0.000  0.000  0.000  0.000  0.000  0.005
    5  0.004  0.001  0.000  0.000  0.000  0.000  0.000  0.000  0.000  0.005
    6  0.004  0.001  0.000  0.000  0.000  0.000  0.000  0.000  0.000  0.005
    7  0.004  0.000  0.000  0.001  0.000  0.000  0.000  0.000  0.000  0.005
    8  0.001  0.000  0.000  0.001  0.000  0.000  0.000  0.000  0.000  0.002
tot    0.018  0.002  0.000  0.005  0.000  0.000  0.000  0.000  0.000  0.026
 
band    23 # energy    4.63519784 # occ.  0.00000000
 
ion      s     py     pz     px    dxy    dyz    dz2    dxz  x2-y2    tot
    1  0.000  0.000  0.000  0.000  0.000  0.000  0.000  0.000  0.000  0.001
    2  0.000  0.000  0.000  0.000  0.000  0.000  0.000  0.000  0.000  0.001
    3  0.001  0.000  0.000  0.001  0.000  0.000  0.000  0.000  0.000  0.003
    4  0.003  0.000  0.000  0.002  0.000  0.000  0.000  0.000  0.000  0.004
    5  0.003  0.001  0.000  0.001  0.000  0.000  0.000  0.000  0.000  0.004
    6  0.003  0.001  0.000  0.001  0.000  0.000  0.000  0.000  0.000  0.004
    7  0.003  0.000  0.000  0.002  0.000  0.000  0.000  0.000  0.000  0.004
    8  0.001  0.000  0.000  0.001  0.000  0.000  0.000  0.000  0.000  0.003
tot    0.013  0.004  0.000  0.009  0.000  0.000  0.000  0.000  0.000  0.026
 
band    24 # energy    5.94226287 # occ.  0.00000000
 
ion      s     py     pz     px    dxy    dyz    dz2    dxz  x2-y2    tot
    1  0.000  0.000  0.008  0.000  0.000  0.000  0.000  0.000  0.000  0.008
    2  0.000  0.000  0.008  0.000  0.000  0.000  0.000  0.000  0.000  0.008
    3  0.000  0.000  0.004  0.000  0.000  0.000  0.000  0.000  0.000  0.004
    4  0.000  0.000  0.012  0.000  0.000  0.000  0.000  0.000  0.000  0.012
    5  0.000  0.000  0.012  0.000  0.000  0.000  0.000  0.000  0.000  0.012
    6  0.000  0.000  0.012  0.000  0.000  0.000  0.000  0.000  0.000  0.012
    7  0.000  0.000  0.012  0.000  0.000  0.000  0.000  0.000  0.000  0.012
    8  0.000  0.000  0.004  0.000  0.000  0.000  0.000  0.000  0.000  0.004
tot    0.000  0.000  0.074  0.000  0.000  0.000  0.000  0.000  0.000  0.074
 

 k-point     2 :    0.32771429 0.32771429 0.00000000     weight = 0.00520833

band     1 # energy  -18.88192273 # occ.  2.00000000
 
ion      s     py     pz     px    dxy    dyz    dz2    dxz  x2-y2    tot
    1  0.015  0.001  0.000  0.004  0.000  0.000  0.000  0.000  0.000  0.020
    2  0.015  0.001  0.000  0.004  0.000  0.000  0.000  0.000  0.000  0.020
    3  0.087  0.002  0.000  0.006  0.000  0.000  0.000  0.000  0.000  0.095
    4  0.097  0.001  0.000  0.006  0.000  0.000  0.000  0.000  0.000  0.105
    5  0.097  0.007  0.000  0.001  0.000  0.000  0.000  0.000  0.000  0.105
    6  0.097  0.007  0.000  0.001  0.000  0.000  0.000  0.000  0.000  0.105
    7  0.097  0.001  0.000  0.006  0.000  0.000  0.000  0.000  0.000  0.105
    8  0.087  0.002  0.000  0.006  0.000  0.000  0.000  0.000  0.000  0.095
tot    0.594  0.023  0.000  0.034  0.000  0.000  0.000  0.000  0.000  0.651
 
band     2 # energy  -16.56473117 # occ.  2.00000000
 
ion      s     py     pz     px    dxy    dyz    dz2    dxz  x2-y2    tot
    1  0.036  0.002  0.000  0.006  0.000  0.000  0.000  0.000  0.000  0.044
    2  0.036  0.002  0.000  0.006  0.000  0.000  0.000  0.000  0.000  0.044
    3  0.156  0.001  0.000  0.003  0.000  0.000  0.000  0.000  0.000  0.160
    4  0.047  0.013  0.000  0.006  0.000  0.000  0.000  0.000  0.000  0.065
    5  0.047  0.002  0.000  0.016  0.000  0.000  0.000  0.000  0.000  0.066
    6  0.047  0.002  0.000  0.016  0.000  0.000  0.000  0.000  0.000  0.066
    7  0.047  0.013  0.000  0.006  0.000  0.000  0.000  0.000  0.000  0.065
    8  0.156  0.001  0.000  0.003  0.000  0.000  0.000  0.000  0.000  0.160
tot    0.573  0.034  0.000  0.062  0.000  0.000  0.000  0.000  0.000  0.669
 
band     3 # energy  -15.72611172 # occ.  2.00000000
 
ion      s     py     pz     px    dxy    dyz    dz2    dxz  x2-y2    tot
    1  0.000  0.017  0.000  0.006  0.000  0.000  0.000  0.000  0.000  0.023
    2  0.000  0.017  0.000  0.006  0.000  0.000  0.000  0.000  0.000  0.023
    3  0.000  0.026  0.000  0.009  0.000  0.000  0.000  0.000  0.000  0.035
    4  0.139  0.001  0.000  0.006  0.000  0.000  0.000  0.000  0.000  0.145
    5  0.139  0.003  0.000  0.004  0.000  0.000  0.000  0.000  0.000  0.145
    6  0.139  0.003  0.000  0.004  0.000  0.000  0.000  0.000  0.000  0.145
    7  0.139  0.001  0.000  0.006  0.000  0.000  0.000  0.000  0.000  0.145
    8  0.000  0.026  0.000  0.009  0.000  0.000  0.000  0.000  0.000  0.035
tot    0.556  0.094  0.000  0.048  0.000  0.000  0.000  0.000  0.000  0.698
 
band     4 # energy  -13.43186911 # occ.  2.00000000
 
ion      s     py     pz     px    dxy    dyz    dz2    dxz  x2-y2    tot
    1  0.080  0.002  0.000  0.006  0.000  0.000  0.000  0.000  0.000  0.088
    2  0.080  0.002  0.000  0.006  0.000  0.000  0.000  0.000  0.000  0.088
    3  0.102  0.000  0.000  0.000  0.000  0.000  0.000  0.000  0.000  0.102
    4  0.015  0.055  0.000  0.000  0.000  0.000  0.000  0.000  0.000  0.071
    5  0.015  0.014  0.000  0.041  0.000  0.000  0.000  0.000  0.000  0.071
    6  0.015  0.014  0.000  0.041  0.000  0.000  0.000  0.000  0.000  0.071
    7  0.015  0.055  0.000  0.000  0.000  0.000  0.000  0.000  0.000  0.071
    8  0.102  0.000  0.000  0.000  0.000  0.000  0.000  0.000  0.000  0.102
tot    0.425  0.144  0.000  0.096  0.000  0.000  0.000  0.000  0.000  0.664
 
band     5 # energy  -11.84732595 # occ.  2.00000000
 
ion      s     py     pz     px    dxy    dyz    dz2    dxz  x2-y2    tot
    1  0.000  0.029  0.000  0.010  0.000  0.000  0.000  0.000  0.000  0.038
    2  0.000  0.029  0.000  0.010  0.000  0.000  0.000  0.000  0.000  0.038
    3  0.000  0.066  0.000  0.022  0.000  0.000  0.000  0.000  0.000  0.088
    4  0.081  0.014  0.000  0.018  0.000  0.000  0.000  0.000  0.000  0.113
    5  0.081  0.003  0.000  0.029  0.000  0.000  0.000  0.000  0.000  0.113
    6  0.081  0.003  0.000  0.029  0.000  0.000  0.000  0.000  0.000  0.113
    7  0.081  0.014  0.000  0.018  0.000  0.000  0.000  0.000  0.000  0.113
    8  0.000  0.066  0.000  0.022  0.000  0.000  0.000  0.000  0.000  0.088
tot    0.325  0.224  0.000  0.157  0.000  0.000  0.000  0.000  0.000  0.706
 
band     6 # energy  -10.30099535 # occ.  2.00000000
 
ion      s     py     pz     px    dxy    dyz    dz2    dxz  x2-y2    tot
    1  0.095  0.004  0.000  0.013  0.000  0.000  0.000  0.000  0.000  0.112
    2  0.095  0.004  0.000  0.013  0.000  0.000  0.000  0.000  0.000  0.112
    3  0.037  0.017  0.000  0.051  0.000  0.000  0.000  0.000  0.000  0.106
    4  0.001  0.019  0.000  0.039  0.000  0.000  0.000  0.000  0.000  0.059
    5  0.001  0.052  0.000  0.006  0.000  0.000  0.000  0.000  0.000  0.059
    6  0.001  0.052  0.000  0.006  0.000  0.000  0.000  0.000  0.000  0.059
    7  0.001  0.019  0.000  0.039  0.000  0.000  0.000  0.000  0.000  0.059
    8  0.037  0.017  0.000  0.051  0.000  0.000  0.000  0.000  0.000  0.106
tot    0.267  0.184  0.000  0.219  0.000  0.000  0.000  0.000  0.000  0.670
 
band     7 # energy   -8.76698067 # occ.  2.00000000
 
ion      s     py     pz     px    dxy    dyz    dz2    dxz  x2-y2    tot
    1  0.093  0.007  0.000  0.038  0.000  0.000  0.000  0.000  0.000  0.138
    2  0.093  0.007  0.000  0.038  0.000  0.000  0.000  0.000  0.000  0.138
    3  0.029  0.014  0.000  0.004  0.000  0.000  0.000  0.000  0.000  0.047
    4  0.022  0.012  0.000  0.060  0.000  0.000  0.000  0.000  0.000  0.093
    5  0.030  0.022  0.000  0.033  0.000  0.000  0.000  0.000  0.000  0.085
    6  0.029  0.022  0.000  0.034  0.000  0.000  0.000  0.000  0.000  0.086
    7  0.021  0.012  0.000  0.061  0.000  0.000  0.000  0.000  0.000  0.094
    8  0.029  0.014  0.000  0.004  0.000  0.000  0.000  0.000  0.000  0.047
tot    0.345  0.111  0.000  0.272  0.000  0.000  0.000  0.000  0.000  0.728
 
band     8 # energy   -8.76536403 # occ.  2.00000000
 
ion      s     py     pz     px    dxy    dyz    dz2    dxz  x2-y2    tot
    1  0.006  0.016  0.000  0.001  0.000  0.000  0.000  0.000  0.000  0.023
    2  0.006  0.016  0.000  0.001  0.000  0.000  0.000  0.000  0.000  0.023
    3  0.002  0.055  0.000  0.029  0.000  0.000  0.000  0.000  0.000  0.085
    4  0.014  0.064  0.000  0.044  0.000  0.000  0.000  0.000  0.000  0.122
    5  0.006  0.015  0.000  0.109  0.000  0.000  0.000  0.000  0.000  0.130
    6  0.006  0.015  0.000  0.108  0.000  0.000  0.000  0.000  0.000  0.130
    7  0.014  0.064  0.000  0.043  0.000  0.000  0.000  0.000  0.000  0.121
    8  0.002  0.055  0.000  0.029  0.000  0.000  0.000  0.000  0.000  0.085
tot    0.057  0.299  0.000  0.363  0.000  0.000  0.000  0.000  0.000  0.719
 
band     9 # energy   -7.44587077 # occ.  2.00000000
 
ion      s     py     pz     px    dxy    dyz    dz2    dxz  x2-y2    tot
    1  0.000  0.000  0.025  0.000  0.000  0.000  0.000  0.000  0.000  0.025
    2  0.000  0.000  0.025  0.000  0.000  0.000  0.000  0.000  0.000  0.025
    3  0.000  0.000  0.059  0.000  0.000  0.000  0.000  0.000  0.000  0.059
    4  0.000  0.000  0.064  0.000  0.000  0.000  0.000  0.000  0.000  0.064
    5  0.000  0.000  0.064  0.000  0.000  0.000  0.000  0.000  0.000  0.064
    6  0.000  0.000  0.064  0.000  0.000  0.000  0.000  0.000  0.000  0.064
    7  0.000  0.000  0.064  0.000  0.000  0.000  0.000  0.000  0.000  0.064
    8  0.000  0.000  0.059  0.000  0.000  0.000  0.000  0.000  0.000  0.059
tot    0.000  0.000  0.423  0.000  0.000  0.000  0.000  0.000  0.000  0.423
 
band    10 # energy   -7.19480210 # occ.  2.00000000
 
ion      s     py     pz     px    dxy    dyz    dz2    dxz  x2-y2    tot
    1  0.030  0.024  0.000  0.071  0.000  0.000  0.000  0.000  0.000  0.125
    2  0.030  0.024  0.000  0.071  0.000  0.000  0.000  0.000  0.000  0.125
    3  0.016  0.036  0.000  0.107  0.000  0.000  0.000  0.000  0.000  0.159
    4  0.001  0.023  0.000  0.012  0.000  0.000  0.000  0.000  0.000  0.037
    5  0.001  0.030  0.000  0.006  0.000  0.000  0.000  0.000  0.000  0.037
    6  0.001  0.030  0.000  0.006  0.000  0.000  0.000  0.000  0.000  0.037
    7  0.001  0.023  0.000  0.012  0.000  0.000  0.000  0.000  0.000  0.037
    8  0.016  0.036  0.000  0.107  0.000  0.000  0.000  0.000  0.000  0.159
tot    0.096  0.226  0.000  0.394  0.000  0.000  0.000  0.000  0.000  0.715
 
band    11 # energy   -5.65598581 # occ.  2.00000000
 
ion      s     py     pz     px    dxy    dyz    dz2    dxz  x2-y2    tot
    1  0.000  0.080  0.000  0.027  0.000  0.000  0.000  0.000  0.000  0.107
    2  0.000  0.080  0.000  0.027  0.000  0.000  0.000  0.000  0.000  0.107
    3  0.000  0.031  0.000  0.010  0.000  0.000  0.000  0.000  0.000  0.041
    4  0.002  0.054  0.000  0.060  0.000  0.000  0.000  0.000  0.000  0.116
    5  0.002  0.108  0.000  0.006  0.000  0.000  0.000  0.000  0.000  0.115
    6  0.002  0.108  0.000  0.006  0.000  0.000  0.000  0.000  0.000  0.115
    7  0.002  0.054  0.000  0.060  0.000  0.000  0.000  0.000  0.000  0.116
    8  0.000  0.031  0.000  0.010  0.000  0.000  0.000  0.000  0.000  0.041
tot    0.006  0.546  0.000  0.206  0.000  0.000  0.000  0.000  0.000  0.758
 
band    12 # energy   -5.28428942 # occ.  2.00000000
 
ion      s     py     pz     px    dxy    dyz    dz2    dxz  x2-y2    tot
    1  0.000  0.000  0.031  0.000  0.000  0.000  0.000  0.000  0.000  0.031
    2  0.000  0.000  0.031  0.000  0.000  0.000  0.000  0.000  0.000  0.031
    3  0.000  0.000  0.104  0.000  0.000  0.000  0.000  0.000  0.000  0.104
    4  0.000  0.000  0.044  0.000  0.000  0.000  0.000  0.000  0.000  0.044
    5  0.000  0.000  0.044  0.000  0.000  0.000  0.000  0.000  0.000  0.044
    6  0.000  0.000  0.044  0.000  0.000  0.000  0.000  0.000  0.000  0.044
    7  0.000  0.000  0.044  0.000  0.000  0.000  0.000  0.000  0.000  0.044
    8  0.000  0.000  0.104  0.000  0.000  0.000  0.000  0.000  0.000  0.104
tot    0.000  0.000  0.445  0.000  0.000  0.000  0.000  0.000  0.000  0.445
 
band    13 # energy   -5.04980378 # occ.  2.00000000
 
ion      s     py     pz     px    dxy    dyz    dz2    dxz  x2-y2    tot
    1  0.022  0.025  0.000  0.073  0.000  0.000  0.000  0.000  0.000  0.120
    2  0.022  0.025  0.000  0.073  0.000  0.000  0.000  0.000  0.000  0.120
    3  0.009  0.021  0.000  0.065  0.000  0.000  0.000  0.000  0.000  0.095