 running on   12 total cores
 distrk:  each k-point on   12 cores,    1 groups
 distr:  one band on    1 cores,   12 groups
 using from now: INCAR     
 vasp.5.4.4.18Apr17-6-g9f103f2a35 (build Mar 30 2023 15:39:25) complex          
  
 POSCAR found type information on POSCAR  B  C 
 POSCAR found :  2 types and       8 ions
 scaLAPACK will be used

 ----------------------------------------------------------------------------- 
|                                                                             |
|           W    W    AA    RRRRR   N    N  II  N    N   GGGG   !!!           |
|           W    W   A  A   R    R  NN   N  II  NN   N  G    G  !!!           |
|           W    W  A    A  R    R  N N  N  II  N N  N  G       !!!           |
|           W WW W  AAAAAA  RRRRR   N  N N  II  N  N N  G  GGG   !            |
|           WW  WW  A    A  R   R   N   NN  II  N   NN  G    G                |
|           W    W  A    A  R    R  N    N  II  N    N   GGGG   !!!           |
|                                                                             |
|      For optimal performance we recommend to set                            |
|        NCORE= 4 - approx SQRT( number of cores)                             |
|      NCORE specifies how many cores store one orbital (NPAR=cpu/NCORE).     |
|      This setting can  greatly improve the performance of VASP for DFT.     |
|      The default,   NCORE=1            might be grossly inefficient         |
|      on modern multi-core architectures or massively parallel machines.     |
|      Do your own testing !!!!                                               |
|      Unfortunately you need to use the default for GW and RPA calculations. |
|      (for HF NCORE is supported but not extensively tested yet)             |
|                                                                             |
 ----------------------------------------------------------------------------- 

 LDA part: xc-table for Pade appr. of Perdew
 WARNING: stress and forces are not correct
 POSCAR, INCAR and KPOINTS ok, starting setup
 FFT: planning ...
 WAVECAR not read
 charge-density read from file: BC3                                     
 entering main loop
       N       E                     dE             d eps       ncg     rms          rms(c)
DAV:   1     0.141093020968E+03    0.14109E+03   -0.10555E+04  9216   0.859E+02
DAV:   2    -0.454723499943E+02   -0.18657E+03   -0.17165E+03 14532   0.172E+02
DAV:   3    -0.649568055364E+02   -0.19484E+02   -0.19275E+02 11052   0.666E+01
DAV:   4    -0.653077581255E+02   -0.35095E+00   -0.35067E+00 12600   0.106E+01
DAV:   5    -0.653165528602E+02   -0.87947E-02   -0.87933E-02 12120   0.154E+00
DAV:   6    -0.653169618323E+02   -0.40897E-03   -0.40896E-03 14268   0.331E-01
DAV:   7    -0.653169713762E+02   -0.95439E-05   -0.95443E-05 13044   0.395E-02
DAV:   8    -0.653169716809E+02   -0.30462E-06   -0.30429E-06 12420   0.581E-03
   1 F= -.65316972E+02 E0= -.65316972E+02  d E =-.274359E-06
 writing wavefunctions
