   8   8   0   0
  0.2469169E+02  0.5174038E-09  0.5174038E-09  0.8520222E-09  0.5000000E-15
  1.000000000000000E-004
  CAR 
 BC3-optical                             
    146.84536982    -26.41583934 2400     -2.41999243      1.00000000
    -26.416  0.0000E+00  0.0000E+00
    -26.344  0.0000E+00  0.0000E+00
    -26.271  0.0000E+00  0.0000E+00
    -26.199  0.0000E+00  0.0000E+00
    -26.127  0.0000E+00  0.0000E+00
    -26.055  0.0000E+00  0.0000E+00
    -25.983  0.0000E+00  0.0000E+00
    -25.910  0.0000E+00  0.0000E+00
    -25.838  0.0000E+00  0.0000E+00
    -25.766  0.0000E+00  0.0000E+00
    -25.694  0.0000E+00  0.0000E+00
    -25.621  0.0000E+00  0.0000E+00
    -25.549  0.0000E+00  0.0000E+00
    -25.477  0.0000E+00  0.0000E+00
    -25.405  0.0000E+00  0.0000E+00
    -25.333  0.0000E+00  0.0000E+00
    -25.260  0.0000E+00  0.0000E+00
    -25.188  0.0000E+00  0.0000E+00
    -25.116  0.0000E+00  0.0000E+00
    -25.044  0.0000E+00  0.0000E+00
    -24.971  0.0000E+00  0.0000E+00
    -24.899  0.0000E+00  0.0000E+00
    -24.827  0.0000E+00  0.0000E+00
    -24.755  0.0000E+00  0.0000E+00
    -24.683  0.0000E+00  0.0000E+00
    -24.610  0.0000E+00  0.0000E+00
    -24.538  0.0000E+00  0.0000E+00
    -24.466  0.0000E+00  0.0000E+00
    -24.394  0.0000E+00  0.0000E+00
    -24.321  0.0000E+00  0.0000E+00
    -24.249  0.0000E+00  0.0000E+00
    -24.177  0.0000E+00  0.0000E+00
    -24.105  0.0000E+00  0.0000E+00
    -24.033  0.0000E+00  0.0000E+00
    -23.960  0.0000E+00  0.0000E+00
    -23.888  0.0000E+00  0.0000E+00
    -23.816  0.0000E+00  0.0000E+00
    -23.744  0.0000E+00  0.0000E+00
    -23.671  0.0000E+00  0.0000E+00
    -23.599  0.0000E+00  0.0000E+00
    -23.527  0.0000E+00  0.0000E+00
    -23.455  0.0000E+00  0.0000E+00
    -23.383  0.0000E+00  0.0000E+00
    -23.310  0.0000E+00  0.0000E+00
    -23.238  0.0000E+00  0.0000E+00
    -23.166  0.0000E+00  0.0000E+00
    -23.094  0.0000E+00  0.0000E+00
    -23.021  0.0000E+00  0.0000E+00
    -22.949  0.0000E+00  0.0000E+00
    -22.877  0.0000E+00  0.0000E+00
    -22.805  0.0000E+00  0.0000E+00
    -22.733  0.0000E+00  0.0000E+00
    -22.660  0.0000E+00  0.0000E+00
    -22.588  0.0000E+00  0.0000E+00
    -22.516  0.0000E+00  0.0000E+00
    -22.444  0.0000E+00  0.0000E+00
    -22.371  0.0000E+00  0.0000E+00
    -22.299  0.0000E+00  0.0000E+00
    -22.227  0.0000E+00  0.0000E+00
    -22.155  0.0000E+00  0.0000E+00
    -22.083  0.0000E+00  0.0000E+00
    -22.010  0.0000E+00  0.0000E+00
    -21.938  0.0000E+00  0.0000E+00
    -21.866  0.0000E+00  0.0000E+00
    -21.794  0.0000E+00  0.0000E+00
    -21.721  0.0000E+00  0.0000E+00
    -21.649  0.0000E+00  0.0000E+00
    -21.577  0.0000E+00  0.0000E+00
    -21.505  0.0000E+00  0.0000E+00
    -21.433  0.0000E+00  0.0000E+00
    -21.360  0.0000E+00  0.0000E+00
    -21.288  0.0000E+00  0.0000E+00
    -21.216  0.0000E+00  0.0000E+00
    -21.144  0.0000E+00  0.0000E+00
    -21.071  0.0000E+00  0.0000E+00
    -20.999  0.0000E+00  0.0000E+00
    -20.927  0.0000E+00  0.0000E+00
    -20.855  0.0000E+00  0.0000E+00
    -20.783  0.0000E+00  0.0000E+00
    -20.710  0.0000E+00  0.0000E+00
    -20.638  0.0000E+00  0.0000E+00
    -20.566  0.0000E+00  0.0000E+00
    -20.494  0.0000E+00  0.0000E+00
    -20.421  0.0000E+00  0.0000E+00
    -20.349  0.0000E+00  0.0000E+00
    -20.277  0.0000E+00  0.0000E+00
    -20.205  0.0000E+00  0.0000E+00
    -20.133  0.0000E+00  0.0000E+00
    -20.060  0.0000E+00  0.0000E+00
    -19.988  0.0000E+00  0.0000E+00
    -19.916  0.0000E+00  0.0000E+00
    -19.844  0.0000E+00  0.0000E+00
    -19.771  0.0000E+00  0.0000E+00
    -19.699  0.0000E+00  0.0000E+00
    -19.627  0.0000E+00  0.0000E+00
    -19.555  0.0000E+00  0.0000E+00
    -19.483  0.0000E+00  0.0000E+00
    -19.410  0.0000E+00  0.0000E+00
    -19.338  0.0000E+00  0.0000E+00
    -19.266  0.0000E+00  0.0000E+00
    -19.194  0.0000E+00  0.0000E+00
    -19.121  0.0000E+00  0.0000E+00
    -19.049  0.0000E+00  0.0000E+00
    -18.977  0.0000E+00  0.0000E+00
    -18.905  0.0000E+00  0.0000E+00
    -18.833  0.0000E+00  0.0000E+00
    -18.760  0.0000E+00  0.0000E+00
    -18.688  0.0000E+00  0.0000E+00
    -18.616  0.0000E+00  0.0000E+00
    -18.544  0.6178E-01  0.4462E-02
    -18.471  0.1348E+01  0.1018E+00
    -18.399  0.2244E+01  0.2639E+00
    -18.327  0.2322E+01  0.4316E+00
    -18.255  0.1185E+01  0.5172E+00
    -18.183  0.3419E+01  0.7641E+00
    -18.110  0.1556E+01  0.8765E+00
    -18.038  0.4282E+01  0.1186E+01
    -17.966  0.6777E+01  0.1675E+01
    -17.894  0.3872E+01  0.1959E+01
    -17.821  0.3836E+00  0.2000E+01
    -17.749  0.0000E+00  0.2000E+01
    -17.677  0.0000E+00  0.2000E+01
    -17.605  0.0000E+00  0.2000E+01
    -17.533  0.0000E+00  0.2000E+01
    -17.460  0.0000E+00  0.2000E+01
    -17.388  0.0000E+00  0.2000E+01
    -17.316  0.0000E+00  0.2000E+01
    -17.244  0.0000E+00  0.2000E+01
    -17.171  0.0000E+00  0.2000E+01
    -17.099  0.0000E+00  0.2000E+01
    -17.027  0.0000E+00  0.2000E+01
    -16.955  0.0000E+00  0.2000E+01
    -16.883  0.0000E+00  0.2000E+01
    -16.810  0.0000E+00  0.2000E+01
    -16.738  0.0000E+00  0.2000E+01
    -16.666  0.0000E+00  0.2000E+01
    -16.594  0.0000E+00  0.2000E+01
    -16.521  0.0000E+00  0.2000E+01
    -16.449  0.0000E+00  0.2000E+01
    -16.377  0.0000E+00  0.2000E+01
    -16.305  0.1226E-05  0.2000E+01
    -16.233  0.8211E+00  0.2059E+01
    -16.160  0.3961E+01  0.2345E+01
    -16.088  0.2559E+01  0.2530E+01
    -16.016  0.4373E+01  0.2861E+01
    -15.944  0.1445E+01  0.2980E+01
    -15.871  0.2681E+01  0.3174E+01
    -15.799  0.1107E+01  0.3264E+01
    -15.727  0.7780E-01  0.3270E+01
    -15.655  0.4538E+01  0.3597E+01
    -15.582  0.1116E+01  0.3678E+01
    -15.510  0.1299E+01  0.3775E+01
    -15.438  0.2430E+01  0.3951E+01
    -15.366  0.2029E+01  0.4097E+01
    -15.294  0.4614E+01  0.4430E+01
    -15.221  0.5858E+00  0.4473E+01
    -15.149  0.3993E+01  0.4761E+01
    -15.077  0.4049E+01  0.5057E+01
    -15.005  0.3504E+01  0.5311E+01
    -14.932  0.1383E+01  0.5411E+01
    -14.860  0.3150E+01  0.5639E+01
    -14.788  0.1342E+01  0.5736E+01
    -14.716  0.2120E+01  0.5889E+01
    -14.644  0.1449E+01  0.5994E+01
    -14.571  0.8898E-01  0.6000E+01
    -14.499  0.0000E+00  0.6000E+01
    -14.427  0.0000E+00  0.6000E+01
    -14.355  0.0000E+00  0.6000E+01
    -14.282  0.0000E+00  0.6000E+01
    -14.210  0.0000E+00  0.6000E+01
    -14.138  0.0000E+00  0.6000E+01
    -14.066  0.0000E+00  0.6000E+01
    -13.994  0.0000E+00  0.6000E+01
    -13.921  0.0000E+00  0.6000E+01
    -13.849  0.0000E+00  0.6000E+01
    -13.777  0.0000E+00  0.6000E+01
    -13.705  0.0000E+00  0.6000E+01
    -13.632  0.0000E+00  0.6000E+01
    -13.560  0.0000E+00  0.6000E+01
    -13.488  0.0000E+00  0.6000E+01
    -13.416  0.0000E+00  0.6000E+01
    -13.344  0.0000E+00  0.6000E+01
    -13.271  0.0000E+00  0.6000E+01
    -13.199  0.0000E+00  0.6000E+01
    -13.127  0.0000E+00  0.6000E+01
    -13.055  0.0000E+00  0.6000E+01
    -12.982  0.0000E+00  0.6000E+01
    -12.910  0.0000E+00  0.6000E+01
    -12.838  0.4877E+00  0.6035E+01
    -12.766  0.1243E+01  0.6125E+01
    -12.694  0.2069E+01  0.6274E+01
    -12.621  0.3697E+01  0.6541E+01
    -12.549  0.2014E+01  0.6687E+01
    -12.477  0.1444E+01  0.6792E+01
    -12.405  0.3460E+01  0.7042E+01
    -12.332  0.3188E+01  0.7272E+01
    -12.260  0.6427E+01  0.7736E+01
    -12.188  0.1112E+01  0.7816E+01
    -12.116  0.2627E-08  0.7819E+01
    -12.044  0.1160E+01  0.7903E+01
    -11.971  0.1148E+01  0.7986E+01
    -11.899  0.2821E+01  0.8190E+01
    -11.827  0.1208E+01  0.8277E+01
    -11.755  0.1740E+01  0.8403E+01
    -11.682  0.1154E+01  0.8486E+01
    -11.610  0.0000E+00  0.8486E+01
    -11.538  0.1039E+01  0.8561E+01
    -11.466  0.7694E+00  0.8625E+01
    -11.394  0.4790E+01  0.8971E+01
    -11.321  0.9787E+00  0.9042E+01
    -11.249  0.6529E-01  0.9046E+01
    -11.177  0.2435E+01  0.9222E+01
    -11.105  0.9790E+00  0.9293E+01
    -11.032  0.3640E+01  0.9556E+01
    -10.960  0.2304E+01  0.9722E+01
    -10.888  0.7846E+00  0.9779E+01
    -10.816  0.1425E+01  0.9882E+01
    -10.744  0.2893E-04  0.9889E+01
    -10.671  0.4532E+01  0.1022E+02
    -10.599  0.0000E+00  0.1022E+02
    -10.527  0.1739E+00  0.1023E+02
    -10.455  0.4030E+00  0.1026E+02
    -10.382  0.5282E-11  0.1026E+02
    -10.310  0.2307E+01  0.1043E+02
    -10.238  0.0000E+00  0.1043E+02
    -10.166  0.9489E+00  0.1050E+02
    -10.094  0.2050E+00  0.1051E+02
    -10.021  0.0000E+00  0.1051E+02
     -9.949  0.4549E-07  0.1051E+02
     -9.877  0.1923E+00  0.1053E+02
     -9.805  0.2016E-12  0.1053E+02
     -9.732  0.3082E+01  0.1075E+02
     -9.660  0.1527E+01  0.1086E+02
     -9.588  0.2771E-07  0.1086E+02
     -9.516  0.1538E+01  0.1097E+02
     -9.444  0.1148E+01  0.1106E+02
     -9.371  0.1297E+01  0.1115E+02
     -9.299  0.2164E+01  0.1131E+02
     -9.227  0.0000E+00  0.1131E+02
     -9.155  0.7101E+00  0.1136E+02
     -9.082  0.4997E+01  0.1172E+02
     -9.010  0.1150E+01  0.1181E+02
     -8.938  0.4584E+01  0.1214E+02
     -8.866  0.1154E+01  0.1222E+02
     -8.794  0.2132E+01  0.1238E+02
     -8.721  0.1689E+00  0.1240E+02
     -8.649  0.1559E+01  0.1251E+02
     -8.577  0.0000E+00  0.1251E+02
     -8.505  0.6086E-03  0.1251E+02
     -8.432  0.3768E+01  0.1279E+02
     -8.360  0.6009E+01  0.1322E+02
     -8.288  0.4610E+01  0.1356E+02
     -8.216  0.1152E+01  0.1364E+02
     -8.144  0.6405E-16  0.1364E+02
     -8.071  0.1125E+01  0.1372E+02
     -7.999  0.1097E+01  0.1380E+02
     -7.927  0.4213E+01  0.1411E+02
     -7.855  0.6670E+00  0.1416E+02
     -7.782  0.2538E+01  0.1434E+02
     -7.710  0.3341E-05  0.1435E+02
     -7.638  0.3773E+01  0.1462E+02
     -7.566  0.6046E+01  0.1506E+02
     -7.494  0.1563E+01  0.1518E+02
     -7.421  0.5124E-15  0.1518E+02
     -7.349  0.2124E+01  0.1533E+02
     -7.277  0.2700E+01  0.1553E+02
     -7.205  0.4576E+01  0.1586E+02
     -7.132  0.2333E+01  0.1603E+02
     -7.060  0.1475E+01  0.1614E+02
     -6.988  0.4075E+01  0.1643E+02
     -6.916  0.9147E+00  0.1651E+02
     -6.844  0.1185E+01  0.1660E+02
     -6.771  0.3428E+01  0.1685E+02
     -6.699  0.1171E+01  0.1693E+02
     -6.627  0.2679E+01  0.1713E+02
     -6.555  0.4698E+01  0.1746E+02
     -6.482  0.6702E+01  0.1795E+02
     -6.410  0.2119E+01  0.1812E+02
     -6.338  0.2392E+01  0.1830E+02
     -6.266  0.5458E+01  0.1870E+02
     -6.194  0.3578E+01  0.1896E+02
     -6.121  0.5284E+01  0.1934E+02
     -6.049  0.5182E+00  0.1938E+02
     -5.977  0.5804E+00  0.1942E+02
     -5.905  0.4059E+01  0.1971E+02
     -5.832  0.2130E+01  0.1987E+02
     -5.760  0.0000E+00  0.1989E+02
     -5.688  0.6619E-01  0.1989E+02
     -5.616  0.4550E+01  0.2022E+02
     -5.544  0.1153E+01  0.2031E+02
     -5.471  0.1450E-01  0.2031E+02
     -5.399  0.3447E+01  0.2056E+02
     -5.327  0.2765E+00  0.2058E+02
     -5.255  0.3904E+01  0.2086E+02
     -5.182  0.4711E+01  0.2120E+02
     -5.110  0.1261E+01  0.2129E+02
     -5.038  0.1178E+02  0.2214E+02
     -4.966  0.1199E+02  0.2301E+02
     -4.894  0.1709E+01  0.2316E+02
     -4.821  0.6974E+01  0.2366E+02
     -4.749  0.4937E+01  0.2403E+02
     -4.677  0.0000E+00  0.2403E+02
     -4.605  0.9045E+00  0.2409E+02
     -4.532  0.2557E+01  0.2428E+02
     -4.460  0.3319E+01  0.2452E+02
     -4.388  0.4587E+01  0.2485E+02
     -4.316  0.2479E+01  0.2503E+02
     -4.244  0.1128E+01  0.2511E+02
     -4.171  0.8605E+00  0.2517E+02
     -4.099  0.1042E+01  0.2525E+02
     -4.027  0.5312E+01  0.2563E+02
     -3.955  0.4427E+01  0.2595E+02
     -3.882  0.1298E+01  0.2605E+02
     -3.810  0.5522E+01  0.2644E+02
     -3.738  0.2304E+01  0.2661E+02
     -3.666  0.5665E+00  0.2665E+02
     -3.594  0.8083E+01  0.2724E+02
     -3.521  0.5762E+01  0.2765E+02
     -3.449  0.3462E+01  0.2790E+02
     -3.377  0.1867E+01  0.2804E+02
     -3.305  0.6447E+01  0.2850E+02
     -3.232  0.6775E+01  0.2899E+02
     -3.160  0.2575E+01  0.2919E+02
     -3.088  0.3616E+00  0.2922E+02
     -3.016  0.6567E+00  0.2927E+02
     -2.944  0.1713E+01  0.2939E+02
     -2.871  0.3050E+01  0.2961E+02
     -2.799  0.3494E+00  0.2964E+02
     -2.727  0.5915E+00  0.2968E+02
     -2.655  0.1714E+01  0.2981E+02
     -2.582  0.1154E+01  0.2989E+02
     -2.510  0.1154E+01  0.2997E+02
     -2.438  0.3846E+00  0.3000E+02
     -2.366  0.0000E+00  0.3000E+02
     -2.294  0.0000E+00  0.3000E+02
     -2.221  0.0000E+00  0.3000E+02
     -2.149  0.0000E+00  0.3000E+02
     -2.077  0.0000E+00  0.3000E+02
     -2.005  0.0000E+00  0.3000E+02
     -1.932  0.0000E+00  0.3000E+02
     -1.860  0.3493E-07  0.3000E+02
     -1.788  0.9456E+00  0.3007E+02
     -1.716  0.7852E+00  0.3013E+02
     -1.644  0.1154E+01  0.3021E+02
     -1.571  0.2286E+01  0.3037E+02
     -1.499  0.2308E+01  0.3054E+02
     -1.427  0.3461E+01  0.3079E+02
     -1.355  0.4917E-12  0.3079E+02
     -1.282  0.2974E+01  0.3101E+02
     -1.210  0.6348E+00  0.3105E+02
     -1.138  0.3652E+01  0.3132E+02
     -1.066  0.4199E+01  0.3162E+02
     -0.994  0.0000E+00  0.3162E+02
     -0.921  0.2690E-14  0.3162E+02
     -0.849  0.1182E+01  0.3171E+02
     -0.777  0.1116E+01  0.3179E+02
     -0.705  0.0000E+00  0.3179E+02
     -0.632  0.8511E-01  0.3180E+02
     -0.560  0.2415E+01  0.3197E+02
     -0.488  0.0000E+00  0.3197E+02
     -0.416  0.0000E+00  0.3197E+02
     -0.344  0.0000E+00  0.3197E+02
     -0.271  0.0000E+00  0.3197E+02
     -0.199  0.0000E+00  0.3197E+02
     -0.127  0.0000E+00  0.3197E+02
     -0.055  0.4713E-01  0.3198E+02
      0.018  0.7221E+00  0.3203E+02
      0.090  0.0000E+00  0.3203E+02
      0.162  0.0000E+00  0.3203E+02
      0.234  0.0000E+00  0.3203E+02
      0.306  0.0000E+00  0.3203E+02
      0.379  0.0000E+00  0.3203E+02
      0.451  0.0000E+00  0.3203E+02
      0.523  0.2094E+01  0.3218E+02
      0.595  0.0000E+00  0.3219E+02
      0.668  0.0000E+00  0.3219E+02
      0.740  0.1532E+00  0.3221E+02
      0.812  0.1001E+01  0.3228E+02
      0.884  0.0000E+00  0.3228E+02
      0.956  0.0000E+00  0.3228E+02
      1.029  0.6134E-02  0.3228E+02
      1.101  0.5949E+01  0.3271E+02
      1.173  0.2467E+01  0.3289E+02
      1.245  0.1194E+01  0.3298E+02
      1.318  0.2480E+01  0.3315E+02
      1.390  0.1933E+01  0.3329E+02
      1.462  0.2466E+01  0.3347E+02
      1.534  0.7388E+00  0.3353E+02
      1.606  0.2723E+01  0.3372E+02
      1.679  0.2308E+01  0.3389E+02
      1.751  0.4699E-07  0.3389E+02
      1.823  0.1346E+01  0.3399E+02
      1.895  0.9793E+00  0.3406E+02
      1.968  0.3379E+01  0.3430E+02
      2.040  0.1983E+01  0.3444E+02
      2.112  0.1364E+01  0.3454E+02
      2.184  0.2244E+01  0.3470E+02
      2.256  0.1101E+01  0.3479E+02
      2.329  0.2307E+01  0.3496E+02
      2.401  0.1140E+01  0.3504E+02
      2.473  0.3461E+01  0.3529E+02
      2.545  0.9391E+00  0.3536E+02
      2.618  0.3676E+01  0.3562E+02
      2.690  0.2978E-13  0.3562E+02
      2.762  0.1150E+01  0.3571E+02
      2.834  0.3480E+01  0.3596E+02
      2.906  0.4743E+01  0.3630E+02
      2.979  0.2251E+00  0.3633E+02
      3.051  0.2302E+01  0.3650E+02
      3.123  0.9933E+00  0.3657E+02
      3.195  0.1528E+01  0.3668E+02
      3.268  0.2094E+01  0.3683E+02
      3.340  0.5161E+01  0.3721E+02
      3.412  0.2914E+01  0.3742E+02
      3.484  0.1332E-02  0.3742E+02
      3.556  0.2306E+01  0.3758E+02
      3.629  0.2423E-05  0.3758E+02
      3.701  0.2308E+01  0.3775E+02
      3.773  0.1111E+01  0.3783E+02
      3.845  0.4613E+01  0.3817E+02
      3.918  0.1499E+01  0.3827E+02
      3.990  0.3117E+01  0.3850E+02
      4.062  0.7405E+00  0.3855E+02
      4.134  0.2711E+01  0.3875E+02
      4.206  0.4859E-09  0.3875E+02
      4.279  0.2364E+01  0.3892E+02
      4.351  0.1166E+01  0.3900E+02
      4.423  0.3225E+01  0.3924E+02
      4.495  0.2447E+01  0.3941E+02
      4.568  0.1041E+01  0.3949E+02
      4.640  0.2613E+01  0.3968E+02
      4.712  0.1517E+01  0.3979E+02
      4.784  0.4325E+01  0.4010E+02
      4.856  0.4542E+01  0.4043E+02
      4.929  0.2308E+01  0.4060E+02
      5.001  0.1011E+01  0.4067E+02
      5.073  0.2308E+01  0.4085E+02
      5.145  0.2651E+01  0.4104E+02
      5.218  0.7678E+01  0.4159E+02
      5.290  0.1849E-06  0.4160E+02
      5.362  0.2391E+01  0.4177E+02
      5.434  0.1070E+01  0.4185E+02
      5.506  0.2808E+01  0.4205E+02
      5.579  0.2680E+01  0.4224E+02
      5.651  0.6487E+01  0.4272E+02
      5.723  0.6462E+00  0.4278E+02
      5.795  0.3184E+01  0.4301E+02
      5.868  0.6263E+00  0.4306E+02
      5.940  0.5851E+01  0.4348E+02
      6.012  0.3694E+01  0.4375E+02
      6.084  0.3394E+01  0.4400E+02
      6.156  0.4408E+01  0.4432E+02
      6.229  0.1772E+01  0.4444E+02
      6.301  0.4618E+01  0.4478E+02
      6.373  0.3825E+01  0.4505E+02
      6.445  0.1122E+01  0.4514E+02
      6.518  0.6639E+01  0.4562E+02
      6.590  0.1051E+02  0.4640E+02
      6.662  0.1155E+01  0.4650E+02
      6.734  0.6846E+00  0.4655E+02
      6.806  0.1131E+02  0.4737E+02
      6.879  0.5821E+00  0.4742E+02
      6.951  0.7823E+01  0.4798E+02
      7.023  0.3127E+01  0.4821E+02
      7.095  0.7481E+01  0.4875E+02
      7.168  0.4705E+01  0.4910E+02
      7.240  0.3794E+01  0.4937E+02
      7.312  0.6880E+01  0.4987E+02
      7.384  0.2309E+01  0.5003E+02
      7.456  0.4651E+01  0.5037E+02
      7.529  0.1171E+02  0.5122E+02
      7.601  0.9149E+01  0.5188E+02
      7.673  0.3599E+01  0.5214E+02
      7.745  0.1181E+01  0.5223E+02
      7.818  0.4596E+01  0.5257E+02
      7.890  0.2724E+01  0.5278E+02
      7.962  0.4639E+01  0.5311E+02
      8.034  0.9559E+01  0.5380E+02
      8.106  0.7170E+01  0.5432E+02
      8.179  0.7791E+01  0.5488E+02
      8.251  0.1172E+02  0.5573E+02
      8.323  0.9035E+00  0.5581E+02
      8.395  0.9754E+01  0.5652E+02
      8.468  0.5512E+01  0.5693E+02
      8.540  0.3580E+01  0.5719E+02
      8.612  0.8071E+01  0.5778E+02
      8.684  0.1169E+02  0.5862E+02
      8.756  0.9868E+01  0.5934E+02
      8.829  0.2026E+01  0.5949E+02
      8.901  0.3993E+01  0.5977E+02
      8.973  0.4273E+01  0.6008E+02
      9.045  0.4879E+01  0.6044E+02
      9.118  0.7942E+01  0.6101E+02
      9.190  0.6541E+01  0.6149E+02
      9.262  0.8650E+01  0.6211E+02
      9.334  0.4990E+01  0.6249E+02
      9.406  0.6215E+01  0.6294E+02
      9.479  0.9657E+01  0.6363E+02
      9.551  0.9587E+01  0.6434E+02
      9.623  0.4876E+00  0.6438E+02
      9.695  0.5044E+01  0.6474E+02
      9.768  0.9741E+01  0.6545E+02
      9.840  0.7171E+01  0.6597E+02
      9.912  0.4479E+01  0.6629E+02
      9.984  0.5048E+01  0.6666E+02
     10.056  0.1331E+01  0.6675E+02
     10.129  0.2402E+01  0.6693E+02
     10.201  0.4494E+01  0.6725E+02
     10.273  0.6277E+01  0.6770E+02
     10.345  0.3515E+01  0.6796E+02
     10.418  0.8921E+01  0.6860E+02
     10.490  0.5679E+01  0.6903E+02
     10.562  0.3362E+01  0.6927E+02
     10.634  0.6878E+01  0.6977E+02
     10.706  0.1464E+01  0.6987E+02
     10.779  0.5382E+01  0.7026E+02
     10.851  0.4611E+01  0.7060E+02
     10.923  0.4533E+01  0.7092E+02
     10.995  0.1762E+01  0.7106E+02
     11.068  0.9373E+01  0.7174E+02
     11.140  0.7434E+01  0.7227E+02
     11.212  0.1751E+00  0.7231E+02
     11.284  0.1222E+01  0.7239E+02
     11.356  0.5929E+01  0.7282E+02
     11.429  0.5118E+01  0.7319E+02
     11.501  0.1369E-06  0.7319E+02
     11.573  0.2716E+01  0.7339E+02
     11.645  0.3054E+01  0.7361E+02
     11.718  0.6239E+01  0.7406E+02
     11.790  0.4489E+01  0.7439E+02
     11.862  0.4660E+01  0.7473E+02
     11.934  0.9836E+01  0.7544E+02
     12.006  0.5440E+01  0.7583E+02
     12.079  0.6109E+01  0.7627E+02
     12.151  0.1515E+02  0.7737E+02
     12.223  0.8887E+01  0.7803E+02
     12.295  0.4224E+01  0.7833E+02
     12.368  0.7095E+01  0.7885E+02
     12.440  0.5905E+01  0.7928E+02
     12.512  0.1229E+01  0.7937E+02
     12.584  0.8732E+01  0.8000E+02
     12.656  0.5817E+01  0.8042E+02
     12.729  0.7239E+01  0.8094E+02
     12.801  0.1156E+01  0.8103E+02
     12.873  0.6299E+01  0.8148E+02
     12.945  0.5689E+01  0.8190E+02
     13.018  0.9896E+01  0.8262E+02
     13.090  0.6358E+01  0.8308E+02
     13.162  0.3845E+01  0.8337E+02
     13.234  0.4514E+01  0.8370E+02
     13.306  0.1008E+02  0.8443E+02
     13.379  0.3106E+01  0.8465E+02
     13.451  0.3461E+01  0.8490E+02
     13.523  0.4500E+01  0.8523E+02
     13.595  0.5564E+01  0.8563E+02
     13.668  0.4521E+01  0.8597E+02
     13.740  0.5084E+01  0.8634E+02
     13.812  0.7785E+01  0.8690E+02
     13.884  0.7924E+01  0.8748E+02
     13.956  0.8997E+01  0.8813E+02
     14.029  0.7198E+01  0.8867E+02
     14.101  0.6072E+01  0.8912E+02
     14.173  0.4815E+01  0.8947E+02
     14.245  0.8192E+01  0.9006E+02
     14.318  0.1065E+02  0.9083E+02
     14.390  0.1101E+02  0.9163E+02
     14.462  0.2823E+01  0.9183E+02
     14.534  0.9675E+01  0.9253E+02
     14.606  0.8884E+00  0.9260E+02
     14.679  0.7239E+01  0.9312E+02
     14.751  0.3352E+01  0.9337E+02
     14.823  0.2548E+00  0.9339E+02
     14.895  0.6819E+01  0.9388E+02
     14.968  0.7824E+01  0.9447E+02
     15.040  0.5340E+01  0.9486E+02
     15.112  0.7922E+01  0.9543E+02
     15.184  0.3459E+01  0.9568E+02
     15.256  0.5189E+01  0.9606E+02
     15.329  0.3965E+01  0.9634E+02
     15.401  0.3367E+01  0.9659E+02
     15.473  0.4146E+01  0.9689E+02
     15.545  0.3469E+01  0.9714E+02
     15.618  0.1305E+01  0.9723E+02
     15.690  0.5841E+01  0.9766E+02
     15.762  0.9579E+01  0.9835E+02
     15.834  0.1817E+01  0.9849E+02
     15.906  0.4495E+01  0.9882E+02
     15.979  0.3776E+01  0.9909E+02
     16.051  0.6652E+01  0.9957E+02
     16.123  0.6675E+01  0.1001E+03
     16.195  0.8409E+01  0.1007E+03
     16.268  0.2389E+01  0.1008E+03
     16.340  0.3598E+01  0.1011E+03
     16.412  0.4828E+01  0.1014E+03
     16.484  0.6201E+01  0.1019E+03
     16.556  0.6893E+01  0.1024E+03
     16.629  0.1123E+02  0.1032E+03
     16.701  0.7231E+01  0.1037E+03
     16.773  0.4662E+01  0.1041E+03
     16.845  0.6582E+01  0.1045E+03
     16.918  0.8366E+01  0.1052E+03
     16.990  0.1195E+01  0.1052E+03
     17.062  0.8964E+01  0.1059E+03
     17.134  0.1087E+02  0.1067E+03
     17.206  0.7238E+01  0.1072E+03
     17.279  0.1196E+02  0.1081E+03
     17.351  0.4523E+01  0.1084E+03
     17.423  0.4528E+01  0.1087E+03
     17.495  0.1220E+02  0.1096E+03
     17.568  0.8275E+01  0.1102E+03
     17.640  0.7182E+01  0.1108E+03
     17.712  0.2024E+01  0.1109E+03
     17.784  0.4326E+01  0.1112E+03
     17.856  0.4486E+01  0.1115E+03
     17.929  0.1279E+01  0.1116E+03
     18.001  0.8955E+01  0.1123E+03
     18.073  0.7407E+01  0.1128E+03
     18.145  0.5377E+01  0.1132E+03
     18.218  0.8856E+01  0.1139E+03
     18.290  0.2954E+01  0.1141E+03
     18.362  0.1735E+01  0.1142E+03
     18.434  0.9352E+01  0.1149E+03
     18.506  0.1036E+02  0.1157E+03
     18.579  0.6914E+01  0.1162E+03
     18.651  0.8684E+01  0.1168E+03
     18.723  0.6731E+01  0.1173E+03
     18.795  0.1231E+01  0.1174E+03
     18.868  0.1177E+02  0.1182E+03
     18.940  0.5781E+01  0.1186E+03
     19.012  0.1018E+02  0.1194E+03
     19.084  0.2653E+01  0.1196E+03
     19.156  0.1050E+02  0.1203E+03
     19.229  0.7212E+01  0.1209E+03
     19.301  0.8185E+01  0.1215E+03
     19.373  0.8458E+01  0.1221E+03
     19.445  0.1018E+02  0.1228E+03
     19.518  0.2277E+01  0.1230E+03
     19.590  0.7146E+01  0.1235E+03
     19.662  0.1194E+02  0.1244E+03
     19.734  0.7881E+01  0.1249E+03
     19.806  0.6539E+01  0.1254E+03
     19.879  0.8298E+01  0.1260E+03
     19.951  0.9605E+01  0.1267E+03
     20.023  0.4876E+01  0.1271E+03
     20.095  0.1392E+02  0.1281E+03
     20.168  0.6746E+01  0.1286E+03
     20.240  0.8841E+01  0.1292E+03
     20.312  0.4212E+01  0.1296E+03
     20.384  0.1353E+02  0.1305E+03
     20.456  0.6884E+01  0.1310E+03
     20.529  0.5382E+01  0.1314E+03
     20.601  0.6176E+01  0.1319E+03
     20.673  0.1780E+02  0.1332E+03
     20.745  0.1010E+02  0.1339E+03
     20.818  0.3456E+01  0.1342E+03
     20.890  0.3037E+01  0.1344E+03
     20.962  0.1061E+02  0.1351E+03
     21.034  0.7614E+01  0.1357E+03
     21.106  0.1060E+02  0.1365E+03
     21.179  0.9318E+01  0.1371E+03
     21.251  0.3668E+01  0.1374E+03
     21.323  0.4925E+01  0.1378E+03
     21.395  0.1957E+01  0.1379E+03
     21.468  0.1477E+02  0.1390E+03
     21.540  0.9498E+01  0.1397E+03
     21.612  0.2762E+01  0.1399E+03
     21.684  0.6348E+01  0.1404E+03
     21.756  0.9995E+01  0.1411E+03
     21.829  0.1484E+01  0.1412E+03
     21.901  0.2316E+01  0.1414E+03
     21.973  0.8045E+01  0.1419E+03
     22.045  0.7258E+01  0.1425E+03
     22.118  0.5461E+01  0.1429E+03
     22.190  0.9415E+01  0.1436E+03
     22.262  0.6056E+01  0.1440E+03
     22.334  0.7511E+01  0.1445E+03
     22.406  0.2342E+01  0.1447E+03
     22.479  0.2927E+01  0.1449E+03
     22.551  0.5495E+01  0.1453E+03
     22.623  0.4175E+01  0.1456E+03
     22.695  0.5154E+01  0.1460E+03
     22.768  0.6922E+01  0.1465E+03
     22.840  0.3452E+01  0.1467E+03
     22.912  0.6356E+01  0.1472E+03
     22.984  0.1040E+02  0.1480E+03
     23.056  0.3906E+01  0.1482E+03
     23.129  0.6763E+01  0.1487E+03
     23.201  0.9290E+01  0.1494E+03
     23.273  0.8568E+01  0.1500E+03
     23.345  0.5319E+01  0.1504E+03
     23.418  0.5422E+01  0.1508E+03
     23.490  0.3975E+01  0.1511E+03
     23.562  0.6392E+01  0.1516E+03
     23.634  0.8378E+01  0.1522E+03
     23.706  0.2670E+01  0.1524E+03
     23.779  0.1593E+01  0.1525E+03
     23.851  0.1236E+02  0.1534E+03
     23.923  0.5297E+01  0.1538E+03
     23.995  0.6050E+01  0.1542E+03
     24.068  0.7859E+01  0.1548E+03
     24.140  0.1453E+02  0.1558E+03
     24.212  0.1964E+01  0.1560E+03
     24.284  0.1786E+02  0.1573E+03
     24.356  0.3442E+01  0.1576E+03
     24.429  0.1782E+01  0.1577E+03
     24.501  0.6325E+01  0.1581E+03
     24.573  0.1578E+02  0.1593E+03
     24.645  0.7724E+01  0.1599E+03
     24.718  0.5066E+01  0.1602E+03
     24.790  0.6919E+01  0.1607E+03
     24.862  0.7880E+01  0.1613E+03
     24.934  0.6047E+01  0.1617E+03
     25.006  0.7953E+01  0.1623E+03
     25.079  0.9478E+01  0.1630E+03
     25.151  0.7330E+01  0.1636E+03
     25.223  0.7253E+01  0.1641E+03
     25.295  0.9678E+01  0.1648E+03
     25.368  0.1283E+02  0.1657E+03
     25.440  0.6187E+01  0.1662E+03
     25.512  0.6847E+01  0.1666E+03
     25.584  0.6019E+01  0.1671E+03
     25.656  0.3421E+01  0.1673E+03
     25.729  0.7346E+01  0.1679E+03
     25.801  0.4693E+01  0.1682E+03
     25.873  0.6933E+01  0.1687E+03
     25.945  0.7717E+01  0.1693E+03
     26.018  0.1204E+02  0.1701E+03
     26.090  0.3193E+01  0.1704E+03
     26.162  0.4616E+01  0.1707E+03
     26.234  0.8262E+01  0.1713E+03
     26.306  0.9850E+01  0.1720E+03
     26.379  0.6063E+01  0.1725E+03
     26.451  0.8018E+01  0.1730E+03
     26.523  0.1324E+02  0.1740E+03
     26.595  0.3020E+00  0.1740E+03
     26.668  0.5236E+01  0.1744E+03
     26.740  0.7552E+01  0.1749E+03
     26.812  0.1266E+02  0.1759E+03
     26.884  0.2479E+01  0.1760E+03
     26.956  0.1267E+02  0.1770E+03
     27.029  0.3902E+01  0.1772E+03
     27.101  0.1591E+02  0.1784E+03
     27.173  0.1212E+02  0.1793E+03
     27.245  0.7116E+01  0.1798E+03
     27.318  0.8198E+01  0.1804E+03
     27.390  0.3430E+01  0.1806E+03
     27.462  0.8033E+01  0.1812E+03
     27.534  0.9417E+01  0.1819E+03
     27.606  0.5725E+01  0.1823E+03
     27.679  0.3714E+01  0.1826E+03
     27.751  0.7750E+01  0.1831E+03
     27.823  0.2693E+01  0.1833E+03
     27.895  0.5612E+01  0.1837E+03
     27.968  0.3678E+01  0.1840E+03
     28.040  0.9799E+01  0.1847E+03
     28.112  0.1290E+02  0.1857E+03
     28.184  0.1117E+02  0.1865E+03
     28.256  0.6656E+01  0.1870E+03
     28.329  0.8214E+01  0.1876E+03
     28.401  0.1705E+01  0.1877E+03
     28.473  0.2910E+01  0.1879E+03
     28.545  0.1357E+01  0.1880E+03
     28.618  0.3246E+01  0.1882E+03
     28.690  0.4529E+01  0.1886E+03
     28.762  0.1166E+01  0.1887E+03
     28.834  0.2705E+01  0.1889E+03
     28.906  0.3828E+01  0.1891E+03
     28.979  0.3770E+01  0.1894E+03
     29.051  0.6282E+01  0.1899E+03
     29.123  0.3987E+01  0.1902E+03
     29.195  0.5617E+01  0.1906E+03
     29.268  0.7795E+01  0.1911E+03
     29.340  0.7941E+00  0.1912E+03
     29.412  0.7266E+01  0.1917E+03
     29.484  0.7112E+01  0.1922E+03
     29.556  0.8392E+01  0.1929E+03
     29.629  0.7492E+01  0.1934E+03
     29.701  0.8338E+01  0.1940E+03
     29.773  0.7160E+01  0.1945E+03
     29.845  0.8453E+01  0.1951E+03
     29.918  0.1036E+02  0.1959E+03
     29.990  0.1037E+02  0.1966E+03
     30.062  0.6584E+01  0.1971E+03
     30.134  0.1322E+02  0.1981E+03
     30.206  0.1267E+02  0.1990E+03
     30.279  0.1257E+02  0.1999E+03
     30.351  0.7681E+01  0.2005E+03
     30.423  0.1138E+02  0.2013E+03
     30.495  0.1258E+02  0.2022E+03
     30.568  0.8321E+01  0.2028E+03
     30.640  0.8632E+01  0.2034E+03
     30.712  0.8898E+01  0.2041E+03
     30.784  0.8257E+01  0.2047E+03
     30.856  0.3400E+01  0.2049E+03
     30.929  0.9719E+01  0.2056E+03
     31.001  0.1047E+02  0.2064E+03
     31.073  0.4635E+01  0.2067E+03
     31.145  0.8014E+01  0.2073E+03
     31.218  0.6814E+01  0.2078E+03
     31.290  0.4553E+01  0.2081E+03
     31.362  0.7490E+01  0.2087E+03
     31.434  0.1373E+02  0.2097E+03
     31.506  0.9974E+01  0.2104E+03
     31.579  0.1130E+02  0.2112E+03
     31.651  0.6488E+01  0.2117E+03
     31.723  0.9036E+01  0.2123E+03
     31.795  0.4656E+01  0.2127E+03
     31.868  0.4544E+01  0.2130E+03
     31.940  0.1045E+02  0.2138E+03
     32.012  0.5076E+01  0.2141E+03
     32.084  0.7871E+01  0.2147E+03
     32.156  0.6211E+01  0.2152E+03
     32.229  0.9498E+01  0.2159E+03
     32.301  0.9117E+01  0.2165E+03
     32.373  0.1072E+02  0.2173E+03
     32.445  0.7734E+01  0.2179E+03
     32.518  0.9243E+01  0.2186E+03
     32.590  0.1128E+02  0.2194E+03
     32.662  0.1062E+02  0.2201E+03
     32.734  0.5555E+01  0.2205E+03
     32.806  0.1039E+02  0.2213E+03
     32.879  0.6232E+01  0.2217E+03
     32.951  0.7833E+01  0.2223E+03
     33.023  0.2762E+01  0.2225E+03
     33.095  0.1313E+02  0.2235E+03
     33.168  0.7159E+01  0.2240E+03