    8    8    1    1
  0.5796174E+02  0.5174000E-09  0.5174160E-09  0.2000000E-08  0.5000000E-15
  1.000000000000000E-004
  CAR 
 BC3                                     
     30     96     24
 
 -0.3330000E+00  0.6670000E+00  0.0000000E+00  0.1041667E-01
    1      -19.831336   1.000000
    2      -17.571683   1.000000
    3      -16.699227   1.000000
    4      -14.448752   1.000000
    5      -12.803340   1.000000
    6      -11.261880   1.000000
    7       -9.760794   1.000000
    8       -9.746113   1.000000
    9       -8.421096   1.000000
   10       -8.241884   1.000000
   11       -6.647824   1.000000
   12       -6.317429   1.000000
   13       -6.108485   1.000000
   14       -5.048955   1.000000
   15       -5.020723   1.000000
   16       -3.417214   0.000862
   17        0.089870   0.000000
   18        0.809672   0.000000
   19        1.239431   0.000000
   20        1.991336   0.000000
   21        2.321542   0.000000
   22        2.681892   0.000000
   23        3.346872   0.000000
   24        3.668489   0.000000
 
 -0.3222581E+00  0.6454839E+00  0.0000000E+00  0.1041667E-01
    1      -19.819012   1.000000
    2      -17.592558   1.000000
    3      -16.721218   1.000000
    4      -14.433904   1.000000
    5      -12.794370   1.000000
    6      -11.196955   1.000000
    7       -9.807448   1.000000
    8       -9.689657   1.000000
    9       -8.397872   1.000000
   10       -8.261973   1.000000
   11       -6.658925   1.000000
   12       -6.347677   1.000000
   13       -6.161435   1.000000
   14       -5.083402   1.000000
   15       -5.055138   1.000000
   16       -3.397177   0.000527
   17        0.030537   0.000000
   18        0.913196   0.000000
   19        1.271749   0.000000
   20        2.027755   0.000000
   21        2.354400   0.000000
   22        2.741194   0.000000
   23        3.380837   0.000000
   24        3.621888   0.000000
 
 -0.3115161E+00  0.6239677E+00  0.0000000E+00  0.1041667E-01
    1      -19.802171   1.000000
    2      -17.610288   1.000000
    3      -16.772581   1.000000
    4      -14.377270   1.000000
    5      -12.820563   1.000000
    6      -11.090561   1.000000
    7       -9.882554   1.000000
    8       -9.619363   1.000000
    9       -8.366173   1.000000
   10       -8.251316   1.000000
   11       -6.706458   1.000000
   12       -6.372106   1.000000
   13       -6.213963   1.000000
   14       -5.172511   1.000000
   15       -5.118461   1.000000
   16       -3.322959   0.000072
   17       -0.118345   0.000000
   18        1.125689   0.000000
   19        1.316045   0.000000
   20        2.079119   0.000000
   21        2.399379   0.000000
   22        2.797665   0.000000
   23        3.425725   0.000000
   24        3.588173   0.000000
 
 -0.3007742E+00  0.6024516E+00  0.0000000E+00  0.1041667E-01
    1      -19.781179   1.000000
    2      -17.624848   1.000000
    3      -16.847280   1.000000
    4      -14.285353   1.000000
    5      -12.872044   1.000000
    6      -10.954510   1.000000
    7       -9.977928   1.000000
    8       -9.536603   1.000000
    9       -8.326250   1.000000
   10       -8.215713   1.000000
   11       -6.786972   1.000000
   12       -6.390983   1.000000
   13       -6.266540   1.000000
   14       -5.301042   1.000000
   15       -5.208479   1.000000
   16       -3.209318   0.000002
   17       -0.293293   0.000000
   18        1.372291   0.000000
   19        1.380723   0.000000
   20        2.147657   0.000000
   21        2.456464   0.000000
   22        2.850433   0.000000
   23        3.481343   0.000000
   24        3.566284   0.000000
 
 -0.2900323E+00  0.5809355E+00  0.0000000E+00  0.1041667E-01
    1      -19.756572   1.000000
    2      -17.636773   1.000000
    3      -16.937139   1.000000
    4      -14.167437   1.000000
    5      -12.937451   1.000000
    6      -10.805331   1.000000
    7      -10.080641   1.000000
    8       -9.441654   1.000000
    9       -8.278538   1.000000
   10       -8.164381   1.000000
   11       -6.893156   1.000000
   12       -6.405395   1.000000
   13       -6.321630   1.000000
   14       -5.452231   1.000000
   15       -5.321162   1.000000
   16       -3.073063   0.000000
   17       -0.469062   0.000000
   18        1.440441   0.000000
   19        1.647568   0.000000
   20        2.238874   0.000000
   21        2.525652   0.000000
   22        2.898259   0.000000
   23        3.547686   0.000000
   24        3.556172   0.000000
 
 -0.2792903E+00  0.5594194E+00  0.0000000E+00  0.1041667E-01
    1      -19.729070   1.000000
    2      -17.647306   1.000000
    3      -17.033394   1.000000
    4      -14.034683   1.000000
    5      -13.005579   1.000000
    6      -10.670793   1.000000
    7      -10.165209   1.000000
    8       -9.334594   1.000000
    9       -8.223620   1.000000
   10       -8.109076   1.000000
   11       -7.014845   1.000000
   12       -6.417604   1.000000
   13       -6.382138   1.000000
   14       -5.611409   1.000000
   15       -5.450396   1.000000
   16       -2.928831   0.000000
   17       -0.634156   0.000000
   18        1.520440   0.000000
   19        1.902762   0.000000
   20        2.365899   0.000000
   21        2.606932   0.000000
   22        2.939843   0.000000
   23        3.557747   0.000000
   24        3.624980   0.000000
 
 -0.2685484E+00  0.5379032E+00  0.0000000E+00  0.1041667E-01
    1      -19.699632   1.000000
    2      -17.658740   1.000000
    3      -17.127194   1.000000
    4      -13.901252   1.000000
    5      -13.063912   1.000000
    6      -10.610105   1.000000
    7      -10.173730   1.000000
    8       -9.215745   1.000000
    9       -8.162379   1.000000
   10       -8.065054   1.000000
   11       -7.138249   1.000000
   12       -6.450796   1.000000
   13       -6.432450   1.000000
   14       -5.765088   1.000000
   15       -5.587855   1.000000
   16       -2.789399   0.000000
   17       -0.780654   0.000000
   18        1.612236   0.000000
   19        2.118546   0.000000
   20        2.550461   0.000000
   21        2.700295   0.000000
   22        2.973182   0.000000
   23        3.570916   0.000000
   24        3.713517   0.000000
 
 -0.2578065E+00  0.5163871E+00  0.0000000E+00  0.1041667E-01
    1      -19.669505   1.000000
    2      -17.674656   1.000000
    3      -17.209447   1.000000
    4      -13.787430   1.000000
    5      -13.095111   1.000000
    6      -10.656581   1.000000
    7      -10.073564   1.000000
    8       -9.086618   1.000000
    9       -8.096248   1.000000
   10       -8.052158   1.000000
   11       -7.245001   1.000000
   12       -6.529693   1.000000
   13       -6.458965   1.000000
   14       -5.897839   1.000000
   15       -5.722718   1.000000
   16       -2.666895   0.000000
   17       -0.900863   0.000000
   18        1.715777   0.000000
   19        2.284969   0.000000
   20        2.797245   0.000000
   21        2.805732   0.000000
   22        2.996533   0.000000
   23        3.595482   0.000000
   24        3.813321   0.000000
 
 -0.2470645E+00  0.4948710E+00  0.0000000E+00  0.1041667E-01
    1      -19.640244   1.000000
    2      -17.699136   1.000000
    3      -17.271370   1.000000
    4      -13.718830   1.000000
    5      -13.077824   1.000000
    6      -10.750328   1.000000
    7       -9.924426   1.000000
    8       -8.952653   1.000000
    9       -8.086587   1.000000
   10       -8.027312   1.000000
   11       -7.319509   1.000000
   12       -6.618085   1.000000
   13       -6.509641   1.000000
   14       -5.991767   1.000000
   15       -5.842316   1.000000
   16       -2.573152   0.000000
   17       -0.986168   0.000000
   18        1.831019   0.000000
   19        2.420530   0.000000
   20        2.923238   0.000000
   21        3.009006   0.000000
   22        3.081912   0.000000
   23        3.551421   0.000000
   24        3.633302   0.000000
 
 -0.2363226E+00  0.4733548E+00  0.0000000E+00  0.1041667E-01
    1      -19.613742   1.000000
    2      -17.733715   1.000000
    3      -17.307300   1.000000
    4      -13.707248   1.000000
    5      -13.006206   1.000000
    6      -10.847721   1.000000
    7       -9.768815   1.000000
    8       -8.831488   1.000000
    9       -8.154953   1.000000
   10       -7.958984   1.000000
   11       -7.370051   1.000000
   12       -6.707192   1.000000
   13       -6.589405   1.000000
   14       -6.036476   1.000000
   15       -5.934810   1.000000
   16       -2.518263   0.000000
   17       -1.029532   0.000000
   18        1.957923   0.000000
   19        2.537323   0.000000
   20        3.015720   0.000000
   21        3.052800   0.000000
   22        3.289155   0.000000
   23        3.377905   0.000000
   24        3.680199   0.000000
 
 -0.2255806E+00  0.4518387E+00  0.0000000E+00  0.1041667E-01
    1      -19.592183   1.000000
    2      -17.774183   1.000000
    3      -17.317711   1.000000
    4      -13.737144   1.000000
    5      -12.903987   1.000000
    6      -10.928811   1.000000
    7       -9.625370   1.000000
    8       -8.771162   1.000000
    9       -8.191595   1.000000
   10       -7.896789   1.000000
   11       -7.432610   1.000000
   12       -6.776619   1.000000
   13       -6.684553   1.000000
   14       -6.038856   1.000000
   15       -5.992218   1.000000
   16       -2.506383   0.000000
   17       -1.029389   0.000000
   18        2.096450   0.000000
   19        2.626092   0.000000
   20        3.030302   0.000000
   21        3.037017   0.000000
   22        3.194454   0.000000
   23        3.648530   0.000000
   24        3.827479   0.000000
 
 -0.2148387E+00  0.4303226E+00  0.0000000E+00  0.1041667E-01
    1      -19.577875   1.000000
    2      -17.812235   1.000000
    3      -17.307564   1.000000
    4      -13.787305   1.000000
    5      -12.802850   1.000000
    6      -10.979317   1.000000
    7       -9.511922   1.000000
    8       -8.817664   1.000000
    9       -8.126565   1.000000
   10       -7.849336   1.000000
   11       -7.535061   1.000000
   12       -6.808828   1.000000
   13       -6.772139   1.000000
   14       -6.012489   1.000000
   15       -6.010949   1.000000
   16       -2.533060   0.000000
   17       -0.991995   0.000000
   18        2.246572   0.000000
   19        2.657638   0.000000
   20        2.796047   0.000000
   21        3.082188   0.000000
   22        3.348115   0.000000
   23        3.556599   0.000000
   24        3.815645   0.000000
 
 -0.2040968E+00  0.4088065E+00  0.0000000E+00  0.1041667E-01
    1      -19.572968   1.000000
    2      -17.839738   1.000000
    3      -17.282218   1.000000
    4      -13.844746   1.000000
    5      -12.726988   1.000000
    6      -10.987067   1.000000
    7       -9.465171   1.000000
    8       -8.905574   1.000000
    9       -8.009311   1.000000
   10       -7.828158   1.000000
   11       -7.649894   1.000000
   12       -6.830691   1.000000
   13       -6.809469   1.000000
   14       -5.990741   1.000000
   15       -5.967084   1.000000
   16       -2.588036   0.000000
   17       -0.929357   0.000000
   18        2.408218   0.000000
   19        2.566417   0.000000
   20        2.617861   0.000000
   21        3.175019   0.000000
   22        3.365841   0.000000
   23        3.513842   0.000000
   24        3.675863   0.000000
 
 -0.1933548E+00  0.3872903E+00  0.0000000E+00  0.1041667E-01
    1      -19.579026   1.000000
    2      -17.850891   1.000000
    3      -17.245600   1.000000
    4      -13.902831   1.000000
    5      -12.690700   1.000000
    6      -10.944923   1.000000
    7       -9.537165   1.000000
    8       -8.936580   1.000000
    9       -8.013588   1.000000
   10       -7.843230   1.000000
   11       -7.628507   1.000000
   12       -6.844842   1.000000
   13       -6.794647   1.000000
   14       -5.934264   1.000000
   15       -5.908141   1.000000
   16       -2.660083   0.000000
   17       -0.853873   0.000000
   18        2.348034   0.000000
   19        2.524479   0.000000
   20        2.581561   0.000000
   21        3.123445   0.000000
   22        3.362774   0.000000
   23        3.452299   0.000000
   24        3.691607   0.000000
 
 -0.1826129E+00  0.3657742E+00  0.0000000E+00  0.1041667E-01
    1      -19.596658   1.000000
    2      -17.842459   1.000000
    3      -17.200305   1.000000
    4      -13.958071   1.000000
    5      -12.697119   1.000000
    6      -10.855460   1.000000
    7       -9.710452   1.000000
    8       -8.918869   1.000000
    9       -8.149030   1.000000
   10       -7.895548   1.000000
   11       -7.454594   1.000000
   12       -6.810882   1.000000
   13       -6.771183   1.000000
   14       -5.847302   1.000000
   15       -5.838808   1.000000
   16       -2.739939   0.000000
   17       -0.775286   0.000000
   18        2.141299   0.000000
   19        2.395770   0.000000
   20        2.766232   0.000000
   21        2.944507   0.000000
   22        3.240767   0.000000
   23        3.512865   0.000000
   24        3.881402   0.000000
 
 -0.1718710E+00  0.3442581E+00  0.0000000E+00  0.1041667E-01
    1      -19.625343   1.000000
    2      -17.813414   1.000000
    3      -17.148106   1.000000
    4      -14.008478   1.000000
    5      -12.740099   1.000000
    6      -10.733044   1.000000
    7       -9.924285   1.000000
    8       -8.935203   1.000000
    9       -8.258973   1.000000
   10       -7.976258   1.000000
   11       -7.256313   1.000000
   12       -6.736353   1.000000
   13       -6.731368   1.000000
   14       -5.761273   1.000000
   15       -5.737338   1.000000
   16       -2.820819   0.000000
   17       -0.700378   0.000000
   18        1.946107   0.000000
   19        2.243118   0.000000
   20        2.764318   0.000000
   21        2.962347   0.000000
   22        3.041295   0.000000
   23        3.615499   0.000000
   24        3.789984   0.000000
 
 -0.1611290E+00  0.3227419E+00  0.0000000E+00  0.1041667E-01
    1      -19.663566   1.000000
    2      -17.764397   1.000000
    3      -17.090327   1.000000
    4      -14.052818   1.000000
    5      -12.809640   1.000000
    6      -10.613335   1.000000
    7      -10.126837   1.000000
    8       -9.046463   1.000000
    9       -8.274628   1.000000
   10       -8.073738   1.000000
   11       -7.088068   1.000000
   12       -6.648963   1.000000
   13       -6.632346   1.000000
   14       -5.677223   1.000000
   15       -5.611537   1.000000
   16       -2.897765   0.000000
   17       -0.633218   0.000000
   18        1.762512   0.000000
   19        2.074302   0.000000
   20        2.587193   0.000000
   21        2.853865   0.000000
   22        3.169839   0.000000
   23        3.408011   0.000000
   24        3.831542   0.000000
 
 -0.1503871E+00  0.3012258E+00  0.0000000E+00  0.1041667E-01
    1      -19.709190   1.000000
    2      -17.697120   1.000000
    3      -17.028081   1.000000
    4      -14.090278   1.000000
    5      -12.896376   1.000000
    6      -10.617074   1.000000
    7      -10.197293   1.000000
    8       -9.236590   1.000000
    9       -8.210357   1.000000
   10       -8.178844   1.000000
   11       -6.985276   1.000000
   12       -6.508011   1.000000
   13       -6.495269   1.000000
   14       -5.588364   1.000000
   15       -5.475984   1.000000
   16       -2.967055   0.000000
   17       -0.576154   0.000000
   18        1.590559   0.000000
   19        1.894357   0.000000
   20        2.412366   0.000000
   21        2.678514   0.000000
   22        3.128517   0.000000
   23        3.388566   0.000000
   24        3.698321   0.000000
 
 -0.1396452E+00  0.2797097E+00  0.0000000E+00  0.1041667E-01
    1      -19.759860   1.000000
    2      -17.613828   1.000000
    3      -16.962404   1.000000
    4      -14.120303   1.000000
    5      -12.993165   1.000000
    6      -10.802825   1.000000
    7      -10.080989   1.000000
    8       -9.463194   1.000000
    9       -8.285499   1.000000
   10       -8.106206   1.000000
   11       -6.934993   1.000000
   12       -6.369719   1.000000
   13       -6.285955   1.000000
   14       -5.496486   1.000000
   15       -5.335453   1.000000
   16       -3.025546   0.000000
   17       -0.530160   0.000000
   18        1.430282   0.000000
   19        1.706683   0.000000
   20        2.238752   0.000000
   21        2.515231   0.000000
   22        2.837779   0.000000
   23        3.535365   0.000000
   24        3.618389   0.000000
 
 -0.1289032E+00  0.2581935E+00  0.0000000E+00  0.1041667E-01
    1      -19.813329   1.000000
    2      -17.516938   1.000000
    3      -16.894324   1.000000
    4      -14.142528   1.000000
    5      -13.095021   1.000000
    6      -11.040126   1.000000
    7       -9.914230   1.000000
    8       -9.701134   1.000000
    9       -8.389963   1.000000
   10       -7.983110   1.000000
   11       -6.907179   1.000000
   12       -6.221879   1.000000
   13       -6.053080   1.000000
   14       -5.403621   1.000000
   15       -5.193728   1.000000
   16       -3.070458   0.000000
   17       -0.495174   0.000000
   18        1.281700   0.000000
   19        1.513371   0.000000
   20        2.063445   0.000000
   21        2.364019   0.000000
   22        2.548318   0.000000
   23        3.381568   0.000000
   24        3.738867   0.000000
 
 -0.1181613E+00  0.2366774E+00  0.0000000E+00  0.1041667E-01
    1      -19.867608   1.000000
    2      -17.408853   1.000000
    3      -16.824909   1.000000
    4      -14.156746   1.000000
    5      -13.198539   1.000000
    6      -11.285518   1.000000
    7       -9.952892   1.000000
    8       -9.730404   1.000000
    9       -8.489846   1.000000
   10       -7.849666   1.000000
   11       -6.886634   1.000000
   12       -6.067913   1.000000
   13       -5.813879   1.000000
   14       -5.312013   1.000000
   15       -5.053780   1.000000
   16       -3.099095   0.000000
   17       -0.470824   0.000000
   18        1.144846   0.000000
   19        1.316209   0.000000
   20        1.877744   0.000000
   21        2.224883   0.000000
   22        2.275098   0.000000
   23        3.239986   0.000000
   24        3.600681   0.000000
 
 -0.1074194E+00  0.2151613E+00  0.0000000E+00  0.1041667E-01
    1      -19.921044   1.000000
    2      -17.291917   1.000000
    3      -16.755302   1.000000
    4      -14.162931   1.000000
    5      -13.301413   1.000000
    6      -11.528190   1.000000
    7      -10.190784   1.000000
    8       -9.564410   1.000000
    9       -8.583608   1.000000
   10       -7.709954   1.000000
   11       -6.867379   1.000000
   12       -5.910621   1.000000
   13       -5.576737   1.000000
   14       -5.224214   1.000000
   15       -4.918157   1.000000
   16       -3.108907   0.000000
   17       -0.456149   0.000000
   18        1.019735   0.000000
   19        1.117157   0.000000
   20        1.664634   0.000000
   21        2.040250   0.000000
   22        2.097824   0.000000
   23        3.110969   0.000000
   24        3.474370   0.000000
 
 -0.9667742E-01  0.1936452E+00  0.0000000E+00  0.1041667E-01
    1      -19.972284   1.000000
    2      -17.168466   1.000000
    3      -16.686707   1.000000
    4      -14.161271   1.000000
    5      -13.402083   1.000000
    6      -11.763085   1.000000
    7      -10.423832   1.000000
    8       -9.409530   1.000000
    9       -8.670194   1.000000
   10       -7.566650   1.000000
   11       -6.847113   1.000000
   12       -5.752739   1.000000
   13       -5.346732   1.000000
   14       -5.142741   1.000000
   15       -4.789044   1.000000
   16       -3.097618   0.000000
   17       -0.450368   0.000000
   18        0.906392   0.000000
   19        0.918570   0.000000
   20        1.415085   0.000000
   21        1.857643   0.000000
   22        1.982844   0.000000
   23        2.994476   0.000000
   24        3.359968   0.000000
 
 -0.8593548E-01  0.1721290E+00  0.0000000E+00  0.1041667E-01
    1      -20.020263   1.000000
    2      -17.040945   1.000000
    3      -16.620398   1.000000
    4      -14.152225   1.000000
    5      -13.499482   1.000000
    6      -11.986450   1.000000
    7      -10.647123   1.000000
    8       -9.270963   1.000000
    9       -8.748890   1.000000
   10       -7.422314   1.000000
   11       -6.825258   1.000000
   12       -5.597014   1.000000
   13       -5.127909   1.000000
   14       -5.069902   1.000000
   15       -4.668420   1.000000
   16       -3.063602   0.000000
   17       -0.452536   0.000000
   18        0.722528   0.000000
   19        0.804839   0.000000
   20        1.144005   0.000000
   21        1.717259   0.000000
   22        1.879947   0.000000
   23        2.890423   0.000000
   24        3.257484   0.000000
 
 -0.7519355E-01  0.1506129E+00  0.0000000E+00  0.1041667E-01
    1      -20.064130   1.000000
    2      -16.912040   1.000000
    3      -16.557697   1.000000
    4      -14.136621   1.000000
    5      -13.592827   1.000000
    6      -12.194725   1.000000
    7      -10.857521   1.000000
    8       -9.150720   1.000000
    9       -8.819169   1.000000
   10       -7.280039   1.000000
   11       -6.802071   1.000000
   12       -5.446364   1.000000
   13       -5.007423   1.000000
   14       -4.923742   1.000000
   15       -4.557933   1.000000
   16       -3.006391   0.000000
   17       -0.461906   0.000000
   18        0.529806   0.000000
   19        0.715102   0.000000
   20        0.872583   0.000000
   21        1.604845   0.000000
   22        1.789135   0.000000
   23        2.798735   0.000000
   24        3.166935   0.000000
 
 -0.6445161E-01  0.1290968E+00  0.0000000E+00  0.1041667E-01
    1      -20.103224   1.000000
    2      -16.784863   1.000000
    3      -16.499933   1.000000
    4      -14.115732   1.000000
    5      -13.681419   1.000000
    6      -12.384229   1.000000
    7      -11.051947   1.000000
    8       -9.049345   1.000000
    9       -8.880644   1.000000
   10       -7.143555   1.000000
   11       -6.778360   1.000000
   12       -5.304045   1.000000
   13       -4.956125   1.000000
   14       -4.737592   1.000000
   15       -4.459147   0.999989
   16       -2.927136   0.000000
   17       -0.477945   0.000000
   18        0.337089   0.000000
   19        0.620030   0.000000
   20        0.637213   0.000000
   21        1.512695   0.000000
   22        1.710413   0.000000
   23        2.719358   0.000000
   24        3.088341   0.000000
 
 -0.5370968E-01  0.1075806E+00  0.0000000E+00  0.1041667E-01
    1      -20.137041   1.000000
    2      -16.663149   1.000000
    3      -16.448410   1.000000
    4      -14.091359   1.000000
    5      -13.764345   1.000000
    6      -12.551147   1.000000
    7      -11.227060   1.000000
    8       -8.966385   1.000000
    9       -8.933056   1.000000
   10       -7.017186   1.000000
   11       -6.755269   1.000000
   12       -5.173663   1.000000
   13       -4.915860   1.000000
   14       -4.572840   1.000000
   15       -4.373411   0.999857
   16       -2.829221   0.000000
   17       -0.500122   0.000000
   18        0.135731   0.000000
   19        0.407848   0.000000
   20        0.571204   0.000000
   21        1.437263   0.000000
   22        1.643785   0.000000
   23        2.652246   0.000000
   24        3.021726   0.000000
 
 -0.4296774E-01  0.8606452E-01  0.0000000E+00  0.1041667E-01
    1      -20.165180   1.000000
    2      -16.551413   1.000000
    3      -16.404345   1.000000
    4      -14.065824   1.000000
    5      -13.840050   1.000000
    6      -12.691780   1.000000
    7      -11.379137   1.000000
    8       -8.976176   1.000000
    9       -8.900890   1.000000
   10       -6.905485   1.000000
   11       -6.734067   1.000000
   12       -5.059043   1.000000
   13       -4.885688   1.000000
   14       -4.432651   0.999974
   15       -4.301855   0.999100
   16       -2.718674   0.000000
   17       -0.527094   0.000000
   18       -0.075144   0.000000
   19        0.248900   0.000000
   20        0.517116   0.000000
   21        1.376818   0.000000
   22        1.589258   0.000000
   23        2.597373   0.000000
   24        2.967127   0.000000
 
 -0.3222581E-01  0.6454839E-01  0.0000000E+00  0.1041667E-01
    1      -20.187343   1.000000
    2      -16.455017   1.000000
    3      -16.368814   1.000000
    4      -14.041840   1.000000
    5      -13.905909   1.000000
    6      -12.803045   1.000000
    7      -11.504057   1.000000
    8       -9.009854   1.000000
    9       -8.851607   1.000000
   10       -6.812952   1.000000
   11       -6.715983   1.000000
   12       -4.964237   1.000000
   13       -4.864274   1.000000
   14       -4.319975   0.999422
   15       -4.245291   0.996750
   16       -2.604856   0.000000
   17       -0.556287   0.000000
   18       -0.277539   0.000000
   19        0.137737   0.000000
   20        0.474990   0.000000
   21        1.330436   0.000000
   22        1.546838   0.000000
   23        2.554716   0.000000
   24        2.924588   0.000000
 
 -0.2148387E-01  0.4303226E-01  0.0000000E+00  0.1041667E-01
    1      -20.203319   1.000000
    2      -16.379958   1.000000
    3      -16.342673   1.000000
    4      -14.022207   1.000000
    5      -13.958062   1.000000
    6      -12.882976   1.000000
    7      -11.597530   1.000000
    8       -9.033977   1.000000
    9       -8.817373   1.000000
   10       -6.743631   1.000000
   11       -6.702167   1.000000
   12       -4.893159   1.000000
   13       -4.850153   1.000000
   14       -4.237580   0.996173
   15       -4.204423   0.992502
   16       -2.501536   0.000000
   17       -0.583197   0.000000
   18       -0.448214   0.000000
   19        0.064809   0.000000
   20        0.444864   0.000000
   21        1.297594   0.000000
   22        1.516533   0.000000
   23        2.524258   0.000000
   24        2.894153   0.000000
 
 -0.1074194E-01  0.2151613E-01  0.0000000E+00  0.1041667E-01
    1      -20.212960   1.000000
    2      -16.332792   1.000000
    3      -16.325857   1.000000
    4      -14.009341   1.000000
    5      -13.991957   1.000000
    6      -12.930849   1.000000
    7      -11.655567   1.000000
    8       -9.048472   1.000000
    9       -8.797252   1.000000
   10       -6.701020   1.000000
   11       -6.693149   1.000000
   12       -4.849576   1.000000
   13       -4.841601   1.000000
   14       -4.187154   0.989566
   15       -4.179676   0.988011
   16       -2.426839   0.000000
   17       -0.602369   0.000000
   18       -0.564284   0.000000
   19        0.023659   0.000000
   20        0.426772   0.000000
   21        1.277992   0.000000
   22        1.498346   0.000000
   23        2.505988   0.000000
   24        2.875869   0.000000
 
  0.0000000E+00  0.0000000E+00  0.0000000E+00  0.1041667E-01
    1      -20.216178   1.000000
    2      -16.322448   1.000000
    3      -16.314268   1.000000
    4      -14.004998   1.000000
    5      -14.003627   1.000000
    6      -12.946751   1.000000
    7      -11.675267   1.000000
    8       -9.053294   1.000000
    9       -8.790588   1.000000
   10       -6.691267   1.000000
   11       -6.685339   1.000000
   12       -4.840613   1.000000
   13       -4.833021   1.000000
   14       -4.171623   0.986116
   15       -4.170010   0.985707
   16       -2.399173   0.000000
   17       -0.609797   0.000000
   18       -0.605496   0.000000
   19        0.010413   0.000000
   20        0.420738   0.000000
   21        1.271475   0.000000
   22        1.492284   0.000000
   23        2.499901   0.000000
   24        2.869771   0.000000
 
  0.0000000E+00  0.0000000E+00  0.0000000E+00  0.1041667E-01
    1      -20.216178   1.000000
    2      -16.322448   1.000000
    3      -16.314268   1.000000
    4      -14.004998   1.000000
    5      -14.003627   1.000000
    6      -12.946751   1.000000
    7      -11.675267   1.000000
    8       -9.053294   1.000000
    9       -8.790588   1.000000
   10       -6.691267   1.000000
   11       -6.685339   1.000000
   12       -4.840613   1.000000
   13       -4.833021   1.000000
   14       -4.171623   0.986116
   15       -4.170010   0.985707
   16       -2.399173   0.000000
   17       -0.609797   0.000000
   18       -0.605496   0.000000
   19        0.010413   0.000000
   20        0.420738   0.000000
   21        1.271475   0.000000
   22        1.492283   0.000000
   23        2.499901   0.000000
   24        2.869772   0.000000
 
  0.1612903E-01  0.0000000E+00  0.0000000E+00  0.1041667E-01
    1      -20.215140   1.000000
    2      -16.327137   1.000000
    3      -16.316658   1.000000
    4      -14.005512   1.000000
    5      -14.000741   1.000000
    6      -12.941657   1.000000
    7      -11.668905   1.000000
    8       -9.051738   1.000000
    9       -8.792740   1.000000
   10       -6.695377   1.000000
   11       -6.686908   1.000000
   12       -4.844741   1.000000
   13       -4.834520   1.000000
   14       -4.176798   0.987361
   15       -4.172938   0.986442
   16       -2.408281   0.000000
   17       -0.604624   0.000000
   18       -0.594791   0.000000
   19        0.014655   0.000000
   20        0.422678   0.000000
   21        1.273568   0.000000
   22        1.494232   0.000000
   23        2.501858   0.000000
   24        2.871731   0.000000
 
  0.3225806E-01  0.0000000E+00  0.0000000E+00  0.1041667E-01
    1      -20.212037   1.000000
    2      -16.342329   1.000000
    3      -16.322507   1.000000
    4      -14.009919   1.000000
    5      -13.989325   1.000000
    6      -12.926356   1.000000
    7      -11.649935   1.000000
    8       -9.047098   1.000000
    9       -8.799160   1.000000
   10       -6.708959   1.000000
   11       -6.690240   1.000000
   12       -4.858526   1.000000
   13       -4.837601   1.000000
   14       -4.193085   0.990671
   15       -4.180977   0.988296
   16       -2.434643   0.000000
   17       -0.597541   0.000000
   18       -0.555558   0.000000
   19        0.027490   0.000000
   20        0.428495   0.000000