 vasp.5.4.4.18Apr17-6-g9f103f2a35 (build Mar 30 2023 15:39:25) complex          
  
 executed on             LinuxIFC date 2023.05.25  15:20:23
 running on   12 total cores
 distrk:  each k-point on   12 cores,    1 groups
 distr:  one band on NCORES_PER_BAND=   1 cores,   12 groups


--------------------------------------------------------------------------------------------------------


 INCAR:
 POTCAR:    PAW_PBE B 06Sep2000                   
 POTCAR:    PAW_PBE C 08Apr2002                   

 ----------------------------------------------------------------------------- 
|                                                                             |
|           W    W    AA    RRRRR   N    N  II  N    N   GGGG   !!!           |
|           W    W   A  A   R    R  NN   N  II  NN   N  G    G  !!!           |
|           W    W  A    A  R    R  N N  N  II  N N  N  G       !!!           |
|           W WW W  AAAAAA  RRRRR   N  N N  II  N  N N  G  GGG   !            |
|           WW  WW  A    A  R   R   N   NN  II  N   NN  G    G                |
|           W    W  A    A  R    R  N    N  II  N    N   GGGG   !!!           |
|                                                                             |
|      For optimal performance we recommend to set                            |
|        NCORE= 4 - approx SQRT( number of cores)                             |
|      NCORE specifies how many cores store one orbital (NPAR=cpu/NCORE).     |
|      This setting can  greatly improve the performance of VASP for DFT.     |
|      The default,   NCORE=1            might be grossly inefficient         |
|      on modern multi-core architectures or massively parallel machines.     |
|      Do your own testing !!!!                                               |
|      Unfortunately you need to use the default for GW and RPA calculations. |
|      (for HF NCORE is supported but not extensively tested yet)             |
|                                                                             |
 ----------------------------------------------------------------------------- 

 POTCAR:    PAW_PBE B 06Sep2000                   
   SHA256 =  a32ced30f5ae56fd4d10b4325ff17eb3e4e38ee0f4288bc219fb012fddfa6e97 B/
   COPYR  = (c) Copyright 06Sep2000 Georg Kresse                                
   COPYR  = This file is part of the software VASP. Any use, copying, and all ot
   COPYR  = If you do not have a valid VASP license, you may not use, copy or di
   VRHFIN =B: s2p1                                                              
   LEXCH  = PE                                                                  
   EATOM  =    71.1703 eV,    5.2309 Ry                                         
                                                                                
   TITEL  = PAW_PBE B 06Sep2000                                                 
   LULTRA =        F    use ultrasoft PP ?                                      
   IUNSCR =        1    unscreen: 0-lin 1-nonlin 2-no                           
   RPACOR =    1.200    partial core radius                                     
   POMASS =   10.811; ZVAL   =    3.000    mass and valenz                      
   RCORE  =    1.700    outmost cutoff radius                                   
   RWIGS  =    1.710; RWIGS  =    0.905    wigner-seitz radius (au A)           
   ENMAX  =  318.614; ENMIN  =  238.960 eV                                      
   ICORE  =        2    local potential                                         
   LCOR   =        T    correct aug charges                                     
   LPAW   =        T    paw PP                                                  
   EAUG   =  535.514                                                            
   DEXC   =    0.000                                                            
   RMAX   =    1.732    core radius for proj-oper                               
   RAUG   =    1.300    factor for augmentation sphere                          
   RDEP   =    1.757    radius for radial grids                                 
   RDEPT  =    1.436    core radius for aug-charge                              
                                                                                
   Atomic configuration                                                         
    4 entries                                                                   
     n  l   j            E        occ.                                          
     1  0  0.50      -180.5896   2.0000                                         
     2  0  0.50        -9.4431   2.0000                                         
     2  1  0.50        -3.6068   1.0000                                         
     3  2  1.50        -4.0817   0.0000                                         
   Description                                                                  
     l       E           TYP  RCUT    TYP  RCUT                                 
     0     -9.4430752     23  1.500                                             
     0      0.8675899     23  1.500                                             
     1     -3.6067955     23  1.700                                             
     1      6.1086146     23  1.700                                             
     2     -4.0817478      7  1.700                                             
  local pseudopotential read in
  partial core-charges read in
  partial kinetic energy density read in
  atomic valenz-charges read in
  non local Contribution for L=           0  read in
    real space projection operators read in
  non local Contribution for L=           0  read in
    real space projection operators read in
  non local Contribution for L=           1  read in
    real space projection operators read in
  non local Contribution for L=           1  read in
    real space projection operators read in
    PAW grid and wavefunctions read in
 
   number of l-projection  operators is LMAX  =           4
   number of lm-projection operators is LMMAX =           8
 
 POTCAR:    PAW_PBE C 08Apr2002                   
   SHA256 =  253f7b50bb8d59471dbedb8285d89021f4a42ed1a2c5d38a03a736e69125dd95 C/
   COPYR  = (c) Copyright 08Apr2002 Georg Kresse                                
   COPYR  = This file is part of the software VASP. Any use, copying, and all ot
   COPYR  = If you do not have a valid VASP license, you may not use, copy or di
   VRHFIN =C: s2p2                                                              
   LEXCH  = PE                                                                  
   EATOM  =   147.1560 eV,   10.8157 Ry                                         
                                                                                
   TITEL  = PAW_PBE C 08Apr2002                                                 
   LULTRA =        F    use ultrasoft PP ?                                      
   IUNSCR =        1    unscreen: 0-lin 1-nonlin 2-no                           
   RPACOR =    1.200    partial core radius                                     
   POMASS =   12.011; ZVAL   =    4.000    mass and valenz                      
   RCORE  =    1.500    outmost cutoff radius                                   
   RWIGS  =    1.630; RWIGS  =    0.863    wigner-seitz radius (au A)           
   ENMAX  =  400.000; ENMIN  =  300.000 eV                                      
   ICORE  =        2    local potential                                         
   LCOR   =        T    correct aug charges                                     
   LPAW   =        T    paw PP                                                  
   EAUG   =  644.873                                                            
   DEXC   =    0.000                                                            
   RMAX   =    1.529    core radius for proj-oper                               
   RAUG   =    1.300    factor for augmentation sphere                          
   RDEP   =    1.501    radius for radial grids                                 
   RDEPT  =    1.300    core radius for aug-charge                              
                                                                                
   Atomic configuration                                                         
    4 entries                                                                   
     n  l   j            E        occ.                                          
     1  0  0.50      -273.3789   2.0000                                         
     2  0  0.50       -13.7508   2.0000                                         
     2  1  0.50        -5.2854   2.0000                                         
     3  2  1.50        -5.4423   0.0000                                         
   Description                                                                  
     l       E           TYP  RCUT    TYP  RCUT                                 
     0    -13.7508458     23  1.200                                             
     0     -8.2022199     23  1.200                                             
     1     -5.2854383     23  1.500                                             
     1     34.0145650     23  1.500                                             
     2     -5.4423304      7  1.500                                             
  local pseudopotential read in
  partial core-charges read in
  partial kinetic energy density read in
  atomic valenz-charges read in
  non local Contribution for L=           0  read in
    real space projection operators read in
  non local Contribution for L=           0  read in
    real space projection operators read in
  non local Contribution for L=           1  read in
    real space projection operators read in
  non local Contribution for L=           1  read in
    real space projection operators read in
    PAW grid and wavefunctions read in
 
   number of l-projection  operators is LMAX  =           4
   number of lm-projection operators is LMMAX =           8
 
  PAW_PBE B 06Sep2000                   :
 energy of atom  1       EATOM=  -71.1703
 kinetic energy error for atom=    0.0015 (will be added to EATOM!!)
  PAW_PBE C 08Apr2002                   :
 energy of atom  2       EATOM= -147.1560
 kinetic energy error for atom=    0.0116 (will be added to EATOM!!)
 
 
 POSCAR: BC3 with lattice parameter 5.174Ang, len
  positions in cartesian coordinates
  No initial velocities read in
 exchange correlation table for  LEXCH =        8
   RHO(1)=    0.500       N(1)  =     2000
   RHO(2)=  100.500       N(2)  =     4000
 


--------------------------------------------------------------------------------------------------------


 ion  position               nearest neighbor table
   1  0.175  0.175  0.000-   3 1.56   4 1.56   6 1.57
   2  0.508  0.508  0.000-   8 1.56   7 1.56   5 1.57
   3  0.000  0.000  0.000-   5 1.42   7 1.42   1 1.56
   4  0.524  0.000  0.000-   5 1.42   8 1.42   1 1.56
   5  0.683  0.159  0.000-   4 1.42   3 1.42   2 1.57
   6  1.000  0.524  0.000-   8 1.42   7 1.42   1 1.57
   7  0.159  0.683  0.000-   6 1.42   3 1.42   2 1.56
   8  0.682  0.683  0.000-   6 1.42   4 1.42   2 1.56
 
  LATTYP: Found a base centered orthorhombic cell.
 ALAT       =     5.1740000000
 B/A-ratio  =     1.7321221492
 C/A-ratio  =     3.8654812524
  
  Lattice vectors:
  
 A1 = (   2.5870000000,   4.4810000000,   0.0000000000)
 A2 = (   2.5870000000,  -4.4810000000,   0.0000000000)
 A3 = (   0.0000000000,   0.0000000000, -20.0000000000)


Analysis of symmetry for initial positions (statically):
=====================================================================
 Subroutine PRICEL returns:
 Original cell was already a primitive cell.
 

 Routine SETGRP: Setting up the symmetry group for a 
 base centered orthorhombic supercell.


 Subroutine GETGRP returns: Found  8 space group operations
 (whereof  2 operations were pure point group operations)
 out of a pool of  8 trial point group operations.


The static configuration has the point symmetry C_1h.
 The point group associated with its full space group is D_2h.


Analysis of symmetry for dynamics (positions and initial velocities):
=====================================================================
 Subroutine PRICEL returns:
 Original cell was already a primitive cell.
 

 Routine SETGRP: Setting up the symmetry group for a 
 base centered orthorhombic supercell.


 Subroutine GETGRP returns: Found  8 space group operations
 (whereof  2 operations were pure point group operations)
 out of a pool of  8 trial point group operations.


The dynamic configuration has the point symmetry C_1h.
 The point group associated with its full space group is D_2h.


 Subroutine INISYM returns: Found  8 space group operations
 (whereof  2 operations are pure point group operations),
 and found     1 'primitive' translations

 
 
 KPOINTS: K-points for BC3                        
  interpolating k-points between supplied coordinates
  k-points in reciprocal lattice
Space group operators:
 irot       det(A)        alpha          n_x          n_y          n_z        tau_x        tau_y        tau_z
    1     1.000000     0.000000     1.000000     0.000000     0.000000     0.000000     0.000000     0.000000
    2    -1.000000   180.000000     0.000000     0.000000     1.000000     0.000000     0.000000     0.000000
    3    -1.000000     0.000000     1.000000     0.000000     0.000000     0.682498    -0.317451     0.000000
    4     1.000000   180.000000     0.000000     0.000000     1.000000     0.682498    -0.317451     0.000000
    5     1.000000   179.999999     0.000000     1.000000     0.000000     0.523773     0.000000     0.000000
    6    -1.000000   179.999999     0.000000     1.000000     0.000000     0.158726     0.682549     0.000000
    7     1.000000   180.000000     1.000000     0.000000     0.000000     0.158726     0.682549     0.000000
    8    -1.000000   180.000000     1.000000     0.000000     0.000000     0.523773     0.000000     0.000000


--------------------------------------------------------------------------------------------------------




 Dimension of arrays:
   k-points           NKPTS =     96   k-points in BZ     NKDIM =     96   number of bands    NBANDS=     24
   number of dos      NEDOS =    301   number of ions     NIONS =      8
   non local maximal  LDIM  =      4   non local SUM 2l+1 LMDIM =      8
   total plane-waves  NPLWV = 181440
   max r-space proj   IRMAX =      1   max aug-charges    IRDMAX=   6301
   dimension x,y,z NGX =    36 NGY =   36 NGZ =  140
   dimension x,y,z NGXF=    72 NGYF=   72 NGZF=  280
   support grid    NGXF=    72 NGYF=   72 NGZF=  280
   ions per type =               2   6
   NGX,Y,Z   is equivalent  to a cutoff of  11.57, 11.57, 11.64 a.u.
   NGXF,Y,Z  is equivalent  to a cutoff of  23.13, 23.13, 23.27 a.u.

 SYSTEM =  BC3                                     
 POSCAR =  BC3 with lattice parameter 5.174Ang, len

 Startparameter for this run:
   NWRITE =      2    write-flag & timer
   PREC   = accura    normal or accurate (medium, high low for compatibility)
   ISTART =      0    job   : 0-new  1-cont  2-samecut
   ICHARG =      2    charge: 1-file 2-atom 10-const
   ISPIN  =      1    spin polarized calculation?
   LNONCOLLINEAR =      F non collinear calculations
   LSORBIT =      F    spin-orbit coupling
   INIWAV =      1    electr: 0-lowe 1-rand  2-diag
   LASPH  =      F    aspherical Exc in radial PAW
   METAGGA=      F    non-selfconsistent MetaGGA calc.

 Electronic Relaxation 1
   ENCUT  =  450.0 eV  33.07 Ry    5.75 a.u.   8.95  8.95 34.59*2*pi/ulx,y,z
   ENINI  =  450.0     initial cutoff
   ENAUG  =  644.9 eV  augmentation charge cutoff
   NELM   =     60;   NELMIN=  2; NELMDL= -5     # of ELM steps 
   EDIFF  = 0.1E-05   stopping-criterion for ELM
   LREAL  =      F    real-space projection
   NLSPLINE    = F    spline interpolate recip. space projectors
   LCOMPAT=      F    compatible to vasp.4.4
   GGA_COMPAT  = T    GGA compatible to vasp.4.4-vasp.4.6
   LMAXPAW     = -100 max onsite density
   LMAXMIX     =    2 max onsite mixed and CHGCAR
   VOSKOWN=      0    Vosko Wilk Nusair interpolation
   ROPT   =    0.00000   0.00000
 Ionic relaxation
   EDIFFG = -.1E-05   stopping-criterion for IOM
   NSW    =      0    number of steps for IOM
   NBLOCK =      1;   KBLOCK =      1    inner block; outer block 
   IBRION =     -1    ionic relax: 0-MD 1-quasi-New 2-CG
   NFREE  =      0    steps in history (QN), initial steepest desc. (CG)
   ISIF   =      2    stress and relaxation
   IWAVPR =     10    prediction:  0-non 1-charg 2-wave 3-comb
   ISYM   =      2    0-nonsym 1-usesym 2-fastsym
   LCORR  =      T    Harris-Foulkes like correction to forces

   POTIM  = 0.5000    time-step for ionic-motion
   TEIN   =    0.0    initial temperature
   TEBEG  =    0.0;   TEEND  =   0.0 temperature during run
   SMASS  =  -3.00    Nose mass-parameter (am)
   estimated Nose-frequenzy (Omega)   =  0.10E-29 period in steps =****** mass=  -0.612E-27a.u.
   SCALEE = 1.0000    scale energy and forces
   NPACO  =    256;   APACO  = 16.0  distance and # of slots for P.C.
   PSTRESS=    0.0 pullay stress

  Mass of Ions in am
   POMASS =  10.81 12.01
  Ionic Valenz
   ZVAL   =   3.00  4.00
  Atomic Wigner-Seitz radii
   RWIGS  =  -1.00 -1.00
  virtual crystal weights 
   VCA    =   1.00  1.00
   NELECT =      30.0000    total number of electrons
   NUPDOWN=      -1.0000    fix difference up-down

 DOS related values:
   EMIN   =  10.00;   EMAX   =-10.00  energy-range for DOS
   EFERMI =   0.00
   ISMEAR =     0;   SIGMA  =   0.20  broadening in eV -4-tet -1-fermi 0-gaus

 Electronic relaxation 2 (details)
   IALGO  =     38    algorithm
   LDIAG  =      T    sub-space diagonalisation (order eigenvalues)
   LSUBROT=      F    optimize rotation matrix (better conditioning)
   TURBO    =      0    0=normal 1=particle mesh
   IRESTART =      0    0=no restart 2=restart with 2 vectors
   NREBOOT  =      0    no. of reboots
   NMIN     =      0    reboot dimension
   EREF     =   0.00    reference energy to select bands
   IMIX   =      4    mixing-type and parameters
     AMIX     =   0.40;   BMIX     =  1.00
     AMIX_MAG =   1.60;   BMIX_MAG =  1.00
     AMIN     =   0.10
     WC   =   100.;   INIMIX=   1;  MIXPRE=   1;  MAXMIX= -45

 Intra band minimization:
   WEIMIN = 0.0000     energy-eigenvalue tresh-hold
   EBREAK =  0.10E-08  absolut break condition
   DEPER  =   0.30     relativ break condition  

   TIME   =   0.40     timestep for ELM

  volume/ion in A,a.u.               =      57.96       391.15
  Fermi-wavevector in a.u.,A,eV,Ry     =   0.657211  1.241949  5.876713  0.431926
  Thomas-Fermi vector in A             =   1.728647
 
 Write flags
   LWAVE        =      T    write WAVECAR
   LDOWNSAMPLE  =      F    k-point downsampling of WAVECAR
   LCHARG       =      T    write CHGCAR
   LVTOT        =      F    write LOCPOT, total local potential
   LVHAR        =      F    write LOCPOT, Hartree potential only
   LELF         =      F    write electronic localiz. function (ELF)
   LORBIT       =      0    0 simple, 1 ext, 2 COOP (PROOUT), +10 PAW based schemes


 Dipole corrections
   LMONO  =      F    monopole corrections only (constant potential shift)
   LDIPOL =      F    correct potential (dipole corrections)
   IDIPOL =      0    1-x, 2-y, 3-z, 4-all directions 
   EPSILON=  1.0000000 bulk dielectric constant

 Exchange correlation treatment:
   GGA     =    --    GGA type
   LEXCH   =     8    internal setting for exchange type
   VOSKOWN=      0    Vosko Wilk Nusair interpolation
   LHFCALC =     F    Hartree Fock is set to
   LHFONE  =     F    Hartree Fock one center treatment
   AEXX    =    0.0000 exact exchange contribution

 Linear response parameters
   LEPSILON=     F    determine dielectric tensor
   LRPA    =     F    only Hartree local field effects (RPA)
   LNABLA  =     F    use nabla operator in PAW spheres
   LVEL    =     F    velocity operator in full k-point grid
   LINTERFAST=   F  fast interpolation
   KINTER  =     0    interpolate to denser k-point grid
   CSHIFT  =0.1000    complex shift for real part using Kramers Kronig
   OMEGAMAX=  -1.0    maximum frequency
   DEG_THRESHOLD= 0.2000000E-02 threshold for treating states as degnerate
   RTIME   =   -0.100 relaxation time in fs
  (WPLASMAI=    0.000 imaginary part of plasma frequency in eV, 0.658/RTIME)
   DFIELD  = 0.0000000 0.0000000 0.0000000 field for delta impulse in time
 
 Orbital magnetization related:
   ORBITALMAG=     F  switch on orbital magnetization
   LCHIMAG   =     F  perturbation theory with respect to B field
   DQ        =  0.001000  dq finite difference perturbation B field
   LLRAUG    =     F  two centre corrections for induced B field



--------------------------------------------------------------------------------------------------------


 Static calculation
 charge density and potential will be updated during run
 non-spin polarized calculation
 Variant of blocked Davidson
 Davidson routine will perform the subspace rotation
 perform sub-space diagonalisation
    after iterative eigenvector-optimisation
 modified Broyden-mixing scheme, WC =      100.0
 initial mixing is a Kerker type mixing with AMIX =  0.4000 and BMIX =      1.0000
 Hartree-type preconditioning will be used
 using additional bands            9
 reciprocal scheme for non local part
 use partial core corrections
 calculate Harris-corrections to forces 
   (improved forces if not selfconsistent)
 use gradient corrections 
 use of overlap-Matrix (Vanderbilt PP)
 Gauss-broadening in eV      SIGMA  =   0.20


--------------------------------------------------------------------------------------------------------


  energy-cutoff  :      450.00
  volume of cell :      463.69
      direct lattice vectors                 reciprocal lattice vectors
     5.174000000  0.000000000  0.000000000     0.193274063 -0.111582236  0.000000000
     2.587000000  4.481000000  0.000000000     0.000000000  0.223164472  0.000000000
     0.000000000  0.000000000 20.000000000     0.000000000  0.000000000  0.050000000

  length of vectors
     5.174000000  5.174159835 20.000000000     0.223171366  0.223164472  0.050000000


 
 k-points in units of 2pi/SCALE and weight: K-points for BC3                        
  -0.06436026  0.18600759  0.00000000       0.010
  -0.06228413  0.18000734  0.00000000       0.010
  -0.06020799  0.17400710  0.00000000       0.010
  -0.05813185  0.16800685  0.00000000       0.010
  -0.05605571  0.16200661  0.00000000       0.010
  -0.05397958  0.15600636  0.00000000       0.010
  -0.05190344  0.15000612  0.00000000       0.010
  -0.04982730  0.14400587  0.00000000       0.010
  -0.04775116  0.13800563  0.00000000       0.010
  -0.04567503  0.13200538  0.00000000       0.010
  -0.04359889  0.12600514  0.00000000       0.010
  -0.04152275  0.12000490  0.00000000       0.010
  -0.03944661  0.11400465  0.00000000       0.010
  -0.03737048  0.10800441  0.00000000       0.010
  -0.03529434  0.10200416  0.00000000       0.010
  -0.03321820  0.09600392  0.00000000       0.010
  -0.03114206  0.09000367  0.00000000       0.010
  -0.02906593  0.08400343  0.00000000       0.010
  -0.02698979  0.07800318  0.00000000       0.010
  -0.02491365  0.07200294  0.00000000       0.010
  -0.02283751  0.06600269  0.00000000       0.010
  -0.02076138  0.06000245  0.00000000       0.010
  -0.01868524  0.05400220  0.00000000       0.010
  -0.01660910  0.04800196  0.00000000       0.010
  -0.01453296  0.04200171  0.00000000       0.010
  -0.01245683  0.03600147  0.00000000       0.010
  -0.01038069  0.03000122  0.00000000       0.010
  -0.00830455  0.02400098  0.00000000       0.010
  -0.00622841  0.01800073  0.00000000       0.010
  -0.00415228  0.01200049  0.00000000       0.010
  -0.00207614  0.00600024  0.00000000       0.010
   0.00000000  0.00000000  0.00000000       0.010
   0.00000000  0.00000000  0.00000000       0.010
   0.00311732 -0.00179971  0.00000000       0.010
   0.00623465 -0.00359943  0.00000000       0.010
   0.00935197 -0.00539914  0.00000000       0.010
   0.01246929 -0.00719885  0.00000000       0.010
   0.01558662 -0.00899857  0.00000000       0.010
   0.01870394 -0.01079828  0.00000000       0.010
   0.02182127 -0.01259799  0.00000000       0.010
   0.02493859 -0.01439771  0.00000000       0.010
   0.02805591 -0.01619742  0.00000000       0.010
   0.03117324 -0.01799713  0.00000000       0.010
   0.03429056 -0.01979685  0.00000000       0.010
   0.03740788 -0.02159656  0.00000000       0.010
   0.04052521 -0.02339628  0.00000000       0.010
   0.04364253 -0.02519599  0.00000000       0.010
   0.04675985 -0.02699570  0.00000000       0.010
   0.04987718 -0.02879542  0.00000000       0.010
   0.05299450 -0.03059513  0.00000000       0.010
   0.05611182 -0.03239484  0.00000000       0.010
   0.05922915 -0.03419456  0.00000000       0.010
   0.06234647 -0.03599427  0.00000000       0.010
   0.06546380 -0.03779398  0.00000000       0.010
   0.06858112 -0.03959370  0.00000000       0.010
   0.07169844 -0.04139341  0.00000000       0.010
   0.07481577 -0.04319312  0.00000000       0.010
   0.07793309 -0.04499284  0.00000000       0.010
   0.08105041 -0.04679255  0.00000000       0.010
   0.08416774 -0.04859226  0.00000000       0.010
   0.08728506 -0.05039198  0.00000000       0.010
   0.09040238 -0.05219169  0.00000000       0.010
   0.09351971 -0.05399140  0.00000000       0.010
   0.09663703 -0.05579112  0.00000000       0.010
   0.09663703 -0.05579112  0.00000000       0.010
   0.09144357 -0.04799116  0.00000000       0.010
   0.08625011 -0.04019120  0.00000000       0.010
   0.08105665 -0.03239124  0.00000000       0.010
   0.07586319 -0.02459129  0.00000000       0.010
   0.07066973 -0.01679133  0.00000000       0.010
   0.06547626 -0.00899137  0.00000000       0.010
   0.06028280 -0.00119141  0.00000000       0.010
   0.05508934  0.00660855  0.00000000       0.010
   0.04989588  0.01440851  0.00000000       0.010
   0.04470242  0.02220846  0.00000000       0.010
   0.03950896  0.03000842  0.00000000       0.010
   0.03431550  0.03780838  0.00000000       0.010
   0.02912204  0.04560834  0.00000000       0.010
   0.02392858  0.05340830  0.00000000       0.010
   0.01873511  0.06120826  0.00000000       0.010
   0.01354165  0.06900821  0.00000000       0.010
   0.00834819  0.07680817  0.00000000       0.010
   0.00315473  0.08460813  0.00000000       0.010
  -0.00203873  0.09240809  0.00000000       0.010
  -0.00723219  0.10020805  0.00000000       0.010
  -0.01242565  0.10800801  0.00000000       0.010
  -0.01761911  0.11580796  0.00000000       0.010
  -0.02281257  0.12360792  0.00000000       0.010
  -0.02800604  0.13140788  0.00000000       0.010
  -0.03319950  0.13920784  0.00000000       0.010
  -0.03839296  0.14700780  0.00000000       0.010
  -0.04358642  0.15480775  0.00000000       0.010
  -0.04877988  0.16260771  0.00000000       0.010
  -0.05397334  0.17040767  0.00000000       0.010
  -0.05916680  0.17820763  0.00000000       0.010
  -0.06436026  0.18600759  0.00000000       0.010
 
 k-points in reciprocal lattice and weights: K-points for BC3                        
  -0.33300000  0.66700000  0.00000000       0.010
  -0.32225806  0.64548387  0.00000000       0.010
  -0.31151613  0.62396774  0.00000000       0.010
  -0.30077419  0.60245161  0.00000000       0.010
  -0.29003226  0.58093548  0.00000000       0.010
  -0.27929032  0.55941935  0.00000000       0.010
  -0.26854839  0.53790323  0.00000000       0.010
  -0.25780645  0.51638710  0.00000000       0.010
  -0.24706452  0.49487097  0.00000000       0.010
  -0.23632258  0.47335484  0.00000000       0.010
  -0.22558065  0.45183871  0.00000000       0.010
  -0.21483871  0.43032258  0.00000000       0.010
  -0.20409677  0.40880645  0.00000000       0.010
  -0.19335484  0.38729032  0.00000000       0.010
  -0.18261290  0.36577419  0.00000000       0.010
  -0.17187097  0.34425806  0.00000000       0.010
  -0.16112903  0.32274194  0.00000000       0.010
  -0.15038710  0.30122581  0.00000000       0.010
  -0.13964516  0.27970968  0.00000000       0.010
  -0.12890323  0.25819355  0.00000000       0.010
  -0.11816129  0.23667742  0.00000000       0.010
  -0.10741935  0.21516129  0.00000000       0.010
  -0.09667742  0.19364516  0.00000000       0.010
  -0.08593548  0.17212903  0.00000000       0.010
  -0.07519355  0.15061290  0.00000000       0.010
  -0.06445161  0.12909677  0.00000000       0.010
  -0.05370968  0.10758065  0.00000000       0.010
  -0.04296774  0.08606452  0.00000000       0.010
  -0.03222581  0.06454839  0.00000000       0.010
  -0.02148387  0.04303226  0.00000000       0.010
  -0.01074194  0.02151613  0.00000000       0.010
   0.00000000  0.00000000  0.00000000       0.010
   0.00000000  0.00000000  0.00000000       0.010
   0.01612903  0.00000000  0.00000000       0.010
   0.03225806  0.00000000  0.00000000       0.010
   0.04838710  0.00000000  0.00000000       0.010
   0.06451613  0.00000000  0.00000000       0.010
   0.08064516  0.00000000  0.00000000       0.010
   0.09677419  0.00000000  0.00000000       0.010
   0.11290323  0.00000000  0.00000000       0.010
   0.12903226  0.00000000  0.00000000       0.010
   0.14516129  0.00000000  0.00000000       0.010
   0.16129032  0.00000000  0.00000000       0.010
   0.17741935  0.00000000  0.00000000       0.010
   0.19354839  0.00000000  0.00000000       0.010
   0.20967742  0.00000000  0.00000000       0.010
   0.22580645  0.00000000  0.00000000       0.010
   0.24193548  0.00000000  0.00000000       0.010
   0.25806452  0.00000000  0.00000000       0.010
   0.27419355  0.00000000  0.00000000       0.010
   0.29032258  0.00000000  0.00000000       0.010
   0.30645161  0.00000000  0.00000000       0.010
   0.32258065  0.00000000  0.00000000       0.010
   0.33870968  0.00000000  0.00000000       0.010
   0.35483871  0.00000000  0.00000000       0.010
   0.37096774  0.00000000  0.00000000       0.010
   0.38709677  0.00000000  0.00000000       0.010
   0.40322581  0.00000000  0.00000000       0.010
   0.41935484  0.00000000  0.00000000       0.010
   0.43548387  0.00000000  0.00000000       0.010
   0.45161290  0.00000000  0.00000000       0.010
   0.46774194  0.00000000  0.00000000       0.010
   0.48387097  0.00000000  0.00000000       0.010
   0.50000000  0.00000000  0.00000000       0.010
   0.50000000  0.00000000  0.00000000       0.010
   0.47312903  0.02151613  0.00000000       0.010
   0.44625806  0.04303226  0.00000000       0.010
   0.41938710  0.06454839  0.00000000       0.010
   0.39251613  0.08606452  0.00000000       0.010
   0.36564516  0.10758065  0.00000000       0.010
   0.33877419  0.12909677  0.00000000       0.010
   0.31190323  0.15061290  0.00000000       0.010
   0.28503226  0.17212903  0.00000000       0.010
   0.25816129  0.19364516  0.00000000       0.010
   0.23129032  0.21516129  0.00000000       0.010
   0.20441935  0.23667742  0.00000000       0.010
   0.17754839  0.25819355  0.00000000       0.010
   0.15067742  0.27970968  0.00000000       0.010
   0.12380645  0.30122581  0.00000000       0.010
   0.09693548  0.32274194  0.00000000       0.010
   0.07006452  0.34425806  0.00000000       0.010
   0.04319355  0.36577419  0.00000000       0.010
   0.01632258  0.38729032  0.00000000       0.010
  -0.01054839  0.40880645  0.00000000       0.010
  -0.03741935  0.43032258  0.00000000       0.010
  -0.06429032  0.45183871  0.00000000       0.010
  -0.09116129  0.47335484  0.00000000       0.010
  -0.11803226  0.49487097  0.00000000       0.010
  -0.14490323  0.51638710  0.00000000       0.010
  -0.17177419  0.53790323  0.00000000       0.010
  -0.19864516  0.55941935  0.00000000       0.010
  -0.22551613  0.58093548  0.00000000       0.010
  -0.25238710  0.60245161  0.00000000       0.010
  -0.27925806  0.62396774  0.00000000       0.010
  -0.30612903  0.64548387  0.00000000       0.010
  -0.33300000  0.66700000  0.00000000       0.010
 
 position of ions in fractional coordinates (direct lattice) 
   0.17457326  0.17462620  0.00000000
   0.50792519  0.50792234  0.00000000
   0.00000000  0.00000000  0.00000000
   0.52377271  0.00000000  0.00000000
   0.68255138  0.15866994  0.00000000
   0.99994706  0.52387860  0.00000000
   0.15872573  0.68254854  0.00000000
   0.68249844  0.68254854  0.00000000
 
 position of ions in cartesian coordinates  (Angst):
   1.35500000  0.78250000  0.00000000
   3.94200000  2.27600000  0.00000000
   0.00000000  0.00000000  0.00000000
   2.71000000  0.00000000  0.00000000
   3.94200000  0.71100000  0.00000000
   6.52900000  2.34750000  0.00000000
   2.58700000  3.05850000  0.00000000
   5.29700000  3.05850000  0.00000000
 


--------------------------------------------------------------------------------------------------------


 k-point  1 :  -0.3330 0.6670 0.0000  plane waves:   10034
 k-point  2 :  -0.3223 0.6455 0.0000  plane waves:   10039
 k-point  3 :  -0.3115 0.6240 0.0000  plane waves:   10042
 k-point  4 :  -0.3008 0.6025 0.0000  plane waves:   10045
 k-point  5 :  -0.2900 0.5809 0.0000  plane waves:   10061
 k-point  6 :  -0.2793 0.5594 0.0000  plane waves:   10065
 k-point  7 :  -0.2685 0.5379 0.0000  plane waves:   10059
 k-point  8 :  -0.2578 0.5164 0.0000  plane waves:   10073
 k-point  9 :  -0.2471 0.4949 0.0000  plane waves:   10069
 k-point 10 :  -0.2363 0.4734 0.0000  plane waves:   10066
 k-point 11 :  -0.2256 0.4518 0.0000  plane waves:   10093
 k-point 12 :  -0.2148 0.4303 0.0000  plane waves:   10094
 k-point 13 :  -0.2041 0.4088 0.0000  plane waves:   10091
 k-point 14 :  -0.1934 0.3873 0.0000  plane waves:   10082
 k-point 15 :  -0.1826 0.3658 0.0000  plane waves:   10077
 k-point 16 :  -0.1719 0.3443 0.0000  plane waves:   10077
 k-point 17 :  -0.1611 0.3227 0.0000  plane waves:   10070
 k-point 18 :  -0.1504 0.3012 0.0000  plane waves:   10072
 k-point 19 :  -0.1396 0.2797 0.0000  plane waves:   10062
 k-point 20 :  -0.1289 0.2582 0.0000  plane waves:   10068
 k-point 21 :  -0.1182 0.2367 0.0000  plane waves:   10059
 k-point 22 :  -0.1074 0.2152 0.0000  plane waves:   10046
 k-point 23 :  -0.0967 0.1936 0.0000  plane waves:   10035
 k-point 24 :  -0.0859 0.1721 0.0000  plane waves:   10032
 k-point 25 :  -0.0752 0.1506 0.0000  plane waves:   10027
 k-point 26 :  -0.0645 0.1291 0.0000  plane waves:   10018
 k-point 27 :  -0.0537 0.1076 0.0000  plane waves:   10017
 k-point 28 :  -0.0430 0.0861 0.0000  plane waves:   10013
 k-point 29 :  -0.0322 0.0645 0.0000  plane waves:    9994
 k-point 30 :  -0.0215 0.0430 0.0000  plane waves:    9993
 k-point 31 :  -0.0107 0.0215 0.0000  plane waves:    9979
 k-point 32 :   0.0000 0.0000 0.0000  plane waves:    9963
 k-point 33 :   0.0000 0.0000 0.0000  plane waves:    9963
 k-point 34 :   0.0161 0.0000 0.0000  plane waves:    9969
 k-point 35 :   0.0323 0.0000 0.0000  plane waves:    9993
 k-point 36 :   0.0484 0.0000 0.0000  plane waves:    9999
 k-point 37 :   0.0645 0.0000 0.0000  plane waves:    9989
 k-point 38 :   0.0806 0.0000 0.0000  plane waves:   10001
 k-point 39 :   0.0968 0.0000 0.0000  plane waves:    9987
 k-point 40 :   0.1129 0.0000 0.0000  plane waves:    9997
 k-point 41 :   0.1290 0.0000 0.0000  plane waves:   10019
 k-point 42 :   0.1452 0.0000 0.0000  plane waves:   10029
 k-point 43 :   0.1613 0.0000 0.0000  plane waves:   10029
 k-point 44 :   0.1774 0.0000 0.0000  plane waves:   10041
 k-point 45 :   0.1935 0.0000 0.0000  plane waves:   10035
 k-point 46 :   0.2097 0.0000 0.0000  plane waves:   10019
 k-point 47 :   0.2258 0.0000 0.0000  plane waves:   10027
 k-point 48 :   0.2419 0.0000 0.0000  plane waves:   10031
 k-point 49 :   0.2581 0.0000 0.0000  plane waves:   10050
 k-point 50 :   0.2742 0.0000 0.0000  plane waves:   10054
 k-point 51 :   0.2903 0.0000 0.0000  plane waves:   10056
 k-point 52 :   0.3065 0.0000 0.0000  plane waves:   10040
 k-point 53 :   0.3226 0.0000 0.0000  plane waves:   10026
 k-point 54 :   0.3387 0.0000 0.0000  plane waves:   10034
 k-point 55 :   0.3548 0.0000 0.0000  plane waves:   10036
 k-point 56 :   0.3710 0.0000 0.0000  plane waves:   10064
 k-point 57 :   0.3871 0.0000 0.0000  plane waves:   10054
 k-point 58 :   0.4032 0.0000 0.0000  plane waves:   10050
 k-point 59 :   0.4194 0.0000 0.0000  plane waves:   10062
 k-point 60 :   0.4355 0.0000 0.0000  plane waves:   10046
 k-point 61 :   0.4516 0.0000 0.0000  plane waves:   10040
 k-point 62 :   0.4677 0.0000 0.0000  plane waves:   10050
 k-point 63 :   0.4839 0.0000 0.0000  plane waves:   10052
 k-point 64 :   0.5000 0.0000 0.0000  plane waves:   10056
 k-point 65 :   0.5000 0.0000 0.0000  plane waves:   10056
 k-point 66 :   0.4731 0.0215 0.0000  plane waves:   10041
 k-point 67 :   0.4463 0.0430 0.0000  plane waves:   10043
 k-point 68 :   0.4194 0.0645 0.0000  plane waves:   10045
 k-point 69 :   0.3925 0.0861 0.0000  plane waves:   10039
 k-point 70 :   0.3656 0.1076 0.0000  plane waves:   10053
 k-point 71 :   0.3388 0.1291 0.0000  plane waves:   10053
 k-point 72 :   0.3119 0.1506 0.0000  plane waves:   10035
 k-point 73 :   0.2850 0.1721 0.0000  plane waves:   10030
 k-point 74 :   0.2582 0.1936 0.0000  plane waves:   10033
 k-point 75 :   0.2313 0.2152 0.0000  plane waves:   10027
 k-point 76 :   0.2044 0.2367 0.0000  plane waves:   10027
 k-point 77 :   0.1775 0.2582 0.0000  plane waves:   10036
 k-point 78 :   0.1507 0.2797 0.0000  plane waves:   10026
 k-point 79 :   0.1238 0.3012 0.0000  plane waves:   10031
 k-point 80 :   0.0969 0.3227 0.0000  plane waves:   10048
 k-point 81 :   0.0701 0.3443 0.0000  plane waves:   10044
 k-point 82 :   0.0432 0.3658 0.0000  plane waves:   10047
 k-point 83 :   0.0163 0.3873 0.0000  plane waves:   10058
 k-point 84 :  -0.0105 0.4088 0.0000  plane waves:   10056
 k-point 85 :  -0.0374 0.4303 0.0000  plane waves:   10040
 k-point 86 :  -0.0643 0.4518 0.0000  plane waves:   10057
 k-point 87 :  -0.0912 0.4734 0.0000  plane waves:   10083
 k-point 88 :  -0.1180 0.4949 0.0000  plane waves:   10066
 k-point 89 :  -0.1449 0.5164 0.0000  plane waves:   10082
 k-point 90 :  -0.1718 0.5379 0.0000  plane waves:   10061
 k-point 91 :  -0.1986 0.5594 0.0000  plane waves:   10073
 k-point 92 :  -0.2255 0.5809 0.0000  plane waves:   10067
 k-point 93 :  -0.2524 0.6025 0.0000  plane waves:   10068
 k-point 94 :  -0.2793 0.6240 0.0000  plane waves:   10041
 k-point 95 :  -0.3061 0.6455 0.0000  plane waves:   10033
 k-point 96 :  -0.3330 0.6670 0.0000  plane waves:   10034

 maximum and minimum number of plane-waves per node :     10094     9963

 maximum number of plane-waves:     10094
 maximum index in each direction: 
   IXMAX=    9   IYMAX=    8   IZMAX=   34
   IXMIN=   -9   IYMIN=   -9   IZMIN=  -34


 serial   3D FFT for wavefunctions
 parallel 3D FFT for charge:
    minimum data exchange during FFTs selected (reduces bandwidth)


 total amount of memory used by VASP MPI-rank0   205636. kBytes
=======================================================================

   base      :      30000. kBytes
   nonl-proj :     125451. kBytes
   fftplans  :       4815. kBytes
   grid      :      14086. kBytes
   one-center:         24. kBytes
   wavefun   :      31260. kBytes
 
     INWAV:  cpu time    0.0001: real time    0.0001
 Broyden mixing: mesh for mixing (old mesh)
   NGX = 17   NGY = 17   NGZ = 69
  (NGX  = 72   NGY  = 72   NGZ  =280)
  gives a total of  19941 points

 initial charge density was supplied:
 charge density of overlapping atoms calculated
 number of electron      30.0000000 magnetization 
 keeping initial charge density in first step


--------------------------------------------------------------------------------------------------------


 Maximum index for augmentation-charges          407 (set IRDMAX)


--------------------------------------------------------------------------------------------------------


 First call to EWALD:  gamma=   0.229
 Maximum number of real-space cells 4x 4x 1
 Maximum number of reciprocal cells 2x 2x 6

    FEWALD:  cpu time    0.0020: real time    0.0021


--------------------------------------- Iteration      1(   1)  ---------------------------------------


    POTLOK:  cpu time    0.1537: real time    0.2209
    SETDIJ:  cpu time    0.0025: real time    0.0025
     EDDAV:  cpu time   15.2564: real time   15.2725
       DOS:  cpu time    0.0016: real time    0.0016
    --------------------------------------------
      LOOP:  cpu time   15.4143: real time   15.4975

 eigenvalue-minimisations  :  4920
 total energy-change (2. order) : 0.1996570E+03  (-0.9843771E+03)
 number of electron      30.0000000 magnetization 
 augmentation part       30.0000000 magnetization 

 Free energy of the ion-electron system (eV)
  ---------------------------------------------------
  alpha Z        PSCENC =        10.93933817
  Ewald energy   TEWEN  =      4060.05404224
  -Hartree energ DENC   =     -4796.78910906
  -exchange      EXHF   =         0.00000000
  -V(xc)+E(xc)   XCENC  =        91.14028263
  PAW double counting   =       738.13200929     -739.83780425
  entropy T*S    EENTRO =        -0.05532123
  eigenvalues    EBANDS =      -189.13035106
  atomic energy  EATOM  =      1025.20389953
  Solvation  Ediel_sol  =         0.00000000
  ---------------------------------------------------
  free energy    TOTEN  =       199.65698627 eV

  energy without entropy =      199.71230750  energy(sigma->0) =      199.68464688


--------------------------------------------------------------------------------------------------------




--------------------------------------- Iteration      1(   2)  ---------------------------------------


     EDDAV:  cpu time   20.4565: real time   20.4823
       DOS:  cpu time    0.0016: real time    0.0016
    --------------------------------------------
      LOOP:  cpu time   20.4581: real time   20.4839

 eigenvalue-minimisations  :  7296
 total energy-change (2. order) :-0.2397095E+03  (-0.2225303E+03)
 number of electron      30.0000000 magnetization 
 augmentation part       30.0000000 magnetization 

 Free energy of the ion-electron system (eV)
  ---------------------------------------------------
  alpha Z        PSCENC =        10.93933817
  Ewald energy   TEWEN  =      4060.05404224
  -Hartree energ DENC   =     -4796.78910906
  -exchange      EXHF   =         0.00000000
  -V(xc)+E(xc)   XCENC  =        91.14028263
  PAW double counting   =       738.13200929     -739.83780425
  entropy T*S    EENTRO =        -0.01059384
  eigenvalues    EBANDS =      -428.88460736
  atomic energy  EATOM  =      1025.20389953
  Solvation  Ediel_sol  =         0.00000000
  ---------------------------------------------------
  free energy    TOTEN  =       -40.05254264 eV

  energy without entropy =      -40.04194880  energy(sigma->0) =      -40.04724572


--------------------------------------------------------------------------------------------------------




--------------------------------------- Iteration      1(   3)  ---------------------------------------


     EDDAV:  cpu time   17.3121: real time   17.3379
       DOS:  cpu time    0.0010: real time    0.0010
    --------------------------------------------
      LOOP:  cpu time   17.3131: real time   17.3389

 eigenvalue-minimisations  :  5868
 total energy-change (2. order) :-0.3186344E+02  (-0.3154438E+02)
 number of electron      30.0000000 magnetization 
 augmentation part       30.0000000 magnetization 

 Free energy of the ion-electron system (eV)
  ---------------------------------------------------
  alpha Z        PSCENC =        10.93933817
  Ewald energy   TEWEN  =      4060.05404224
  -Hartree energ DENC   =     -4796.78910906
  -exchange      EXHF   =         0.00000000
  -V(xc)+E(xc)   XCENC  =        91.14028263
  PAW double counting   =       738.13200929     -739.83780425
  entropy T*S    EENTRO =        -0.00000000
  eigenvalues    EBANDS =      -460.75864316
  atomic energy  EATOM  =      1025.20389953
  Solvation  Ediel_sol  =         0.00000000
  ---------------------------------------------------
  free energy    TOTEN  =       -71.91598460 eV

  energy without entropy =      -71.91598460  energy(sigma->0) =      -71.91598460


--------------------------------------------------------------------------------------------------------




--------------------------------------- Iteration      1(   4)  ---------------------------------------


     EDDAV:  cpu time   18.9770: real time   19.0053
       DOS:  cpu time    0.0010: real time    0.0010
    --------------------------------------------
      LOOP:  cpu time   18.9780: real time   19.0063

 eigenvalue-minimisations  :  6612
 total energy-change (2. order) :-0.7371875E+00  (-0.7355844E+00)
 number of electron      30.0000000 magnetization 
 augmentation part       30.0000000 magnetization 

 Free energy of the ion-electron system (eV)
  ---------------------------------------------------
  alpha Z        PSCENC =        10.93933817
  Ewald energy   TEWEN  =      4060.05404224
  -Hartree energ DENC   =     -4796.78910906
  -exchange      EXHF   =         0.00000000
  -V(xc)+E(xc)   XCENC  =        91.14028263
  PAW double counting   =       738.13200929     -739.83780425
  entropy T*S    EENTRO =        -0.00000000
  eigenvalues    EBANDS =      -461.49583068
  atomic energy  EATOM  =      1025.20389953
  Solvation  Ediel_sol  =         0.00000000
  ---------------------------------------------------
  free energy    TOTEN  =       -72.65317212 eV

  energy without entropy =      -72.65317212  energy(sigma->0) =      -72.65317212


--------------------------------------------------------------------------------------------------------




--------------------------------------- Iteration      1(   5)  ---------------------------------------


     EDDAV:  cpu time   17.3354: real time   17.3540
       DOS:  cpu time    0.0010: real time    0.0010
    CHARGE:  cpu time    1.2213: real time    1.2225
    MIXING:  cpu time    0.0042: real time    0.0043
    --------------------------------------------
      LOOP:  cpu time   18.5619: real time   18.5817

 eigenvalue-minimisations  :  5880
 total energy-change (2. order) :-0.1904243E-01  (-0.1902542E-01)
 number of electron      30.0000000 magnetization 
 augmentation part        0.5989393 magnetization 

 Broyden mixing:
  rms(total) = 0.13285E+01    rms(broyden)= 0.13281E+01
  rms(prec ) = 0.14384E+01
  weight for this iteration     100.00

 Free energy of the ion-electron system (eV)
  ---------------------------------------------------
  alpha Z        PSCENC =        10.93933817
  Ewald energy   TEWEN  =      4060.05404224
  -Hartree energ DENC   =     -4796.78910906
  -exchange      EXHF   =         0.00000000
  -V(xc)+E(xc)   XCENC  =        91.14028263
  PAW double counting   =       738.13200929     -739.83780425
  entropy T*S    EENTRO =        -0.00000000
  eigenvalues    EBANDS =      -461.51487311
  atomic energy  EATOM  =      1025.20389953
  Solvation  Ediel_sol  =         0.00000000
  ---------------------------------------------------
  free energy    TOTEN  =       -72.67221455 eV

  energy without entropy =      -72.67221455  energy(sigma->0) =      -72.67221455


--------------------------------------------------------------------------------------------------------




--------------------------------------- Iteration      1(   6)  ---------------------------------------


    POTLOK:  cpu time    0.1351: real time    0.1353
    SETDIJ:  cpu time    0.0022: real time    0.0022
     EDDAV:  cpu time   19.3906: real time   19.4174
       DOS:  cpu time    0.0014: real time    0.0014
    CHARGE:  cpu time    1.2478: real time    1.2490
    MIXING:  cpu time    0.0045: real time    0.0045
    --------------------------------------------
      LOOP:  cpu time   20.7816: real time   20.8098

 eigenvalue-minimisations  :  6792
 total energy-change (2. order) : 0.4631866E+01  (-0.5525916E+00)
 number of electron      30.0000001 magnetization 
 augmentation part        0.5557550 magnetization 

 Broyden mixing:
  rms(total) = 0.74771E+00    rms(broyden)= 0.74766E+00
  rms(prec ) = 0.80189E+00
  weight for this iteration     100.00

 eigenvalues of (default mixing * dielectric matrix)
  average eigenvalue GAMMA=   1.9669
  1.9669

 Free energy of the ion-electron system (eV)
  ---------------------------------------------------
  alpha Z        PSCENC =        10.93933817
  Ewald energy   TEWEN  =      4060.05404224
  -Hartree energ DENC   =     -4844.44628218
  -exchange      EXHF   =         0.00000000
  -V(xc)+E(xc)   XCENC  =        93.19727976
  PAW double counting   =      1381.84858955    -1384.12747881
  entropy T*S    EENTRO =        -0.00000050
  eigenvalues    EBANDS =      -410.70973619
  atomic energy  EATOM  =      1025.20389953
  Solvation  Ediel_sol  =         0.00000000
  ---------------------------------------------------
  free energy    TOTEN  =       -68.04034843 eV

  energy without entropy =      -68.04034792  energy(sigma->0) =      -68.04034818


--------------------------------------------------------------------------------------------------------




--------------------------------------- Iteration      1(   7)  ---------------------------------------


    POTLOK:  cpu time    0.1338: real time    0.1340
    SETDIJ:  cpu time    0.0023: real time    0.0023
     EDDAV:  cpu time   19.3136: real time   19.3421
       DOS:  cpu time    0.0016: real time    0.0016
    CHARGE:  cpu time    1.2555: real time    1.2568
    MIXING:  cpu time    0.0044: real time    0.0044
    --------------------------------------------
      LOOP:  cpu time   20.7111: real time   20.7412

 eigenvalue-minimisations  :  6768
 total energy-change (2. order) : 0.1673065E+01  (-0.4099118E+00)
 number of electron      30.0000001 magnetization 
 augmentation part        0.5197338 magnetization 

 Broyden mixing:
  rms(total) = 0.22365E+00    rms(broyden)= 0.22355E+00
  rms(prec ) = 0.23713E+00
  weight for this iteration     100.00

 eigenvalues of (default mixing * dielectric matrix)
  average eigenvalue GAMMA=   1.9366
  1.4827  2.3905

 Free energy of the ion-electron system (eV)
  ---------------------------------------------------
  alpha Z        PSCENC =        10.93933817
  Ewald energy   TEWEN  =      4060.05404224
  -Hartree energ DENC   =     -4898.00768865
  -exchange      EXHF   =         0.00000000
  -V(xc)+E(xc)   XCENC  =        95.46719623
  PAW double counting   =      2466.45106988    -2469.15510687
  entropy T*S    EENTRO =        -0.00082123
  eigenvalues    EBANDS =      -357.31921242
  atomic energy  EATOM  =      1025.20389953
  Solvation  Ediel_sol  =         0.00000000
  ---------------------------------------------------
  free energy    TOTEN  =       -66.36728312 eV

  energy without entropy =      -66.36646188  energy(sigma->0) =      -66.36687250


--------------------------------------------------------------------------------------------------------




--------------------------------------- Iteration      1(   8)  ---------------------------------------


    POTLOK:  cpu time    0.1352: real time    0.1376
    SETDIJ:  cpu time    0.0022: real time    0.0022
     EDDAV:  cpu time   19.2194: real time   19.2433
       DOS:  cpu time    0.0014: real time    0.0014
    CHARGE:  cpu time    1.2464: real time    1.2474
    MIXING:  cpu time    0.0044: real time    0.0044
    --------------------------------------------
      LOOP:  cpu time   20.6089: real time   20.6364

 eigenvalue-minimisations  :  6744
 total energy-change (2. order) : 0.8737088E-01  (-0.2262413E-01)
 number of electron      30.0000001 magnetization 
 augmentation part        0.5142770 magnetization 

 Broyden mixing:
  rms(total) = 0.56924E-01    rms(broyden)= 0.56906E-01
  rms(prec ) = 0.72322E-01
  weight for this iteration     100.00

 eigenvalues of (default mixing * dielectric matrix)
  average eigenvalue GAMMA=   1.8205
  1.1671  2.0932  2.2014

 Free energy of the ion-electron system (eV)
  ---------------------------------------------------
  alpha Z        PSCENC =        10.93933817
  Ewald energy   TEWEN  =      4060.05404224
  -Hartree energ DENC   =     -4913.01241515
  -exchange      EXHF   =         0.00000000
  -V(xc)+E(xc)   XCENC  =        95.87540578
  PAW double counting   =      2875.69210606    -2878.32781153
  entropy T*S    EENTRO =        -0.00178500
  eigenvalues    EBANDS =      -342.70269233
  atomic energy  EATOM  =      1025.20389953
  Solvation  Ediel_sol  =         0.00000000
  ---------------------------------------------------
  free energy    TOTEN  =       -66.27991224 eV

  energy without entropy =      -66.27812723  energy(sigma->0) =      -66.27901973


--------------------------------------------------------------------------------------------------------




--------------------------------------- Iteration      1(   9)  ---------------------------------------


    POTLOK:  cpu time    0.1351: real time    0.1353
    SETDIJ:  cpu time    0.0022: real time    0.0022
     EDDAV:  cpu time   16.7696: real time   16.7906
       DOS:  cpu time    0.0015: real time    0.0015
    CHARGE:  cpu time    1.2471: real time    1.2482
    MIXING:  cpu time    0.0048: real time    0.0048
    --------------------------------------------
      LOOP:  cpu time   18.1603: real time   18.1826

 eigenvalue-minimisations  :  5628
 total energy-change (2. order) : 0.1707280E-01  (-0.1995183E-02)
 number of electron      30.0000001 magnetization 
 augmentation part        0.5146166 magnetization 

 Broyden mixing:
  rms(total) = 0.18351E-01    rms(broyden)= 0.18348E-01
  rms(prec ) = 0.36774E-01
  weight for this iteration     100.00

 eigenvalues of (default mixing * dielectric matrix)
  average eigenvalue GAMMA=   1.8620
  1.1079  2.4184  2.4184  1.5033

 Free energy of the ion-electron system (eV)
  ---------------------------------------------------
  alpha Z        PSCENC =        10.93933817
  Ewald energy   TEWEN  =      4060.05404224
  -Hartree energ DENC   =     -4919.07608768
  -exchange      EXHF   =         0.00000000
  -V(xc)+E(xc)   XCENC  =        95.92548502
  PAW double counting   =      2923.07421549    -2925.64340202
  entropy T*S    EENTRO =        -0.00180884
  eigenvalues    EBANDS =      -336.73852135
  atomic energy  EATOM  =      1025.20389953
  Solvation  Ediel_sol  =         0.00000000
  ---------------------------------------------------
  free energy    TOTEN  =       -66.26283944 eV

  energy without entropy =      -66.26103060  energy(sigma->0) =      -66.26193502


--------------------------------------------------------------------------------------------------------




--------------------------------------- Iteration      1(  10)  ---------------------------------------


    POTLOK:  cpu time    0.1360: real time    0.1362
    SETDIJ:  cpu time    0.0022: real time    0.0022
     EDDAV:  cpu time   17.0236: real time   17.0442
       DOS:  cpu time    0.0016: real time    0.0016
    CHARGE:  cpu time    1.2536: real time    1.2546
    MIXING:  cpu time    0.0047: real time    0.0047
    --------------------------------------------
      LOOP:  cpu time   18.4216: real time   18.4435

 eigenvalue-minimisations  :  5748
 total energy-change (2. order) : 0.1195790E-01  (-0.1131510E-02)
 number of electron      30.0000001 magnetization 
 augmentation part        0.5133784 magnetization 

 Broyden mixing:
  rms(total) = 0.13234E-01    rms(broyden)= 0.13231E-01
  rms(prec ) = 0.23016E-01
  weight for this iteration     100.00

 eigenvalues of (default mixing * dielectric matrix)
  average eigenvalue GAMMA=   1.8804
  2.6642  2.6642  0.9477  1.8147  1.3114

 Free energy of the ion-electron system (eV)
  ---------------------------------------------------
  alpha Z        PSCENC =        10.93933817
  Ewald energy   TEWEN  =      4060.05404224
  -Hartree energ DENC   =     -4928.14107217
  -exchange      EXHF   =         0.00000000
  -V(xc)+E(xc)   XCENC  =        96.04899131
  PAW double counting   =      2935.16340215    -2937.71107829
  entropy T*S    EENTRO =        -0.00237327
  eigenvalues    EBANDS =      -327.80603121
  atomic energy  EATOM  =      1025.20389953
  Solvation  Ediel_sol  =         0.00000000
  ---------------------------------------------------
  free energy    TOTEN  =       -66.25088154 eV

  energy without entropy =      -66.24850827  energy(sigma->0) =      -66.24969490


--------------------------------------------------------------------------------------------------------




--------------------------------------- Iteration      1(  11)  ---------------------------------------


    POTLOK:  cpu time    0.1368: real time    0.1369
    SETDIJ:  cpu time    0.0021: real time    0.0021
     EDDAV:  cpu time   16.0585: real time   16.0792
       DOS:  cpu time    0.0016: real time    0.0016
    CHARGE:  cpu time    1.2472: real time    1.2485
    MIXING:  cpu time    0.0046: real time    0.0046
    --------------------------------------------
      LOOP:  cpu time   17.4509: real time   17.4729

 eigenvalue-minimisations  :  5328
 total energy-change (2. order) : 0.5349499E-03  (-0.4417838E-03)
 number of electron      30.0000001 magnetization 
 augmentation part        0.5128997 magnetization 

 Broyden mixing:
  rms(total) = 0.58010E-02    rms(broyden)= 0.57976E-02
  rms(prec ) = 0.12159E-01
  weight for this iteration     100.00

 eigenvalues of (default mixing * dielectric matrix)
  average eigenvalue GAMMA=   2.1261
  4.4834  2.5123  2.0884  0.9444  1.2664  1.4617

 Free energy of the ion-electron system (eV)
  ---------------------------------------------------
  alpha Z        PSCENC =        10.93933817
  Ewald energy   TEWEN  =      4060.05404224
  -Hartree energ DENC   =     -4933.80262856
  -exchange      EXHF   =         0.00000000
  -V(xc)+E(xc)   XCENC  =        96.09703761
  PAW double counting   =      2913.24476724    -2915.79614430
  entropy T*S    EENTRO =        -0.00252951
  eigenvalues    EBANDS =      -322.18812901
  atomic energy  EATOM  =      1025.20389953
  Solvation  Ediel_sol  =         0.00000000
  ---------------------------------------------------
  free energy    TOTEN  =       -66.25034659 eV

  energy without entropy =      -66.24781708  energy(sigma->0) =      -66.24908183


--------------------------------------------------------------------------------------------------------




--------------------------------------- Iteration      1(  12)  ---------------------------------------


    POTLOK:  cpu time    0.1366: real time    0.1396
    SETDIJ:  cpu time    0.0021: real time    0.0021
     EDDAV:  cpu time   15.3700: real time   15.3896
       DOS:  cpu time    0.0016: real time    0.0016
    CHARGE:  cpu time    1.2586: real time    1.2597
    MIXING:  cpu time    0.0047: real time    0.0047
    --------------------------------------------
      LOOP:  cpu time   16.7736: real time   16.7973

 eigenvalue-minimisations  :  4968
 total energy-change (2. order) : 0.2019532E-03  (-0.2008414E-03)
 number of electron      30.0000002 magnetization 
 augmentation part        0.5126197 magnetization 

 Broyden mixing:
  rms(total) = 0.38544E-02    rms(broyden)= 0.38528E-02
  rms(prec ) = 0.67559E-02
  weight for this iteration     100.00

 eigenvalues of (default mixing * dielectric matrix)
  average eigenvalue GAMMA=   2.3178
  5.7420  2.8145  2.3180  1.9148  0.9790  1.2283  1.2283

 Free energy of the ion-electron system (eV)
  ---------------------------------------------------
  alpha Z        PSCENC =        10.93933817
  Ewald energy   TEWEN  =      4060.05404224
  -Hartree energ DENC   =     -4938.32086985
  -exchange      EXHF   =         0.00000000
  -V(xc)+E(xc)   XCENC  =        96.13091027
  PAW double counting   =      2907.12815043    -2909.67988139
  entropy T*S    EENTRO =        -0.00270774
  eigenvalues    EBANDS =      -317.70302630
  atomic energy  EATOM  =      1025.20389953
  Solvation  Ediel_sol  =         0.00000000
  ---------------------------------------------------
  free energy    TOTEN  =       -66.25014463 eV

  energy without entropy =      -66.24743690  energy(sigma->0) =      -66.24879076


--------------------------------------------------------------------------------------------------------




--------------------------------------- Iteration      1(  13)  ---------------------------------------


    POTLOK:  cpu time    0.1347: real time    0.1349
    SETDIJ:  cpu time    0.0022: real time    0.0022
     EDDAV:  cpu time   15.0291: real time   15.0483
       DOS:  cpu time    0.0015: real time    0.0015
    CHARGE:  cpu time    1.2418: real time    1.2437
    MIXING:  cpu time    0.0049: real time    0.0049
    --------------------------------------------
      LOOP:  cpu time   16.4142: real time   16.4356

 eigenvalue-minimisations  :  4812
 total energy-change (2. order) :-0.4252142E-02  (-0.4437194E-04)
 number of electron      30.0000002 magnetization 
 augmentation part        0.5125283 magnetization 

 Broyden mixing:
  rms(total) = 0.21636E-02    rms(broyden)= 0.21632E-02
  rms(prec ) = 0.32385E-02
  weight for this iteration     100.00

 eigenvalues of (default mixing * dielectric matrix)
  average eigenvalue GAMMA=   2.4094
  6.4755  3.3522  2.5468  2.0876  0.9823  1.0424  1.3941  1.3941

 Free energy of the ion-electron system (eV)
  ---------------------------------------------------
  alpha Z        PSCENC =        10.93933817
  Ewald energy   TEWEN  =      4060.05404224
  -Hartree energ DENC   =     -4939.95457553
  -exchange      EXHF   =         0.00000000
  -V(xc)+E(xc)   XCENC  =        96.12378974
  PAW double counting   =      2907.01025490    -2909.56260527
  entropy T*S    EENTRO =        -0.00273762
  eigenvalues    EBANDS =      -316.06580295
  atomic energy  EATOM  =      1025.20389953
  Solvation  Ediel_sol  =         0.00000000
  ---------------------------------------------------
  free energy    TOTEN  =       -66.25439677 eV

  energy without entropy =      -66.25165916  energy(sigma->0) =      -66.25302797


--------------------------------------------------------------------------------------------------------




--------------------------------------- Iteration      1(  14)  ---------------------------------------


    POTLOK:  cpu time    0.1343: real time    0.1348
    SETDIJ:  cpu time    0.0022: real time    0.0022
     EDDAV:  cpu time   15.7082: real time   15.8609
       DOS:  cpu time    0.0015: real time    0.0015
    CHARGE:  cpu time    1.2374: real time    1.2376
    MIXING:  cpu time    0.0050: real time    0.0050
    --------------------------------------------
      LOOP:  cpu time   17.0885: real time   17.2420

 eigenvalue-minimisations  :  5028
 total energy-change (2. order) :-0.2582878E-02  (-0.3134114E-04)
 number of electron      30.0000002 magnetization 
 augmentation part        0.5125115 magnetization 

 Broyden mixing:
  rms(total) = 0.13265E-02    rms(broyden)= 0.13265E-02
  rms(prec ) = 0.17366E-02
  weight for this iteration     100.00

 eigenvalues of (default mixing * dielectric matrix)
  average eigenvalue GAMMA=   2.5344
  7.6714  3.8402  2.4191  2.4191  1.9557  0.9513  1.0281  1.2623  1.2623

 Free energy of the ion-electron system (eV)
  ---------------------------------------------------
  alpha Z        PSCENC =        10.93933817
  Ewald energy   TEWEN  =      4060.05404224
  -Hartree energ DENC   =     -4940.27094329
  -exchange      EXHF   =         0.00000000
  -V(xc)+E(xc)   XCENC  =        96.11715816
  PAW double counting   =      2912.45977007    -2915.01021720
  entropy T*S    EENTRO =        -0.00271451
  eigenvalues    EBANDS =      -315.74731282
  atomic energy  EATOM  =      1025.20389953
  Solvation  Ediel_sol  =         0.00000000
  ---------------------------------------------------
  free energy    TOTEN  =       -66.25697965 eV

  energy without entropy =      -66.25426514  energy(sigma->0) =      -66.25562240


--------------------------------------------------------------------------------------------------------




--------------------------------------- Iteration      1(  15)  ---------------------------------------


    POTLOK:  cpu time    0.1344: real time    0.1346
    SETDIJ:  cpu time    0.0022: real time    0.0022
     EDDAV:  cpu time   15.3971: real time   15.4058
       DOS:  cpu time    0.0015: real time    0.0015
    CHARGE:  cpu time    1.2383: real time    1.2388
    MIXING:  cpu time    0.0051: real time    0.0051
    --------------------------------------------
      LOOP:  cpu time   16.7785: real time   16.7880

 eigenvalue-minimisations  :  4980
 total energy-change (2. order) :-0.7465615E-03  (-0.4827051E-05)
 number of electron      30.0000002 magnetization 
 augmentation part        0.5124779 magnetization 

 Broyden mixing:
  rms(total) = 0.48255E-03    rms(broyden)= 0.48247E-03
  rms(prec ) = 0.75605E-03
  weight for this iteration     100.00

 eigenvalues of (default mixing * dielectric matrix)
  average eigenvalue GAMMA=   2.5903
  7.8810  4.5941  2.5361  2.5361  2.0496  1.8898  1.2316  1.2316  0.9582  0.9950

 Free energy of the ion-electron system (eV)
  ---------------------------------------------------
  alpha Z        PSCENC =        10.93933817
  Ewald energy   TEWEN  =      4060.05404224
  -Hartree energ DENC   =     -4940.60065606
  -exchange      EXHF   =         0.00000000
  -V(xc)+E(xc)   XCENC  =        96.11827385
  PAW double counting   =      2910.16726424    -2912.71820339
  entropy T*S    EENTRO =        -0.00271924
  eigenvalues    EBANDS =      -315.41896556
  atomic energy  EATOM  =      1025.20389953
  Solvation  Ediel_sol  =         0.00000000
  ---------------------------------------------------
  free energy    TOTEN  =       -66.25772621 eV

  energy without entropy =      -66.25500697  energy(sigma->0) =      -66.25636659


--------------------------------------------------------------------------------------------------------




--------------------------------------- Iteration      1(  16)  ---------------------------------------


    POTLOK:  cpu time    0.1381: real time    0.1403
    SETDIJ:  cpu time    0.0022: real time    0.0022
     EDDAV:  cpu time   14.5954: real time   14.6124
       DOS:  cpu time    0.0016: real time    0.0016
    CHARGE:  cpu time    1.2571: real time    1.2603
    MIXING:  cpu time    0.0054: real time    0.0054
    --------------------------------------------
      LOOP:  cpu time   15.9998: real time   16.0222

 eigenvalue-minimisations  :  4632
 total energy-change (2. order) :-0.3727489E-03  (-0.3484359E-05)
 number of electron      30.0000002 magnetization 
 augmentation part        0.5124791 magnetization 

 Broyden mixing:
  rms(total) = 0.17939E-03    rms(broyden)= 0.17932E-03
  rms(prec ) = 0.34884E-03
  weight for this iteration     100.00

 eigenvalues of (default mixing * dielectric matrix)
  average eigenvalue GAMMA=   2.5568
  8.3480  4.8093  3.0035  2.5173  2.1704  1.8941  1.2431  1.2431  1.0190  0.9384
  0.9384

 Free energy of the ion-electron system (eV)
  ---------------------------------------------------
  alpha Z        PSCENC =        10.93933817
  Ewald energy   TEWEN  =      4060.05404224
  -Hartree energ DENC   =     -4940.67011283
  -exchange      EXHF   =         0.00000000
  -V(xc)+E(xc)   XCENC  =        96.11783185
  PAW double counting   =      2909.99815635    -2912.54906539
  entropy T*S    EENTRO =        -0.00271517
  eigenvalues    EBANDS =      -315.34947371
  atomic energy  EATOM  =      1025.20389953
  Solvation  Ediel_sol  =         0.00000000
  ---------------------------------------------------
  free energy    TOTEN  =       -66.25809896 eV

  energy without entropy =      -66.25538379  energy(sigma->0) =      -66.25674138


--------------------------------------------------------------------------------------------------------




--------------------------------------- Iteration      1(  17)  ---------------------------------------


    POTLOK:  cpu time    0.1367: real time    0.1371
    SETDIJ:  cpu time    0.0022: real time    0.0022
     EDDAV:  cpu time   15.6420: real time   15.6636
       DOS:  cpu time    0.0016: real time    0.0016
    CHARGE:  cpu time    1.2698: real time    1.2710
    MIXING:  cpu time    0.0055: real time    0.0055
    --------------------------------------------
      LOOP:  cpu time   17.0577: real time   17.0809

 eigenvalue-minimisations  :  5064
 total energy-change (2. order) :-0.6522704E-04  (-0.3658549E-06)
 number of electron      30.0000002 magnetization 
 augmentation part        0.5124753 magnetization 

 Broyden mixing:
  rms(total) = 0.11878E-03    rms(broyden)= 0.11876E-03
  rms(prec ) = 0.24491E-03
  weight for this iteration     100.00

 eigenvalues of (default mixing * dielectric matrix)
  average eigenvalue GAMMA=   2.5632
  8.3511  5.1849  3.0457  2.5312  2.4786  1.9934  1.6889  1.3234  0.9571  1.0151
  1.0943  1.0943

 Free energy of the ion-electron system (eV)
  ---------------------------------------------------
  alpha Z        PSCENC =        10.93933817
  Ewald energy   TEWEN  =      4060.05404224
  -Hartree energ DENC   =     -4940.71528420
  -exchange      EXHF   =         0.00000000
  -V(xc)+E(xc)   XCENC  =        96.11807757
  PAW double counting   =      2909.73860957    -2912.28953056
  entropy T*S    EENTRO =        -0.00271702
  eigenvalues    EBANDS =      -315.30459950
  atomic energy  EATOM  =      1025.20389953
  Solvation  Ediel_sol  =         0.00000000
  ---------------------------------------------------
  free energy    TOTEN  =       -66.25816419 eV

  energy without entropy =      -66.25544717  energy(sigma->0) =      -66.25680568


--------------------------------------------------------------------------------------------------------




--------------------------------------- Iteration      1(  18)  ---------------------------------------


    POTLOK:  cpu time    0.1360: real time    0.1362
    SETDIJ:  cpu time    0.0022: real time    0.0022
     EDDAV:  cpu time   15.0849: real time   15.1047
       DOS:  cpu time    0.0016: real time    0.0016
    CHARGE:  cpu time    1.2696: real time    1.2709
    MIXING:  cpu time    0.0056: real time    0.0056
    --------------------------------------------
      LOOP:  cpu time   16.4999: real time   16.5211

 eigenvalue-minimisations  :  4848
 total energy-change (2. order) :-0.3746876E-04  (-0.2061212E-06)
 number of electron      30.0000002 magnetization 
 augmentation part        0.5124744 magnetization 

 Broyden mixing:
  rms(total) = 0.55654E-04    rms(broyden)= 0.55648E-04
  rms(prec ) = 0.13993E-03
  weight for this iteration     100.00

 eigenvalues of (default mixing * dielectric matrix)
  average eigenvalue GAMMA=   2.5513
  8.3794  5.3983  3.5396  2.7729  2.5064  2.1384  1.8519  1.2391  1.2391  0.9469
  1.0163  1.0696  1.0696

 Free energy of the ion-electron system (eV)
  ---------------------------------------------------
  alpha Z        PSCENC =        10.93933817
  Ewald energy   TEWEN  =      4060.05404224
  -Hartree energ DENC   =     -4940.74640849
  -exchange      EXHF   =         0.00000000
  -V(xc)+E(xc)   XCENC  =        96.11778799
  PAW double counting   =      2909.85911017    -2912.41003455
  entropy T*S    EENTRO =        -0.00271647
  eigenvalues    EBANDS =      -315.27322025
  atomic energy  EATOM  =      1025.20389953
  Solvation  Ediel_sol  =         0.00000000
  ---------------------------------------------------
  free energy    TOTEN  =       -66.25820166 eV

  energy without entropy =      -66.25548519  energy(sigma->0) =      -66.25684343


--------------------------------------------------------------------------------------------------------




--------------------------------------- Iteration      1(  19)  ---------------------------------------


    POTLOK:  cpu time    0.1353: real time    0.1355
    SETDIJ:  cpu time    0.0023: real time    0.0023
     EDDAV:  cpu time   15.5607: real time   15.5795
       DOS:  cpu time    0.0015: real time    0.0015
    CHARGE:  cpu time    1.2836: real time    1.2838
    MIXING:  cpu time    0.0057: real time    0.0057
    --------------------------------------------
      LOOP:  cpu time   16.9891: real time   17.0084

 eigenvalue-minimisations  :  5040
 total energy-change (2. order) :-0.1403359E-04  (-0.6020280E-07)
 number of electron      30.0000002 magnetization 
 augmentation part        0.5124725 magnetization 

 Broyden mixing:
  rms(total) = 0.51710E-04    rms(broyden)= 0.51708E-04
  rms(prec ) = 0.88122E-04
  weight for this iteration     100.00

 eigenvalues of (default mixing * dielectric matrix)
  average eigenvalue GAMMA=   2.5294
  8.3626  5.6157  3.8549  2.9779  2.3828  2.2865  1.9316  1.5552  1.3236  1.1083
  1.1083  1.0043  0.9500  0.9500

 Free energy of the ion-electron system (eV)
  ---------------------------------------------------
  alpha Z        PSCENC =        10.93933817
  Ewald energy   TEWEN  =      4060.05404224
  -Hartree energ DENC   =     -4940.78325313
  -exchange      EXHF   =         0.00000000
  -V(xc)+E(xc)   XCENC  =        96.11786661
  PAW double counting   =      2909.85672003    -2912.40761859
  entropy T*S    EENTRO =        -0.00271718
  eigenvalues    EBANDS =      -315.23649338
  atomic energy  EATOM  =      1025.20389953
  Solvation  Ediel_sol  =         0.00000000
  ---------------------------------------------------
  free energy    TOTEN  =       -66.25821569 eV

  energy without entropy =      -66.25549851  energy(sigma->0) =      -66.25685710


--------------------------------------------------------------------------------------------------------




--------------------------------------- Iteration      1(  20)  ---------------------------------------


    POTLOK:  cpu time    0.1365: real time    0.1383
    SETDIJ:  cpu time    0.0022: real time    0.0022
     EDDAV:  cpu time   12.2962: real time   12.2998
       DOS:  cpu time    0.0016: real time    0.0016
    CHARGE:  cpu time    1.2490: real time    1.2494
    MIXING:  cpu time    0.0063: real time    0.0063
    --------------------------------------------
      LOOP:  cpu time   13.6918: real time   13.6975

 eigenvalue-minimisations  :  3504
 total energy-change (2. order) :-0.8634399E-05  (-0.4432152E-08)
 number of electron      30.0000002 magnetization 
 augmentation part        0.5124720 magnetization 

 Broyden mixing:
  rms(total) = 0.32922E-04    rms(broyden)= 0.32921E-04
  rms(prec ) = 0.47434E-04
  weight for this iteration     100.00

 eigenvalues of (default mixing * dielectric matrix)
  average eigenvalue GAMMA=   2.6830
  8.3930  6.7727  4.8122  3.3644  2.6526  2.5148  2.1496  1.9170  1.2757  1.2757
  1.1082  1.1082  0.9853  0.9577  0.9577

 Free energy of the ion-electron system (eV)
  ---------------------------------------------------
  alpha Z        PSCENC =        10.93933817
  Ewald energy   TEWEN  =      4060.05404224
  -Hartree energ DENC   =     -4940.80193032
  -exchange      EXHF   =         0.00000000
  -V(xc)+E(xc)   XCENC  =        96.11787365
  PAW double counting   =      2909.81606576    -2912.36698308
  entropy T*S    EENTRO =        -0.00271709
  eigenvalues    EBANDS =      -315.21781319
  atomic energy  EATOM  =      1025.20389953
  Solvation  Ediel_sol  =         0.00000000
  ---------------------------------------------------
  free energy    TOTEN  =       -66.25822433 eV

  energy without entropy =      -66.25550724  energy(sigma->0) =      -66.25686578


--------------------------------------------------------------------------------------------------------




--------------------------------------- Iteration      1(  21)  ---------------------------------------


    POTLOK:  cpu time    0.1367: real time    0.1370
    SETDIJ:  cpu time    0.0022: real time    0.0022
     EDDAV:  cpu time   12.2295: real time   12.2558
       DOS:  cpu time    0.0015: real time    0.0015
    CHARGE:  cpu time    1.2474: real time    1.2477
    MIXING:  cpu time    0.0063: real time    0.0063
    --------------------------------------------
      LOOP:  cpu time   13.6236: real time   13.6505

 eigenvalue-minimisations  :  3492
 total energy-change (2. order) :-0.6336324E-05  (-0.4206232E-08)
 number of electron      30.0000002 magnetization 
 augmentation part        0.5124724 magnetization 

 Broyden mixing:
  rms(total) = 0.17261E-04    rms(broyden)= 0.17259E-04
  rms(prec ) = 0.19533E-04
  weight for this iteration     100.00

 eigenvalues of (default mixing * dielectric matrix)
  average eigenvalue GAMMA=   2.8255
  8.9499  8.2988  5.2215  3.5715  2.5657  2.4964  2.4964  2.1347  1.8951  1.2778
  1.1200  1.1200  0.9563  1.0050  1.0050  1.0936

 Free energy of the ion-electron system (eV)
  ---------------------------------------------------
  alpha Z        PSCENC =        10.93933817
  Ewald energy   TEWEN  =      4060.05404224
  -Hartree energ DENC   =     -4940.81024019
  -exchange      EXHF   =         0.00000000
  -V(xc)+E(xc)   XCENC  =        96.11784842
  PAW double counting   =      2909.83343726    -2912.38434442
  entropy T*S    EENTRO =        -0.00271675
  eigenvalues    EBANDS =      -315.20949492
  atomic energy  EATOM  =      1025.20389953
  Solvation  Ediel_sol  =         0.00000000
  ---------------------------------------------------
  free energy    TOTEN  =       -66.25823066 eV

  energy without entropy =      -66.25551391  energy(sigma->0) =      -66.25687229


--------------------------------------------------------------------------------------------------------




--------------------------------------- Iteration      1(  22)  ---------------------------------------


    POTLOK:  cpu time    0.1369: real time    0.1371
    SETDIJ:  cpu time    0.0022: real time    0.0022
     EDDAV:  cpu time   12.2596: real time   12.2661
       DOS:  cpu time    0.0016: real time    0.0016
    CHARGE:  cpu time    1.2531: real time    1.2535
    MIXING:  cpu time    0.0063: real time    0.0063
    --------------------------------------------
      LOOP:  cpu time   13.6598: real time   13.6668

 eigenvalue-minimisations  :  3516
 total energy-change (2. order) :-0.1286076E-05  (-0.1246306E-08)
 number of electron      30.0000002 magnetization 
 augmentation part        0.5124725 magnetization 

 Broyden mixing:
  rms(total) = 0.32938E-05    rms(broyden)= 0.32926E-05
  rms(prec ) = 0.38874E-05
  weight for this iteration     100.00

 eigenvalues of (default mixing * dielectric matrix)
  average eigenvalue GAMMA=   2.8063
  9.4686  8.4611  5.2826  3.7518  2.8702  2.6863  2.4211  2.1136  1.9268  1.2813
  1.2813  1.1057  1.1057  0.9634  0.9634  1.0121  1.0121

 Free energy of the ion-electron system (eV)
  ---------------------------------------------------
  alpha Z        PSCENC =        10.93933817
  Ewald energy   TEWEN  =      4060.05404224
  -Hartree energ DENC   =     -4940.81248909
  -exchange      EXHF   =         0.00000000
  -V(xc)+E(xc)   XCENC  =        96.11786366
  PAW double counting   =      2909.83609230    -2912.38700083
  entropy T*S    EENTRO =        -0.00271696
  eigenvalues    EBANDS =      -315.20726096
  atomic energy  EATOM  =      1025.20389953
  Solvation  Ediel_sol  =         0.00000000
  ---------------------------------------------------
  free energy    TOTEN  =       -66.25823195 eV

  energy without entropy =      -66.25551499  energy(sigma->0) =      -66.25687347


--------------------------------------------------------------------------------------------------------




--------------------------------------- Iteration      1(  23)  ---------------------------------------


    POTLOK:  cpu time    0.1378: real time    0.1380
    SETDIJ:  cpu time    0.0022: real time    0.0022
     EDDAV:  cpu time   12.4844: real time   12.4921
[...]
     24       3.6081      0.00000

 k-point    84 :      -0.0105    0.4088    0.0000
  band No.  band energies     occupation 
      1     -19.6954      2.00000
      2     -17.8501      2.00000
      3     -16.7757      2.00000
      4     -14.5302      2.00000
      5     -12.4094      2.00000
      6     -10.6312      2.00000
      7     -10.1571      2.00000
      8      -9.2871      2.00000
      9      -8.5236      2.00000
     10      -8.1311      2.00000
     11      -6.9293      2.00000
     12      -6.7741      2.00000
     13      -6.5329      2.00000
     14      -5.2836      2.00000
     15      -5.1040      2.00000
     16      -3.5211      0.01641
     17       0.2551      0.00000
     18       1.0675      0.00000
     19       1.6836      0.00000
     20       2.4493      0.00000
     21       2.7745      0.00000
     22       2.9344      0.00000
     23       3.5048      0.00000
     24       3.6825      0.00000

 k-point    85 :      -0.0374    0.4303    0.0000
  band No.  band energies     occupation 
      1     -19.6528      2.00000
      2     -17.9220      2.00000
      3     -16.8138      2.00000
      4     -14.5215      2.00000
      5     -12.3092      2.00000
      6     -10.3874      2.00000
      7     -10.2790      2.00000
      8      -9.3596      2.00000
      9      -8.3104      2.00000
     10      -8.0189      2.00000
     11      -7.2903      2.00000
     12      -6.9179      2.00000
     13      -6.5070      2.00000
     14      -5.3804      2.00000
     15      -5.1593      2.00000
     16      -3.4993      0.01067
     17       0.2037      0.00000
     18       1.2384      0.00000
     19       1.9111      0.00000
     20       2.6533      0.00000
     21       2.6742      0.00000
     22       3.0070      0.00000
     23       3.3856      0.00000
     24       3.7677      0.00000

 k-point    86 :      -0.0643    0.4518    0.0000
  band No.  band energies     occupation 
      1     -19.6269      2.00000
      2     -17.9521      2.00000
      3     -16.8656      2.00000
      4     -14.4716      2.00000
      5     -12.2860      2.00000
      6     -10.4655      2.00000
      7     -10.1049      2.00000
      8      -9.4227      2.00000
      9      -8.0146      2.00000
     10      -7.9440      2.00000
     11      -7.6235      2.00000
     12      -6.9918      2.00000
     13      -6.5186      2.00000
     14      -5.4647      2.00000
     15      -5.2519      2.00000
     16      -3.4162      0.00168
     17       0.0651      0.00000
     18       1.4483      0.00000
     19       2.1642      0.00000
     20       2.3975      0.00000
     21       2.9199      0.00000
     22       3.1518      0.00000
     23       3.2658      0.00000
     24       3.5048      0.00000

 k-point    87 :      -0.0912    0.4734    0.0000
  band No.  band energies     occupation 
      1     -19.6210      2.00000
      2     -17.9376      2.00000
      3     -16.9264      2.00000
      4     -14.3852      2.00000
      5     -12.3525      2.00000
      6     -10.5554      2.00000
      7     -10.0274      2.00000
      8      -9.3227      2.00000
      9      -8.0288      2.00000
     10      -7.9334      2.00000
     11      -7.5981      2.00000
     12      -6.9693      2.00000
     13      -6.5698      2.00000
     14      -5.5274      2.00000
     15      -5.3669      2.00000
     16      -3.2879      0.00005
     17      -0.1210      0.00000
     18       1.6546      0.00000
     19       2.1669      0.00000
     20       2.4427      0.00000
     21       2.9255      0.00000
     22       3.1970      0.00000
     23       3.2682      0.00000
     24       3.5509      0.00000

 k-point    88 :      -0.1180    0.4949    0.0000
  band No.  band energies     occupation 
      1     -19.6340      2.00000
      2     -17.8815      2.00000
      3     -16.9900      2.00000
      4     -14.2689      2.00000
      5     -12.5062      2.00000
      6     -10.5924      2.00000
      7     -10.0755      2.00000
      8      -9.1202      2.00000
      9      -8.2708      2.00000
     10      -7.9834      2.00000
     11      -7.2919      2.00000
     12      -6.8556      2.00000
     13      -6.6449      2.00000
     14      -5.5641      2.00000
     15      -5.4883      2.00000
     16      -3.1355      0.00000
     17      -0.3281      0.00000
     18       1.8353      0.00000
     19       1.9617      0.00000
     20       2.7368      0.00000
     21       2.7464      0.00000
     22       3.0579      0.00000
     23       3.4758      0.00000
     24       3.8622      0.00000

 k-point    89 :      -0.1449    0.5164    0.0000
  band No.  band energies     occupation 
      1     -19.6614      2.00000
      2     -17.7932      2.00000
      3     -17.0481      2.00000
      4     -14.1328      2.00000
      5     -12.7227      2.00000
      6     -10.5920      2.00000
      7     -10.1479      2.00000
      8      -9.0502      2.00000
      9      -8.3267      2.00000
     10      -8.0650      2.00000
     11      -7.0702      2.00000
     12      -6.6847      2.00000
     13      -6.6655      2.00000
     14      -5.6022      2.00000
     15      -5.5738      2.00000
     16      -2.9839      0.00000
     17      -0.5297      0.00000
     18       1.7819      0.00000
     19       1.9731      0.00000
     20       2.5843      0.00000
     21       2.8738      0.00000
     22       3.0751      0.00000
     23       3.4916      0.00000
     24       3.7982      0.00000

 k-point    90 :      -0.1718    0.5379    0.0000
  band No.  band energies     occupation 
      1     -19.6970      2.00000
      2     -17.6891      2.00000
      3     -17.0889      2.00000
      4     -13.9942      2.00000
      5     -12.9618      2.00000
      6     -10.6012      2.00000
      7     -10.1871      2.00000
      8      -9.1920      2.00000
      9      -8.1541      2.00000
     10      -8.1537      2.00000
     11      -7.0698      2.00000
     12      -6.5033      2.00000
     13      -6.4924      2.00000
     14      -5.6911      2.00000
     15      -5.5536      2.00000
     16      -2.8655      0.00000
     17      -0.6903      0.00000
     18       1.6275      0.00000
     19       2.0434      0.00000
     20       2.4893      0.00000
     21       2.7160      0.00000
     22       3.1111      0.00000
     23       3.4283      0.00000
     24       3.7316      0.00000

 k-point    91 :      -0.1986    0.5594    0.0000
  band No.  band energies     occupation 
      1     -19.7348      2.00000
      2     -17.5951      2.00000
      3     -17.0930      2.00000
      4     -13.8957      2.00000
      5     -13.1610      2.00000
      6     -10.6715      2.00000
      7     -10.1567      2.00000
      8      -9.3800      2.00000
      9      -8.2375      2.00000
     10      -7.9618      2.00000
     11      -7.1295      2.00000
     12      -6.3230      2.00000
     13      -6.2994      2.00000
     14      -5.7232      2.00000
     15      -5.4938      2.00000
     16      -2.8198      0.00000
     17      -0.7659      0.00000
     18       1.4986      0.00000
     19       2.0182      0.00000
     20       2.4676      0.00000
     21       2.5845      0.00000
     22       2.7139      0.00000
     23       3.5982      0.00000
     24       3.8205      0.00000

 k-point    92 :      -0.2255    0.5809    0.0000
  band No.  band energies     occupation 
      1     -19.7700      2.00000
      2     -17.5409      2.00000
      3     -17.0392      2.00000
      4     -13.9250      2.00000
      5     -13.2190      2.00000
      6     -10.8022      2.00000
      7     -10.0713      2.00000
      8      -9.5378      2.00000
      9      -8.3086      2.00000
     10      -7.8958      2.00000
     11      -7.0945      2.00000
     12      -6.2360      2.00000
     13      -6.1584      2.00000
     14      -5.6478      2.00000
     15      -5.3870      2.00000
     16      -2.8736      0.00000
     17      -0.7227      0.00000
     18       1.3952      0.00000
     19       1.8947      0.00000
     20       2.3320      0.00000
     21       2.4792      0.00000
     22       2.5287      0.00000
     23       3.4932      0.00000
     24       3.8539      0.00000

 k-point    93 :      -0.2524    0.6025    0.0000
  band No.  band energies     occupation 
      1     -19.7992      2.00000
      2     -17.5300      2.00000
      3     -16.9358      2.00000
      4     -14.0828      2.00000
      5     -13.1259      2.00000
      6     -10.9621      2.00000
      7      -9.9656      2.00000
      8      -9.6479      2.00000
      9      -8.3640      2.00000
     10      -7.9663      2.00000
     11      -6.9569      2.00000
     12      -6.2340      2.00000
     13      -6.0907      2.00000
     14      -5.4740      2.00000
     15      -5.2518      2.00000
     16      -3.0137      0.00000
     17      -0.5646      0.00000
     18       1.3174      0.00000
     19       1.6383      0.00000
     20       2.1226      0.00000
     21       2.4003      0.00000
     22       2.5675      0.00000
     23       3.4169      0.00000
     24       3.7751      0.00000

 k-point    94 :      -0.2793    0.6240    0.0000
  band No.  band energies     occupation 
      1     -19.8200      2.00000
      2     -17.5412      2.00000
      3     -16.8202      2.00000
      4     -14.2626      2.00000
      5     -12.9834      2.00000
      6     -11.1179      2.00000
      7      -9.8661      2.00000
      8      -9.7117      2.00000
      9      -8.4018      2.00000
     10      -8.0856      2.00000
     11      -6.8034      2.00000
     12      -6.2636      2.00000
     13      -6.0736      2.00000
     14      -5.2743      2.00000
     15      -5.1269      2.00000
     16      -3.1929      0.00000
     17      -0.3267      0.00000
     18       1.2654      0.00000
     19       1.2956      0.00000
     20       2.0301      0.00000
     21       2.3477      0.00000
     22       2.6108      0.00000
     23       3.3679      0.00000
     24       3.7221      0.00000

 k-point    95 :      -0.3061    0.6455    0.0000
  band No.  band energies     occupation 
      1     -19.8310      2.00000
      2     -17.5576      2.00000
      3     -16.7314      2.00000
      4     -14.3969      2.00000
      5     -12.8606      2.00000
      6     -11.2312      2.00000
      7      -9.7947      2.00000
      8      -9.7380      2.00000
      9      -8.4210      2.00000
     10      -8.1899      2.00000
     11      -6.6912      2.00000
     12      -6.2949      2.00000
     13      -6.0847      2.00000
     14      -5.1126      2.00000
     15      -5.0439      2.00000
     16      -3.3496      0.00030
     17      -0.0630      0.00000
     18       0.9711      0.00000
     19       1.2394      0.00000
     20       1.9929      0.00000
     21       2.3214      0.00000
     22       2.6491      0.00000
     23       3.3449      0.00000
     24       3.6948      0.00000

 k-point    96 :      -0.3330    0.6670    0.0000
  band No.  band energies     occupation 
      1     -19.8313      2.00000
      2     -17.5717      2.00000
      3     -16.6992      2.00000
      4     -14.4488      2.00000
      5     -12.8033      2.00000
      6     -11.2619      2.00000
      7      -9.7608      2.00000
      8      -9.7461      2.00000
      9      -8.4211      2.00000
     10      -8.2419      2.00000
     11      -6.6478      2.00000
     12      -6.3174      2.00000
     13      -6.1085      2.00000
     14      -5.0490      2.00000
     15      -5.0207      2.00000
     16      -3.4172      0.00172
     17       0.0899      0.00000
     18       0.8097      0.00000
     19       1.2394      0.00000
     20       1.9913      0.00000
     21       2.3215      0.00000
     22       2.6819      0.00000
     23       3.3469      0.00000
     24       3.6686      0.00000


--------------------------------------------------------------------------------------------------------


 soft charge-density along one line, spin component           1
         0         1         2         3         4         5         6         7         8         9
 total charge-density along one line
 
 pseudopotential strength for first ion, spin component:           1
  6.763  10.321  -0.000  -0.000  -0.000  -0.000  -0.000  -0.000
 10.321  15.748  -0.000  -0.000  -0.000  -0.000  -0.000  -0.000
 -0.000  -0.000  -2.330   0.000  -0.000  -4.003   0.000  -0.000
 -0.000  -0.000   0.000  -2.336  -0.000   0.000  -4.011  -0.000
 -0.000  -0.000  -0.000  -0.000  -2.330  -0.000  -0.000  -4.003
 -0.000  -0.000  -4.003   0.000  -0.000  -6.681   0.000  -0.000
 -0.000  -0.000   0.000  -4.011  -0.000   0.000  -6.690  -0.000
 -0.000  -0.000  -0.000  -0.000  -4.003  -0.000  -0.000  -6.680
 total augmentation occupancy for first ion, spin component:           1
  3.696  -0.947   0.000   0.000  -0.000   0.000   0.000   0.000
 -0.947   0.261   0.001   0.000  -0.000  -0.000   0.000   0.000
  0.000   0.001   4.116   0.000  -0.000  -1.089   0.000  -0.000
  0.000  -0.000   0.000   0.821   0.000   0.000  -0.207   0.000
  0.000   0.000  -0.000   0.000   4.120  -0.000   0.000  -1.088
  0.000  -0.000  -1.089   0.000  -0.000   0.300   0.000   0.000
  0.000   0.000   0.000  -0.207   0.000   0.000   0.052   0.000
  0.000   0.000  -0.000   0.000  -1.088   0.000   0.000   0.300


------------------------ aborting loop because EDIFF is reached ----------------------------------------


    CHARGE:  cpu time    1.2470: real time    1.2474
    FORLOC:  cpu time    0.0100: real time    0.0100
    FORNL :  cpu time    1.5597: real time    1.5601
    STRESS:  cpu time   10.7613: real time   10.7641
    FORCOR:  cpu time    0.1427: real time    0.1427
    FORHAR:  cpu time    0.0388: real time    0.0388
    MIXING:  cpu time    0.0068: real time    0.0068
    OFIELD:  cpu time    0.0000: real time    0.0000

  FORCE on cell =-STRESS in cart. coord.  units (eV):
  Direction    XX          YY          ZZ          XY          YZ          ZX
  --------------------------------------------------------------------------------------
  Alpha Z    10.93934    10.93934    10.93934
  Ewald    4956.93453  4956.75668 -5853.63745     0.00000     0.00000    -0.00000
  Hartree  4881.17947  4881.12622 -4821.49333    -0.00000    -0.00000    -0.00000
  E(xc)    -107.56574  -107.56281  -111.36462     0.00000    -0.00000    -0.00000
  Local  -10151.56177-10150.96373 10342.74052     0.00003     0.00000     0.00000
  n-local   -23.11434   -23.06897   -11.72605    -0.07780     0.00000     0.00000
  augment    -1.88307    -1.88490    -1.85963    -0.00004    -0.00000    -0.00000
  Kinetic   435.88409   435.62979   446.22010     1.29995    -0.00000    -0.00000
  Fock        0.00000     0.00000     0.00000     0.00000     0.00000     0.00000
  -------------------------------------------------------------------------------------
  Total       0.81251     0.97162    -0.18112    -0.00000     0.00000     0.00000
  in kB       2.80742     3.35718    -0.62582    -0.00000     0.00000     0.00000
  external pressure =        1.85 kB  Pullay stress =        0.00 kB


 VOLUME and BASIS-vectors are now :
 -----------------------------------------------------------------------------
  energy-cutoff  :      450.00
  volume of cell :      463.69
      direct lattice vectors                 reciprocal lattice vectors
     5.174000000  0.000000000  0.000000000     0.193274063 -0.111582236  0.000000000
     2.587000000  4.481000000  0.000000000     0.000000000  0.223164472  0.000000000
     0.000000000  0.000000000 20.000000000     0.000000000  0.000000000  0.050000000

  length of vectors
     5.174000000  5.174159835 20.000000000     0.223171366  0.223164472  0.050000000


 FORCES acting on ions
    electron-ion (+dipol)            ewald-force                    non-local-force                 convergence-correction
 -----------------------------------------------------------------------------------------------
   0.268E-05 -.154E-01 0.172E-06   0.297E-11 0.403E-01 -.298E-20   0.113E-16 -.568E-01 0.000E+00   0.128E-09 -.323E-05 0.710E-13
   -.188E-05 0.154E-01 -.177E-06   -.660E-11 -.403E-01 -.487E-20   -.954E-17 0.568E-01 0.000E+00   -.127E-09 0.323E-05 0.702E-13
   -.446E+02 -.258E+02 -.422E-06   0.478E+02 0.276E+02 0.132E-20   -.337E+01 -.190E+01 0.000E+00   -.293E-04 -.253E-04 0.951E-13
   0.446E+02 -.258E+02 0.414E-06   -.478E+02 0.276E+02 0.293E-19   0.337E+01 -.190E+01 0.000E+00   0.293E-04 -.253E-04 0.101E-12
   -.149E-05 -.516E+02 -.501E-06   -.137E-11 0.552E+02 -.156E-19   0.222E-15 -.392E+01 0.000E+00   -.576E-09 -.396E-04 0.984E-13
   -.364E-05 0.516E+02 0.410E-06   -.159E-10 -.552E+02 0.646E-20   -.222E-15 0.392E+01 -.207E-24   0.582E-09 0.396E-04 0.987E-13
   -.446E+02 0.258E+02 -.505E-06   0.478E+02 -.276E+02 0.205E-20   -.337E+01 0.190E+01 -.207E-24   -.293E-04 0.253E-04 0.956E-13
   0.446E+02 0.258E+02 0.391E-06   -.478E+02 -.276E+02 -.156E-19   0.337E+01 0.190E+01 0.000E+00   0.293E-04 0.253E-04 0.102E-12
 -----------------------------------------------------------------------------------------------
   -.896E-05 -.474E-05 -.218E-06   -.711E-14 0.000E+00 0.000E+00   -.444E-15 0.000E+00 -.414E-24   0.128E-10 0.362E-11 0.732E-12
 
 
 POSITION                                       TOTAL-FORCE (eV/Angst)
 -----------------------------------------------------------------------------------
      1.35500      0.78250      0.00000         0.000000     -0.031871      0.000000
      3.94200      2.27600      0.00000         0.000000      0.031871     -0.000000
      0.00000      0.00000      0.00000        -0.256744     -0.079702      0.000000
      2.71000      0.00000      0.00000         0.256744     -0.079702      0.000000
      3.94200      0.71100      0.00000        -0.000000     -0.320193      0.000000
      6.52900      2.34750      0.00000         0.000000      0.320193      0.000000
      2.58700      3.05850      0.00000        -0.256744      0.079702      0.000000
      5.29700      3.05850      0.00000         0.256744      0.079702      0.000000
 -----------------------------------------------------------------------------------
    total drift:                               -0.000009     -0.000005     -0.000000


--------------------------------------------------------------------------------------------------------



  FREE ENERGIE OF THE ION-ELECTRON SYSTEM (eV)
  ---------------------------------------------------
  free  energy   TOTEN  =       -66.25823218 eV

  energy  without entropy=      -66.25551517  energy(sigma->0) =      -66.25687368
 


--------------------------------------------------------------------------------------------------------


    POTLOK:  cpu time    0.1419: real time    0.1420


--------------------------------------------------------------------------------------------------------


 writing wavefunctions
     LOOP+:  cpu time  411.0412: real time  416.9570
    4ORBIT:  cpu time    0.0000: real time    0.0000

 total amount of memory used by VASP MPI-rank0   205636. kBytes
=======================================================================

   base      :      30000. kBytes
   nonl-proj :     125451. kBytes
   fftplans  :       4815. kBytes
   grid      :      14086. kBytes
   one-center:         24. kBytes
   wavefun   :      31260. kBytes
 
  
  
 General timing and accounting informations for this job:
 ========================================================
  
                  Total CPU time used (sec):      417.874
                            User time (sec):      416.100
                          System time (sec):        1.774
                         Elapsed time (sec):      424.616
  
                   Maximum memory used (kb):      311452.
                   Average memory used (kb):           0.
  
                          Minor page faults:        95713
                          Major page faults:            0
                 Voluntary context switches:        10752
