 running on   12 total cores
 distrk:  each k-point on   12 cores,    1 groups
 distr:  one band on    1 cores,   12 groups
 using from now: INCAR     
 vasp.5.4.4.18Apr17-6-g9f103f2a35 (build Mar 30 2023 15:39:25) complex          
  
 POSCAR found type information on POSCAR  B  C 
 POSCAR found :  2 types and       8 ions
 scaLAPACK will be used

 ----------------------------------------------------------------------------- 
|                                                                             |
|           W    W    AA    RRRRR   N    N  II  N    N   GGGG   !!!           |
|           W    W   A  A   R    R  NN   N  II  NN   N  G    G  !!!           |
|           W    W  A    A  R    R  N N  N  II  N N  N  G       !!!           |
|           W WW W  AAAAAA  RRRRR   N  N N  II  N  N N  G  GGG   !            |
|           WW  WW  A    A  R   R   N   NN  II  N   NN  G    G                |
|           W    W  A    A  R    R  N    N  II  N    N   GGGG   !!!           |
|                                                                             |
|      For optimal performance we recommend to set                            |
|        NCORE= 4 - approx SQRT( number of cores)                             |
|      NCORE specifies how many cores store one orbital (NPAR=cpu/NCORE).     |
|      This setting can  greatly improve the performance of VASP for DFT.     |
|      The default,   NCORE=1            might be grossly inefficient         |
|      on modern multi-core architectures or massively parallel machines.     |
|      Do your own testing !!!!                                               |
|      Unfortunately you need to use the default for GW and RPA calculations. |
|      (for HF NCORE is supported but not extensively tested yet)             |
|                                                                             |
 ----------------------------------------------------------------------------- 

 LDA part: xc-table for Pade appr. of Perdew
 POSCAR, INCAR and KPOINTS ok, starting setup
 FFT: planning ...
 WAVECAR not read
 entering main loop
       N       E                     dE             d eps       ncg     rms          rms(c)
DAV:   1     0.199656986268E+03    0.19966E+03   -0.98438E+03  4920   0.789E+02
DAV:   2    -0.400525426444E+02   -0.23971E+03   -0.22253E+03  7296   0.184E+02
DAV:   3    -0.719159846012E+02   -0.31863E+02   -0.31544E+02  5868   0.807E+01
DAV:   4    -0.726531721227E+02   -0.73719E+00   -0.73558E+00  6612   0.154E+01
DAV:   5    -0.726722145522E+02   -0.19042E-01   -0.19025E-01  5880   0.221E+00    0.133E+01
DAV:   6    -0.680403484284E+02    0.46319E+01   -0.55259E+00  6792   0.109E+01    0.748E+00
DAV:   7    -0.663672831175E+02    0.16731E+01   -0.40991E+00  6768   0.927E+00    0.224E+00
DAV:   8    -0.662799122362E+02    0.87371E-01   -0.22624E-01  6744   0.225E+00    0.569E-01
DAV:   9    -0.662628394375E+02    0.17073E-01   -0.19952E-02  5628   0.768E-01    0.184E-01
DAV:  10    -0.662508815358E+02    0.11958E-01   -0.11315E-02  5748   0.451E-01    0.132E-01
DAV:  11    -0.662503465860E+02    0.53495E-03   -0.44178E-03  5328   0.309E-01    0.580E-02
DAV:  12    -0.662501446328E+02    0.20195E-03   -0.20084E-03  4968   0.161E-01    0.385E-02
DAV:  13    -0.662543967749E+02   -0.42521E-02   -0.44372E-04  4812   0.870E-02    0.216E-02
DAV:  14    -0.662569796527E+02   -0.25829E-02   -0.31341E-04  5028   0.569E-02    0.133E-02
DAV:  15    -0.662577262141E+02   -0.74656E-03   -0.48271E-05  4980   0.248E-02    0.483E-03
DAV:  16    -0.662580989630E+02   -0.37275E-03   -0.34844E-05  4632   0.187E-02    0.179E-03
DAV:  17    -0.662581641901E+02   -0.65227E-04   -0.36585E-06  5064   0.622E-03    0.119E-03
DAV:  18    -0.662582016588E+02   -0.37469E-04   -0.20612E-06  4848   0.405E-03    0.557E-04
DAV:  19    -0.662582156924E+02   -0.14034E-04   -0.60203E-07  5040   0.217E-03    0.517E-04
DAV:  20    -0.662582243268E+02   -0.86344E-05   -0.44322E-08  3504   0.937E-04    0.329E-04
DAV:  21    -0.662582306632E+02   -0.63363E-05   -0.42062E-08  3492   0.833E-04    0.173E-04
DAV:  22    -0.662582319492E+02   -0.12861E-05   -0.12463E-08  3516   0.465E-04    0.329E-05
DAV:  23    -0.662582321797E+02   -0.23051E-06   -0.23368E-09  3600   0.174E-04
   1 F= -.66258232E+02 E0= -.66256874E+02  d E =-.271701E-02
 writing wavefunctions
