 vasp.5.4.4.18Apr17-6-g9f103f2a35 (build Mar 30 2023 15:39:25) complex          
  
 executed on             LinuxIFC date 2023.05.25  15:43:30
 running on   12 total cores
 distrk:  each k-point on   12 cores,    1 groups
 distr:  one band on NCORES_PER_BAND=   1 cores,   12 groups


--------------------------------------------------------------------------------------------------------


 INCAR:
 POTCAR:    PAW_PBE B 06Sep2000                   
 POTCAR:    PAW_PBE C 08Apr2002                   

 ----------------------------------------------------------------------------- 
|                                                                             |
|           W    W    AA    RRRRR   N    N  II  N    N   GGGG   !!!           |
|           W    W   A  A   R    R  NN   N  II  NN   N  G    G  !!!           |
|           W    W  A    A  R    R  N N  N  II  N N  N  G       !!!           |
|           W WW W  AAAAAA  RRRRR   N  N N  II  N  N N  G  GGG   !            |
|           WW  WW  A    A  R   R   N   NN  II  N   NN  G    G                |
|           W    W  A    A  R    R  N    N  II  N    N   GGGG   !!!           |
|                                                                             |
|      For optimal performance we recommend to set                            |
|        NCORE= 4 - approx SQRT( number of cores)                             |
|      NCORE specifies how many cores store one orbital (NPAR=cpu/NCORE).     |
|      This setting can  greatly improve the performance of VASP for DFT.     |
|      The default,   NCORE=1            might be grossly inefficient         |
|      on modern multi-core architectures or massively parallel machines.     |
|      Do your own testing !!!!                                               |
|      Unfortunately you need to use the default for GW and RPA calculations. |
|      (for HF NCORE is supported but not extensively tested yet)             |
|                                                                             |
 ----------------------------------------------------------------------------- 

 POTCAR:    PAW_PBE B 06Sep2000                   
   SHA256 =  a32ced30f5ae56fd4d10b4325ff17eb3e4e38ee0f4288bc219fb012fddfa6e97 B/
   COPYR  = (c) Copyright 06Sep2000 Georg Kresse                                
   COPYR  = This file is part of the software VASP. Any use, copying, and all ot
   COPYR  = If you do not have a valid VASP license, you may not use, copy or di
   VRHFIN =B: s2p1                                                              
   LEXCH  = PE                                                                  
   EATOM  =    71.1703 eV,    5.2309 Ry                                         
                                                                                
   TITEL  = PAW_PBE B 06Sep2000                                                 
   LULTRA =        F    use ultrasoft PP ?                                      
   IUNSCR =        1    unscreen: 0-lin 1-nonlin 2-no                           
   RPACOR =    1.200    partial core radius                                     
   POMASS =   10.811; ZVAL   =    3.000    mass and valenz                      
   RCORE  =    1.700    outmost cutoff radius                                   
   RWIGS  =    1.710; RWIGS  =    0.905    wigner-seitz radius (au A)           
   ENMAX  =  318.614; ENMIN  =  238.960 eV                                      
   ICORE  =        2    local potential                                         
   LCOR   =        T    correct aug charges                                     
   LPAW   =        T    paw PP                                                  
   EAUG   =  535.514                                                            
   DEXC   =    0.000                                                            
   RMAX   =    1.732    core radius for proj-oper                               
   RAUG   =    1.300    factor for augmentation sphere                          
   RDEP   =    1.757    radius for radial grids                                 
   RDEPT  =    1.436    core radius for aug-charge                              
                                                                                
   Atomic configuration                                                         
    4 entries                                                                   
     n  l   j            E        occ.                                          
     1  0  0.50      -180.5896   2.0000                                         
     2  0  0.50        -9.4431   2.0000                                         
     2  1  0.50        -3.6068   1.0000                                         
     3  2  1.50        -4.0817   0.0000                                         
   Description                                                                  
     l       E           TYP  RCUT    TYP  RCUT                                 
     0     -9.4430752     23  1.500                                             
     0      0.8675899     23  1.500                                             
     1     -3.6067955     23  1.700                                             
     1      6.1086146     23  1.700                                             
     2     -4.0817478      7  1.700                                             
  local pseudopotential read in
  partial core-charges read in
  partial kinetic energy density read in
  atomic valenz-charges read in
  non local Contribution for L=           0  read in
    real space projection operators read in
  non local Contribution for L=           0  read in
    real space projection operators read in
  non local Contribution for L=           1  read in
    real space projection operators read in
  non local Contribution for L=           1  read in
    real space projection operators read in
    PAW grid and wavefunctions read in
 
   number of l-projection  operators is LMAX  =           4
   number of lm-projection operators is LMMAX =           8
 
 POTCAR:    PAW_PBE C 08Apr2002                   
   SHA256 =  253f7b50bb8d59471dbedb8285d89021f4a42ed1a2c5d38a03a736e69125dd95 C/
   COPYR  = (c) Copyright 08Apr2002 Georg Kresse                                
   COPYR  = This file is part of the software VASP. Any use, copying, and all ot
   COPYR  = If you do not have a valid VASP license, you may not use, copy or di
   VRHFIN =C: s2p2                                                              
   LEXCH  = PE                                                                  
   EATOM  =   147.1560 eV,   10.8157 Ry                                         
                                                                                
   TITEL  = PAW_PBE C 08Apr2002                                                 
   LULTRA =        F    use ultrasoft PP ?                                      
   IUNSCR =        1    unscreen: 0-lin 1-nonlin 2-no                           
   RPACOR =    1.200    partial core radius                                     
   POMASS =   12.011; ZVAL   =    4.000    mass and valenz                      
   RCORE  =    1.500    outmost cutoff radius                                   
   RWIGS  =    1.630; RWIGS  =    0.863    wigner-seitz radius (au A)           
   ENMAX  =  400.000; ENMIN  =  300.000 eV                                      
   ICORE  =        2    local potential                                         
   LCOR   =        T    correct aug charges                                     
   LPAW   =        T    paw PP                                                  
   EAUG   =  644.873                                                            
   DEXC   =    0.000                                                            
   RMAX   =    1.529    core radius for proj-oper                               
   RAUG   =    1.300    factor for augmentation sphere                          
   RDEP   =    1.501    radius for radial grids                                 
   RDEPT  =    1.300    core radius for aug-charge                              
                                                                                
   Atomic configuration                                                         
    4 entries                                                                   
     n  l   j            E        occ.                                          
     1  0  0.50      -273.3789   2.0000                                         
     2  0  0.50       -13.7508   2.0000                                         
     2  1  0.50        -5.2854   2.0000                                         
     3  2  1.50        -5.4423   0.0000                                         
   Description                                                                  
     l       E           TYP  RCUT    TYP  RCUT                                 
     0    -13.7508458     23  1.200                                             
     0     -8.2022199     23  1.200                                             
     1     -5.2854383     23  1.500                                             
     1     34.0145650     23  1.500                                             
     2     -5.4423304      7  1.500                                             
  local pseudopotential read in
  partial core-charges read in
  partial kinetic energy density read in
  atomic valenz-charges read in
  non local Contribution for L=           0  read in
    real space projection operators read in
  non local Contribution for L=           0  read in
    real space projection operators read in
  non local Contribution for L=           1  read in
    real space projection operators read in
  non local Contribution for L=           1  read in
    real space projection operators read in
    PAW grid and wavefunctions read in
 
   number of l-projection  operators is LMAX  =           4
   number of lm-projection operators is LMMAX =           8
 
  PAW_PBE B 06Sep2000                   :
 energy of atom  1       EATOM=  -71.1703
 kinetic energy error for atom=    0.0015 (will be added to EATOM!!)
  PAW_PBE C 08Apr2002                   :
 energy of atom  2       EATOM= -147.1560
 kinetic energy error for atom=    0.0116 (will be added to EATOM!!)
 
 
 POSCAR: BC3 with lattice parameter 5.174Ang, len
  positions in cartesian coordinates
  No initial velocities read in
 exchange correlation table for  LEXCH =        8
   RHO(1)=    0.500       N(1)  =     2000
   RHO(2)=  100.500       N(2)  =     4000
 


--------------------------------------------------------------------------------------------------------


 ion  position               nearest neighbor table
   1  0.175  0.175  0.000-   3 1.56   4 1.56   6 1.57
   2  0.508  0.508  0.000-   8 1.56   7 1.56   5 1.57
   3  0.000  0.000  0.000-   5 1.42   7 1.42   1 1.56
   4  0.524  0.000  0.000-   5 1.42   8 1.42   1 1.56
   5  0.683  0.159  0.000-   4 1.42   3 1.42   2 1.57
   6  1.000  0.524  0.000-   8 1.42   7 1.42   1 1.57
   7  0.159  0.683  0.000-   6 1.42   3 1.42   2 1.56
   8  0.682  0.683  0.000-   6 1.42   4 1.42   2 1.56
 
  LATTYP: Found a base centered orthorhombic cell.
 ALAT       =     5.1740000000
 B/A-ratio  =     1.7321221492
 C/A-ratio  =     3.8654812524
  
  Lattice vectors:
  
 A1 = (   2.5870000000,   4.4810000000,   0.0000000000)
 A2 = (   2.5870000000,  -4.4810000000,   0.0000000000)
 A3 = (   0.0000000000,   0.0000000000, -20.0000000000)


Analysis of symmetry for initial positions (statically):
=====================================================================
 Subroutine PRICEL returns:
 Original cell was already a primitive cell.
 

 Routine SETGRP: Setting up the symmetry group for a 
 base centered orthorhombic supercell.


 Subroutine GETGRP returns: Found  8 space group operations
 (whereof  2 operations were pure point group operations)
 out of a pool of  8 trial point group operations.


The static configuration has the point symmetry C_1h.
 The point group associated with its full space group is D_2h.


Analysis of symmetry for dynamics (positions and initial velocities):
=====================================================================
 Subroutine PRICEL returns:
 Original cell was already a primitive cell.
 

 Routine SETGRP: Setting up the symmetry group for a 
 base centered orthorhombic supercell.


 Subroutine GETGRP returns: Found  8 space group operations
 (whereof  2 operations were pure point group operations)
 out of a pool of  8 trial point group operations.


The dynamic configuration has the point symmetry C_1h.
 The point group associated with its full space group is D_2h.


 Subroutine INISYM returns: Found  8 space group operations
 (whereof  2 operations are pure point group operations),
 and found     1 'primitive' translations

 
 
 KPOINTS: K-points for BC3                        
  interpolating k-points between supplied coordinates
  k-points in reciprocal lattice
Space group operators:
 irot       det(A)        alpha          n_x          n_y          n_z        tau_x        tau_y        tau_z
    1     1.000000     0.000000     1.000000     0.000000     0.000000     0.000000     0.000000     0.000000
    2    -1.000000   180.000000     0.000000     0.000000     1.000000     0.000000     0.000000     0.000000
    3    -1.000000     0.000000     1.000000     0.000000     0.000000     0.682498    -0.317451     0.000000
    4     1.000000   180.000000     0.000000     0.000000     1.000000     0.682498    -0.317451     0.000000
    5     1.000000   179.999999     0.000000     1.000000     0.000000     0.523773     0.000000     0.000000
    6    -1.000000   179.999999     0.000000     1.000000     0.000000     0.158726     0.682549     0.000000
    7     1.000000   180.000000     1.000000     0.000000     0.000000     0.158726     0.682549     0.000000
    8    -1.000000   180.000000     1.000000     0.000000     0.000000     0.523773     0.000000     0.000000


--------------------------------------------------------------------------------------------------------




 Dimension of arrays:
   k-points           NKPTS =     96   k-points in BZ     NKDIM =     96   number of bands    NBANDS=     24
   number of dos      NEDOS =    301   number of ions     NIONS =      8
   non local maximal  LDIM  =      4   non local SUM 2l+1 LMDIM =      8
   total plane-waves  NPLWV = 181440
   max r-space proj   IRMAX =      1   max aug-charges    IRDMAX=   6301
   dimension x,y,z NGX =    36 NGY =   36 NGZ =  140
   dimension x,y,z NGXF=    72 NGYF=   72 NGZF=  280
   support grid    NGXF=    72 NGYF=   72 NGZF=  280
   ions per type =               2   6
   NGX,Y,Z   is equivalent  to a cutoff of  11.57, 11.57, 11.64 a.u.
   NGXF,Y,Z  is equivalent  to a cutoff of  23.13, 23.13, 23.27 a.u.

 SYSTEM =  BC3 bandstructure                       
 POSCAR =  BC3 with lattice parameter 5.174Ang, len

 Startparameter for this run:
   NWRITE =      2    write-flag & timer
   PREC   = accura    normal or accurate (medium, high low for compatibility)
   ISTART =      0    job   : 0-new  1-cont  2-samecut
   ICHARG =     11    charge: 1-file 2-atom 10-const
   ISPIN  =      1    spin polarized calculation?
   LNONCOLLINEAR =      F non collinear calculations
   LSORBIT =      F    spin-orbit coupling
   INIWAV =      1    electr: 0-lowe 1-rand  2-diag
   LASPH  =      F    aspherical Exc in radial PAW
   METAGGA=      F    non-selfconsistent MetaGGA calc.

 Electronic Relaxation 1
   ENCUT  =  450.0 eV  33.07 Ry    5.75 a.u.   8.95  8.95 34.59*2*pi/ulx,y,z
   ENINI  =  450.0     initial cutoff
   ENAUG  =  644.9 eV  augmentation charge cutoff
   NELM   =     60;   NELMIN=  2; NELMDL= -5     # of ELM steps 
   EDIFF  = 0.1E-05   stopping-criterion for ELM
   LREAL  =      F    real-space projection
   NLSPLINE    = F    spline interpolate recip. space projectors
   LCOMPAT=      F    compatible to vasp.4.4
   GGA_COMPAT  = T    GGA compatible to vasp.4.4-vasp.4.6
   LMAXPAW     = -100 max onsite density
   LMAXMIX     =    2 max onsite mixed and CHGCAR
   VOSKOWN=      0    Vosko Wilk Nusair interpolation
   ROPT   =    0.00000   0.00000
 Ionic relaxation
   EDIFFG = -.1E-05   stopping-criterion for IOM
   NSW    =     40    number of steps for IOM
   NBLOCK =      1;   KBLOCK =     40    inner block; outer block 
   IBRION =      2    ionic relax: 0-MD 1-quasi-New 2-CG
   NFREE  =      1    steps in history (QN), initial steepest desc. (CG)
   ISIF   =      2    stress and relaxation
   IWAVPR =     11    prediction:  0-non 1-charg 2-wave 3-comb
   ISYM   =      2    0-nonsym 1-usesym 2-fastsym
   LCORR  =      T    Harris-Foulkes like correction to forces

   POTIM  = 0.5000    time-step for ionic-motion
   TEIN   =    0.0    initial temperature
   TEBEG  =    0.0;   TEEND  =   0.0 temperature during run
   SMASS  =  -3.00    Nose mass-parameter (am)
   estimated Nose-frequenzy (Omega)   =  0.10E-29 period in steps =****** mass=  -0.612E-27a.u.
   SCALEE = 1.0000    scale energy and forces
   NPACO  =    256;   APACO  = 16.0  distance and # of slots for P.C.
   PSTRESS=    0.0 pullay stress

  Mass of Ions in am
   POMASS =  10.81 12.01
  Ionic Valenz
   ZVAL   =   3.00  4.00
  Atomic Wigner-Seitz radii
   RWIGS  =  -1.00 -1.00
  virtual crystal weights 
   VCA    =   1.00  1.00
   NELECT =      30.0000    total number of electrons
   NUPDOWN=      -1.0000    fix difference up-down

 DOS related values:
   EMIN   =  10.00;   EMAX   =-10.00  energy-range for DOS
   EFERMI =   0.00
   ISMEAR =     0;   SIGMA  =   0.20  broadening in eV -4-tet -1-fermi 0-gaus

 Electronic relaxation 2 (details)
   IALGO  =     38    algorithm
   LDIAG  =      T    sub-space diagonalisation (order eigenvalues)
   LSUBROT=      F    optimize rotation matrix (better conditioning)
   TURBO    =      0    0=normal 1=particle mesh
   IRESTART =      0    0=no restart 2=restart with 2 vectors
   NREBOOT  =      0    no. of reboots
   NMIN     =      0    reboot dimension
   EREF     =   0.00    reference energy to select bands
   IMIX   =      4    mixing-type and parameters
     AMIX     =   0.40;   BMIX     =  1.00
     AMIX_MAG =   1.60;   BMIX_MAG =  1.00
     AMIN     =   0.10
     WC   =   100.;   INIMIX=   1;  MIXPRE=   1;  MAXMIX= -45

 Intra band minimization:
   WEIMIN = 0.0010     energy-eigenvalue tresh-hold
   EBREAK =  0.10E-08  absolut break condition
   DEPER  =   0.30     relativ break condition  

   TIME   =   0.40     timestep for ELM

  volume/ion in A,a.u.               =      57.96       391.15
  Fermi-wavevector in a.u.,A,eV,Ry     =   0.657211  1.241949  5.876713  0.431926
  Thomas-Fermi vector in A             =   1.728647
 
 Write flags
   LWAVE        =      T    write WAVECAR
   LDOWNSAMPLE  =      F    k-point downsampling of WAVECAR
   LCHARG       =      T    write CHGCAR
   LVTOT        =      F    write LOCPOT, total local potential
   LVHAR        =      F    write LOCPOT, Hartree potential only
   LELF         =      F    write electronic localiz. function (ELF)
   LORBIT       =     11    0 simple, 1 ext, 2 COOP (PROOUT), +10 PAW based schemes


 Dipole corrections
   LMONO  =      F    monopole corrections only (constant potential shift)
   LDIPOL =      F    correct potential (dipole corrections)
   IDIPOL =      0    1-x, 2-y, 3-z, 4-all directions 
   EPSILON=  1.0000000 bulk dielectric constant

 Exchange correlation treatment:
   GGA     =    --    GGA type
   LEXCH   =     8    internal setting for exchange type
   VOSKOWN=      0    Vosko Wilk Nusair interpolation
   LHFCALC =     F    Hartree Fock is set to
   LHFONE  =     F    Hartree Fock one center treatment
   AEXX    =    0.0000 exact exchange contribution

 Linear response parameters
   LEPSILON=     F    determine dielectric tensor
   LRPA    =     F    only Hartree local field effects (RPA)
   LNABLA  =     F    use nabla operator in PAW spheres
   LVEL    =     F    velocity operator in full k-point grid
   LINTERFAST=   F  fast interpolation
   KINTER  =     0    interpolate to denser k-point grid
   CSHIFT  =0.1000    complex shift for real part using Kramers Kronig
   OMEGAMAX=  -1.0    maximum frequency
   DEG_THRESHOLD= 0.2000000E-02 threshold for treating states as degnerate
   RTIME   =   -0.100 relaxation time in fs
  (WPLASMAI=    0.000 imaginary part of plasma frequency in eV, 0.658/RTIME)
   DFIELD  = 0.0000000 0.0000000 0.0000000 field for delta impulse in time
 
 Orbital magnetization related:
   ORBITALMAG=     F  switch on orbital magnetization
   LCHIMAG   =     F  perturbation theory with respect to B field
   DQ        =  0.001000  dq finite difference perturbation B field
   LLRAUG    =     F  two centre corrections for induced B field



--------------------------------------------------------------------------------------------------------


 conjugate gradient relaxation of ions
 charge density and potential remain constant during run
 non-spin polarized calculation
 Variant of blocked Davidson
 Davidson routine will perform the subspace rotation
 perform sub-space diagonalisation
    after iterative eigenvector-optimisation
 no mixing
 using additional bands            9
 reciprocal scheme for non local part
 use partial core corrections
 calculate Harris-corrections to forces 
   (improved forces if not selfconsistent)
 use gradient corrections 
 WARNING: stress and forces are not correct
  (second derivative of E(xc) not defined)
 use of overlap-Matrix (Vanderbilt PP)
 Gauss-broadening in eV      SIGMA  =   0.20


--------------------------------------------------------------------------------------------------------


  energy-cutoff  :      450.00
  volume of cell :      463.69
      direct lattice vectors                 reciprocal lattice vectors
     5.174000000  0.000000000  0.000000000     0.193274063 -0.111582236  0.000000000
     2.587000000  4.481000000  0.000000000     0.000000000  0.223164472  0.000000000
     0.000000000  0.000000000 20.000000000     0.000000000  0.000000000  0.050000000

  length of vectors
     5.174000000  5.174159835 20.000000000     0.223171366  0.223164472  0.050000000


 
 k-points in units of 2pi/SCALE and weight: K-points for BC3                        
  -0.06436026  0.18600759  0.00000000       0.010
  -0.06228413  0.18000734  0.00000000       0.010
  -0.06020799  0.17400710  0.00000000       0.010
  -0.05813185  0.16800685  0.00000000       0.010
  -0.05605571  0.16200661  0.00000000       0.010
  -0.05397958  0.15600636  0.00000000       0.010
  -0.05190344  0.15000612  0.00000000       0.010
  -0.04982730  0.14400587  0.00000000       0.010
  -0.04775116  0.13800563  0.00000000       0.010
  -0.04567503  0.13200538  0.00000000       0.010
  -0.04359889  0.12600514  0.00000000       0.010
  -0.04152275  0.12000490  0.00000000       0.010
  -0.03944661  0.11400465  0.00000000       0.010
  -0.03737048  0.10800441  0.00000000       0.010
  -0.03529434  0.10200416  0.00000000       0.010
  -0.03321820  0.09600392  0.00000000       0.010
  -0.03114206  0.09000367  0.00000000       0.010
  -0.02906593  0.08400343  0.00000000       0.010
  -0.02698979  0.07800318  0.00000000       0.010
  -0.02491365  0.07200294  0.00000000       0.010
  -0.02283751  0.06600269  0.00000000       0.010
  -0.02076138  0.06000245  0.00000000       0.010
  -0.01868524  0.05400220  0.00000000       0.010
  -0.01660910  0.04800196  0.00000000       0.010
  -0.01453296  0.04200171  0.00000000       0.010
  -0.01245683  0.03600147  0.00000000       0.010
  -0.01038069  0.03000122  0.00000000       0.010
  -0.00830455  0.02400098  0.00000000       0.010
  -0.00622841  0.01800073  0.00000000       0.010
  -0.00415228  0.01200049  0.00000000       0.010
  -0.00207614  0.00600024  0.00000000       0.010
   0.00000000  0.00000000  0.00000000       0.010
   0.00000000  0.00000000  0.00000000       0.010
   0.00311732 -0.00179971  0.00000000       0.010
   0.00623465 -0.00359943  0.00000000       0.010
   0.00935197 -0.00539914  0.00000000       0.010
   0.01246929 -0.00719885  0.00000000       0.010
   0.01558662 -0.00899857  0.00000000       0.010
   0.01870394 -0.01079828  0.00000000       0.010
   0.02182127 -0.01259799  0.00000000       0.010
   0.02493859 -0.01439771  0.00000000       0.010
   0.02805591 -0.01619742  0.00000000       0.010
   0.03117324 -0.01799713  0.00000000       0.010
   0.03429056 -0.01979685  0.00000000       0.010
   0.03740788 -0.02159656  0.00000000       0.010
   0.04052521 -0.02339628  0.00000000       0.010
   0.04364253 -0.02519599  0.00000000       0.010
   0.04675985 -0.02699570  0.00000000       0.010
   0.04987718 -0.02879542  0.00000000       0.010
   0.05299450 -0.03059513  0.00000000       0.010
   0.05611182 -0.03239484  0.00000000       0.010
   0.05922915 -0.03419456  0.00000000       0.010
   0.06234647 -0.03599427  0.00000000       0.010
   0.06546380 -0.03779398  0.00000000       0.010
   0.06858112 -0.03959370  0.00000000       0.010
   0.07169844 -0.04139341  0.00000000       0.010
   0.07481577 -0.04319312  0.00000000       0.010
   0.07793309 -0.04499284  0.00000000       0.010
   0.08105041 -0.04679255  0.00000000       0.010
   0.08416774 -0.04859226  0.00000000       0.010
   0.08728506 -0.05039198  0.00000000       0.010
   0.09040238 -0.05219169  0.00000000       0.010
   0.09351971 -0.05399140  0.00000000       0.010
   0.09663703 -0.05579112  0.00000000       0.010
   0.09663703 -0.05579112  0.00000000       0.010
   0.09144357 -0.04799116  0.00000000       0.010
   0.08625011 -0.04019120  0.00000000       0.010
   0.08105665 -0.03239124  0.00000000       0.010
   0.07586319 -0.02459129  0.00000000       0.010
   0.07066973 -0.01679133  0.00000000       0.010
   0.06547626 -0.00899137  0.00000000       0.010
   0.06028280 -0.00119141  0.00000000       0.010
   0.05508934  0.00660855  0.00000000       0.010
   0.04989588  0.01440851  0.00000000       0.010
   0.04470242  0.02220846  0.00000000       0.010
   0.03950896  0.03000842  0.00000000       0.010
   0.03431550  0.03780838  0.00000000       0.010
   0.02912204  0.04560834  0.00000000       0.010
   0.02392858  0.05340830  0.00000000       0.010
   0.01873511  0.06120826  0.00000000       0.010
   0.01354165  0.06900821  0.00000000       0.010
   0.00834819  0.07680817  0.00000000       0.010
   0.00315473  0.08460813  0.00000000       0.010
  -0.00203873  0.09240809  0.00000000       0.010
  -0.00723219  0.10020805  0.00000000       0.010
  -0.01242565  0.10800801  0.00000000       0.010
  -0.01761911  0.11580796  0.00000000       0.010
  -0.02281257  0.12360792  0.00000000       0.010
  -0.02800604  0.13140788  0.00000000       0.010
  -0.03319950  0.13920784  0.00000000       0.010
  -0.03839296  0.14700780  0.00000000       0.010
  -0.04358642  0.15480775  0.00000000       0.010
  -0.04877988  0.16260771  0.00000000       0.010
  -0.05397334  0.17040767  0.00000000       0.010
  -0.05916680  0.17820763  0.00000000       0.010
  -0.06436026  0.18600759  0.00000000       0.010
 
 k-points in reciprocal lattice and weights: K-points for BC3                        
  -0.33300000  0.66700000  0.00000000       0.010
  -0.32225806  0.64548387  0.00000000       0.010
  -0.31151613  0.62396774  0.00000000       0.010
  -0.30077419  0.60245161  0.00000000       0.010
  -0.29003226  0.58093548  0.00000000       0.010
  -0.27929032  0.55941935  0.00000000       0.010
  -0.26854839  0.53790323  0.00000000       0.010
  -0.25780645  0.51638710  0.00000000       0.010
  -0.24706452  0.49487097  0.00000000       0.010
  -0.23632258  0.47335484  0.00000000       0.010
  -0.22558065  0.45183871  0.00000000       0.010
  -0.21483871  0.43032258  0.00000000       0.010
  -0.20409677  0.40880645  0.00000000       0.010
  -0.19335484  0.38729032  0.00000000       0.010
  -0.18261290  0.36577419  0.00000000       0.010
  -0.17187097  0.34425806  0.00000000       0.010
  -0.16112903  0.32274194  0.00000000       0.010
  -0.15038710  0.30122581  0.00000000       0.010
  -0.13964516  0.27970968  0.00000000       0.010
  -0.12890323  0.25819355  0.00000000       0.010
  -0.11816129  0.23667742  0.00000000       0.010
  -0.10741935  0.21516129  0.00000000       0.010
  -0.09667742  0.19364516  0.00000000       0.010
  -0.08593548  0.17212903  0.00000000       0.010
  -0.07519355  0.15061290  0.00000000       0.010
  -0.06445161  0.12909677  0.00000000       0.010
  -0.05370968  0.10758065  0.00000000       0.010
  -0.04296774  0.08606452  0.00000000       0.010
  -0.03222581  0.06454839  0.00000000       0.010
  -0.02148387  0.04303226  0.00000000       0.010
  -0.01074194  0.02151613  0.00000000       0.010
   0.00000000  0.00000000  0.00000000       0.010
   0.00000000  0.00000000  0.00000000       0.010
   0.01612903  0.00000000  0.00000000       0.010
   0.03225806  0.00000000  0.00000000       0.010
   0.04838710  0.00000000  0.00000000       0.010
   0.06451613  0.00000000  0.00000000       0.010
   0.08064516  0.00000000  0.00000000       0.010
   0.09677419  0.00000000  0.00000000       0.010
   0.11290323  0.00000000  0.00000000       0.010
   0.12903226  0.00000000  0.00000000       0.010
   0.14516129  0.00000000  0.00000000       0.010
   0.16129032  0.00000000  0.00000000       0.010
   0.17741935  0.00000000  0.00000000       0.010
   0.19354839  0.00000000  0.00000000       0.010
   0.20967742  0.00000000  0.00000000       0.010
   0.22580645  0.00000000  0.00000000       0.010
   0.24193548  0.00000000  0.00000000       0.010
   0.25806452  0.00000000  0.00000000       0.010
   0.27419355  0.00000000  0.00000000       0.010
   0.29032258  0.00000000  0.00000000       0.010
   0.30645161  0.00000000  0.00000000       0.010
   0.32258065  0.00000000  0.00000000       0.010
   0.33870968  0.00000000  0.00000000       0.010
   0.35483871  0.00000000  0.00000000       0.010
   0.37096774  0.00000000  0.00000000       0.010
   0.38709677  0.00000000  0.00000000       0.010
   0.40322581  0.00000000  0.00000000       0.010
   0.41935484  0.00000000  0.00000000       0.010
   0.43548387  0.00000000  0.00000000       0.010
   0.45161290  0.00000000  0.00000000       0.010
   0.46774194  0.00000000  0.00000000       0.010
   0.48387097  0.00000000  0.00000000       0.010
   0.50000000  0.00000000  0.00000000       0.010
   0.50000000  0.00000000  0.00000000       0.010
   0.47312903  0.02151613  0.00000000       0.010
   0.44625806  0.04303226  0.00000000       0.010
   0.41938710  0.06454839  0.00000000       0.010
   0.39251613  0.08606452  0.00000000       0.010
   0.36564516  0.10758065  0.00000000       0.010
   0.33877419  0.12909677  0.00000000       0.010
   0.31190323  0.15061290  0.00000000       0.010
   0.28503226  0.17212903  0.00000000       0.010
   0.25816129  0.19364516  0.00000000       0.010
   0.23129032  0.21516129  0.00000000       0.010
   0.20441935  0.23667742  0.00000000       0.010
   0.17754839  0.25819355  0.00000000       0.010
   0.15067742  0.27970968  0.00000000       0.010
   0.12380645  0.30122581  0.00000000       0.010
   0.09693548  0.32274194  0.00000000       0.010
   0.07006452  0.34425806  0.00000000       0.010
   0.04319355  0.36577419  0.00000000       0.010
   0.01632258  0.38729032  0.00000000       0.010
  -0.01054839  0.40880645  0.00000000       0.010
  -0.03741935  0.43032258  0.00000000       0.010
  -0.06429032  0.45183871  0.00000000       0.010
  -0.09116129  0.47335484  0.00000000       0.010
  -0.11803226  0.49487097  0.00000000       0.010
  -0.14490323  0.51638710  0.00000000       0.010
  -0.17177419  0.53790323  0.00000000       0.010
  -0.19864516  0.55941935  0.00000000       0.010
  -0.22551613  0.58093548  0.00000000       0.010
  -0.25238710  0.60245161  0.00000000       0.010
  -0.27925806  0.62396774  0.00000000       0.010
  -0.30612903  0.64548387  0.00000000       0.010
  -0.33300000  0.66700000  0.00000000       0.010
 
 position of ions in fractional coordinates (direct lattice) 
   0.17457326  0.17462620  0.00000000
   0.50792519  0.50792234  0.00000000
   0.00000000  0.00000000  0.00000000
   0.52377271  0.00000000  0.00000000
   0.68255138  0.15866994  0.00000000
   0.99994706  0.52387860  0.00000000
   0.15872573  0.68254854  0.00000000
   0.68249844  0.68254854  0.00000000
 
 position of ions in cartesian coordinates  (Angst):
   1.35500000  0.78250000  0.00000000
   3.94200000  2.27600000  0.00000000
   0.00000000  0.00000000  0.00000000
   2.71000000  0.00000000  0.00000000
   3.94200000  0.71100000  0.00000000
   6.52900000  2.34750000  0.00000000
   2.58700000  3.05850000  0.00000000
   5.29700000  3.05850000  0.00000000
 


--------------------------------------------------------------------------------------------------------


 k-point  1 :  -0.3330 0.6670 0.0000  plane waves:   10034
 k-point  2 :  -0.3223 0.6455 0.0000  plane waves:   10039
 k-point  3 :  -0.3115 0.6240 0.0000  plane waves:   10042
 k-point  4 :  -0.3008 0.6025 0.0000  plane waves:   10045
 k-point  5 :  -0.2900 0.5809 0.0000  plane waves:   10061
 k-point  6 :  -0.2793 0.5594 0.0000  plane waves:   10065
 k-point  7 :  -0.2685 0.5379 0.0000  plane waves:   10059
 k-point  8 :  -0.2578 0.5164 0.0000  plane waves:   10073
 k-point  9 :  -0.2471 0.4949 0.0000  plane waves:   10069
 k-point 10 :  -0.2363 0.4734 0.0000  plane waves:   10066
 k-point 11 :  -0.2256 0.4518 0.0000  plane waves:   10093
 k-point 12 :  -0.2148 0.4303 0.0000  plane waves:   10094
 k-point 13 :  -0.2041 0.4088 0.0000  plane waves:   10091
 k-point 14 :  -0.1934 0.3873 0.0000  plane waves:   10082
 k-point 15 :  -0.1826 0.3658 0.0000  plane waves:   10077
 k-point 16 :  -0.1719 0.3443 0.0000  plane waves:   10077
 k-point 17 :  -0.1611 0.3227 0.0000  plane waves:   10070
 k-point 18 :  -0.1504 0.3012 0.0000  plane waves:   10072
 k-point 19 :  -0.1396 0.2797 0.0000  plane waves:   10062
 k-point 20 :  -0.1289 0.2582 0.0000  plane waves:   10068
 k-point 21 :  -0.1182 0.2367 0.0000  plane waves:   10059
 k-point 22 :  -0.1074 0.2152 0.0000  plane waves:   10046
 k-point 23 :  -0.0967 0.1936 0.0000  plane waves:   10035
 k-point 24 :  -0.0859 0.1721 0.0000  plane waves:   10032
 k-point 25 :  -0.0752 0.1506 0.0000  plane waves:   10027
 k-point 26 :  -0.0645 0.1291 0.0000  plane waves:   10018
 k-point 27 :  -0.0537 0.1076 0.0000  plane waves:   10017
 k-point 28 :  -0.0430 0.0861 0.0000  plane waves:   10013
 k-point 29 :  -0.0322 0.0645 0.0000  plane waves:    9994
 k-point 30 :  -0.0215 0.0430 0.0000  plane waves:    9993
 k-point 31 :  -0.0107 0.0215 0.0000  plane waves:    9979
 k-point 32 :   0.0000 0.0000 0.0000  plane waves:    9963
 k-point 33 :   0.0000 0.0000 0.0000  plane waves:    9963
 k-point 34 :   0.0161 0.0000 0.0000  plane waves:    9969
 k-point 35 :   0.0323 0.0000 0.0000  plane waves:    9993
 k-point 36 :   0.0484 0.0000 0.0000  plane waves:    9999
 k-point 37 :   0.0645 0.0000 0.0000  plane waves:    9989
 k-point 38 :   0.0806 0.0000 0.0000  plane waves:   10001
 k-point 39 :   0.0968 0.0000 0.0000  plane waves:    9987
 k-point 40 :   0.1129 0.0000 0.0000  plane waves:    9997
 k-point 41 :   0.1290 0.0000 0.0000  plane waves:   10019
 k-point 42 :   0.1452 0.0000 0.0000  plane waves:   10029
 k-point 43 :   0.1613 0.0000 0.0000  plane waves:   10029
 k-point 44 :   0.1774 0.0000 0.0000  plane waves:   10041
 k-point 45 :   0.1935 0.0000 0.0000  plane waves:   10035
 k-point 46 :   0.2097 0.0000 0.0000  plane waves:   10019
 k-point 47 :   0.2258 0.0000 0.0000  plane waves:   10027
 k-point 48 :   0.2419 0.0000 0.0000  plane waves:   10031
 k-point 49 :   0.2581 0.0000 0.0000  plane waves:   10050
 k-point 50 :   0.2742 0.0000 0.0000  plane waves:   10054
 k-point 51 :   0.2903 0.0000 0.0000  plane waves:   10056
 k-point 52 :   0.3065 0.0000 0.0000  plane waves:   10040
 k-point 53 :   0.3226 0.0000 0.0000  plane waves:   10026
 k-point 54 :   0.3387 0.0000 0.0000  plane waves:   10034
 k-point 55 :   0.3548 0.0000 0.0000  plane waves:   10036
 k-point 56 :   0.3710 0.0000 0.0000  plane waves:   10064
 k-point 57 :   0.3871 0.0000 0.0000  plane waves:   10054
 k-point 58 :   0.4032 0.0000 0.0000  plane waves:   10050
 k-point 59 :   0.4194 0.0000 0.0000  plane waves:   10062
 k-point 60 :   0.4355 0.0000 0.0000  plane waves:   10046
 k-point 61 :   0.4516 0.0000 0.0000  plane waves:   10040
 k-point 62 :   0.4677 0.0000 0.0000  plane waves:   10050
 k-point 63 :   0.4839 0.0000 0.0000  plane waves:   10052
 k-point 64 :   0.5000 0.0000 0.0000  plane waves:   10056
 k-point 65 :   0.5000 0.0000 0.0000  plane waves:   10056
 k-point 66 :   0.4731 0.0215 0.0000  plane waves:   10041
 k-point 67 :   0.4463 0.0430 0.0000  plane waves:   10043
 k-point 68 :   0.4194 0.0645 0.0000  plane waves:   10045
 k-point 69 :   0.3925 0.0861 0.0000  plane waves:   10039
 k-point 70 :   0.3656 0.1076 0.0000  plane waves:   10053
 k-point 71 :   0.3388 0.1291 0.0000  plane waves:   10053
 k-point 72 :   0.3119 0.1506 0.0000  plane waves:   10035
 k-point 73 :   0.2850 0.1721 0.0000  plane waves:   10030
 k-point 74 :   0.2582 0.1936 0.0000  plane waves:   10033
 k-point 75 :   0.2313 0.2152 0.0000  plane waves:   10027
 k-point 76 :   0.2044 0.2367 0.0000  plane waves:   10027
 k-point 77 :   0.1775 0.2582 0.0000  plane waves:   10036
 k-point 78 :   0.1507 0.2797 0.0000  plane waves:   10026
 k-point 79 :   0.1238 0.3012 0.0000  plane waves:   10031
 k-point 80 :   0.0969 0.3227 0.0000  plane waves:   10048
 k-point 81 :   0.0701 0.3443 0.0000  plane waves:   10044
 k-point 82 :   0.0432 0.3658 0.0000  plane waves:   10047
 k-point 83 :   0.0163 0.3873 0.0000  plane waves:   10058
 k-point 84 :  -0.0105 0.4088 0.0000  plane waves:   10056
 k-point 85 :  -0.0374 0.4303 0.0000  plane waves:   10040
 k-point 86 :  -0.0643 0.4518 0.0000  plane waves:   10057
 k-point 87 :  -0.0912 0.4734 0.0000  plane waves:   10083
 k-point 88 :  -0.1180 0.4949 0.0000  plane waves:   10066
 k-point 89 :  -0.1449 0.5164 0.0000  plane waves:   10082
 k-point 90 :  -0.1718 0.5379 0.0000  plane waves:   10061
 k-point 91 :  -0.1986 0.5594 0.0000  plane waves:   10073
 k-point 92 :  -0.2255 0.5809 0.0000  plane waves:   10067
 k-point 93 :  -0.2524 0.6025 0.0000  plane waves:   10068
 k-point 94 :  -0.2793 0.6240 0.0000  plane waves:   10041
 k-point 95 :  -0.3061 0.6455 0.0000  plane waves:   10033
 k-point 96 :  -0.3330 0.6670 0.0000  plane waves:   10034

 maximum and minimum number of plane-waves per node :     10094     9963

 maximum number of plane-waves:     10094
 maximum index in each direction: 
   IXMAX=    9   IYMAX=    8   IZMAX=   34
   IXMIN=   -9   IYMIN=   -9   IZMIN=  -34


 serial   3D FFT for wavefunctions
 parallel 3D FFT for charge:
    minimum data exchange during FFTs selected (reduces bandwidth)


 total amount of memory used by VASP MPI-rank0   205636. kBytes
=======================================================================

   base      :      30000. kBytes
   nonl-proj :     125451. kBytes
   fftplans  :       4815. kBytes
   grid      :      14086. kBytes
   one-center:         24. kBytes
   wavefun   :      31260. kBytes
 
     INWAV:  cpu time    0.0000: real time    0.0001
 initial charge density was supplied:
 number of electron      30.0000002 magnetization 
 keeping initial charge density in first step


--------------------------------------------------------------------------------------------------------


 Maximum index for augmentation-charges          407 (set IRDMAX)


--------------------------------------------------------------------------------------------------------


 First call to EWALD:  gamma=   0.229
 Maximum number of real-space cells 4x 4x 1
 Maximum number of reciprocal cells 2x 2x 6

    FEWALD:  cpu time    0.0020: real time    0.0021


--------------------------------------- Iteration      1(   1)  ---------------------------------------


    POTLOK:  cpu time    0.1468: real time    0.1713
    SETDIJ:  cpu time    0.0024: real time    0.0024
     EDDAV:  cpu time   14.6660: real time   14.6874
       DOS:  cpu time    0.0016: real time    0.0016
    --------------------------------------------
      LOOP:  cpu time   14.8169: real time   14.8628

 eigenvalue-minimisations  :  4608
 total energy-change (2. order) : 0.1695791E+03  (-0.8934425E+03)
 number of electron      30.0000002 magnetization 
 augmentation part       30.0000002 magnetization 

 Free energy of the ion-electron system (eV)
  ---------------------------------------------------
  alpha Z        PSCENC =        10.93933817
  Ewald energy   TEWEN  =      4060.05404224
  -Hartree energ DENC   =     -4938.58461270
  -exchange      EXHF   =         0.00000000
  -V(xc)+E(xc)   XCENC  =        96.01982328
  PAW double counting   =      2894.03382187    -2896.56098873
  entropy T*S    EENTRO =        -0.06395915
  eigenvalues    EBANDS =       -81.46229830
  atomic energy  EATOM  =      1025.20389953
  Solvation  Ediel_sol  =         0.00000000
  ---------------------------------------------------
  free energy    TOTEN  =       169.57906621 eV

  energy without entropy =      169.64302536  energy(sigma->0) =      169.61104579


--------------------------------------------------------------------------------------------------------




--------------------------------------- Iteration      1(   2)  ---------------------------------------


     EDDAV:  cpu time   22.5954: real time   22.6347
       DOS:  cpu time    0.0017: real time    0.0017
    --------------------------------------------
      LOOP:  cpu time   22.5970: real time   22.6364

 eigenvalue-minimisations  :  8172
 total energy-change (2. order) :-0.2058280E+03  (-0.1873471E+03)
 number of electron      30.0000002 magnetization 
 augmentation part       30.0000002 magnetization 

 Free energy of the ion-electron system (eV)
  ---------------------------------------------------
  alpha Z        PSCENC =        10.93933817
  Ewald energy   TEWEN  =      4060.05404224
  -Hartree energ DENC   =     -4938.58461270
  -exchange      EXHF   =         0.00000000
  -V(xc)+E(xc)   XCENC  =        96.01982328
  PAW double counting   =      2894.03382187    -2896.56098873
  entropy T*S    EENTRO =        -0.03969895
  eigenvalues    EBANDS =      -287.31460218
  atomic energy  EATOM  =      1025.20389953
  Solvation  Ediel_sol  =         0.00000000
  ---------------------------------------------------
  free energy    TOTEN  =       -36.24897747 eV

  energy without entropy =      -36.20927852  energy(sigma->0) =      -36.22912800


--------------------------------------------------------------------------------------------------------




--------------------------------------- Iteration      1(   3)  ---------------------------------------


     EDDAV:  cpu time   16.4127: real time   16.4512
       DOS:  cpu time    0.0015: real time    0.0015
    --------------------------------------------
      LOOP:  cpu time   16.4143: real time   16.4528

 eigenvalue-minimisations  :  5412
 total energy-change (2. order) :-0.2927962E+02  (-0.2865353E+02)
 number of electron      30.0000002 magnetization 
 augmentation part       30.0000002 magnetization 

 Free energy of the ion-electron system (eV)
  ---------------------------------------------------
  alpha Z        PSCENC =        10.93933817
  Ewald energy   TEWEN  =      4060.05404224
  -Hartree energ DENC   =     -4938.58461270
  -exchange      EXHF   =         0.00000000
  -V(xc)+E(xc)   XCENC  =        96.01982328
  PAW double counting   =      2894.03382187    -2896.56098873
  entropy T*S    EENTRO =        -0.00303700
  eigenvalues    EBANDS =      -316.63088906
  atomic energy  EATOM  =      1025.20389953
  Solvation  Ediel_sol  =         0.00000000
  ---------------------------------------------------
  free energy    TOTEN  =       -65.52860240 eV

  energy without entropy =      -65.52556540  energy(sigma->0) =      -65.52708390


--------------------------------------------------------------------------------------------------------




--------------------------------------- Iteration      1(   4)  ---------------------------------------


     EDDAV:  cpu time   17.1726: real time   17.1983
       DOS:  cpu time    0.0015: real time    0.0015
    --------------------------------------------
      LOOP:  cpu time   17.1741: real time   17.1998

 eigenvalue-minimisations  :  5748
 total energy-change (2. order) :-0.7165931E+00  (-0.7154857E+00)
 number of electron      30.0000002 magnetization 
 augmentation part       30.0000002 magnetization 

 Free energy of the ion-electron system (eV)
  ---------------------------------------------------
  alpha Z        PSCENC =        10.93933817
  Ewald energy   TEWEN  =      4060.05404224
  -Hartree energ DENC   =     -4938.58461270
  -exchange      EXHF   =         0.00000000
  -V(xc)+E(xc)   XCENC  =        96.01982328
  PAW double counting   =      2894.03382187    -2896.56098873
  entropy T*S    EENTRO =        -0.00197589
  eigenvalues    EBANDS =      -317.34854325
  atomic energy  EATOM  =      1025.20389953
  Solvation  Ediel_sol  =         0.00000000
  ---------------------------------------------------
  free energy    TOTEN  =       -66.24519548 eV

  energy without entropy =      -66.24321959  energy(sigma->0) =      -66.24420753


--------------------------------------------------------------------------------------------------------




--------------------------------------- Iteration      1(   5)  ---------------------------------------


     EDDAV:  cpu time   17.1489: real time   17.1738
       DOS:  cpu time    0.0015: real time    0.0015
    --------------------------------------------
      LOOP:  cpu time   17.1504: real time   17.1753

 eigenvalue-minimisations  :  5748
 total energy-change (2. order) :-0.1785687E-01  (-0.1784915E-01)
 number of electron      30.0000002 magnetization 
 augmentation part       30.0000002 magnetization 

 Free energy of the ion-electron system (eV)
  ---------------------------------------------------
  alpha Z        PSCENC =        10.93933817
  Ewald energy   TEWEN  =      4060.05404224
  -Hartree energ DENC   =     -4938.58461270
  -exchange      EXHF   =         0.00000000
  -V(xc)+E(xc)   XCENC  =        96.01982328
  PAW double counting   =      2894.03382187    -2896.56098873
  entropy T*S    EENTRO =        -0.00194494
  eigenvalues    EBANDS =      -317.36643107
  atomic energy  EATOM  =      1025.20389953
  Solvation  Ediel_sol  =         0.00000000
  ---------------------------------------------------
  free energy    TOTEN  =       -66.26305235 eV

  energy without entropy =      -66.26110741  energy(sigma->0) =      -66.26207988


--------------------------------------------------------------------------------------------------------




--------------------------------------- Iteration      1(   6)  ---------------------------------------


     EDDAV:  cpu time   17.8489: real time   17.8757
       DOS:  cpu time    0.0014: real time    0.0014
    --------------------------------------------
      LOOP:  cpu time   17.8504: real time   17.8771

 eigenvalue-minimisations  :  6072
 total energy-change (2. order) :-0.7243828E-03  (-0.7243657E-03)
 number of electron      30.0000002 magnetization 
 augmentation part       30.0000002 magnetization 

 Free energy of the ion-electron system (eV)
  ---------------------------------------------------
  alpha Z        PSCENC =        10.93933817
  Ewald energy   TEWEN  =      4060.05404224
  -Hartree energ DENC   =     -4938.58461270
  -exchange      EXHF   =         0.00000000
  -V(xc)+E(xc)   XCENC  =        96.01982328
  PAW double counting   =      2894.03382187    -2896.56098873
  entropy T*S    EENTRO =        -0.00194365
  eigenvalues    EBANDS =      -317.36715674
  atomic energy  EATOM  =      1025.20389953
  Solvation  Ediel_sol  =         0.00000000
  ---------------------------------------------------
  free energy    TOTEN  =       -66.26377673 eV

  energy without entropy =      -66.26183308  energy(sigma->0) =      -66.26280491


--------------------------------------------------------------------------------------------------------




--------------------------------------- Iteration      1(   7)  ---------------------------------------


     EDDAV:  cpu time   18.2075: real time   18.2495
       DOS:  cpu time    0.0016: real time    0.0016
    --------------------------------------------
      LOOP:  cpu time   18.2090: real time   18.2510

 eigenvalue-minimisations  :  6228
 total energy-change (2. order) :-0.2277910E-04  (-0.2277842E-04)
 number of electron      30.0000002 magnetization 
 augmentation part       30.0000002 magnetization 

 Free energy of the ion-electron system (eV)
  ---------------------------------------------------
  alpha Z        PSCENC =        10.93933817
  Ewald energy   TEWEN  =      4060.05404224
  -Hartree energ DENC   =     -4938.58461270
  -exchange      EXHF   =         0.00000000
  -V(xc)+E(xc)   XCENC  =        96.01982328
  PAW double counting   =      2894.03382187    -2896.56098873
  entropy T*S    EENTRO =        -0.00194364
  eigenvalues    EBANDS =      -317.36717953
  atomic energy  EATOM  =      1025.20389953
  Solvation  Ediel_sol  =         0.00000000
  ---------------------------------------------------
  free energy    TOTEN  =       -66.26379951 eV

  energy without entropy =      -66.26185587  energy(sigma->0) =      -66.26282769


--------------------------------------------------------------------------------------------------------




--------------------------------------- Iteration      1(   8)  ---------------------------------------


     EDDAV:  cpu time   20.0352: real time   20.0659
       DOS:  cpu time    0.0015: real time    0.0015
    --------------------------------------------
      LOOP:  cpu time   20.0367: real time   20.0675

 eigenvalue-minimisations  :  7068
 total energy-change (2. order) :-0.9170246E-06  (-0.9170770E-06)
 number of electron      30.0000002 magnetization 
 augmentation part       30.0000002 magnetization 

 Free energy of the ion-electron system (eV)
  ---------------------------------------------------
  alpha Z        PSCENC =        10.93933817
  Ewald energy   TEWEN  =      4060.05404224
  -Hartree energ DENC   =     -4938.58461270
  -exchange      EXHF   =         0.00000000
  -V(xc)+E(xc)   XCENC  =        96.01982328
  PAW double counting   =      2894.03382187    -2896.56098873
  entropy T*S    EENTRO =        -0.00194364
  eigenvalues    EBANDS =      -317.36718045
  atomic energy  EATOM  =      1025.20389953
  Solvation  Ediel_sol  =         0.00000000
  ---------------------------------------------------
  free energy    TOTEN  =       -66.26380043 eV

  energy without entropy =      -66.26185679  energy(sigma->0) =      -66.26282861


--------------------------------------------------------------------------------------------------------




 average (electrostatic) potential at core
  the test charge radii are     0.7672  0.6991
  (the norm of the test charge is              1.0000)
       1 -35.0233       2 -35.0232       3 -57.5210       4 -57.5210       5 -57.5202
       6 -57.5203       7 -57.5210       8 -57.5209
 
 
 
 E-fermi :  -3.9111     XC(G=0):  -2.1066     alpha+bet : -1.7756


 k-point     1 :      -0.3330    0.6670    0.0000
  band No.  band energies     occupation 
      1     -19.9330      2.00000
      2     -17.6515      2.00000
      3     -16.7952      2.00000
      4     -14.5062      2.00000
      5     -12.8840      2.00000
      6     -11.3250      2.00000
      7      -9.8554      2.00000
      8      -9.7903      2.00000
      9      -8.4914      2.00000
     10      -8.2978      2.00000
     11      -6.7159      2.00000
     12      -6.3819      2.00000
     13      -6.1683      2.00000
     14      -5.1326      2.00000
     15      -5.0816      2.00000
     16      -3.4455      0.00099
     17       0.0128      0.00000
     18       0.7721      0.00000
     19       1.2339      0.00000
     20       1.9839      0.00000
     21       2.3236      0.00000
     22       2.6348      0.00000
     23       3.3383      0.00000
     24       3.6611      0.00000

 k-point     2 :      -0.3223    0.6455    0.0000
  band No.  band energies     occupation 
      1     -19.9209      2.00000
      2     -17.6722      2.00000
      3     -16.8163      2.00000
      4     -14.4918      2.00000
      5     -12.8748      2.00000
      6     -11.2608      2.00000
      7      -9.9002      2.00000
      8      -9.7353      2.00000
      9      -8.4685      2.00000
     10      -8.3186      2.00000
     11      -6.7272      2.00000
     12      -6.4120      2.00000
     13      -6.2207      2.00000
     14      -5.1655      2.00000
     15      -5.1157      2.00000
     16      -3.4269      0.00062
     17      -0.0431      0.00000
     18       0.8722      0.00000
     19       1.2662      0.00000
     20       2.0207      0.00000
     21       2.3565      0.00000
     22       2.6936      0.00000
     23       3.3720      0.00000
     24       3.6154      0.00000

 k-point     3 :      -0.3115    0.6240    0.0000
  band No.  band energies     occupation 
      1     -19.9044      2.00000
      2     -17.6899      2.00000
      3     -16.8661      2.00000
      4     -14.4364      2.00000
      5     -12.8999      2.00000
      6     -11.1560      2.00000
      7      -9.9733      2.00000
      8      -9.6654      2.00000
      9      -8.4371      2.00000
     10      -8.3098      2.00000
     11      -6.7750      2.00000
     12      -6.4363      2.00000
     13      -6.2723      2.00000
     14      -5.2512      2.00000
     15      -5.1787      2.00000
     16      -3.3558      0.00009
     17      -0.1871      0.00000
     18       1.0801      0.00000
     19       1.3105      0.00000
     20       2.0718      0.00000
     21       2.4015      0.00000
     22       2.7496      0.00000
     23       3.4168      0.00000
     24       3.5817      0.00000

 k-point     4 :      -0.3008    0.6025    0.0000
  band No.  band energies     occupation 
      1     -19.8839      2.00000
      2     -17.7045      2.00000
      3     -16.9386      2.00000
      4     -14.3463      2.00000
      5     -12.9499      2.00000
      6     -11.0220      2.00000
      7     -10.0665      2.00000
      8      -9.5828      2.00000
      9      -8.3977      2.00000
     10      -8.2769      2.00000
     11      -6.8555      2.00000
     12      -6.4552      2.00000
     13      -6.3235      2.00000
     14      -5.3757      2.00000
     15      -5.2682      2.00000
     16      -3.2459      0.00000
     17      -0.3587      0.00000
     18       1.3328      0.00000
     19       1.3668      0.00000
     20       2.1391      0.00000
     21       2.4585      0.00000
     22       2.8020      0.00000
     23       3.4725      0.00000
     24       3.5598      0.00000

 k-point     5 :      -0.2900    0.5809    0.0000
  band No.  band energies     occupation 
      1     -19.8599      2.00000
      2     -17.7165      2.00000
      3     -17.0260      2.00000
      4     -14.2305      2.00000
      5     -13.0138      2.00000
      6     -10.8751      2.00000
      7     -10.1667      2.00000
      8      -9.4878      2.00000
      9      -8.3506      2.00000
     10      -8.2289      2.00000
     11      -6.9614      2.00000
     12      -6.4698      2.00000
     13      -6.3769      2.00000
     14      -5.5228      2.00000
     15      -5.3805      2.00000
     16      -3.1132      0.00000
     17      -0.5323      0.00000
     18       1.4349      0.00000
     19       1.6000      0.00000
     20       2.2271      0.00000
     21       2.5277      0.00000
     22       2.8495      0.00000
     23       3.5390      0.00000
     24       3.5497      0.00000

 k-point     6 :      -0.2793    0.5594    0.0000
  band No.  band energies     occupation 
      1     -19.8330      2.00000
      2     -17.7272      2.00000
      3     -17.1197      2.00000
      4     -14.0999      2.00000
      5     -13.0805      2.00000
      6     -10.7431      2.00000
      7     -10.2486      2.00000
      8      -9.3809      2.00000
      9      -8.2965      2.00000
     10      -8.1772      2.00000
     11      -7.0822      2.00000
     12      -6.4823      2.00000
     13      -6.4355      2.00000
     14      -5.6782      2.00000
     15      -5.5092      2.00000
     16      -2.9720      0.00000
     17      -0.6958      0.00000
     18       1.5149      0.00000
     19       1.8601      0.00000
     20       2.3468      0.00000
     21       2.6090      0.00000
     22       2.8910      0.00000
     23       3.5513      0.00000
     24       3.6165      0.00000

 k-point     7 :      -0.2685    0.5379    0.0000
  band No.  band energies     occupation 
      1     -19.8043      2.00000
      2     -17.7389      2.00000
      3     -17.2111      2.00000
      4     -13.9685      2.00000
      5     -13.1377      2.00000
      6     -10.6853      2.00000
      7     -10.2539      2.00000
      8      -9.2624      2.00000
      9      -8.2362      2.00000
     10      -8.1372      2.00000
     11      -7.2041      2.00000
     12      -6.5021      2.00000
     13      -6.4976      2.00000
     14      -5.8283      2.00000
     15      -5.6462      2.00000
     16      -2.8350      0.00000
     17      -0.8412      0.00000
     18       1.6067      0.00000
     19       2.0863      0.00000
     20       2.5180      0.00000
     21       2.7024      0.00000
     22       2.9249      0.00000
     23       3.5645      0.00000
     24       3.7053      0.00000

 k-point     8 :      -0.2578    0.5164    0.0000
  band No.  band energies     occupation 
      1     -19.7750      2.00000
      2     -17.7550      2.00000
      3     -17.2912      2.00000
      4     -13.8562      2.00000
      5     -13.1684      2.00000
      6     -10.7330      2.00000
      7     -10.1521      2.00000
      8      -9.1342      2.00000
      9      -8.1712      2.00000
     10      -8.1281      2.00000
     11      -7.3088      2.00000
     12      -6.5791      2.00000
     13      -6.5244      2.00000
     14      -5.9580      2.00000
     15      -5.7806      2.00000
     16      -2.7145      0.00000
     17      -0.9605      0.00000
     18       1.7102      0.00000
     19       2.2622      0.00000
     20       2.7511      0.00000
     21       2.8078      0.00000
     22       2.9506      0.00000
     23       3.5889      0.00000
     24       3.8093      0.00000

 k-point     9 :      -0.2471    0.4949    0.0000
  band No.  band energies     occupation 
      1     -19.7465      2.00000
      2     -17.7794      2.00000
      3     -17.3514      2.00000
      4     -13.7883      2.00000
      5     -13.1515      2.00000
      6     -10.8261      2.00000
      7     -10.0026      2.00000
      8      -9.0023      2.00000
      9      -8.1648      2.00000
     10      -8.1036      2.00000
     11      -7.3814      2.00000
     12      -6.6661      2.00000
     13      -6.5745      2.00000
     14      -6.0500      2.00000
     15      -5.8995      2.00000
     16      -2.6223      0.00000
     17      -1.0453      0.00000
     18       1.8254      0.00000
     19       2.4006      0.00000
     20       2.9253      0.00000
     21       2.9560      0.00000
     22       3.0387      0.00000
     23       3.5443      0.00000
     24       3.6280      0.00000

 k-point    10 :      -0.2363    0.4734    0.0000
  band No.  band energies     occupation 
      1     -19.7208      2.00000
      2     -17.8135      2.00000
      3     -17.3865      2.00000
      4     -13.7765      2.00000
      5     -13.0812      2.00000
      6     -10.9223      2.00000
      7      -9.8466      2.00000
      8      -8.8858      2.00000
      9      -8.2319      2.00000
     10      -8.0369      2.00000
     11      -7.4301      2.00000
     12      -6.7555      2.00000
     13      -6.6522      2.00000
     14      -6.0943      2.00000
     15      -5.9909      2.00000
     16      -2.5683      0.00000
     17      -1.0884      0.00000
     18       1.9523      0.00000
     19       2.5139      0.00000
     20       2.9744      0.00000
     21       3.0549      0.00000
     22       3.2829      0.00000
     23       3.3266      0.00000
     24       3.6742      0.00000

 k-point    11 :      -0.2256    0.4518    0.0000
  band No.  band energies     occupation 
      1     -19.7000      2.00000
      2     -17.8531      2.00000
      3     -17.3967      2.00000
      4     -13.8057      2.00000
      5     -12.9806      2.00000
      6     -11.0022      2.00000
      7      -9.7021      2.00000
      8      -8.8349      2.00000
      9      -8.2625      2.00000
     10      -7.9766      2.00000
     11      -7.4888      2.00000
     12      -6.8280      2.00000
     13      -6.7446      2.00000
     14      -6.0973      2.00000
     15      -6.0469      2.00000
     16      -2.5569      0.00000
     17      -1.0883      0.00000
     18       2.0908      0.00000
     19       2.5923      0.00000
     20       3.0019      0.00000
     21       3.0310      0.00000
     22       3.1966      0.00000
     23       3.6573      0.00000
     24       3.7403      0.00000

 k-point    12 :      -0.2148    0.4303    0.0000
  band No.  band energies     occupation 
      1     -19.6861      2.00000
      2     -17.8903      2.00000
      3     -17.3868      2.00000
      4     -13.8552      2.00000
      5     -12.8811      2.00000
      6     -11.0519      2.00000
      7      -9.5869      2.00000
      8      -8.8909      2.00000
      9      -8.1929      2.00000
     10      -7.9308      2.00000
     11      -7.5846      2.00000
     12      -6.8648      2.00000
     13      -6.8295      2.00000
     14      -6.0717      2.00000
     15      -6.0644      2.00000
     16      -2.5836      0.00000
     17      -1.0511      0.00000
     18       2.2408      0.00000
     19       2.6109      0.00000
     20       2.7902      0.00000
     21       3.0688      0.00000
     22       3.3502      0.00000
     23       3.5494      0.00000
     24       3.8036      0.00000

 k-point    13 :      -0.2041    0.4088    0.0000
  band No.  band energies     occupation 
      1     -19.6814      2.00000
      2     -17.9173      2.00000
      3     -17.3620      2.00000
      4     -13.9119      2.00000
      5     -12.8063      2.00000
      6     -11.0594      2.00000
      7      -9.5380      2.00000
      8      -8.9830      2.00000
      9      -8.0790      2.00000
     10      -7.9106      2.00000
     11      -7.6908      2.00000
     12      -6.8864      2.00000
     13      -6.8691      2.00000
     14      -6.0435      2.00000
     15      -6.0272      2.00000
     16      -2.6382      0.00000
     17      -0.9889      0.00000
     18       2.4023      0.00000
     19       2.5607      0.00000
     20       2.5647      0.00000
     21       3.1714      0.00000
     22       3.3579      0.00000
     23       3.5159      0.00000
     24       3.6779      0.00000

 k-point    14 :      -0.1934    0.3873    0.0000
  band No.  band energies     occupation 
      1     -19.6872      2.00000
      2     -17.9283      2.00000
      3     -17.3260      2.00000
      4     -13.9693      2.00000
      5     -12.7704      2.00000
      6     -11.0178      2.00000
      7      -9.6095      2.00000
      8      -9.0133      2.00000
      9      -8.0800      2.00000
     10      -7.9252      2.00000
     11      -7.6720      2.00000
     12      -6.9006      2.00000
     13      -6.8556      2.00000
     14      -5.9872      2.00000
     15      -5.9691      2.00000
     16      -2.7095      0.00000
     17      -0.9139      0.00000
     18       2.3422      0.00000
     19       2.4706      0.00000
     20       2.5758      0.00000
     21       3.1192      0.00000
     22       3.3570      0.00000
     23       3.4544      0.00000
     24       3.6937      0.00000

 k-point    15 :      -0.1826    0.3658    0.0000
  band No.  band energies     occupation 
      1     -19.7043      2.00000
      2     -17.9203      2.00000
      3     -17.2815      2.00000
      4     -14.0239      2.00000
      5     -12.7765      2.00000
      6     -10.9296      2.00000
      7      -9.7836      2.00000
      8      -8.9909      2.00000
      9      -8.2091      2.00000
     10      -7.9757      2.00000
     11      -7.5076      2.00000
     12      -6.8683      2.00000
     13      -6.8312      2.00000
     14      -5.9012      2.00000
     15      -5.9006      2.00000
     16      -2.7884      0.00000
     17      -0.8357      0.00000
     18       2.1356      0.00000
     19       2.3434      0.00000
     20       2.7603      0.00000
     21       2.9372      0.00000
     22       3.2429      0.00000
     23       3.5074      0.00000
     24       3.8835      0.00000

 k-point    16 :      -0.1719    0.3443    0.0000
  band No.  band energies     occupation 
      1     -19.7320      2.00000
      2     -17.8922      2.00000
      3     -17.2301      2.00000
      4     -14.0737      2.00000
      5     -12.8188      2.00000
      6     -10.8087      2.00000
      7      -9.9983      2.00000
      8      -8.9990      2.00000
      9      -8.3205      2.00000
     10      -8.0540      2.00000
     11      -7.3162      2.00000
     12      -6.7963      2.00000
     13      -6.7885      2.00000
     14      -5.8240      2.00000
     15      -5.7926      2.00000
     16      -2.8681      0.00000
     17      -0.7611      0.00000
     18       1.9405      0.00000
     19       2.1927      0.00000
     20       2.7549      0.00000
     21       2.9563      0.00000
     22       3.0434      0.00000
     23       3.5833      0.00000
     24       3.7737      0.00000

 k-point    17 :      -0.1611    0.3227    0.0000
  band No.  band energies     occupation 
      1     -19.7691      2.00000
      2     -17.8444      2.00000
      3     -17.1733      2.00000
      4     -14.1175      2.00000
      5     -12.8874      2.00000
      6     -10.6896      2.00000
      7     -10.2026      2.00000
      8      -9.1008      2.00000
      9      -8.3405      2.00000
     10      -8.1491      2.00000
     11      -7.1536      2.00000
     12      -6.7025      2.00000
     13      -6.6950      2.00000
     14      -5.7411      2.00000
     15      -5.6684      2.00000
     16      -2.9436      0.00000
     17      -0.6943      0.00000
     18       1.7569      0.00000
     19       2.0255      0.00000
     20       2.5762      0.00000
     21       2.8559      0.00000
     22       3.1637      0.00000
     23       3.3587      0.00000
     24       3.8247      0.00000

 k-point    18 :      -0.1504    0.3012    0.0000
  band No.  band energies     occupation 
      1     -19.8134      2.00000
      2     -17.7787      2.00000
      3     -17.1121      2.00000
      4     -14.1544      2.00000
      5     -12.9732      2.00000
      6     -10.6902      2.00000
      7     -10.2785      2.00000
      8      -9.2845      2.00000
      9      -8.2784      2.00000
     10      -8.2522      2.00000
     11      -7.0528      2.00000
     12      -6.5731      2.00000
     13      -6.5481      2.00000
     14      -5.6534      2.00000
     15      -5.5345      2.00000
     16      -3.0113      0.00000
     17      -0.6374      0.00000
     18       1.5850      0.00000
     19       1.8464      0.00000
     20       2.4000      0.00000
     21       2.6806      0.00000
     22       3.0788      0.00000
     23       3.3823      0.00000
     24       3.6890      0.00000

 k-point    19 :      -0.1396    0.2797    0.0000
  band No.  band energies     occupation 
      1     -19.8627      2.00000
      2     -17.6970      2.00000
      3     -17.0476      2.00000
      4     -14.1841      2.00000
      5     -13.0691      2.00000
      6     -10.8742      2.00000
      7     -10.1660      2.00000
      8      -9.5073      2.00000
      9      -8.3572      2.00000
     10      -8.1744      2.00000
     11      -7.0013      2.00000
     12      -6.4371      2.00000
     13      -6.3407      2.00000
     14      -5.5630      2.00000
     15      -5.3954      2.00000
     16      -3.0678      0.00000
     17      -0.5916      0.00000
     18       1.4248      0.00000
     19       1.6592      0.00000
     20       2.2245      0.00000
     21       2.5173      0.00000
     22       2.7902      0.00000
     23       3.5269      0.00000
     24       3.6120      0.00000

 k-point    20 :      -0.1289    0.2582    0.0000
  band No.  band energies     occupation 
      1     -19.9149      2.00000
      2     -17.6019      2.00000
      3     -16.9807      2.00000
      4     -14.2059      2.00000
      5     -13.1702      2.00000
      6     -11.1107      2.00000
      7     -10.0011      2.00000
      8      -9.7433      2.00000
      9      -8.4603      2.00000
     10      -8.0505      2.00000
     11      -6.9716      2.00000
     12      -6.2915      2.00000
     13      -6.1102      2.00000
     14      -5.4717      2.00000
     15      -5.2552      2.00000
     16      -3.1106      0.00000
     17      -0.5568      0.00000
     18       1.2762      0.00000
     19       1.4659      0.00000
     20       2.0452      0.00000
     21       2.3661      0.00000
     22       2.5061      0.00000
     23       3.3738      0.00000
     24       3.7502      0.00000

 k-point    21 :      -0.1182    0.2367    0.0000
  band No.  band energies     occupation 
      1     -19.9680      2.00000
      2     -17.4956      2.00000
      3     -16.9125      2.00000
      4     -14.2199      2.00000
      5     -13.2731      2.00000
      6     -11.3553      2.00000
      7      -9.9915      2.00000
      8      -9.8211      2.00000
      9      -8.5591      2.00000
     10      -7.9159      2.00000
     11      -6.9493      2.00000
     12      -6.1396      2.00000
     13      -5.8732      2.00000
     14      -5.3819      2.00000
     15      -5.1166      2.00000
     16      -3.1368      0.00000
     17      -0.5327      0.00000
     18       1.1394      0.00000
     19       1.2688      0.00000
     20       1.8513      0.00000
     21       2.2270      0.00000
     22       2.2430      0.00000
     23       3.2326      0.00000
     24       3.6120      0.00000

 k-point    22 :      -0.1074    0.2152    0.0000
  band No.  band energies     occupation 
      1     -20.0204      2.00000
      2     -17.3805      2.00000
      3     -16.8443      2.00000
      4     -14.2260      2.00000
      5     -13.3754      2.00000
      6     -11.5970      2.00000
      7     -10.2266      2.00000
      8      -9.6582      2.00000
      9      -8.6519      2.00000
     10      -7.7750      2.00000
     11      -6.9286      2.00000
     12      -5.9843      2.00000
     13      -5.6379      2.00000
     14      -5.2960      2.00000
     15      -4.9822      2.00000
     16      -3.1439      0.00000
     17      -0.5183      0.00000
     18       1.0143      0.00000
     19       1.0698      0.00000
     20       1.6264      0.00000
     21       2.0219      0.00000
     22       2.0999      0.00000
     23       3.1038      0.00000
     24       3.4857      0.00000

 k-point    23 :      -0.0967    0.1936    0.0000
  band No.  band energies     occupation 
      1     -20.0707      2.00000
      2     -17.2588      2.00000
      3     -16.7770      2.00000
      4     -14.2243      2.00000
      5     -13.4756      2.00000
      6     -11.8307      2.00000
      7     -10.4574      2.00000
      8      -9.5058      2.00000
      9      -8.7377      2.00000
     10      -7.6304      2.00000
     11      -6.9071      2.00000
     12      -5.8283      2.00000
     13      -5.4095      2.00000
     14      -5.2165      2.00000
     15      -4.8542      2.00000
     16      -3.1299      0.00000
     17      -0.5128      0.00000
     18       0.8713      0.00000
     19       0.9010      0.00000
     20       1.3685      0.00000
     21       1.8498      0.00000
     22       1.9849      0.00000
     23       2.9875      0.00000
     24       3.3713      0.00000

 k-point    24 :      -0.0859    0.1721    0.0000
  band No.  band energies     occupation 
      1     -20.1179      2.00000
      2     -17.1331      2.00000
      3     -16.7121      2.00000
      4     -14.2155      2.00000
      5     -13.5726      2.00000
      6     -12.0527      2.00000
      7     -10.6785      2.00000
      8      -9.3694      2.00000
      9      -8.8158      2.00000
     10      -7.4850      2.00000
     11      -6.8842      2.00000
     12      -5.6745      2.00000
     13      -5.1922      2.00000
     14      -5.1456      2.00000
     15      -4.7347      2.00000
     16      -3.0930      0.00000
     17      -0.5155      0.00000
     18       0.6751      0.00000
     19       0.7994      0.00000
     20       1.0947      0.00000
     21       1.7147      0.00000
     22       1.8820      0.00000
     23       2.8836      0.00000
     24       3.2688      0.00000

 k-point    25 :      -0.0752    0.1506    0.0000
  band No.  band energies     occupation 
      1     -20.1610      2.00000
      2     -17.0061      2.00000
      3     -16.6508      2.00000
      4     -14.2002      2.00000
      5     -13.6656      2.00000
      6     -12.2595      2.00000
      7     -10.8866      2.00000
      8      -9.2510      2.00000
      9      -8.8856      2.00000
     10      -7.3418      2.00000
     11      -6.8602      2.00000
     12      -5.5258      2.00000
     13      -5.0849      2.00000
     14      -4.9893      2.00000
     15      -4.6252      2.00000
     16      -3.0330      0.00000
     17      -0.5255      0.00000
     18       0.4812      0.00000
     19       0.7097      0.00000
     20       0.8242      0.00000
     21       1.6046      0.00000
     22       1.7912      0.00000
     23       2.7920      0.00000
     24       3.1782      0.00000

 k-point    26 :      -0.0645    0.1291    0.0000
  band No.  band energies     occupation 
      1     -20.1995      2.00000
      2     -16.8808      2.00000
      3     -16.5943      2.00000
      4     -14.1800      2.00000
      5     -13.7538      2.00000
      6     -12.4474      2.00000
      7     -11.0788      2.00000
      8      -9.1511      2.00000
      9      -8.9466      2.00000
     10      -7.2046      2.00000
     11      -6.8359      2.00000
     12      -5.3852      2.00000
     13      -5.0350      2.00000
     14      -4.8043      2.00000
     15      -4.5273      1.99999
     16      -2.9511      0.00000
     17      -0.5423      0.00000
     18       0.2854      0.00000
     19       0.5757      0.00000
     20       0.6318      0.00000
     21       1.5137      0.00000
     22       1.7125      0.00000
     23       2.7126      0.00000
     24       3.0996      0.00000

 k-point    27 :      -0.0537    0.1076    0.0000
  band No.  band energies     occupation 
      1     -20.2329      2.00000
      2     -16.7610      2.00000
      3     -16.5440      2.00000
      4     -14.1564      2.00000
      5     -13.8364      2.00000
      6     -12.6127      2.00000
      7     -11.2517      2.00000
      8      -9.0693      2.00000
      9      -8.9987      2.00000
     10      -7.0777      2.00000
     11      -6.8123      2.00000
     12      -5.2565      2.00000
     13      -4.9959      2.00000
     14      -4.6405      2.00000
     15      -4.4424      1.99983
     16      -2.8506      0.00000
     17      -0.5653      0.00000
     18       0.0791      0.00000
     19       0.3695      0.00000
     20       0.5658      0.00000
     21       1.4388      0.00000
     22       1.6458      0.00000
     23       2.6455      0.00000
     24       3.0330      0.00000

 k-point    28 :      -0.0430    0.0861    0.0000
  band No.  band energies     occupation 
      1     -20.2606      2.00000
      2     -16.6512      2.00000
      3     -16.5010      2.00000
      4     -14.1318      2.00000
      5     -13.9117      2.00000
      6     -12.7518      2.00000
      7     -11.4016      2.00000
      8      -9.0415      2.00000
      9      -9.0046      2.00000
     10      -6.9657      2.00000
     11      -6.7908      2.00000
     12      -5.1434      2.00000
     13      -4.9665      2.00000
     14      -4.5012      1.99997
     15      -4.3715      1.99887
     16      -2.7375      0.00000
     17      -0.5929      0.00000
     18      -0.1359      0.00000
     19       0.2153      0.00000
     20       0.5117      0.00000
     21       1.3787      0.00000
     22       1.5913      0.00000
     23       2.5907      0.00000
     24       2.9784      0.00000

 k-point    29 :      -0.0322    0.0645    0.0000
  band No.  band energies     occupation 
      1     -20.2825      2.00000
      2     -16.5565      2.00000
      3     -16.4663      2.00000
      4     -14.1088      2.00000
      5     -13.9770      2.00000
      6     -12.8618      2.00000
      7     -11.5246      2.00000
      8      -9.0750      2.00000
      9      -8.9558      2.00000
     10      -6.8730      2.00000
     11      -6.7725      2.00000
     12      -5.0499      2.00000
     13      -4.9456      2.00000
     14      -4.3892      1.99928
     15      -4.3155      1.99576
     16      -2.6210      0.00000
     17      -0.6224      0.00000
     18      -0.3411      0.00000
     19       0.1066      0.00000
     20       0.4696      0.00000
     21       1.3326      0.00000
     22       1.5489      0.00000
     23       2.5480      0.00000
     24       2.9358      0.00000

 k-point    30 :      -0.0215    0.0430    0.0000
  band No.  band energies     occupation 
      1     -20.2983      2.00000
      2     -16.4829      2.00000
      3     -16.4409      2.00000
      4     -14.0900      2.00000
      5     -14.0287      2.00000
      6     -12.9407      2.00000
      7     -11.6164      2.00000
      8      -9.0990      2.00000
      9      -8.9219      2.00000
     10      -6.8035      2.00000
     11      -6.7585      2.00000
     12      -4.9798      2.00000
     13      -4.9319      2.00000
     14      -4.3073      1.99491
     15      -4.2750      1.98993
     16      -2.5150      0.00000
     17      -0.6492      0.00000
     18      -0.5141      0.00000
     19       0.0348      0.00000
     20       0.4394      0.00000
     21       1.2998      0.00000
     22       1.5186      0.00000
     23       2.5176      0.00000
     24       2.9053      0.00000

 k-point    31 :      -0.0107    0.0215    0.0000
  band No.  band energies     occupation 
      1     -20.3078      2.00000
      2     -16.4358      2.00000
      3     -16.4254      2.00000
      4     -14.0778      2.00000
      5     -14.0622      2.00000
      6     -12.9880      2.00000
      7     -11.6734      2.00000
      8      -9.1134      2.00000
      9      -8.9020      2.00000
     10      -6.7605      2.00000
     11      -6.7498      2.00000
     12      -4.9362      2.00000
     13      -4.9241      2.00000
     14      -4.2572      1.98561
     15      -4.2505      1.98359
     16      -2.4380      0.00000
     17      -0.6682      0.00000
     18      -0.6322      0.00000
     19      -0.0059      0.00000
     20       0.4213      0.00000
     21       1.2803      0.00000
     22       1.5004      0.00000
     23       2.4993      0.00000
     24       2.8871      0.00000

 k-point    32 :       0.0000    0.0000    0.0000
  band No.  band energies     occupation 
      1     -20.3109      2.00000
      2     -16.4203      2.00000
      3     -16.4195      2.00000
      4     -14.0739      2.00000
      5     -14.0735      2.00000
      6     -13.0037      2.00000
      7     -11.6927      2.00000
      8      -9.1182      2.00000
[...]
     10      -8.4116      2.00000
     11      -6.6998      2.00000
     12      -6.6792      2.00000
     13      -6.5622      2.00000
     14      -5.2348      2.00000
     15      -5.1993      2.00000
     16      -3.4337      0.00177
     17       0.1183      0.00000
     18       0.9108      0.00000
     19       1.4758      0.00000
     20       2.2522      0.00000
     21       2.5708      0.00000
     22       3.1550      0.00000
     23       3.2332      0.00000
     24       3.6005      0.00000

 k-point    84 :      -0.0105    0.4088    0.0000
  band No.  band energies     occupation 
      1     -19.9927      2.00000
      2     -17.9809      2.00000
      3     -16.9653      2.00000
      4     -14.5638      2.00000
      5     -12.5698      2.00000
      6     -10.7366      2.00000
      7     -10.3271      2.00000
      8      -9.3556      2.00000
      9      -8.5114      2.00000
     10      -8.2993      2.00000
     11      -6.9159      2.00000
     12      -6.8511      2.00000
     13      -6.6535      2.00000
     14      -5.2875      2.00000
     15      -5.2467      2.00000
     16      -3.4799      0.00512
     17       0.1959      0.00000
     18       0.9897      0.00000
     19       1.6777      0.00000
     20       2.4544      0.00000
     21       2.7769      0.00000
     22       2.9277      0.00000
     23       3.4865      0.00000
     24       3.6734      0.00000

 k-point    85 :      -0.0374    0.4303    0.0000
  band No.  band energies     occupation 
      1     -19.9568      2.00000
      2     -18.0449      2.00000
      3     -16.9999      2.00000
      4     -14.5570      2.00000
      5     -12.4748      2.00000
      6     -10.5143      2.00000
      7     -10.4077      2.00000
      8      -9.4682      2.00000
      9      -8.2886      2.00000
     10      -8.2006      2.00000
     11      -7.2636      2.00000
     12      -6.9799      2.00000
     13      -6.6358      2.00000
     14      -5.3742      2.00000
     15      -5.2962      2.00000
     16      -3.4650      0.00367
     17       0.1429      0.00000
     18       1.1610      0.00000
     19       1.9051      0.00000
     20       2.6469      0.00000
     21       2.6785      0.00000
     22       3.0095      0.00000
     23       3.3896      0.00000
     24       3.7701      0.00000

 k-point    86 :      -0.0643    0.4518    0.0000
  band No.  band energies     occupation 
      1     -19.9351      2.00000
      2     -18.0710      2.00000
      3     -17.0462      2.00000
      4     -14.5117      2.00000
      5     -12.4524      2.00000
      6     -10.6101      2.00000
      7     -10.1952      2.00000
      8      -9.5577      2.00000
      9      -8.1368      2.00000
     10      -8.0197      2.00000
     11      -7.5668      2.00000
     12      -7.0429      2.00000
     13      -6.6493      2.00000
     14      -5.4522      2.00000
     15      -5.3790      2.00000
     16      -3.3916      0.00062
     17       0.0040      0.00000
     18       1.3707      0.00000
     19       2.1578      0.00000
     20       2.3916      0.00000
     21       2.9217      0.00000
     22       3.1581      0.00000
     23       3.2682      0.00000
     24       3.5073      0.00000

 k-point    87 :      -0.0912    0.4734    0.0000
  band No.  band energies     occupation 
      1     -19.9300      2.00000
      2     -18.0573      2.00000
      3     -17.1004      2.00000
      4     -14.4316      2.00000
      5     -12.5141      2.00000
      6     -10.6934      2.00000
      7     -10.1243      2.00000
      8      -9.4648      2.00000
      9      -8.1268      2.00000
     10      -8.0355      2.00000
     11      -7.5451      2.00000
     12      -7.0213      2.00000
     13      -6.6910      2.00000
     14      -5.5149      2.00000
     15      -5.4831      2.00000
     16      -3.2730      0.00002
     17      -0.1813      0.00000
     18       1.5762      0.00000
     19       2.1605      0.00000
     20       2.4367      0.00000
     21       2.9276      0.00000
     22       3.2034      0.00000
     23       3.2707      0.00000
     24       3.5533      0.00000

 k-point    88 :      -0.1180    0.4949    0.0000
  band No.  band energies     occupation 
      1     -19.9406      2.00000
      2     -18.0067      2.00000
      3     -17.1568      2.00000
      4     -14.3229      2.00000
      5     -12.6576      2.00000
      6     -10.7294      2.00000
      7     -10.1932      2.00000
      8      -9.2419      2.00000
      9      -8.2665      2.00000
     10      -8.1676      2.00000
     11      -7.2824      2.00000
     12      -6.9201      2.00000
     13      -6.7345      2.00000
     14      -5.5943      2.00000
     15      -5.5580      2.00000
     16      -3.1285      0.00000
     17      -0.3870      0.00000
     18       1.7554      0.00000
     19       1.9556      0.00000
     20       2.7399      0.00000
     21       2.7415      0.00000
     22       3.0604      0.00000
     23       3.4804      0.00000
     24       3.8513      0.00000

 k-point    89 :      -0.1449    0.5164    0.0000
  band No.  band energies     occupation 
      1     -19.9635      2.00000
      2     -17.9273      2.00000
      3     -17.2081      2.00000
      4     -14.1948      2.00000
      5     -12.8609      2.00000
      6     -10.7331      2.00000
      7     -10.2828      2.00000
      8      -9.1030      2.00000
      9      -8.3754      2.00000
     10      -8.2380      2.00000
     11      -7.1304      2.00000
     12      -6.7656      2.00000
     13      -6.6775      2.00000
     14      -5.6987      2.00000
     15      -5.5783      2.00000
     16      -2.9821      0.00000
     17      -0.5870      0.00000
     18       1.7760      0.00000
     19       1.8919      0.00000
     20       2.5894      0.00000
     21       2.8762      0.00000
     22       3.0683      0.00000
     23       3.4608      0.00000
     24       3.7911      0.00000

 k-point    90 :      -0.1718    0.5379    0.0000
  band No.  band energies     occupation 
      1     -19.9936      2.00000
      2     -17.8337      2.00000
      3     -17.2435      2.00000
      4     -14.0640      2.00000
      5     -13.0864      2.00000
      6     -10.7495      2.00000
      7     -10.3339      2.00000
      8      -9.1758      2.00000
      9      -8.3178      2.00000
     10      -8.2630      2.00000
     11      -7.1560      2.00000
     12      -6.5903      2.00000
     13      -6.4743      2.00000
     14      -5.7789      2.00000
     15      -5.5695      2.00000
     16      -2.8658      0.00000
     17      -0.7461      0.00000
     18       1.6217      0.00000
     19       1.9647      0.00000
     20       2.4897      0.00000
     21       2.7184      0.00000
     22       3.0735      0.00000
     23       3.4207      0.00000
     24       3.7252      0.00000

 k-point    91 :      -0.1986    0.5594    0.0000
  band No.  band energies     occupation 
      1     -20.0262      2.00000
      2     -17.7484      2.00000
      3     -17.2461      2.00000
      4     -13.9718      2.00000
      5     -13.2738      2.00000
      6     -10.8255      2.00000
      7     -10.3121      2.00000
      8      -9.3358      2.00000
      9      -8.3944      2.00000
     10      -8.0949      2.00000
     11      -7.2016      2.00000
     12      -6.4354      2.00000
     13      -6.2715      2.00000
     14      -5.8053      2.00000
     15      -5.5176      2.00000
     16      -2.8190      0.00000
     17      -0.8205      0.00000
     18       1.4928      0.00000
     19       1.9470      0.00000
     20       2.4571      0.00000
     21       2.5869      0.00000
     22       2.6797      0.00000
     23       3.5934      0.00000
     24       3.7959      0.00000

 k-point    92 :      -0.2255    0.5809    0.0000
  band No.  band energies     occupation 
      1     -20.0570      2.00000
      2     -17.6966      2.00000
      3     -17.1993      2.00000
      4     -14.0014      2.00000
      5     -13.3263      2.00000
      6     -10.9545      2.00000
      7     -10.2353      2.00000
      8      -9.4850      2.00000
      9      -8.4608      2.00000
     10      -8.0244      2.00000
     11      -7.1618      2.00000
     12      -6.3520      2.00000
     13      -6.1425      2.00000
     14      -5.7370      2.00000
     15      -5.4116      2.00000
     16      -2.8677      0.00000
     17      -0.7766      0.00000
     18       1.3895      0.00000
     19       1.8217      0.00000
     20       2.3299      0.00000
     21       2.4817      0.00000
     22       2.4899      0.00000
     23       3.4892      0.00000
     24       3.8640      0.00000

 k-point    93 :      -0.2524    0.6025    0.0000
  band No.  band energies     occupation 
      1     -20.0829      2.00000
      2     -17.6826      2.00000
      3     -17.1098      2.00000
      4     -14.1506      2.00000
      5     -13.2369      2.00000
      6     -11.1056      2.00000
      7     -10.1388      2.00000
      8      -9.5976      2.00000
      9      -8.5130      2.00000
     10      -8.0713      2.00000
     11      -7.0326      2.00000
     12      -6.3437      2.00000
     13      -6.0902      2.00000
     14      -5.5827      2.00000
     15      -5.2727      2.00000
     16      -2.9986      0.00000
     17      -0.6181      0.00000
     18       1.3117      0.00000
     19       1.5633      0.00000
     20       2.1273      0.00000
     21       2.4027      0.00000
     22       2.5263      0.00000
     23       3.4131      0.00000
     24       3.7852      0.00000

 k-point    94 :      -0.2793    0.6240    0.0000
  band No.  band energies     occupation 
      1     -20.1015      2.00000
      2     -17.6895      2.00000
      3     -17.0097      2.00000
      4     -14.3183      2.00000
      5     -13.1024      2.00000
      6     -11.2487      2.00000
      7     -10.0471      2.00000
      8      -9.6706      2.00000
      9      -8.5488      2.00000
     10      -8.1665      2.00000
     11      -6.8858      2.00000
     12      -6.3673      2.00000
     13      -6.0861      2.00000
     14      -5.4049      2.00000
     15      -5.1442      2.00000
     16      -3.1643      0.00000
     17      -0.3800      0.00000
     18       1.2263      0.00000
     19       1.2597      0.00000
     20       2.0337      0.00000
     21       2.3501      0.00000
     22       2.5671      0.00000
     23       3.3642      0.00000
     24       3.7323      0.00000

 k-point    95 :      -0.3061    0.6455    0.0000
  band No.  band energies     occupation 
      1     -20.1115      2.00000
      2     -17.7025      2.00000
      3     -16.9334      2.00000
      4     -14.4421      2.00000
      5     -12.9873      2.00000
      6     -11.3505      2.00000
      7      -9.9815      2.00000
      8      -9.7074      2.00000
      9      -8.5672      2.00000
     10      -8.2524      2.00000
     11      -6.7769      2.00000
     12      -6.3948      2.00000
     13      -6.1058      2.00000
     14      -5.2632      2.00000
     15      -5.0587      2.00000
     16      -3.3060      0.00006
     17      -0.1152      0.00000
     18       0.9045      0.00000
     19       1.2337      0.00000
     20       1.9955      0.00000
     21       2.3239      0.00000
     22       2.6044      0.00000
     23       3.3411      0.00000
     24       3.6980      0.00000

 k-point    96 :      -0.3330    0.6670    0.0000
  band No.  band energies     occupation 
      1     -20.1120      2.00000
      2     -17.7140      2.00000
      3     -16.9069      2.00000
      4     -14.4898      2.00000
      5     -12.9332      2.00000
      6     -11.3760      2.00000
      7      -9.9646      2.00000
      8      -9.7072      2.00000
      9      -8.5674      2.00000
     10      -8.2959      2.00000
     11      -6.7359      2.00000
     12      -6.4152      2.00000
     13      -6.1322      2.00000
     14      -5.2090      2.00000
     15      -5.0333      2.00000
     16      -3.3669      0.00032
     17       0.0420      0.00000
     18       0.7405      0.00000
     19       1.2337      0.00000
     20       1.9938      0.00000
     21       2.3240      0.00000
     22       2.6371      0.00000
     23       3.3430      0.00000
     24       3.6595      0.00000


--------------------------------------------------------------------------------------------------------


 soft charge-density along one line, spin component           1
         0         1         2         3         4         5         6         7         8         9
 total charge-density along one line
 
 pseudopotential strength for first ion, spin component:           1
  6.755  10.308  -0.000  -0.000   0.000  -0.000  -0.000   0.000
 10.308  15.727  -0.000  -0.000   0.000  -0.000  -0.000   0.000
 -0.000  -0.000  -2.326   0.000  -0.000  -3.995   0.000  -0.000
 -0.000  -0.000   0.000  -2.332  -0.000   0.000  -4.004  -0.000
  0.000   0.000  -0.000  -0.000  -2.326  -0.000  -0.000  -3.995
 -0.000  -0.000  -3.995   0.000  -0.000  -6.665   0.000  -0.000
 -0.000  -0.000   0.000  -4.004  -0.000   0.000  -6.676  -0.000
  0.000   0.000  -0.000  -0.000  -3.995  -0.000  -0.000  -6.665
 total augmentation occupancy for first ion, spin component:           1
  3.648  -0.936  -0.001   0.000   0.000   0.001   0.000   0.000
 -0.936   0.258   0.001   0.000   0.000  -0.000   0.000   0.000
 -0.001   0.001   4.030   0.000  -0.000  -1.071   0.000  -0.000
  0.000   0.000   0.000   0.762  -0.000   0.000  -0.195   0.000
  0.000   0.000  -0.000  -0.000   4.042  -0.000   0.000  -1.072
  0.001  -0.000  -1.071   0.000  -0.000   0.296   0.000   0.000
  0.000   0.000   0.000  -0.195   0.000   0.000   0.050   0.000
  0.000   0.000  -0.000   0.000  -1.072   0.000   0.000   0.296


------------------------ aborting loop because EDIFF is reached ----------------------------------------


 


 total charge     
 
# of ion       s       p       d       tot
------------------------------------------
    1        0.740   1.262   0.000   2.002
    2        0.740   1.262   0.000   2.002
    3        0.873   1.773   0.000   2.646
    4        0.873   1.752   0.000   2.625
    5        0.873   1.766   0.000   2.639
    6        0.873   1.766   0.000   2.639
    7        0.873   1.752   0.000   2.625
    8        0.873   1.773   0.000   2.646
--------------------------------------------------
tot          6.718  13.106   0.000  19.824
 
    CHARGE:  cpu time    1.2414: real time    1.2444
    FORLOC:  cpu time    0.0099: real time    0.0099
    FORNL :  cpu time    1.5733: real time    1.5746
    STRESS:  cpu time   10.7114: real time   10.7246
    FORCOR:  cpu time    0.1421: real time    0.1421
    FORHAR:  cpu time    0.0379: real time    0.0379
    OFIELD:  cpu time    0.0013: real time    0.0013

  FORCE on cell =-STRESS in cart. coord.  units (eV):
  Direction    XX          YY          ZZ          XY          YZ          ZX
  --------------------------------------------------------------------------------------
  Alpha Z    10.93934    10.93934    10.93934
  Ewald    4959.47262  4957.90658 -5853.63745     0.00000    -0.00000    -0.00000
  Hartree  4885.46708  4885.33205 -4821.63961    -0.00000    -0.00000    -0.00000
  E(xc)    -107.47630  -107.47584  -111.28594     0.00000    -0.00000     0.00000
  Local  -10158.02982-10156.19753 10343.43584     0.00003    -0.00000    -0.00000
  n-local   -23.53794   -23.51075   -12.21832    -0.08003     0.00000    -0.00000
  augment    -1.91823    -1.91590    -1.87261    -0.00004     0.00000     0.00000
  Kinetic   437.66044   437.56796   448.85288     1.29118    -0.00000     0.00000
  Fock        0.00000     0.00000     0.00000     0.00000     0.00000     0.00000
  -------------------------------------------------------------------------------------
  Total       2.57719     2.64591     2.57413     0.00000     0.00000     0.00000
  in kB       8.90484     9.14228     8.89427     0.00000     0.00000     0.00000
  external pressure =        8.98 kB  Pullay stress =        0.00 kB


 VOLUME and BASIS-vectors are now :
 -----------------------------------------------------------------------------
  energy-cutoff  :      450.00
  volume of cell :      463.69
      direct lattice vectors                 reciprocal lattice vectors
     5.174000000  0.000000000  0.000000000     0.193274063 -0.111582236  0.000000000
     2.587000000  4.481000000  0.000000000     0.000000000  0.223164472  0.000000000
     0.000000000  0.000000000 20.000000000     0.000000000  0.000000000  0.050000000

  length of vectors
     5.174000000  5.174159835 20.000000000     0.223171366  0.223164472  0.050000000


 FORCES acting on ions
    electron-ion (+dipol)            ewald-force                    non-local-force                 convergence-correction
 -----------------------------------------------------------------------------------------------
   0.128E-05 0.446E-01 0.155E-06   0.483E-11 0.329E-01 0.122E-19   -.108E-16 -.371E-01 0.000E+00   -.107E-03 -.412E-01 0.595E-14
   -.120E-05 -.446E-01 -.175E-06   -.541E-11 -.329E-01 0.139E-19   0.186E-16 0.371E-01 0.000E+00   0.115E-03 0.413E-01 0.136E-13
   -.506E+02 -.288E+02 0.637E-07   0.523E+02 0.298E+02 -.112E-19   -.344E+01 -.195E+01 0.000E+00   0.177E+01 0.915E+00 -.765E-12
   0.506E+02 -.288E+02 0.238E-06   -.523E+02 0.298E+02 0.127E-20   0.344E+01 -.195E+01 0.000E+00   -.177E+01 0.914E+00 -.111E-12
   -.595E-06 -.583E+02 -.334E-06   0.157E-10 0.603E+02 0.209E-19   0.000E+00 -.398E+01 0.000E+00   0.860E-04 0.197E+01 0.540E-12
   -.138E-05 0.583E+02 0.249E-06   0.107E-10 -.603E+02 -.156E-19   0.000E+00 0.398E+01 0.000E+00   -.360E-03 -.197E+01 0.731E-12
   -.506E+02 0.288E+02 -.325E-06   0.523E+02 -.298E+02 -.225E-19   -.344E+01 0.195E+01 0.000E+00   0.177E+01 -.914E+00 -.172E-12
   0.506E+02 0.288E+02 -.155E-06   -.523E+02 -.298E+02 0.101E-20   0.344E+01 0.195E+01 0.000E+00   -.177E+01 -.915E+00 -.842E-12
 -----------------------------------------------------------------------------------------------
   -.459E-05 -.154E-05 -.284E-06   -.711E-14 -.711E-14 0.000E+00   0.000E+00 -.444E-15 0.000E+00   -.213E-03 -.240E-03 -.599E-12
 
 
 POSITION                                       TOTAL-FORCE (eV/Angst)
 -----------------------------------------------------------------------------------
      1.35500      0.78214      0.00000         0.000000     -0.000773     -0.000000
      3.94200      2.27636      0.00000         0.000000      0.000773     -0.000000
     -0.00950     -0.00462     -0.00000        -0.001047      0.000274      0.000000
      2.71950     -0.00462     -0.00000         0.001047      0.000274     -0.000000
      3.94200      0.70012      0.00000        -0.000000      0.001822      0.000000
      6.52900      2.35838     -0.00000         0.000000     -0.001822     -0.000000
      2.57750      3.06312      0.00000        -0.001047     -0.000274     -0.000000
      5.30650      3.06312      0.00000         0.001047     -0.000274     -0.000000
 -----------------------------------------------------------------------------------
    total drift:                               -0.000217     -0.000242     -0.000000


--------------------------------------------------------------------------------------------------------



  FREE ENERGIE OF THE ION-ELECTRON SYSTEM (eV)
  ---------------------------------------------------
  free  energy   TOTEN  =       -66.27822607 eV

  energy  without entropy=      -66.27721940  energy(sigma->0) =      -66.27772274
 
 d Force =-0.3191938E-06[-0.655E-06, 0.170E-07]  d Energy =-0.2167153E-06-0.102E-06
 d Force =-0.8667310E-03[-0.866E-03,-0.868E-03]  d Ewald  =-0.8667310E-03-0.164E-10


--------------------------------------------------------------------------------------------------------


    POTLOK:  cpu time    0.1423: real time    0.1423


--------------------------------------------------------------------------------------------------------


