 running on   12 total cores
 distrk:  each k-point on   12 cores,    1 groups
 distr:  one band on    1 cores,   12 groups
 using from now: INCAR     
 vasp.5.4.4.18Apr17-6-g9f103f2a35 (build Mar 30 2023 15:39:25) complex          
  
 POSCAR found type information on POSCAR  B  C 
 POSCAR found :  2 types and       8 ions
 scaLAPACK will be used

 ----------------------------------------------------------------------------- 
|                                                                             |
|           W    W    AA    RRRRR   N    N  II  N    N   GGGG   !!!           |
|           W    W   A  A   R    R  NN   N  II  NN   N  G    G  !!!           |
|           W    W  A    A  R    R  N N  N  II  N N  N  G       !!!           |
|           W WW W  AAAAAA  RRRRR   N  N N  II  N  N N  G  GGG   !            |
|           WW  WW  A    A  R   R   N   NN  II  N   NN  G    G                |
|           W    W  A    A  R    R  N    N  II  N    N   GGGG   !!!           |
|                                                                             |
|      For optimal performance we recommend to set                            |
|        NCORE= 4 - approx SQRT( number of cores)                             |
|      NCORE specifies how many cores store one orbital (NPAR=cpu/NCORE).     |
|      This setting can  greatly improve the performance of VASP for DFT.     |
|      The default,   NCORE=1            might be grossly inefficient         |
|      on modern multi-core architectures or massively parallel machines.     |
|      Do your own testing !!!!                                               |
|      Unfortunately you need to use the default for GW and RPA calculations. |
|      (for HF NCORE is supported but not extensively tested yet)             |
|                                                                             |
 ----------------------------------------------------------------------------- 

 LDA part: xc-table for Pade appr. of Perdew
 WARNING: stress and forces are not correct
 POSCAR, INCAR and KPOINTS ok, starting setup
 FFT: planning ...
 WAVECAR not read
 charge-density read from file: BC3                                     
 entering main loop
       N       E                     dE             d eps       ncg     rms          rms(c)
DAV:   1     0.169579066209E+03    0.16958E+03   -0.89344E+03  4608   0.787E+02
DAV:   2    -0.362489774710E+02   -0.20583E+03   -0.18735E+03  8172   0.157E+02
DAV:   3    -0.655286024024E+02   -0.29280E+02   -0.28654E+02  5412   0.738E+01
DAV:   4    -0.662451954777E+02   -0.71659E+00   -0.71549E+00  5748   0.143E+01
DAV:   5    -0.662630523516E+02   -0.17857E-01   -0.17849E-01  5748   0.208E+00
DAV:   6    -0.662637767344E+02   -0.72438E-03   -0.72437E-03  6072   0.435E-01
DAV:   7    -0.662637995135E+02   -0.22779E-04   -0.22778E-04  6228   0.636E-02
DAV:   8    -0.662638004306E+02   -0.91702E-06   -0.91708E-06  7068   0.105E-02
   1 F= -.66263800E+02 E0= -.66262829E+02  d E =-.662638E+02
 curvature:   0.00 expect dE= 0.000E+00 dE for cont linesearch  0.000E+00
 trial: gam= 0.00000 g(F)=  0.599E-01 g(S)=  0.000E+00 ort = 0.000E+00 (trialstep = 0.100E+01)
 search vector abs. value=  0.599E-01
 bond charge predicted
       N       E                     dE             d eps       ncg     rms          rms(c)
DAV:   1    -0.662444269616E+02    0.19373E-01   -0.90915E+00  4608   0.181E+01
DAV:   2    -0.662597983823E+02   -0.15371E-01   -0.15371E-01  6384   0.242E+00
DAV:   3    -0.662600205112E+02   -0.22213E-03   -0.22213E-03  5736   0.270E-01
DAV:   4    -0.662600285750E+02   -0.80638E-05   -0.80637E-05  7452   0.432E-02
DAV:   5    -0.662600286902E+02   -0.11516E-06   -0.11520E-06  6276   0.402E-03
   2 F= -.66260029E+02 E0= -.66259688E+02  d E =0.377174E-02
 trial-energy change:    0.003772  1 .order    0.003485   -0.059873    0.066843
 step:   0.4691(harm=  0.4725)  dis= 0.01104  next Energy=   -66.277815 (dE=-0.140E-01)
 bond charge predicted
       N       E                     dE             d eps       ncg     rms          rms(c)
DAV:   1    -0.662737804224E+02   -0.13752E-01   -0.25998E+00  4608   0.972E+00
DAV:   2    -0.662779791799E+02   -0.41988E-02   -0.41988E-02  6576   0.124E+00
DAV:   3    -0.662780334311E+02   -0.54251E-04   -0.54251E-04  6372   0.127E-01
DAV:   4    -0.662780341307E+02   -0.69953E-06   -0.69970E-06  6948   0.112E-02
   3 F= -.66278034E+02 E0= -.66277475E+02  d E =-.142337E-01
 curvature:  -0.24 expect dE=-0.389E-03 dE for cont linesearch -0.516E-05
 ZBRENT: interpolating
 opt :   0.4780  next Energy=   -66.278039 (dE=-0.142E-01)
 bond charge predicted
       N       E                     dE             d eps       ncg     rms          rms(c)
DAV:   1    -0.662780316335E+02    0.17977E-05   -0.72835E-04  4716   0.162E-01
DAV:   2    -0.662780328269E+02   -0.11934E-05   -0.11935E-05  6540   0.209E-02
DAV:   3    -0.662780328425E+02   -0.15643E-07   -0.15699E-07  4272   0.221E-03
   4 F= -.66278033E+02 E0= -.66277479E+02  d E =-.142324E-01
 curvature:  -0.23 expect dE=-0.396E-03 dE for cont linesearch -0.203E-09
 trial: gam= 0.02841 g(F)=  0.169E-02 g(S)=  0.000E+00 ort =-0.722E-05 (trialstep = 0.896E+00)
 search vector abs. value=  0.174E-02
 bond charge predicted
       N       E                     dE             d eps       ncg     rms          rms(c)
DAV:   1    -0.662762816595E+02    0.17512E-02   -0.19252E-01  4608   0.275E+00
DAV:   2    -0.662765877588E+02   -0.30610E-03   -0.30610E-03  5568   0.320E-01
DAV:   3    -0.662765934893E+02   -0.57305E-05   -0.57302E-05  6948   0.430E-02
DAV:   4    -0.662765935359E+02   -0.46612E-07   -0.46748E-07  6972   0.318E-03
   5 F= -.66276594E+02 E0= -.66276073E+02  d E =0.143931E-02
 trial-energy change:    0.001439  1 .order    0.001425   -0.001517    0.004368
 step:   0.2284(harm=  0.2308)  dis= 0.00097  next Energy=   -66.278226 (dE=-0.193E-03)
 bond charge predicted
       N       E                     dE             d eps       ncg     rms          rms(c)
DAV:   1    -0.662780502412E+02   -0.14568E-02   -0.10703E-01  4620   0.205E+00
DAV:   2    -0.662782218782E+02   -0.17164E-03   -0.17164E-03  5616   0.240E-01
DAV:   3    -0.662782250251E+02   -0.31468E-05   -0.31469E-05  6864   0.318E-02
DAV:   4    -0.662782250507E+02   -0.25581E-07   -0.25803E-07  6204   0.240E-03
   6 F= -.66278225E+02 E0= -.66277722E+02  d E =-.192208E-03
 curvature:  -0.12 expect dE=-0.644E-06 dE for cont linesearch -0.853E-07
 ZBRENT: interpolating
 opt :   0.2332  next Energy=   -66.278225 (dE=-0.192E-03)
 bond charge predicted
       N       E                     dE             d eps       ncg     rms          rms(c)
DAV:   1    -0.662782249992E+02    0.25874E-07   -0.54991E-06  4812   0.147E-02
DAV:   2    -0.662782250073E+02   -0.81091E-08   -0.82522E-08  3312   0.175E-03
   7 F= -.66278225E+02 E0= -.66277723E+02  d E =-.192165E-03
 curvature:  -0.12 expect dE=-0.573E-06 dE for cont linesearch -0.159E-09
 ZBRENT: interpolating
 opt :   0.2330  next Energy=   -66.278225 (dE=-0.192E-03)
 bond charge predicted
       N       E                     dE             d eps       ncg     rms          rms(c)
DAV:   1    -0.662782250130E+02   -0.13732E-07   -0.15956E-08  2604   0.846E-04
DAV:   2    -0.662782250131E+02   -0.18190E-09   -0.19213E-09  2496   0.304E-04
   8 F= -.66278225E+02 E0= -.66277723E+02  d E =-.192171E-03
 curvature:  -0.11 expect dE=-0.555E-06 dE for cont linesearch -0.126E-09
 ZBRENT: interpolating
 opt :   0.2331  next Energy=   -66.278225 (dE=-0.192E-03)
 bond charge predicted
       N       E                     dE             d eps       ncg     rms          rms(c)
DAV:   1    -0.662782250113E+02    0.16792E-08   -0.22565E-09  2448   0.312E-04
DAV:   2    -0.662782250113E+02   -0.25466E-10   -0.28853E-10  2448   0.114E-04
   9 F= -.66278225E+02 E0= -.66277723E+02  d E =-.192169E-03
 curvature:  -0.06 expect dE=-0.290E-06 dE for cont linesearch -0.106E-11
 trial: gam= 0.00327 g(F)=  0.489E-05 g(S)=  0.000E+00 ort = 0.176E-06 (trialstep = 0.763E+00)
 search vector abs. value=  0.491E-05
 bond charge predicted
       N       E                     dE             d eps       ncg     rms          rms(c)
DAV:   1    -0.662782252533E+02   -0.24206E-06   -0.21431E-04  4680   0.842E-02
DAV:   2    -0.662782257724E+02   -0.51906E-06   -0.51871E-06  5724   0.137E-02
  10 F= -.66278226E+02 E0= -.66277722E+02  d E =-.761097E-06
 trial-energy change:   -0.000001  1 .order   -0.000001   -0.000004    0.000002
 step:   0.5424(harm=  0.5424)  dis= 0.00016  next Energy=   -66.278226 (dE=-0.133E-05)
 bond charge predicted
       N       E                     dE             d eps       ncg     rms          rms(c)
DAV:   1    -0.662782260420E+02   -0.78862E-06   -0.17359E-05  4680   0.241E-02
DAV:   2    -0.662782260837E+02   -0.41755E-07   -0.42124E-07  5340   0.390E-03
  11 F= -.66278226E+02 E0= -.66277723E+02  d E =-.107241E-05
 curvature:  -0.27 expect dE=-0.102E-06 dE for cont linesearch -0.557E-08
 ZBRENT: interpolating
 opt :   0.5727  next Energy=   -66.278226 (dE=-0.108E-05)
 bond charge predicted
       N       E                     dE             d eps       ncg     rms          rms(c)
DAV:   1    -0.662782260675E+02   -0.25503E-07   -0.31661E-07  4716   0.327E-03
DAV:   2    -0.662782260681E+02   -0.68985E-09   -0.69405E-09  2412   0.525E-04
  12 F= -.66278226E+02 E0= -.66277723E+02  d E =-.105685E-05
 curvature:  -0.23 expect dE=-0.990E-07 dE for cont linesearch -0.225E-09
 trial: gam= 0.10012 g(F)=  0.421E-06 g(S)=  0.000E+00 ort =-0.686E-07 (trialstep = 0.725E+00)
 search vector abs. value=  0.457E-06
 bond charge predicted
       N       E                     dE             d eps       ncg     rms          rms(c)
DAV:   1    -0.662782262380E+02   -0.17058E-06   -0.17422E-05  4680   0.271E-02
DAV:   2    -0.662782262558E+02   -0.17749E-07   -0.17081E-07  3612   0.219E-03
  13 F= -.66278226E+02 E0= -.66277723E+02  d E =-.187636E-06
 trial-energy change:   -0.000000  1 .order   -0.000000   -0.000000   -0.000000
 step:   1.0721(harm=  1.0721)  dis= 0.00007  next Energy=   -66.278226 (dE=-0.222E-06)
 bond charge predicted
       N       E                     dE             d eps       ncg     rms          rms(c)
DAV:   1    -0.662782262807E+02   -0.42641E-07   -0.41589E-06  4680   0.131E-02
DAV:   2    -0.662782262852E+02   -0.45013E-08   -0.42778E-08  2760   0.113E-03
  14 F= -.66278226E+02 E0= -.66277723E+02  d E =-.217030E-06
 curvature:  -0.59 expect dE=-0.450E-08 dE for cont linesearch -0.266E-08
 ZBRENT: increasing intervall
 opt :   1.7661  next Energy=   -66.278226 (dE=-0.187E-06)
 bond charge predicted
       N       E                     dE             d eps       ncg     rms          rms(c)
DAV:   1    -0.662782262070E+02    0.73683E-07   -0.16120E-05  4680   0.260E-02
DAV:   2    -0.662782262228E+02   -0.15770E-07   -0.16102E-07  3528   0.216E-03
  15 F= -.66278226E+02 E0= -.66277723E+02  d E =-.154615E-06
 curvature:   6.69 expect dE= 0.618E-06 dE for cont linesearch  0.588E-06
 ZBRENT: bracketing found
 ZBRENT: interpolating
 opt :   1.2003  next Energy=   -66.278226 (dE=-0.220E-06)
 bond charge predicted
       N       E                     dE             d eps       ncg     rms          rms(c)
DAV:   1    -0.662782262760E+02   -0.68980E-07   -0.10389E-05  4680   0.210E-02
DAV:   2    -0.662782262854E+02   -0.94508E-08   -0.95711E-08  3240   0.169E-03
  16 F= -.66278226E+02 E0= -.66277723E+02  d E =-.217276E-06
 curvature:  -0.03 expect dE=-0.474E-09 dE for cont linesearch -0.313E-09
 ZBRENT: bisectioning
 opt :   1.4832  next Energy=   -66.278226 (dE=-0.242E-06)
 bond charge predicted
       N       E                     dE             d eps       ncg     rms          rms(c)
DAV:   1    -0.662782262659E+02    0.10076E-07   -0.25571E-06  4680   0.105E-02
DAV:   2    -0.662782262680E+02   -0.20923E-08   -0.20196E-08  2412   0.835E-04
  17 F= -.66278226E+02 E0= -.66277723E+02  d E =-.199841E-06
 curvature:  -2.64 expect dE=-0.449E-07 dE for cont linesearch -0.438E-07
 ZBRENT: interpolating
 opt :   1.3219  next Energy=   -66.278226 (dE=-0.221E-06)
 bond charge predicted
       N       E                     dE             d eps       ncg     rms          rms(c)
DAV:   1    -0.662782262818E+02   -0.15905E-07   -0.83448E-07  4680   0.602E-03
DAV:   2    -0.662782262825E+02   -0.66143E-09   -0.62305E-09  2412   0.458E-04
  18 F= -.66278226E+02 E0= -.66277723E+02  d E =-.214315E-06
 curvature:  -0.24 expect dE=-0.284E-09 dE for cont linesearch -0.116E-11
 ZBRENT: interpolating
 opt :   1.3246  next Energy=   -66.278226 (dE=-0.214E-06)
 bond charge predicted
       N       E                     dE             d eps       ncg     rms          rms(c)
DAV:   1    -0.662782262823E+02   -0.45202E-09   -0.14154E-09  2412   0.204E-04
DAV:   2    -0.662782262823E+02   -0.73442E-10   -0.39233E-10  2412   0.933E-05
  19 F= -.66278226E+02 E0= -.66277723E+02  d E =-.214179E-06
 curvature:  -0.43 expect dE=-0.489E-09 dE for cont linesearch -0.825E-10
 ZBRENT: interpolating
 opt :   1.3222  next Energy=   -66.278226 (dE=-0.214E-06)
 bond charge predicted
       N       E                     dE             d eps       ncg     rms          rms(c)
DAV:   1    -0.662782262823E+02   -0.15916E-11   -0.37201E-10  2412   0.106E-04
DAV:   2    -0.662782262823E+02   -0.90949E-11   -0.69538E-11  2412   0.435E-05
  20 F= -.66278226E+02 E0= -.66277723E+02  d E =-.214116E-06
 curvature:  -0.00 expect dE=-0.180E-11 dE for cont linesearch -0.306E-12
 ZBRENT: interpolating
 opt :   1.3219  next Energy=   -66.278226 (dE=-0.214E-06)
 bond charge predicted
       N       E                     dE             d eps       ncg     rms          rms(c)
DAV:   1    -0.662782262824E+02   -0.13711E-09   -0.14629E-11  2412   0.312E-05
DAV:   2    -0.662782262823E+02    0.44565E-10    0.19066E-11  2412   0.169E-05
  21 F= -.66278226E+02 E0= -.66277723E+02  d E =-.214200E-06
 curvature:  -0.00 expect dE=-0.231E-12 dE for cont linesearch -0.532E-13
 ZBRENT: interpolating
 opt :   1.3219  next Energy=   -66.278226 (dE=-0.214E-06)
 bond charge predicted
       N       E                     dE             d eps       ncg     rms          rms(c)
DAV:   1    -0.662782262827E+02   -0.28149E-09    0.32281E-11  2412   0.104E-05
DAV:   2    -0.662782262827E+02   -0.10914E-10    0.42191E-11  2412   0.652E-06
  22 F= -.66278226E+02 E0= -.66277723E+02  d E =-.214537E-06
 curvature:  -0.00 expect dE=-0.191E-13 dE for cont linesearch -0.493E-14
 ZBRENT: interpolating
 opt :   1.3219  next Energy=   -66.278226 (dE=-0.214E-06)
 bond charge predicted
       N       E                     dE             d eps       ncg     rms          rms(c)
DAV:   1    -0.662782262826E+02    0.34333E-10    0.42037E-11  2412   0.383E-06
DAV:   2    -0.662782262826E+02    0.33651E-10    0.42493E-11  2412   0.257E-06
  23 F= -.66278226E+02 E0= -.66277723E+02  d E =-.214458E-06
 curvature:  -0.00 expect dE=-0.181E-14 dE for cont linesearch -0.485E-15
 ZBRENT: interpolating
 opt :   1.3219  next Energy=   -66.278226 (dE=-0.214E-06)
 bond charge predicted
       N       E                     dE             d eps       ncg     rms          rms(c)
DAV:   1    -0.662782262826E+02    0.12733E-10    0.43670E-11  2412   0.153E-06
DAV:   2    -0.662782262827E+02   -0.26603E-10    0.44269E-11  2388   0.106E-06
  24 F= -.66278226E+02 E0= -.66277723E+02  d E =-.214505E-06
 curvature:  -0.00 expect dE=-0.181E-15 dE for cont linesearch -0.493E-16
 ZBRENT: interpolating
 opt :   1.3219  next Energy=   -66.278226 (dE=-0.214E-06)
 bond charge predicted
       N       E                     dE             d eps       ncg     rms          rms(c)
DAV:   1    -0.662782262826E+02    0.19099E-10    0.44123E-11  2412   0.643E-07
DAV:   2    -0.662782262826E+02   -0.84128E-11    0.48877E-11  2376   0.454E-07
  25 F= -.66278226E+02 E0= -.66277723E+02  d E =-.214468E-06
 curvature:  -0.00 expect dE=-0.184E-16 dE for cont linesearch -0.505E-17
 ZBRENT:  accuracy reached
 opt :   0.0000  next Energy=     0.000000 (dE= 0.663E+02)
 bond charge predicted
       N       E                     dE             d eps       ncg     rms          rms(c)
DAV:   1    -0.662782260066E+02    0.27596E-06   -0.57905E-05  4656   0.494E-02
DAV:   2    -0.662782260659E+02   -0.59257E-07   -0.59500E-07  4752   0.398E-03
  26 F= -.66278226E+02 E0= -.66277723E+02  d E =0.224736E-08
 curvature:   0.00 expect dE= 0.190-312 dE for cont linesearch  0.169-312
 ZBRENT: fatal error in bracketing
     please rerun with smaller EDIFF, or copy CONTCAR
     to POSCAR and continue
