BC3 bandstructure                       
           1
     5.174000    0.000000    0.000000
     2.587000    4.481000    0.000000
     0.000000    0.000000   20.000000
   B    C 
   2   6
Direct configuration=     1
   0.17457326  0.17462620  0.00000000
   0.50792519  0.50792234  0.00000000
   0.00000000  0.00000000  0.00000000
   0.52377271  0.00000000  0.00000000
   0.68255138  0.15866994  0.00000000
   0.99994706  0.52387860  0.00000000
   0.15872573  0.68254854  0.00000000
   0.68249844  0.68254854  0.00000000
Direct configuration=     2
   0.17469976  0.17437318  0.00000000
   0.50779868  0.50817535  0.00000000
  -0.00297416 -0.00167122  0.00000000
   0.52841809 -0.00167122  0.00000000
   0.68517690  0.15341892  0.00000000
   0.99732155  0.52912962 -0.00000000
   0.15408035  0.68421976  0.00000000
   0.68547260  0.68421976  0.00000000
Direct configuration=     3
   0.17463260  0.17450751  0.00000000
   0.50786584  0.50804103  0.00000000
  -0.00139523 -0.00078400  0.00000000
   0.52595194 -0.00078400  0.00000000
   0.68378306  0.15620659  0.00000000
   0.99871538  0.52634195 -0.00000000
   0.15654650  0.68333254  0.00000000
   0.68389367  0.68333254  0.00000000
Direct configuration=     4
   0.17463373  0.17450525  0.00000000
   0.50786471  0.50804329  0.00000000
  -0.00142179 -0.00079893  0.00000000
   0.52599343 -0.00079893  0.00000000
   0.68380651  0.15615969  0.00000000
   0.99869193  0.52638885 -0.00000000
   0.15650501  0.68334746  0.00000000
   0.68392023  0.68334746  0.00000000
Direct configuration=     5
   0.17448122  0.17481027  0.00000000
   0.50801722  0.50773826  0.00000000
  -0.00108070 -0.00164987 -0.00000000
   0.52650328 -0.00164987  0.00000000
   0.68363491  0.15650289  0.00000000
   0.99886353  0.52604565 -0.00000000
   0.15599516  0.68419840  0.00000000
   0.68357914  0.68419840  0.00000000
Direct configuration=     6
   0.17459483  0.17458305  0.00000000
   0.50790361  0.50796549  0.00000000
  -0.00133479 -0.00101597 -0.00000000
   0.52612347 -0.00101597  0.00000000
   0.68376274  0.15624723  0.00000000
   0.99873570  0.52630131 -0.00000000
   0.15637497  0.68356451  0.00000000
   0.68383324  0.68356451  0.00000000
Direct configuration=     7
   0.17459401  0.17458468  0.00000000
   0.50790443  0.50796386  0.00000000
  -0.00133296 -0.00102053 -0.00000000
   0.52612621 -0.00102053  0.00000000
   0.68376182  0.15624907  0.00000000
   0.99873662  0.52629947 -0.00000000
   0.15637223  0.68356907  0.00000000
   0.68383140  0.68356907  0.00000000
Direct configuration=     8
   0.17459405  0.17458461  0.00000000
   0.50790439  0.50796392  0.00000000
  -0.00133304 -0.00102034 -0.00000000
   0.52612609 -0.00102034  0.00000000
   0.68376186  0.15624899  0.00000000
   0.99873658  0.52629955 -0.00000000
   0.15637235  0.68356888  0.00000000
   0.68383148  0.68356888  0.00000000
Direct configuration=     9
   0.17459403  0.17458465  0.00000000
   0.50790441  0.50796389  0.00000000
  -0.00133300 -0.00102043 -0.00000000
   0.52612615 -0.00102043  0.00000000
   0.68376184  0.15624903  0.00000000
   0.99873660  0.52629951 -0.00000000
   0.15637229  0.68356897  0.00000000
   0.68383144  0.68356897  0.00000000
Direct configuration=    10
   0.17461992  0.17453286  0.00000000
   0.50787852  0.50801567  0.00000000
  -0.00131700 -0.00103568 -0.00000000
   0.52612539 -0.00103568 -0.00000000
   0.68376686  0.15623899  0.00000000
   0.99873158  0.52630955 -0.00000000
   0.15637305  0.68358422  0.00000000
   0.68381544  0.68358422  0.00000000
Direct configuration=    11
   0.17461243  0.17454784  0.00000000
   0.50788601  0.50800069  0.00000000
  -0.00132163 -0.00103127 -0.00000000
   0.52612561 -0.00103127 -0.00000000
   0.68376541  0.15624190  0.00000000
   0.99873303  0.52630664 -0.00000000
   0.15637283  0.68357981  0.00000000
   0.68382007  0.68357981  0.00000000
Direct configuration=    12
   0.17461346  0.17454579  0.00000000
   0.50788498  0.50800275  0.00000000
  -0.00132100 -0.00103187 -0.00000000
   0.52612558 -0.00103187 -0.00000000
   0.68376561  0.15624150  0.00000000
   0.99873283  0.52630704 -0.00000000
   0.15637286  0.68358041  0.00000000
   0.68381944  0.68358041  0.00000000
Direct configuration=    13
   0.17461856  0.17453560 -0.00000000
   0.50787988  0.50801294  0.00000000
  -0.00132661 -0.00103108 -0.00000000
   0.52613040 -0.00103108 -0.00000000
   0.68376034  0.15625203  0.00000000
   0.99873810  0.52629651 -0.00000000
   0.15636804  0.68357962  0.00000000
   0.68382505  0.68357962  0.00000000
Direct configuration=    14
   0.17462099  0.17453072 -0.00000000
   0.50787745  0.50801782  0.00000000
  -0.00132929 -0.00103070  0.00000000
   0.52613270 -0.00103070 -0.00000000
   0.68375782  0.15625708  0.00000000
   0.99874062  0.52629146 -0.00000000
   0.15636574  0.68357924  0.00000000
   0.68382773  0.68357924 -0.00000000
Direct configuration=    15
   0.17462587  0.17452097 -0.00000000
   0.50787257  0.50802757  0.00000000
  -0.00133467 -0.00102994  0.00000000
   0.52613732 -0.00102994 -0.00000000
   0.68375277  0.15626716  0.00000000
   0.99874567  0.52628138 -0.00000000
   0.15636112  0.68357848  0.00000000
   0.68383311  0.68357848 -0.00000000
Direct configuration=    16
   0.17462189  0.17452892 -0.00000000
   0.50787655  0.50801962  0.00000000
  -0.00133029 -0.00103056  0.00000000
   0.52613356 -0.00103056 -0.00000000
   0.68375689  0.15625894  0.00000000
   0.99874155  0.52628960 -0.00000000
   0.15636488  0.68357910  0.00000000
   0.68382873  0.68357910 -0.00000000
Direct configuration=    17
   0.17462388  0.17452494 -0.00000000
   0.50787456  0.50802359  0.00000000
  -0.00133248 -0.00103025  0.00000000
   0.52613544 -0.00103025 -0.00000000
   0.68375483  0.15626305  0.00000000
   0.99874361  0.52628549 -0.00000000
   0.15636300  0.68357879  0.00000000
   0.68383092  0.68357879 -0.00000000
Direct configuration=    18
   0.17462275  0.17452721 -0.00000000
   0.50787569  0.50802133  0.00000000
  -0.00133123 -0.00103043  0.00000000
   0.52613436 -0.00103043 -0.00000000
   0.68375600  0.15626071  0.00000000
   0.99874244  0.52628783 -0.00000000
   0.15636408  0.68357897  0.00000000
   0.68382967  0.68357897 -0.00000000
Direct configuration=    19
   0.17462277  0.17452717 -0.00000000
   0.50787567  0.50802137  0.00000000
  -0.00133125 -0.00103042  0.00000000
   0.52613438 -0.00103042 -0.00000000
   0.68375598  0.15626075  0.00000000
   0.99874246  0.52628779 -0.00000000
   0.15636406  0.68357896  0.00000000
   0.68382969  0.68357896 -0.00000000
Direct configuration=    20
   0.17462275  0.17452721 -0.00000000
   0.50787569  0.50802133  0.00000000
  -0.00133123 -0.00103043  0.00000000
   0.52613437 -0.00103043 -0.00000000
   0.68375600  0.15626071  0.00000000
   0.99874244  0.52628783 -0.00000000
   0.15636407  0.68357897  0.00000000
   0.68382967  0.68357897 -0.00000000
Direct configuration=    21
   0.17462275  0.17452721 -0.00000000
   0.50787569  0.50802133  0.00000000
  -0.00133123 -0.00103043  0.00000000
   0.52613437 -0.00103043 -0.00000000
   0.68375600  0.15626071  0.00000000
   0.99874244  0.52628783 -0.00000000
   0.15636408  0.68357897  0.00000000
   0.68382967  0.68357897 -0.00000000
Direct configuration=    22
   0.17462275  0.17452721 -0.00000000
   0.50787569  0.50802133  0.00000000
  -0.00133123 -0.00103043  0.00000000
   0.52613436 -0.00103043 -0.00000000
   0.68375600  0.15626071  0.00000000
   0.99874244  0.52628783 -0.00000000
   0.15636408  0.68357897  0.00000000
   0.68382967  0.68357897 -0.00000000
Direct configuration=    23
   0.17462275  0.17452721 -0.00000000
   0.50787569  0.50802133  0.00000000
  -0.00133123 -0.00103043  0.00000000
   0.52613436 -0.00103043 -0.00000000
   0.68375600  0.15626071  0.00000000
   0.99874244  0.52628783 -0.00000000
   0.15636408  0.68357897  0.00000000
   0.68382967  0.68357897 -0.00000000
Direct configuration=    24
   0.17462275  0.17452721 -0.00000000
   0.50787569  0.50802133  0.00000000
  -0.00133123 -0.00103043  0.00000000
   0.52613436 -0.00103043 -0.00000000
   0.68375600  0.15626071  0.00000000
   0.99874244  0.52628783 -0.00000000
   0.15636408  0.68357897  0.00000000
   0.68382967  0.68357897 -0.00000000
Direct configuration=    25
   0.17462275  0.17452721 -0.00000000
   0.50787569  0.50802133  0.00000000
  -0.00133123 -0.00103043  0.00000000
   0.52613436 -0.00103043 -0.00000000
   0.68375600  0.15626071  0.00000000
   0.99874244  0.52628783 -0.00000000
   0.15636408  0.68357897  0.00000000
   0.68382967  0.68357897 -0.00000000
