   8   8   0   0
  0.2469169E+02  0.5174038E-09  0.5174038E-09  0.8520222E-09  0.5000000E-15
  1.000000000000000E-004
  CAR 
 BC3-optical                             
     25.85583408    -20.65443288 2400     -2.40971921      1.00000000
    -20.654  0.0000E+00  0.0000E+00
    -20.635  0.0000E+00  0.0000E+00
    -20.616  0.0000E+00  0.0000E+00
    -20.596  0.0000E+00  0.0000E+00
    -20.577  0.0000E+00  0.0000E+00
    -20.557  0.0000E+00  0.0000E+00
    -20.538  0.0000E+00  0.0000E+00
    -20.519  0.0000E+00  0.0000E+00
    -20.499  0.0000E+00  0.0000E+00
    -20.480  0.0000E+00  0.0000E+00
    -20.461  0.0000E+00  0.0000E+00
    -20.441  0.0000E+00  0.0000E+00
    -20.422  0.0000E+00  0.0000E+00
    -20.402  0.0000E+00  0.0000E+00
    -20.383  0.0000E+00  0.0000E+00
    -20.364  0.0000E+00  0.0000E+00
    -20.344  0.0000E+00  0.0000E+00
    -20.325  0.0000E+00  0.0000E+00
    -20.305  0.0000E+00  0.0000E+00
    -20.286  0.0000E+00  0.0000E+00
    -20.267  0.0000E+00  0.0000E+00
    -20.247  0.0000E+00  0.0000E+00
    -20.228  0.0000E+00  0.0000E+00
    -20.209  0.0000E+00  0.0000E+00
    -20.189  0.0000E+00  0.0000E+00
    -20.170  0.0000E+00  0.0000E+00
    -20.150  0.0000E+00  0.0000E+00
    -20.131  0.0000E+00  0.0000E+00
    -20.112  0.0000E+00  0.0000E+00
    -20.092  0.0000E+00  0.0000E+00
    -20.073  0.0000E+00  0.0000E+00
    -20.053  0.0000E+00  0.0000E+00
    -20.034  0.0000E+00  0.0000E+00
    -20.015  0.0000E+00  0.0000E+00
    -19.995  0.0000E+00  0.0000E+00
    -19.976  0.0000E+00  0.0000E+00
    -19.956  0.0000E+00  0.0000E+00
    -19.937  0.0000E+00  0.0000E+00
    -19.918  0.0000E+00  0.0000E+00
    -19.898  0.0000E+00  0.0000E+00
    -19.879  0.0000E+00  0.0000E+00
    -19.860  0.0000E+00  0.0000E+00
    -19.840  0.0000E+00  0.0000E+00
    -19.821  0.0000E+00  0.0000E+00
    -19.801  0.0000E+00  0.0000E+00
    -19.782  0.0000E+00  0.0000E+00
    -19.763  0.0000E+00  0.0000E+00
    -19.743  0.0000E+00  0.0000E+00
    -19.724  0.0000E+00  0.0000E+00
    -19.704  0.0000E+00  0.0000E+00
    -19.685  0.0000E+00  0.0000E+00
    -19.666  0.0000E+00  0.0000E+00
    -19.646  0.0000E+00  0.0000E+00
    -19.627  0.0000E+00  0.0000E+00
    -19.608  0.0000E+00  0.0000E+00
    -19.588  0.0000E+00  0.0000E+00
    -19.569  0.0000E+00  0.0000E+00
    -19.549  0.0000E+00  0.0000E+00
    -19.530  0.0000E+00  0.0000E+00
    -19.511  0.0000E+00  0.0000E+00
    -19.491  0.0000E+00  0.0000E+00
    -19.472  0.0000E+00  0.0000E+00
    -19.452  0.0000E+00  0.0000E+00
    -19.433  0.0000E+00  0.0000E+00
    -19.414  0.0000E+00  0.0000E+00
    -19.394  0.0000E+00  0.0000E+00
    -19.375  0.0000E+00  0.0000E+00
    -19.355  0.0000E+00  0.0000E+00
    -19.336  0.0000E+00  0.0000E+00
    -19.317  0.0000E+00  0.0000E+00
    -19.297  0.0000E+00  0.0000E+00
    -19.278  0.0000E+00  0.0000E+00
    -19.259  0.0000E+00  0.0000E+00
    -19.239  0.0000E+00  0.0000E+00
    -19.220  0.0000E+00  0.0000E+00
    -19.200  0.0000E+00  0.0000E+00
    -19.181  0.0000E+00  0.0000E+00
    -19.162  0.0000E+00  0.0000E+00
    -19.142  0.0000E+00  0.0000E+00
    -19.123  0.0000E+00  0.0000E+00
    -19.103  0.0000E+00  0.0000E+00
    -19.084  0.0000E+00  0.0000E+00
    -19.065  0.0000E+00  0.0000E+00
    -19.045  0.0000E+00  0.0000E+00
    -19.026  0.0000E+00  0.0000E+00
    -19.007  0.0000E+00  0.0000E+00
    -18.987  0.0000E+00  0.0000E+00
    -18.968  0.0000E+00  0.0000E+00
    -18.948  0.0000E+00  0.0000E+00
    -18.929  0.0000E+00  0.0000E+00
    -18.910  0.0000E+00  0.0000E+00
    -18.890  0.0000E+00  0.0000E+00
    -18.871  0.0000E+00  0.0000E+00
    -18.851  0.0000E+00  0.0000E+00
    -18.832  0.0000E+00  0.0000E+00
    -18.813  0.0000E+00  0.0000E+00
    -18.793  0.0000E+00  0.0000E+00
    -18.774  0.0000E+00  0.0000E+00
    -18.754  0.0000E+00  0.0000E+00
    -18.735  0.0000E+00  0.0000E+00
    -18.716  0.0000E+00  0.0000E+00
    -18.696  0.0000E+00  0.0000E+00
    -18.677  0.0000E+00  0.0000E+00
    -18.658  0.0000E+00  0.0000E+00
    -18.638  0.0000E+00  0.0000E+00
    -18.619  0.0000E+00  0.0000E+00
    -18.599  0.3977E-16  0.7710E-18
    -18.580  0.7323E-08  0.1420E-09
    -18.561  0.1487E-02  0.2883E-04
    -18.541  0.3213E+00  0.6259E-02
    -18.522  0.8711E+00  0.2315E-01
    -18.502  0.3547E+01  0.9192E-01
    -18.483  0.2760E+00  0.9727E-01
    -18.464  0.1317E+01  0.1228E+00
    -18.444  0.3251E+01  0.1858E+00
    -18.425  0.3617E+01  0.2560E+00
    -18.405  0.4091E+00  0.2639E+00
    -18.386  0.5692E-03  0.2639E+00
    -18.367  0.1106E+01  0.2853E+00
    -18.347  0.7028E+01  0.4216E+00
    -18.328  0.4992E+00  0.4313E+00
    -18.309  0.2716E+01  0.4839E+00
    -18.289  0.1542E+01  0.5138E+00
    -18.270  0.4360E-02  0.5139E+00
    -18.250  0.5417E+00  0.5244E+00
    -18.231  0.4297E+01  0.6077E+00
    -18.212  0.7367E+01  0.7505E+00
    -18.192  0.6888E+00  0.7639E+00
    -18.173  0.3111E+00  0.7699E+00
    -18.153  0.3559E+01  0.8389E+00
    -18.134  0.4285E+00  0.8472E+00
    -18.115  0.5147E+00  0.8572E+00
    -18.095  0.7092E+01  0.9947E+00
    -18.076  0.5151E+01  0.1095E+01
    -18.057  0.4406E+01  0.1180E+01
    -18.037  0.3724E+00  0.1187E+01
    -18.018  0.3565E+01  0.1256E+01
    -17.998  0.5167E+00  0.1266E+01
    -17.979  0.9636E+01  0.1453E+01
    -17.960  0.1336E+02  0.1712E+01
    -17.940  0.6848E+00  0.1725E+01
    -17.921  0.3487E+01  0.1793E+01
    -17.901  0.5957E+01  0.1909E+01
    -17.882  0.3457E+01  0.1976E+01
    -17.863  0.1182E+01  0.1998E+01
    -17.843  0.7815E-01  0.2000E+01
    -17.824  0.1002E-04  0.2000E+01
    -17.804  0.9901E-12  0.2000E+01
    -17.785  0.0000E+00  0.2000E+01
    -17.766  0.0000E+00  0.2000E+01
    -17.746  0.0000E+00  0.2000E+01
    -17.727  0.0000E+00  0.2000E+01
    -17.708  0.0000E+00  0.2000E+01
    -17.688  0.0000E+00  0.2000E+01
    -17.669  0.0000E+00  0.2000E+01
    -17.649  0.0000E+00  0.2000E+01
    -17.630  0.0000E+00  0.2000E+01
    -17.611  0.0000E+00  0.2000E+01
    -17.591  0.0000E+00  0.2000E+01
    -17.572  0.0000E+00  0.2000E+01
    -17.552  0.0000E+00  0.2000E+01
    -17.533  0.0000E+00  0.2000E+01
    -17.514  0.0000E+00  0.2000E+01
    -17.494  0.0000E+00  0.2000E+01
    -17.475  0.0000E+00  0.2000E+01
    -17.456  0.0000E+00  0.2000E+01
    -17.436  0.0000E+00  0.2000E+01
    -17.417  0.0000E+00  0.2000E+01
    -17.397  0.0000E+00  0.2000E+01
    -17.378  0.0000E+00  0.2000E+01
    -17.359  0.0000E+00  0.2000E+01
    -17.339  0.0000E+00  0.2000E+01
    -17.320  0.0000E+00  0.2000E+01
    -17.300  0.0000E+00  0.2000E+01
    -17.281  0.0000E+00  0.2000E+01
    -17.262  0.0000E+00  0.2000E+01
    -17.242  0.0000E+00  0.2000E+01
    -17.223  0.0000E+00  0.2000E+01
    -17.203  0.0000E+00  0.2000E+01
    -17.184  0.0000E+00  0.2000E+01
    -17.165  0.0000E+00  0.2000E+01
    -17.145  0.0000E+00  0.2000E+01
    -17.126  0.0000E+00  0.2000E+01
    -17.107  0.0000E+00  0.2000E+01
    -17.087  0.0000E+00  0.2000E+01
    -17.068  0.0000E+00  0.2000E+01
    -17.048  0.0000E+00  0.2000E+01
    -17.029  0.0000E+00  0.2000E+01
    -17.010  0.0000E+00  0.2000E+01
    -16.990  0.0000E+00  0.2000E+01
    -16.971  0.0000E+00  0.2000E+01
    -16.951  0.0000E+00  0.2000E+01
    -16.932  0.0000E+00  0.2000E+01
    -16.913  0.0000E+00  0.2000E+01
    -16.893  0.0000E+00  0.2000E+01
    -16.874  0.0000E+00  0.2000E+01
    -16.855  0.0000E+00  0.2000E+01
    -16.835  0.0000E+00  0.2000E+01
    -16.816  0.0000E+00  0.2000E+01
    -16.796  0.0000E+00  0.2000E+01
    -16.777  0.0000E+00  0.2000E+01
    -16.758  0.0000E+00  0.2000E+01
    -16.738  0.0000E+00  0.2000E+01
    -16.719  0.0000E+00  0.2000E+01
    -16.699  0.0000E+00  0.2000E+01
    -16.680  0.0000E+00  0.2000E+01
    -16.661  0.0000E+00  0.2000E+01
    -16.641  0.0000E+00  0.2000E+01
    -16.622  0.0000E+00  0.2000E+01
    -16.602  0.0000E+00  0.2000E+01
    -16.583  0.0000E+00  0.2000E+01
    -16.564  0.0000E+00  0.2000E+01
    -16.544  0.0000E+00  0.2000E+01
    -16.525  0.0000E+00  0.2000E+01
    -16.506  0.0000E+00  0.2000E+01
    -16.486  0.0000E+00  0.2000E+01
    -16.467  0.0000E+00  0.2000E+01
    -16.447  0.0000E+00  0.2000E+01
    -16.428  0.0000E+00  0.2000E+01
    -16.409  0.0000E+00  0.2000E+01
    -16.389  0.0000E+00  0.2000E+01
    -16.370  0.0000E+00  0.2000E+01
    -16.350  0.0000E+00  0.2000E+01
    -16.331  0.1193E-15  0.2000E+01
    -16.312  0.2575E-07  0.2000E+01
    -16.292  0.4866E-02  0.2000E+01
    -16.273  0.9866E+00  0.2019E+01
    -16.254  0.1149E+01  0.2041E+01
    -16.234  0.6084E+00  0.2053E+01
    -16.215  0.7111E+01  0.2191E+01
    -16.195  0.1459E+01  0.2219E+01
    -16.176  0.3644E+01  0.2290E+01
    -16.157  0.3583E+01  0.2360E+01
    -16.137  0.7961E+00  0.2375E+01
    -16.118  0.1923E-01  0.2375E+01
    -16.098  0.3902E+01  0.2451E+01
    -16.079  0.6483E+01  0.2577E+01
    -16.060  0.6570E+01  0.2704E+01
    -16.040  0.3644E+00  0.2711E+01
    -16.021  0.6152E+01  0.2830E+01
    -16.001  0.4079E+01  0.2909E+01
    -15.982  0.2495E+01  0.2958E+01
    -15.963  0.2919E-01  0.2958E+01
    -15.943  0.1181E+01  0.2981E+01
    -15.924  0.1664E+01  0.3014E+01
    -15.905  0.1763E-01  0.3014E+01
    -15.885  0.1202E+01  0.3037E+01
    -15.866  0.9882E+01  0.3229E+01
    -15.846  0.1808E+01  0.3264E+01
    -15.827  0.1432E-02  0.3264E+01
    -15.808  0.1049E-08  0.3264E+01
    -15.788  0.0000E+00  0.3264E+01
    -15.769  0.3913E-13  0.3264E+01
    -15.749  0.2338E-05  0.3264E+01
    -15.730  0.1003E+00  0.3266E+01
    -15.711  0.6395E+01  0.3390E+01
    -15.691  0.9848E+01  0.3581E+01
    -15.672  0.8492E+00  0.3597E+01
    -15.652  0.2358E-03  0.3597E+01
    -15.633  0.1154E-06  0.3597E+01
    -15.614  0.1504E-01  0.3598E+01
    -15.594  0.2211E+01  0.3640E+01
    -15.575  0.2504E+01  0.3689E+01
    -15.556  0.3567E+01  0.3758E+01
    -15.536  0.2995E+00  0.3764E+01
    -15.517  0.9290E-01  0.3766E+01
    -15.497  0.3192E+01  0.3828E+01
    -15.478  0.1268E+01  0.3852E+01
    -15.459  0.3535E+01  0.3921E+01
    -15.439  0.1286E+01  0.3946E+01
    -15.420  0.7130E+01  0.4084E+01
    -15.400  0.6890E+00  0.4097E+01
    -15.381  0.1456E-03  0.4097E+01
    -15.362  0.2541E-04  0.4097E+01
    -15.342  0.3188E+00  0.4103E+01
    -15.323  0.8583E+01  0.4270E+01
    -15.304  0.8055E+01  0.4426E+01
    -15.284  0.2369E+00  0.4431E+01
    -15.265  0.1349E-04  0.4431E+01
    -15.245  0.2177E-03  0.4431E+01
    -15.226  0.8161E+00  0.4446E+01
    -15.207  0.7125E+01  0.4585E+01
    -15.187  0.6584E+00  0.4597E+01
    -15.168  0.2270E+01  0.4641E+01
    -15.148  0.6248E+01  0.4762E+01
    -15.129  0.3362E+01  0.4828E+01
    -15.110  0.4260E+01  0.4910E+01
    -15.090  0.6140E+01  0.5029E+01
    -15.071  0.2181E+01  0.5072E+01
    -15.051  0.7126E+01  0.5210E+01
    -15.032  0.1174E+01  0.5232E+01
    -15.013  0.3546E+01  0.5301E+01
    -14.993  0.2615E+01  0.5352E+01
    -14.974  0.1901E+01  0.5389E+01
    -14.955  0.8575E-02  0.5389E+01
    -14.935  0.5771E+00  0.5400E+01
    -14.916  0.9685E+01  0.5588E+01
    -14.896  0.2627E+01  0.5639E+01
    -14.877  0.5691E-02  0.5639E+01
    -14.858  0.1759E-07  0.5639E+01
    -14.838  0.3038E-08  0.5639E+01
    -14.819  0.1990E-02  0.5639E+01
    -14.799  0.1257E+01  0.5663E+01
    -14.780  0.7679E+01  0.5812E+01
    -14.761  0.3938E+01  0.5889E+01
    -14.741  0.1818E-01  0.5889E+01
    -14.722  0.3012E-04  0.5889E+01
    -14.703  0.2343E+00  0.5893E+01
    -14.683  0.3517E+01  0.5962E+01
    -14.664  0.5718E+00  0.5973E+01
    -14.644  0.1029E+01  0.5993E+01
    -14.625  0.3785E+00  0.6000E+01
    -14.606  0.5360E-03  0.6000E+01
    -14.586  0.7004E-09  0.6000E+01
    -14.567  0.0000E+00  0.6000E+01
    -14.547  0.0000E+00  0.6000E+01
    -14.528  0.0000E+00  0.6000E+01
    -14.509  0.0000E+00  0.6000E+01
    -14.489  0.0000E+00  0.6000E+01
    -14.470  0.0000E+00  0.6000E+01
    -14.450  0.0000E+00  0.6000E+01
    -14.431  0.0000E+00  0.6000E+01
    -14.412  0.0000E+00  0.6000E+01
    -14.392  0.0000E+00  0.6000E+01
    -14.373  0.0000E+00  0.6000E+01
    -14.354  0.0000E+00  0.6000E+01
    -14.334  0.0000E+00  0.6000E+01
    -14.315  0.0000E+00  0.6000E+01
    -14.295  0.0000E+00  0.6000E+01
    -14.276  0.0000E+00  0.6000E+01
    -14.257  0.0000E+00  0.6000E+01
    -14.237  0.0000E+00  0.6000E+01
    -14.218  0.0000E+00  0.6000E+01
    -14.198  0.0000E+00  0.6000E+01
    -14.179  0.0000E+00  0.6000E+01
    -14.160  0.0000E+00  0.6000E+01
    -14.140  0.0000E+00  0.6000E+01
    -14.121  0.0000E+00  0.6000E+01
    -14.102  0.0000E+00  0.6000E+01
    -14.082  0.0000E+00  0.6000E+01
    -14.063  0.0000E+00  0.6000E+01
    -14.043  0.0000E+00  0.6000E+01
    -14.024  0.0000E+00  0.6000E+01
    -14.005  0.0000E+00  0.6000E+01
    -13.985  0.0000E+00  0.6000E+01
    -13.966  0.0000E+00  0.6000E+01
    -13.946  0.0000E+00  0.6000E+01
    -13.927  0.0000E+00  0.6000E+01
    -13.908  0.0000E+00  0.6000E+01
    -13.888  0.0000E+00  0.6000E+01
    -13.869  0.0000E+00  0.6000E+01
    -13.849  0.0000E+00  0.6000E+01
    -13.830  0.0000E+00  0.6000E+01
    -13.811  0.0000E+00  0.6000E+01
    -13.791  0.0000E+00  0.6000E+01
    -13.772  0.0000E+00  0.6000E+01
    -13.753  0.0000E+00  0.6000E+01
    -13.733  0.0000E+00  0.6000E+01
    -13.714  0.0000E+00  0.6000E+01
    -13.694  0.0000E+00  0.6000E+01
    -13.675  0.0000E+00  0.6000E+01
    -13.656  0.0000E+00  0.6000E+01
    -13.636  0.0000E+00  0.6000E+01
    -13.617  0.0000E+00  0.6000E+01
    -13.597  0.0000E+00  0.6000E+01
    -13.578  0.0000E+00  0.6000E+01
    -13.559  0.0000E+00  0.6000E+01
    -13.539  0.0000E+00  0.6000E+01
    -13.520  0.0000E+00  0.6000E+01
    -13.500  0.0000E+00  0.6000E+01
    -13.481  0.0000E+00  0.6000E+01
    -13.462  0.0000E+00  0.6000E+01
    -13.442  0.0000E+00  0.6000E+01
    -13.423  0.0000E+00  0.6000E+01
    -13.404  0.0000E+00  0.6000E+01
    -13.384  0.0000E+00  0.6000E+01
    -13.365  0.0000E+00  0.6000E+01
    -13.345  0.0000E+00  0.6000E+01
    -13.326  0.0000E+00  0.6000E+01
    -13.307  0.0000E+00  0.6000E+01
    -13.287  0.0000E+00  0.6000E+01
    -13.268  0.0000E+00  0.6000E+01
    -13.248  0.0000E+00  0.6000E+01
    -13.229  0.0000E+00  0.6000E+01
    -13.210  0.0000E+00  0.6000E+01
    -13.190  0.0000E+00  0.6000E+01
    -13.171  0.0000E+00  0.6000E+01
    -13.152  0.0000E+00  0.6000E+01
    -13.132  0.0000E+00  0.6000E+01
    -13.113  0.0000E+00  0.6000E+01
    -13.093  0.0000E+00  0.6000E+01
    -13.074  0.0000E+00  0.6000E+01
    -13.055  0.0000E+00  0.6000E+01
    -13.035  0.0000E+00  0.6000E+01
    -13.016  0.0000E+00  0.6000E+01
    -12.996  0.0000E+00  0.6000E+01
    -12.977  0.0000E+00  0.6000E+01
    -12.958  0.0000E+00  0.6000E+01
    -12.938  0.0000E+00  0.6000E+01
    -12.919  0.0000E+00  0.6000E+01
    -12.899  0.1718E-13  0.6000E+01
    -12.880  0.8504E-06  0.6000E+01
    -12.861  0.3021E-01  0.6001E+01
    -12.841  0.1491E+01  0.6029E+01
    -12.822  0.1496E+01  0.6058E+01
    -12.803  0.3309E+01  0.6123E+01
    -12.783  0.1212E+00  0.6125E+01
    -12.764  0.1847E-04  0.6125E+01
    -12.744  0.1505E+00  0.6128E+01
    -12.725  0.3391E+01  0.6194E+01
    -12.706  0.9714E+00  0.6212E+01
    -12.686  0.6514E+01  0.6339E+01
    -12.667  0.1867E+01  0.6375E+01
    -12.647  0.1365E+01  0.6401E+01
    -12.628  0.6883E+01  0.6535E+01
    -12.609  0.1189E+01  0.6558E+01
    -12.589  0.3331E+01  0.6623E+01
    -12.570  0.1332E+00  0.6625E+01
    -12.551  0.2616E+01  0.6676E+01
    -12.531  0.5865E+01  0.6790E+01
    -12.512  0.1103E+00  0.6792E+01
    -12.492  0.3084E-05  0.6792E+01
    -12.473  0.2282E-01  0.6792E+01
    -12.454  0.2541E+01  0.6841E+01
    -12.434  0.7547E+01  0.6988E+01
    -12.415  0.2778E+01  0.7042E+01
    -12.395  0.6008E-02  0.7042E+01
    -12.376  0.4296E+00  0.7050E+01
    -12.357  0.3585E+01  0.7119E+01
    -12.337  0.4740E+01  0.7211E+01
    -12.318  0.1389E+02  0.7481E+01
    -12.298  0.7416E+01  0.7624E+01
    -12.279  0.5704E+01  0.7735E+01
    -12.260  0.5549E-01  0.7736E+01
    -12.240  0.7215E-06  0.7736E+01
    -12.221  0.9344E-02  0.7736E+01
    -12.202  0.1952E+01  0.7774E+01
    -12.182  0.2319E+01  0.7819E+01
    -12.163  0.1825E-01  0.7819E+01
    -12.143  0.1659E-06  0.7819E+01
    -12.124  0.4858E-11  0.7819E+01
    -12.105  0.4096E-04  0.7819E+01
    -12.085  0.2687E+00  0.7825E+01
    -12.066  0.3542E+01  0.7893E+01
    -12.046  0.4947E+00  0.7903E+01
    -12.027  0.1793E+01  0.7938E+01
    -12.008  0.2475E+01  0.7986E+01
    -11.988  0.2407E-01  0.7986E+01
    -11.969  0.5783E-06  0.7986E+01
    -11.950  0.2484E-01  0.7987E+01
    -11.930  0.2493E+01  0.8035E+01
    -11.911  0.3043E+01  0.8094E+01
    -11.891  0.6947E+01  0.8229E+01
    -11.872  0.3868E+00  0.8236E+01
    -11.853  0.1088E-03  0.8236E+01
    -11.833  0.5004E+00  0.8246E+01
    -11.814  0.7059E+01  0.8383E+01
    -11.794  0.1037E+01  0.8403E+01
    -11.775  0.3908E-03  0.8403E+01
    -11.756  0.2619E-06  0.8403E+01
    -11.736  0.2322E-01  0.8403E+01
    -11.717  0.2455E+01  0.8451E+01
    -11.697  0.1813E+01  0.8486E+01
    -11.678  0.7177E-02  0.8486E+01
    -11.659  0.2956E-07  0.8486E+01
    -11.639  0.0000E+00  0.8486E+01
    -11.620  0.0000E+00  0.8486E+01
    -11.601  0.8995E-13  0.8486E+01
    -11.581  0.3192E-05  0.8486E+01
    -11.562  0.8235E-01  0.8488E+01
    -11.542  0.3136E+01  0.8549E+01
    -11.523  0.1186E+01  0.8571E+01
    -11.504  0.2276E+01  0.8616E+01
    -11.484  0.4839E+00  0.8625E+01
    -11.465  0.1655E-02  0.8625E+01
    -11.445  0.2566E+01  0.8675E+01
    -11.426  0.1386E+02  0.8944E+01
    -11.407  0.7717E+00  0.8959E+01
    -11.387  0.1913E+01  0.8996E+01
    -11.368  0.2358E+01  0.9041E+01
    -11.349  0.1955E-01  0.9042E+01
    -11.329  0.1887E-06  0.9042E+01
    -11.310  0.9544E-15  0.9042E+01
    -11.290  0.4438E-13  0.9042E+01
    -11.271  0.2550E-05  0.9042E+01
    -11.252  0.1057E+00  0.9044E+01
    -11.232  0.6107E+01  0.9162E+01
    -11.213  0.3091E+01  0.9222E+01
    -11.193  0.9319E-02  0.9222E+01
    -11.174  0.5709E-07  0.9222E+01
    -11.155  0.2796E-09  0.9222E+01
    -11.135  0.4911E-03  0.9222E+01
    -11.116  0.7533E+00  0.9237E+01
    -11.096  0.5485E+01  0.9343E+01
    -11.077  0.6670E+01  0.9472E+01
    -11.058  0.4259E+01  0.9555E+01
    -11.038  0.2627E-01  0.9556E+01
    -11.019  0.1286E+01  0.9580E+01
    -11.000  0.6930E+01  0.9715E+01
    -10.980  0.3801E+00  0.9722E+01
    -10.961  0.3769E-04  0.9722E+01
    -10.941  0.6119E-11  0.9722E+01
    -10.922  0.3199E-04  0.9722E+01
    -10.903  0.2410E+00  0.9727E+01
    -10.883  0.3523E+01  0.9795E+01
    -10.864  0.5346E+00  0.9806E+01
    -10.844  0.1640E-01  0.9806E+01
    -10.825  0.2252E+01  0.9850E+01
    -10.806  0.2020E+01  0.9889E+01
    -10.786  0.1061E-01  0.9889E+01
    -10.767  0.6036E-07  0.9889E+01
    -10.747  0.8844E-05  0.9889E+01
    -10.728  0.1432E+00  0.9892E+01
    -10.709  0.5308E+01  0.9995E+01
    -10.689  0.5096E+01  0.1009E+02
    -10.670  0.6450E+01  0.1022E+02
    -10.651  0.1956E+00  0.1022E+02
    -10.631  0.9104E-05  0.1022E+02
    -10.612  0.3111E-12  0.1022E+02
    -10.592  0.0000E+00  0.1022E+02
    -10.573  0.2138E-11  0.1022E+02
    -10.554  0.1891E-04  0.1022E+02
    -10.534  0.1297E+00  0.1022E+02
    -10.515  0.1768E+01  0.1026E+02
    -10.495  0.2513E+00  0.1026E+02
    -10.476  0.9054E-04  0.1026E+02
    -10.457  0.2679E-10  0.1026E+02
    -10.437  0.0000E+00  0.1026E+02
    -10.418  0.0000E+00  0.1026E+02
    -10.399  0.0000E+00  0.1026E+02
    -10.379  0.5050E-09  0.1026E+02
    -10.360  0.9240E-03  0.1026E+02
    -10.340  0.1450E+01  0.1029E+02
    -10.321  0.6825E+01  0.1042E+02
    -10.302  0.3207E+00  0.1043E+02
    -10.282  0.2601E-04  0.1043E+02
    -10.263  0.1587E-11  0.1043E+02
    -10.243  0.0000E+00  0.1043E+02
    -10.224  0.5865E-12  0.1043E+02
    -10.205  0.1072E-04  0.1043E+02
    -10.185  0.1466E+00  0.1043E+02
    -10.166  0.3381E+01  0.1050E+02
    -10.146  0.7699E+00  0.1051E+02
    -10.127  0.5420E-03  0.1051E+02
    -10.108  0.3300E-09  0.1051E+02
    -10.088  0.0000E+00  0.1051E+02
    -10.069  0.0000E+00  0.1051E+02
    -10.050  0.0000E+00  0.1051E+02
    -10.030  0.0000E+00  0.1051E+02
    -10.011  0.0000E+00  0.1051E+02
     -9.991  0.0000E+00  0.1051E+02
     -9.972  0.3977E-16  0.1051E+02
     -9.953  0.1182E-07  0.1051E+02
     -9.933  0.1930E-02  0.1051E+02
     -9.914  0.3445E+00  0.1052E+02
     -9.894  0.3675E+00  0.1053E+02
     -9.875  0.2479E-02  0.1053E+02
     -9.856  0.1882E-07  0.1053E+02
     -9.836  0.7954E-16  0.1053E+02
     -9.817  0.0000E+00  0.1053E+02
     -9.798  0.9058E-09  0.1053E+02
     -9.778  0.1227E-02  0.1053E+02
     -9.759  0.1569E+01  0.1056E+02
     -9.739  0.7441E+01  0.1070E+02
     -9.720  0.7429E+01  0.1085E+02
     -9.701  0.7537E+00  0.1086E+02
     -9.681  0.1800E-03  0.1086E+02
     -9.662  0.3435E-10  0.1086E+02
     -9.642  0.0000E+00  0.1086E+02
     -9.623  0.0000E+00  0.1086E+02
     -9.604  0.3515E-13  0.1086E+02
     -9.584  0.1899E-05  0.1086E+02
     -9.565  0.7371E-01  0.1086E+02
     -9.545  0.3912E+01  0.1094E+02
     -9.526  0.1742E+01  0.1097E+02
     -9.507  0.3273E-02  0.1097E+02
     -9.487  0.5927E-03  0.1097E+02
     -9.468  0.7960E+00  0.1099E+02
     -9.449  0.3362E+01  0.1105E+02
     -9.429  0.1393E+00  0.1106E+02
     -9.410  0.1018E-04  0.1106E+02
     -9.390  0.4908E-01  0.1106E+02
     -9.371  0.4971E+01  0.1115E+02
     -9.352  0.3563E+01  0.1122E+02
     -9.332  0.5064E+00  0.1123E+02
     -9.313  0.3540E+01  0.1130E+02
     -9.293  0.2656E+00  0.1131E+02
     -9.274  0.3986E-04  0.1131E+02
     -9.255  0.4651E-11  0.1131E+02
     -9.235  0.0000E+00  0.1131E+02
     -9.216  0.2386E-15  0.1131E+02
     -9.197  0.4199E-07  0.1131E+02
     -9.177  0.8704E-02  0.1131E+02
     -9.158  0.1914E+01  0.1134E+02
     -9.138  0.2405E+01  0.1139E+02
     -9.119  0.5002E+01  0.1149E+02
     -9.100  0.6237E+01  0.1161E+02
     -9.080  0.5820E+01  0.1172E+02
     -9.061  0.1043E+00  0.1172E+02
     -9.041  0.2058E+00  0.1173E+02
     -9.022  0.3487E+01  0.1179E+02
     -9.003  0.6058E+00  0.1181E+02
     -8.983  0.5446E+00  0.1182E+02
     -8.964  0.7737E+01  0.1197E+02
     -8.944  0.8090E+01  0.1212E+02
     -8.925  0.8287E+00  0.1214E+02
     -8.906  0.1784E+01  0.1217E+02
     -8.886  0.2483E+01  0.1222E+02
     -8.867  0.2443E-01  0.1222E+02
     -8.848  0.2909E-06  0.1222E+02
     -8.828  0.2372E-02  0.1222E+02
     -8.809  0.2044E+01  0.1226E+02
     -8.789  0.6368E+01  0.1239E+02
     -8.770  0.1824E+00  0.1239E+02
     -8.751  0.8345E-05  0.1239E+02
     -8.731  0.3145E-01  0.1239E+02
     -8.712  0.2625E+01  0.1244E+02
     -8.692  0.1637E+01  0.1247E+02
     -8.673  0.4614E+00  0.1248E+02
     -8.654  0.1637E+01  0.1251E+02
     -8.634  0.5574E-01  0.1251E+02
     -8.615  0.2995E-05  0.1251E+02
     -8.595  0.1188E-12  0.1251E+02
     -8.576  0.0000E+00  0.1251E+02
     -8.557  0.0000E+00  0.1251E+02
     -8.537  0.6681E-14  0.1251E+02
     -8.518  0.5705E-06  0.1251E+02
     -8.499  0.3479E-01  0.1251E+02
     -8.479  0.2690E+01  0.1257E+02
     -8.460  0.2718E+01  0.1262E+02
     -8.440  0.4804E+01  0.1271E+02
     -8.421  0.7502E+01  0.1286E+02
     -8.402  0.3286E+01  0.1292E+02
     -8.382  0.8293E+01  0.1308E+02
     -8.363  0.6942E+01  0.1322E+02
     -8.343  0.8433E+00  0.1323E+02
     -8.324  0.7179E+01  0.1337E+02
     -8.305  0.6381E+01  0.1350E+02
     -8.285  0.3075E+01  0.1356E+02
     -8.266  0.2548E+01  0.1361E+02
     -8.247  0.1725E+01  0.1364E+02
     -8.227  0.6034E-02  0.1364E+02
     -8.208  0.2161E-07  0.1364E+02
     -8.188  0.0000E+00  0.1364E+02
     -8.169  0.0000E+00  0.1364E+02
     -8.150  0.0000E+00  0.1364E+02
     -8.130  0.4201E-09  0.1364E+02
     -8.111  0.6257E-03  0.1364E+02
     -8.091  0.8121E+00  0.1365E+02
     -8.072  0.3351E+01  0.1372E+02
     -8.053  0.1350E+00  0.1372E+02
     -8.033  0.3267E-02  0.1372E+02
     -8.014  0.1431E+01  0.1375E+02
     -7.994  0.2819E+01  0.1380E+02
     -7.975  0.8087E-01  0.1381E+02
     -7.956  0.6197E+01  0.1393E+02
     -7.936  0.7363E+01  0.1407E+02
     -7.917  0.3444E+01  0.1414E+02
     -7.898  0.1533E+00  0.1414E+02
     -7.878  0.6874E-03  0.1414E+02
     -7.859  0.5348E+00  0.1415E+02
     -7.839  0.1572E+01  0.1418E+02
     -7.820  0.4388E-01  0.1418E+02
     -7.801  0.1933E+01  0.1422E+02
     -7.781  0.6460E+01  0.1434E+02
     -7.762  0.2018E+00  0.1435E+02
     -7.742  0.9720E-05  0.1435E+02
     -7.723  0.4842E-09  0.1435E+02
     -7.704  0.6804E-03  0.1435E+02
     -7.684  0.8376E+00  0.1436E+02
     -7.665  0.3843E+01  0.1444E+02
     -7.646  0.7348E+01  0.1458E+02
     -7.626  0.7217E+01  0.1472E+02
     -7.607  0.2243E+01  0.1476E+02
     -7.587  0.2533E+00  0.1477E+02
     -7.568  0.1274E+02  0.1502E+02
     -7.549  0.8453E+01  0.1518E+02
     -7.529  0.4859E-01  0.1518E+02
     -7.510  0.4320E-06  0.1518E+02
     -7.490  0.2863E-14  0.1518E+02
     -7.471  0.0000E+00  0.1518E+02
     -7.452  0.0000E+00  0.1518E+02
     -7.432  0.0000E+00  0.1518E+02
     -7.413  0.1739E-10  0.1518E+02
     -7.393  0.9081E-04  0.1518E+02
     -7.374  0.3950E+00  0.1519E+02
     -7.355  0.5907E+01  0.1530E+02
     -7.335  0.2942E+01  0.1536E+02
     -7.316  0.4903E+00  0.1537E+02
     -7.297  0.6983E+01  0.1550E+02
     -7.277  0.1305E+01  0.1553E+02
     -7.258  0.7680E+01  0.1568E+02
     -7.238  0.5122E+01  0.1578E+02
     -7.219  0.2879E+01  0.1583E+02
     -7.200  0.1449E+01  0.1586E+02
     -7.180  0.5056E+01  0.1596E+02
     -7.161  0.3478E+01  0.1603E+02
     -7.141  0.1941E-01  0.1603E+02
     -7.122  0.4630E+00  0.1604E+02
     -7.103  0.2459E+00  0.1604E+02
     -7.083  0.8046E-02  0.1604E+02
     -7.064  0.3037E+01  0.1610E+02
     -7.045  0.7604E+01  0.1625E+02
     -7.025  0.8132E+00  0.1626E+02
     -7.006  0.9280E+00  0.1628E+02
     -6.986  0.8313E+01  0.1644E+02
     -6.967  0.3590E+01  0.1651E+02
     -6.948  0.6511E-01  0.1651E+02
     -6.928  0.1972E-05  0.1651E+02
     -6.909  0.2365E-08  0.1651E+02
     -6.889  0.1722E-02  0.1651E+02
     -6.870  0.1162E+01  0.1654E+02
     -6.851  0.3070E+01  0.1660E+02
     -6.831  0.2882E+01  0.1665E+02
     -6.812  0.5702E+01  0.1676E+02
     -6.792  0.2329E+01  0.1681E+02
     -6.773  0.2036E+01  0.1685E+02
     -6.754  0.1093E-01  0.1685E+02
     -6.734  0.4068E-01  0.1685E+02
     -6.715  0.2768E+01  0.1690E+02
     -6.696  0.1692E+01  0.1693E+02
     -6.676  0.2368E+01  0.1698E+02
     -6.657  0.7043E+01  0.1712E+02
     -6.637  0.4145E+00  0.1713E+02
     -6.618  0.6885E+00  0.1714E+02
     -6.599  0.7130E+01  0.1728E+02
     -6.579  0.1574E+01  0.1731E+02
     -6.560  0.7217E+01  0.1745E+02
     -6.540  0.6364E+01  0.1757E+02
     -6.521  0.5810E+01  0.1768E+02
     -6.502  0.1923E+01  0.1772E+02
     -6.482  0.1208E+02  0.1795E+02
     -6.463  0.4476E+01  0.1804E+02
     -6.444  0.3491E-01  0.1804E+02
     -6.424  0.2405E+01  0.1809E+02
     -6.405  0.1864E+01  0.1812E+02
     -6.385  0.8883E+00  0.1814E+02
     -6.366  0.3320E+01  0.1821E+02
     -6.347  0.2562E+01  0.1826E+02
     -6.327  0.6563E+01  0.1838E+02
     -6.308  0.3853E+01  0.1846E+02
     -6.288  0.2144E+01  0.1850E+02
     -6.269  0.8617E+01  0.1867E+02
     -6.250  0.8401E+01  0.1883E+02
     -6.230  0.4787E+01  0.1892E+02
     -6.211  0.1842E+01  0.1896E+02
     -6.191  0.3933E-01  0.1896E+02
     -6.172  0.5126E+01  0.1906E+02
     -6.153  0.7640E+01  0.1921E+02
     -6.133  0.1743E+01  0.1924E+02
     -6.114  0.6691E+01  0.1937E+02
     -6.095  0.2665E+00  0.1937E+02
     -6.075  0.1790E-04  0.1938E+02
     -6.056  0.1748E-01  0.1938E+02
     -6.036  0.9687E+00  0.1939E+02
     -6.017  0.4457E+00  0.1940E+02
     -5.998  0.2518E-02  0.1940E+02
     -5.978  0.7171E+00  0.1942E+02
     -5.959  0.1669E+01  0.1945E+02
     -5.939  0.6264E+01  0.1957E+02
     -5.920  0.4650E+01  0.1966E+02
     -5.901  0.2958E+01  0.1972E+02
     -5.881  0.2172E+00  0.1972E+02
     -5.862  0.1069E-01  0.1972E+02
     -5.842  0.3320E+01  0.1979E+02
     -5.823  0.5206E+01  0.1989E+02
     -5.804  0.6045E-01  0.1989E+02
     -5.784  0.8687E-06  0.1989E+02
     -5.765  0.8590E-14  0.1989E+02
     -5.746  0.0000E+00  0.1989E+02
     -5.726  0.1234E-11  0.1989E+02
     -5.707  0.2215E-04  0.1989E+02
     -5.687  0.3046E+00  0.1989E+02
     -5.668  0.9692E+01  0.2008E+02
     -5.649  0.7111E+01  0.2022E+02
     -5.629  0.8616E-01  0.2022E+02
     -5.610  0.3076E-01  0.2022E+02
     -5.590  0.2613E+01  0.2027E+02
     -5.571  0.1650E+01  0.2031E+02
     -5.552  0.5183E-02  0.2031E+02
     -5.532  0.1644E-07  0.2031E+02
     -5.513  0.4772E-15  0.2031E+02
     -5.494  0.7891E-07  0.2031E+02
     -5.474  0.1683E-01  0.2031E+02
     -5.455  0.3883E+01  0.2038E+02
     -5.435  0.7929E+01  0.2053E+02
     -5.416  0.1065E+01  0.2056E+02
     -5.397  0.1196E-02  0.2056E+02
     -5.377  0.1262E-08  0.2056E+02
     -5.358  0.1273E-06  0.2056E+02
     -5.338  0.2184E-01  0.2056E+02
     -5.319  0.4164E+01  0.2064E+02
     -5.300  0.8774E+01  0.2081E+02
     -5.280  0.2078E+01  0.2085E+02
     -5.261  0.9578E-01  0.2085E+02
     -5.241  0.3836E+01  0.2092E+02
     -5.222  0.4612E+01  0.2101E+02
     -5.203  0.6178E+01  0.2113E+02
     -5.183  0.3228E+01  0.2120E+02
     -5.164  0.3397E+01  0.2126E+02
     -5.145  0.1514E+00  0.2126E+02
     -5.125  0.6512E-02  0.2126E+02
     -5.106  0.3157E+01  0.2133E+02
     -5.086  0.1695E+02  0.2165E+02
     -5.067  0.1332E+02  0.2191E+02
     -5.048  0.3931E+01  0.2199E+02
     -5.028  0.1611E+02  0.2230E+02
     -5.009  0.6560E+01  0.2243E+02
     -4.989  0.6800E+01  0.2256E+02
     -4.970  0.2029E+02  0.2295E+02
     -4.951  0.4993E+01  0.2305E+02
     -4.931  0.3565E+01  0.2312E+02
     -4.912  0.3338E+00  0.2313E+02
     -4.893  0.1874E+01  0.2316E+02
     -4.873  0.2649E+01  0.2321E+02
     -4.854  0.1034E+02  0.2341E+02
     -4.834  0.5439E+01  0.2352E+02
     -4.815  0.9536E+01  0.2370E+02
     -4.796  0.2059E+01  0.2374E+02
     -4.776  0.4259E+01  0.2383E+02
     -4.757  0.9116E+01  0.2400E+02
     -4.737  0.1267E+01  0.2403E+02
     -4.718  0.5717E-03  0.2403E+02
     -4.699  0.2846E-09  0.2403E+02
     -4.679  0.0000E+00  0.2403E+02
     -4.660  0.4985E-11  0.2403E+02