<?xml version="1.0" encoding="ISO-8859-1"?>
<modeling>
 <generator>
  <i name="program" type="string">vasp </i>
  <i name="version" type="string">5.4.4.18Apr17-6-g9f103f2a35  </i>
  <i name="subversion" type="string">(build Mar 30 2023 15:39:25) complex            parallel </i>
  <i name="platform" type="string">LinuxIFC </i>
  <i name="date" type="string">2023 06 23 </i>
  <i name="time" type="string">15:24:10 </i>
 </generator>
 <incar>
  <i type="string" name="SYSTEM"> BC3-optical</i>
  <i type="int" name="ISTART">     1</i>
  <i type="string" name="PREC">accurate</i>
  <i type="string" name="ALGO"> Exact</i>
  <i type="int" name="ICHARG">     2</i>
  <i name="EDIFF">      0.00000001</i>
  <i name="ENCUT">    450.00000000</i>
  <i type="int" name="NBANDS">    64</i>
  <i type="int" name="NEDOS">  2400</i>
  <i type="logical" name="LREAL"> F  </i>
  <i type="int" name="ISMEAR">     0</i>
  <i name="SIGMA">      0.01000000</i>
  <i type="int" name="NWRITE">     3</i>
  <i type="logical" name="LOPTICS"> T  </i>
  <v type="int" name="KPOINT_BSE">    -1     0     0     0</v>
  <i name="CSHIFT">      0.10000000</i>
  <i name="CSHIFT">      0.10000000</i>
 </incar>
 <structure name="primitive_cell" >
  <crystal>
   <varray name="basis" >
    <v>       4.48084843       2.58701885       0.00000000 </v>
    <v>      -4.48084843       2.58701885       0.00000000 </v>
    <v>       0.00000000       0.00000000       8.52022140 </v>
   </varray>
   <i name="volume">    197.53348383 </i>
   <varray name="rec_basis" >
    <v>       0.11158601       0.19327265       0.00000000 </v>
    <v>      -0.11158601       0.19327265       0.00000000 </v>
    <v>       0.00000000       0.00000000       0.11736784 </v>
   </varray>
  </crystal>
  <varray name="positions" >
   <v>       0.33333300      -0.33333400       0.25000000 </v>
   <v>       0.15869124       0.31738348       0.25000000 </v>
   <v>      -0.31738448      -0.15869224       0.25000000 </v>
   <v>       0.15869124      -0.15869224       0.25000000 </v>
   <v>      -0.15869224       0.15869124       0.25000000 </v>
   <v>       0.31738348       0.15869124       0.25000000 </v>
   <v>      -0.15869224      -0.31738448       0.25000000 </v>
   <v>      -0.33333400       0.33333300       0.25000000 </v>
  </varray>
 </structure>
 <varray name="primitive_index" >
  <v type="int" >        1 </v>
  <v type="int" >        3 </v>
  <v type="int" >        7 </v>
  <v type="int" >        5 </v>
  <v type="int" >        6 </v>
  <v type="int" >        4 </v>
  <v type="int" >        8 </v>
  <v type="int" >        2 </v>
 </varray>
 <kpoints>
  <generation param="Gamma">
   <v type="int" name="divisions">      12       12        1 </v>
   <v name="usershift">      0.00000000       0.00000000       0.00000000 </v>
   <v name="genvec1">      0.08333333       0.00000000       0.00000000 </v>
   <v name="genvec2">      0.00000000       0.08333333       0.00000000 </v>
   <v name="genvec3">      0.00000000       0.00000000       1.00000000 </v>
   <v name="shift">      0.00000000       0.00000000       0.00000000 </v>
  </generation>
  <varray name="kpointlist" >
   <v>       0.00000000       0.00000000       0.00000000 </v>
   <v>       0.08333333       0.00000000       0.00000000 </v>
   <v>       0.16666667       0.00000000       0.00000000 </v>
   <v>       0.25000000      -0.00000000       0.00000000 </v>
   <v>       0.33333333      -0.00000000       0.00000000 </v>
   <v>       0.41666667       0.00000000       0.00000000 </v>
   <v>       0.50000000      -0.00000000       0.00000000 </v>
   <v>       0.08333333       0.08333333       0.00000000 </v>
   <v>       0.16666667       0.08333333       0.00000000 </v>
   <v>       0.25000000       0.08333333       0.00000000 </v>
   <v>       0.33333333       0.08333333       0.00000000 </v>
   <v>       0.41666667       0.08333333       0.00000000 </v>
   <v>       0.16666667       0.16666667       0.00000000 </v>
   <v>       0.25000000       0.16666667       0.00000000 </v>
   <v>       0.33333333       0.16666667       0.00000000 </v>
   <v>       0.41666667       0.16666667       0.00000000 </v>
   <v>       0.25000000       0.25000000       0.00000000 </v>
   <v>       0.33333333       0.25000000       0.00000000 </v>
   <v>       0.33333333       0.33333333       0.00000000 </v>
  </varray>
  <varray name="weights" >
   <v>       0.00694444 </v>
   <v>       0.04166667 </v>
   <v>       0.04166667 </v>
   <v>       0.04166667 </v>
   <v>       0.04166667 </v>
   <v>       0.04166667 </v>
   <v>       0.02083333 </v>
   <v>       0.04166667 </v>
   <v>       0.08333333 </v>
   <v>       0.08333333 </v>
   <v>       0.08333333 </v>
   <v>       0.08333333 </v>
   <v>       0.04166667 </v>
   <v>       0.08333333 </v>
   <v>       0.08333333 </v>
   <v>       0.04166667 </v>
   <v>       0.04166667 </v>
   <v>       0.08333333 </v>
   <v>       0.01388889 </v>
  </varray>
 </kpoints>
 <parameters>
  <separator name="general" >
   <i type="string" name="SYSTEM">BC3-optical</i>
   <i type="logical" name="LCOMPAT"> F  </i>
  </separator>
  <separator name="electronic" >
   <i type="string" name="PREC">accura</i>
   <i name="ENMAX">    450.00000000</i>
   <i name="ENAUG">    644.87300000</i>
   <i name="EDIFF">      0.00000001</i>
   <i type="int" name="IALGO">    90</i>
   <i type="int" name="IWAVPR">    10</i>
   <i type="int" name="NBANDS">    72</i>
   <i name="NELECT">     30.00000000</i>
   <i type="int" name="TURBO">     0</i>
   <i type="int" name="IRESTART">     0</i>
   <i type="int" name="NREBOOT">     0</i>
   <i type="int" name="NMIN">     0</i>
   <i name="EREF">      0.00000000</i>
   <separator name="electronic smearing" >
    <i type="int" name="ISMEAR">     0</i>
    <i name="SIGMA">      0.01000000</i>
    <i name="KSPACING">      0.50000000</i>
    <i type="logical" name="KGAMMA"> T  </i>
   </separator>
   <separator name="electronic projectors" >
    <i type="logical" name="LREAL"> F  </i>
    <v name="ROPT">      0.00000000      0.00000000</v>
    <i type="int" name="LMAXPAW">  -100</i>
    <i type="int" name="LMAXMIX">     2</i>
    <i type="logical" name="NLSPLINE"> F  </i>
   </separator>
   <separator name="electronic startup" >
    <i type="int" name="ISTART">     1</i>
    <i type="int" name="ICHARG">     2</i>
    <i type="int" name="INIWAV">     1</i>
   </separator>
   <separator name="electronic spin" >
    <i type="int" name="ISPIN">     1</i>
    <i type="logical" name="LNONCOLLINEAR"> F  </i>
    <v name="MAGMOM">      1.00000000      1.00000000      1.00000000      1.00000000      1.00000000      1.00000000      1.00000000      1.00000000</v>
    <i name="NUPDOWN">     -1.00000000</i>
    <i type="logical" name="LSORBIT"> F  </i>
    <v name="SAXIS">      0.00000000      0.00000000      1.00000000</v>
    <i type="logical" name="LSPIRAL"> F  </i>
    <v name="QSPIRAL">      0.00000000      0.00000000      0.00000000</v>
    <i type="logical" name="LZEROZ"> F  </i>
   </separator>
   <separator name="electronic exchange-correlation" >
    <i type="logical" name="LASPH"> F  </i>
    <i type="logical" name="LMETAGGA"> F  </i>
   </separator>
   <separator name="electronic convergence" >
    <i type="int" name="NELM">    60</i>
    <i type="int" name="NELMDL">     0</i>
    <i type="int" name="NELMIN">     2</i>
    <i name="ENINI">    450.00000000</i>
    <separator name="electronic convergence detail" >
     <i type="logical" name="LDIAG"> T  </i>
     <i type="logical" name="LSUBROT"> F  </i>
     <i name="WEIMIN">      0.00000000</i>
     <i name="EBREAK">      0.00000000</i>
     <i name="DEPER">      0.30000000</i>
     <i type="int" name="NRMM">     4</i>
     <i name="TIME">      0.40000000</i>
    </separator>
   </separator>
   <separator name="electronic mixer" >
    <i name="AMIX">      0.40000000</i>
    <i name="BMIX">      1.00000000</i>
    <i name="AMIN">      0.10000000</i>
    <i name="AMIX_MAG">      1.60000000</i>
    <i name="BMIX_MAG">      1.00000000</i>
    <separator name="electronic mixer details" >
     <i type="int" name="IMIX">     4</i>
     <i type="logical" name="MIXFIRST"> F  </i>
     <i type="int" name="MAXMIX">   -45</i>
     <i name="WC">    100.00000000</i>
     <i type="int" name="INIMIX">     1</i>
     <i type="int" name="MIXPRE">     1</i>
     <i type="int" name="MREMOVE">     5</i>
    </separator>
   </separator>
   <separator name="electronic dipolcorrection" >
    <i type="logical" name="LDIPOL"> F  </i>
    <i type="logical" name="LMONO"> F  </i>
    <i type="int" name="IDIPOL">     0</i>
    <i name="EPSILON">      1.00000000</i>
    <v name="DIPOL">   -100.00000000   -100.00000000   -100.00000000</v>
    <i name="EFIELD">      0.00000000</i>
   </separator>
  </separator>
  <separator name="grids" >
   <i type="int" name="NGX">    36</i>
   <i type="int" name="NGY">    36</i>
   <i type="int" name="NGZ">    60</i>
   <i type="int" name="NGXF">    72</i>
   <i type="int" name="NGYF">    72</i>
   <i type="int" name="NGZF">   120</i>
   <i type="logical" name="ADDGRID"> F  </i>
  </separator>
  <separator name="ionic" >
   <i type="int" name="NSW">     0</i>
   <i type="int" name="IBRION">    -1</i>
   <i type="int" name="MDALGO">     0</i>
   <i type="int" name="ISIF">     2</i>
   <i name="PSTRESS">      0.00000000</i>
   <i name="EDIFFG">      0.00000010</i>
   <i type="int" name="NFREE">     0</i>
   <i name="POTIM">      0.50000000</i>
   <i name="SMASS">     -3.00000000</i>
   <i name="SCALEE">      1.00000000</i>
  </separator>
  <separator name="ionic md" >
   <i name="TEBEG">      0.00010000</i>
   <i name="TEEND">      0.00010000</i>
   <i type="int" name="NBLOCK">     1</i>
   <i type="int" name="KBLOCK">     1</i>
   <i type="int" name="NPACO">   256</i>
   <i name="APACO">     16.00000000</i>
  </separator>
  <separator name="symmetry" >
   <i type="int" name="ISYM">     2</i>
   <i name="SYMPREC">      0.00001000</i>
  </separator>
  <separator name="dos" >
   <i type="int" name="LORBIT">     0</i>
   <v name="RWIGS">     -1.00000000     -1.00000000</v>
   <i type="int" name="NEDOS">  2400</i>
   <i name="EMIN">     10.00000000</i>
   <i name="EMAX">    -10.00000000</i>
   <i name="EFERMI">      0.00000000</i>
  </separator>
  <separator name="writing" >
   <i type="int" name="NWRITE">     3</i>
   <i type="logical" name="LWAVE"> T  </i>
   <i type="logical" name="LDOWNSAMPLE"> F  </i>
   <i type="logical" name="LCHARG"> T  </i>
   <i type="logical" name="LPARD"> F  </i>
   <i type="logical" name="LVTOT"> F  </i>
   <i type="logical" name="LVHAR"> F  </i>
   <i type="logical" name="LELF"> F  </i>
   <i type="logical" name="LOPTICS"> T  </i>
   <v name="STM">      0.00000000      0.00000000      0.00000000      0.00000000      0.00000000      0.00000000      0.00000000</v>
  </separator>
  <separator name="performance" >
   <i type="int" name="NPAR">    12</i>
   <i type="int" name="NSIM">     4</i>
   <i type="int" name="NBLK">    -1</i>
   <i type="logical" name="LPLANE"> T  </i>
   <i type="logical" name="LSCALAPACK"> T  </i>
   <i type="logical" name="LSCAAWARE"> F  </i>
   <i type="logical" name="LSCALU"> F  </i>
   <i type="logical" name="LASYNC"> F  </i>
   <i type="logical" name="LORBITALREAL"> F  </i>
  </separator>
  <separator name="miscellaneous" >
   <i type="int" name="IDIOT">     3</i>
   <i type="int" name="ISPECIAL">     0</i>
   <i type="logical" name="LMUSIC"> F  </i>
   <v name="POMASS">     10.81100000     12.01100000</v>
   <v name="DARWINR">      0.00000000      0.00000000</v>
   <v name="DARWINV">      1.00000000      1.00000000</v>
   <i type="logical" name="LCORR"> T  </i>
  </separator>
  <i type="logical" name="GGA_COMPAT"> T  </i>
  <i type="logical" name="LBERRY"> F  </i>
  <i type="int" name="ICORELEVEL">     0</i>
  <i type="logical" name="LDAU"> F  </i>
  <i type="int" name="I_CONSTRAINED_M">     0</i>
  <separator name="electronic exchange-correlation" >
   <i type="string" name="GGA">--</i>
   <i type="int" name="VOSKOWN">     0</i>
   <i type="logical" name="LHFCALC"> F  </i>
   <i type="string" name="PRECFOCK"></i>
   <i type="logical" name="LSYMGRAD"> F  </i>
   <i type="logical" name="LHFONE"> F  </i>
   <i type="logical" name="LRHFCALC"> F  </i>
   <i type="logical" name="LTHOMAS"> F  </i>
   <i type="logical" name="LMODELHF"> F  </i>
   <i name="ENCUT4O">     -1.00000000</i>
   <i type="int" name="EXXOEP">     0</i>
   <i type="int" name="FOURORBIT">     0</i>
   <i name="AEXX">      0.00000000</i>
   <i name="HFALPHA">      0.00000000</i>
   <i name="MCALPHA">      0.00000000</i>
   <i name="ALDAX">      1.00000000</i>
   <i name="AGGAX">      1.00000000</i>
   <i name="ALDAC">      1.00000000</i>
   <i name="AGGAC">      1.00000000</i>
   <i type="int" name="NKREDX">     1</i>
   <i type="int" name="NKREDY">     1</i>
   <i type="int" name="NKREDZ">     1</i>
   <i type="logical" name="SHIFTRED"> F  </i>
   <i type="logical" name="ODDONLY"> F  </i>
   <i type="logical" name="EVENONLY"> F  </i>
   <i type="int" name="LMAXFOCK">     0</i>
   <i type="int" name="NMAXFOCKAE">     0</i>
   <i type="logical" name="LFOCKAEDFT"> F  </i>
   <i name="HFSCREEN">      0.00000000</i>
   <i name="HFSCREENC">      0.00000000</i>
   <i type="int" name="NBANDSGWLOW">     0</i>
  </separator>
  <separator name="vdW DFT" >
   <i type="logical" name="LUSE_VDW"> F  </i>
   <i name="Zab_VDW">     -0.84910000</i>
   <i name="PARAM1">      0.12340000</i>
   <i name="PARAM2">      1.00000000</i>
   <i name="PARAM3">      0.00000000</i>
  </separator>
  <separator name="model GW" >
   <i type="int" name="MODEL_GW">     0</i>
   <i name="MODEL_EPS0">     14.81501129</i>
   <i name="MODEL_ALPHA">      1.00000000</i>
  </separator>
  <separator name="linear response parameters" >
   <i type="logical" name="LEPSILON"> F  </i>
   <i type="logical" name="LRPA"> F  </i>
   <i type="logical" name="LNABLA"> F  </i>
   <i type="logical" name="LVEL"> F  </i>
   <i type="int" name="KINTER">     0</i>
   <i name="CSHIFT">      0.10000000</i>
   <i name="OMEGAMAX">     -1.00000000</i>
   <i name="DEG_THRESHOLD">      0.00200000</i>
   <i name="RTIME">     -0.10000000</i>
   <i name="WPLASMAI">      0.00000000</i>
   <v name="DFIELD">      0.00000000      0.00000000      0.00000000</v>
   <v name="WPLASMA">      0.00000000      0.00000000      0.00000000      0.00000000      0.00000000      0.00000000      0.00000000      0.00000000      0.00000000</v>
  </separator>
  <separator name="orbital magnetization" >
   <i type="logical" name="NUCIND"> F  </i>
   <v name="MAGPOS">      0.00000000      0.00000000      0.00000000</v>
   <i type="logical" name="LNICSALL"> T  </i>
   <i type="logical" name="ORBITALMAG"> F  </i>
   <i type="logical" name="LMAGBLOCH"> F  </i>
   <i type="logical" name="LCHIMAG"> F  </i>
   <i type="logical" name="LGAUGE"> T  </i>
   <i type="int" name="MAGATOM">     0</i>
   <v name="MAGDIPOL">      0.00000000      0.00000000      0.00000000</v>
   <v name="AVECCONST">      0.00000000      0.00000000      0.00000000</v>
  </separator>
  <separator name="response functions" >
   <i type="logical" name="LADDER"> F  </i>
   <i type="logical" name="LRPAFORCE"> F  </i>
   <i type="logical" name="LFXC"> F  </i>
   <i type="logical" name="LHARTREE"> T  </i>
   <i type="int" name="IBSE">     0</i>
   <v type="int" name="KPOINT">    -1     0     0     0</v>
   <i type="logical" name="LTCTE"> F  </i>
   <i type="logical" name="LTETE"> F  </i>
   <i type="logical" name="LTRIPLET"> F  </i>
   <i type="logical" name="LFXCEPS"> F  </i>
   <i type="logical" name="LFXHEG"> F  </i>
   <i type="int" name="NATURALO">     2</i>
   <i type="logical" name="L2ORDER"> F  </i>
   <i type="logical" name="LMP2LT"> F  </i>
   <i type="logical" name="LUSEW"> F  </i>
   <i name="ENCUTGW">     -2.00000000</i>
   <i name="ENCUTGWSOFT">     -2.00000000</i>
   <i name="ENCUTLF">     -1.00000000</i>
   <i type="int" name="LMAXMP2">    -1</i>
   <i name="SCISSOR">      0.00000000</i>
   <i type="int" name="NOMEGA">     0</i>
   <i type="int" name="NOMEGAR">     0</i>
   <i type="int" name="NBANDSGW">    -1</i>
   <i type="int" name="NBANDSO">    -1</i>
   <i type="int" name="NBANDSV">    -1</i>
   <i type="int" name="NELM">     1</i>
   <i type="int" name="NELMHF">     1</i>
   <i type="int" name="DIM">     3</i>
   <i type="int" name="ANTIRES">     0</i>
   <i name="OMEGAMAX">    -30.00000000</i>
   <i name="OMEGAMIN">    -30.00000000</i>
   <i name="OMEGATL">   -200.00000000</i>
   <i type="int" name="OMEGAGRID">   140</i>
   <i name="CSHIFT">      0.10000000</i>
   <i type="logical" name="SELFENERGY"> F  </i>
   <i type="logical" name="LSPECTRAL"> F  </i>
   <i type="logical" name="LSPECTRALGW"> F  </i>
   <i type="logical" name="LSINGLES"> F  </i>
   <i type="logical" name="LFERMIGW"> F  </i>
   <i type="logical" name="ODDONLYGW"> F  </i>
   <i type="logical" name="EVENONLYGW"> F  </i>
   <i type="int" name="NKREDLFX">     1</i>
   <i type="int" name="NKREDLFY">     1</i>
   <i type="int" name="NKREDLFZ">     1</i>
   <i type="int" name="MAXMEM">  2800</i>
   <i type="int" name="TELESCOPE">     0</i>
   <i type="int" name="TAUPAR">     1</i>
   <i type="int" name="OMEGAPAR">    -1</i>
   <i name="LAMBDA">      1.00000000</i>
  </separator>
  <separator name="External order field" >
   <i name="OFIELD_KAPPA">      0.00000000</i>
   <v name="OFIELD_K">      0.00000000      0.00000000      0.00000000</v>
   <i name="OFIELD_Q6_NEAR">      0.00000000</i>
   <i name="OFIELD_Q6_FAR">      0.00000000</i>
   <i name="OFIELD_A">      0.00000000</i>
  </separator>
 </parameters>
 <atominfo>
  <atoms>       8 </atoms>
  <types>       2 </types>
  <array name="atoms" >
   <dimension dim="1">ion</dimension>
   <field type="string">element</field>
   <field type="int">atomtype</field>
   <set>
    <rc><c>B </c><c>   1</c></rc>
    <rc><c>B </c><c>   1</c></rc>
    <rc><c>C </c><c>   2</c></rc>
    <rc><c>C </c><c>   2</c></rc>
    <rc><c>C </c><c>   2</c></rc>
    <rc><c>C </c><c>   2</c></rc>
    <rc><c>C </c><c>   2</c></rc>
    <rc><c>C </c><c>   2</c></rc>
   </set>
  </array>
  <array name="atomtypes" >
   <dimension dim="1">type</dimension>
   <field type="int">atomspertype</field>
   <field type="string">element</field>
   <field>mass</field>
   <field>valence</field>
   <field type="string">pseudopotential</field>
   <set>
    <rc><c>   2</c><c>B </c><c>     10.81100000</c><c>      3.00000000</c><c>  PAW_PBE B 06Sep2000                   </c></rc>
    <rc><c>   6</c><c>C </c><c>     12.01100000</c><c>      4.00000000</c><c>  PAW_PBE C 08Apr2002                   </c></rc>
   </set>
  </array>
 </atominfo>
 <structure name="initialpos" >
  <crystal>
   <varray name="basis" >
    <v>       4.48084843       2.58701885       0.00000000 </v>
    <v>      -4.48084843       2.58701885       0.00000000 </v>
    <v>       0.00000000       0.00000000       8.52022140 </v>
   </varray>
   <i name="volume">    197.53348383 </i>
   <varray name="rec_basis" >
    <v>       0.11158601       0.19327265       0.00000000 </v>
    <v>      -0.11158601       0.19327265       0.00000000 </v>
    <v>       0.00000000       0.00000000       0.11736784 </v>
   </varray>
  </crystal>
  <varray name="positions" >
   <v>       0.33333300       0.66666600       0.25000000 </v>
   <v>       0.66666600       0.33333300       0.25000000 </v>
   <v>       0.15869124       0.31738348       0.25000000 </v>
   <v>       0.31738348       0.15869124       0.25000000 </v>
   <v>       0.15869124       0.84130776       0.25000000 </v>
   <v>       0.84130776       0.15869124       0.25000000 </v>
   <v>       0.68261552       0.84130776       0.25000000 </v>
   <v>       0.84130776       0.68261552       0.25000000 </v>
  </varray>
 </structure>
 <calculation>
  <scstep>
   <time name="diag">  552.08  552.08</time>
   <time name="total">  552.18  552.18</time>
   <energy>
    <i name="alphaZ">     25.67921176 </i>
    <i name="ewald">    700.27145080 </i>
    <i name="hartreedc">  -1524.76618073 </i>
    <i name="XCdc">     91.14273073 </i>
    <i name="pawpsdc">    738.13200929 </i>
    <i name="pawaedc">   -739.83780425 </i>
    <i name="eentropy">     -0.00000000 </i>
    <i name="bandstr">   -389.26594481 </i>
    <i name="atom">   1025.20389953 </i>
    <i name="e_fr_energy">    -73.44062769 </i>
    <i name="e_wo_entrp">    -73.44062769 </i>
    <i name="e_0_energy">    -73.44062769 </i>
   </energy>
  </scstep>
  <scstep>
   <time name="diag">  575.22  575.22</time>
   <time name="total">  575.33  575.32</time>
   <energy>
    <i name="e_fr_energy">    -68.99901163 </i>
    <i name="e_wo_entrp">    -68.99901163 </i>
    <i name="e_0_energy">    -68.99901163 </i>
   </energy>
  </scstep>
  <scstep>
   <time name="diag">  561.71  561.70</time>
   <time name="total">  561.81  561.80</time>
   <energy>
    <i name="e_fr_energy">    -67.35394036 </i>
    <i name="e_wo_entrp">    -67.35394036 </i>
    <i name="e_0_energy">    -67.35394036 </i>
   </energy>
  </scstep>
  <scstep>
   <time name="diag">  572.28  572.28</time>
   <time name="total">  572.39  572.38</time>
   <energy>
    <i name="e_fr_energy">    -67.24757337 </i>
    <i name="e_wo_entrp">    -67.24757337 </i>
    <i name="e_0_energy">    -67.24757337 </i>
   </energy>
  </scstep>
  <scstep>
   <time name="diag">  591.96  591.95</time>
   <time name="total">  592.06  592.05</time>
   <energy>
    <i name="e_fr_energy">    -67.22049319 </i>
    <i name="e_wo_entrp">    -67.22049319 </i>
    <i name="e_0_energy">    -67.22049319 </i>
   </energy>
  </scstep>
  <scstep>
   <time name="diag">  905.62  988.72</time>
   <time name="total">  905.73  988.83</time>
   <energy>
    <i name="e_fr_energy">    -67.21907962 </i>
    <i name="e_wo_entrp">    -67.21907962 </i>
    <i name="e_0_energy">    -67.21907962 </i>
   </energy>
  </scstep>
  <scstep>
   <time name="diag">  984.51 1116.67</time>
   <time name="total">  984.66 1116.82</time>
   <energy>
    <i name="e_fr_energy">    -67.22295241 </i>
    <i name="e_wo_entrp">    -67.22295241 </i>
    <i name="e_0_energy">    -67.22295241 </i>
   </energy>
  </scstep>
  <scstep>
   <time name="diag"> 1008.48 1145.62</time>
   <time name="total"> 1008.75 1145.89</time>
   <energy>
    <i name="e_fr_energy">    -67.22702477 </i>
    <i name="e_wo_entrp">    -67.22702477 </i>
    <i name="e_0_energy">    -67.22702477 </i>
   </energy>
  </scstep>
  <scstep>
   <time name="diag"> 1033.93 1172.75</time>
   <time name="total"> 1034.30 1173.14</time>
   <energy>
    <i name="e_fr_energy">    -67.22770203 </i>
    <i name="e_wo_entrp">    -67.22770203 </i>
    <i name="e_0_energy">    -67.22770203 </i>
   </energy>
  </scstep>
  <scstep>
   <time name="diag"> 1050.05 1195.96</time>
   <time name="total"> 1050.41 1196.36</time>
   <energy>
    <i name="e_fr_energy">    -67.22771724 </i>
    <i name="e_wo_entrp">    -67.22771724 </i>
    <i name="e_0_energy">    -67.22771724 </i>
   </energy>
  </scstep>
  <scstep>
   <time name="diag"> 1059.62 1194.98</time>
   <time name="total"> 1059.99 1195.62</time>
   <energy>
    <i name="e_fr_energy">    -67.22773009 </i>
    <i name="e_wo_entrp">    -67.22773009 </i>
    <i name="e_0_energy">    -67.22773009 </i>
   </energy>
  </scstep>
  <scstep>
   <time name="diag"> 1019.65 1172.21</time>
   <time name="total"> 1019.84 1172.45</time>
   <energy>
    <i name="e_fr_energy">    -67.22773016 </i>
    <i name="e_wo_entrp">    -67.22773016 </i>
    <i name="e_0_energy">    -67.22773016 </i>
   </energy>
  </scstep>
  <scstep>
   <time name="diag"> 1032.60 1164.40</time>
   <time name="total"> 1032.79 1164.59</time>
   <energy>
    <i name="e_fr_energy">    -67.22773024 </i>
    <i name="e_wo_entrp">    -67.22773024 </i>
    <i name="e_0_energy">    -67.22773024 </i>
   </energy>
  </scstep>
  <scstep>
   <time name="diag"> 1042.56 1185.40</time>
   <time name="total"> 1042.73 1185.67</time>
   <energy>
    <i name="alphaZ">     25.67921176 </i>
    <i name="ewald">    700.27145080 </i>
    <i name="hartreedc">  -1646.75291199 </i>
    <i name="XCdc">     96.02426133 </i>
    <i name="pawpsdc">   2894.38113025 </i>
    <i name="pawaedc">  -2896.90834134 </i>
    <i name="eentropy">     -0.00000000 </i>
    <i name="bandstr">   -265.12643058 </i>
    <i name="atom">   1025.20389953 </i>
    <i name="e_fr_energy">    -67.22773025 </i>
    <i name="e_wo_entrp">    -67.22773025 </i>
    <i name="e_0_energy">    -67.22773025 </i>
   </energy>
  </scstep>
  <structure>
   <crystal>
    <varray name="basis" >
     <v>       4.48084843       2.58701885       0.00000000 </v>
     <v>      -4.48084843       2.58701885       0.00000000 </v>
     <v>       0.00000000       0.00000000       8.52022140 </v>
    </varray>
    <i name="volume">    197.53348383 </i>
    <varray name="rec_basis" >
     <v>       0.11158601       0.19327265       0.00000000 </v>
     <v>      -0.11158601       0.19327265       0.00000000 </v>
     <v>       0.00000000       0.00000000       0.11736784 </v>
    </varray>
   </crystal>
   <varray name="positions" >
    <v>       0.33333300       0.66666600       0.25000000 </v>
    <v>       0.66666600       0.33333300       0.25000000 </v>
    <v>       0.15869124       0.31738348       0.25000000 </v>
    <v>       0.31738348       0.15869124       0.25000000 </v>
    <v>       0.15869124       0.84130776       0.25000000 </v>
    <v>       0.84130776       0.15869124       0.25000000 </v>
    <v>       0.68261552       0.84130776       0.25000000 </v>
    <v>       0.84130776       0.68261552       0.25000000 </v>
   </varray>
  </structure>
  <varray name="forces" >
   <v>       0.00000000       0.00000000       0.00000000 </v>
   <v>       0.00000000      -0.00000000       0.00000000 </v>
   <v>      -0.00064694       0.00112054       0.00000000 </v>
   <v>       0.00064694       0.00112054      -0.00000000 </v>
   <v>       0.00129389      -0.00000000       0.00000000 </v>
   <v>      -0.00129389       0.00000000      -0.00000000 </v>
   <v>      -0.00064694      -0.00112054      -0.00000000 </v>
   <v>       0.00064694      -0.00112054       0.00000000 </v>
  </varray>
  <varray name="stress" >
   <v>      -0.53277498       0.00000000       0.00000000 </v>
   <v>       0.00000000      -0.53277489       0.00000000 </v>
   <v>       0.00000000       0.00000000      -1.27118545 </v>
  </varray>
  <energy>
   <i name="e_fr_energy">    -67.22773025 </i>
   <i name="e_wo_entrp">    -67.22773025 </i>
   <i name="e_0_energy">     -0.00000000 </i>
  </energy>
  <time name="totalsc">11996.7513198.46</time>
  <eigenvalues>
   <array>
    <dimension dim="1">band</dimension>
    <dimension dim="2">kpoint</dimension>
    <dimension dim="3">spin</dimension>
    <field>eigene</field>
    <field>occ</field>
    <set>
     <set comment="spin 1">
      <set comment="kpoint 1">
       <r>  -18.5403    1.0000 </r>
       <r>  -14.6488    1.0000 </r>
       <r>  -14.6488    1.0000 </r>
       <r>  -12.2992    1.0000 </r>
       <r>  -12.2992    1.0000 </r>
       <r>  -11.2307    1.0000 </r>
       <r>   -9.9135    1.0000 </r>
       <r>   -7.3452    1.0000 </r>
       <r>   -7.1249    1.0000 </r>
       <r>   -4.9710    1.0000 </r>
       <r>   -4.9710    1.0000 </r>
       <r>   -3.1493    1.0000 </r>
       <r>   -3.1492    1.0000 </r>
       <r>   -2.4667    1.0000 </r>
       <r>   -2.4666    1.0000 </r>
       <r>   -0.6315    0.0000 </r>
       <r>    1.1011    0.0000 </r>
       <r>    1.1012    0.0000 </r>
       <r>    1.7906    0.0000 </r>
       <r>    1.9217    0.0000 </r>
       <r>    4.5207    0.0000 </r>
       <r>    5.9130    0.0000 </r>
       <r>    6.3151    0.0000 </r>
       <r>    6.3151    0.0000 </r>
       <r>    7.6726    0.0000 </r>
       <r>    8.0796    0.0000 </r>
       <r>    8.0797    0.0000 </r>
       <r>    8.9955    0.0000 </r>
       <r>    9.1419    0.0000 </r>
       <r>    9.1419    0.0000 </r>
       <r>    9.2976    0.0000 </r>
       <r>    9.2976    0.0000 </r>
       <r>    9.5160    0.0000 </r>
       <r>   10.3273    0.0000 </r>
       <r>   10.6836    0.0000 </r>
       <r>   10.6836    0.0000 </r>
       <r>   11.3540    0.0000 </r>
       <r>   11.3541    0.0000 </r>
       <r>   11.3922    0.0000 </r>
       <r>   11.3995    0.0000 </r>
       <r>   11.9841    0.0000 </r>
       <r>   13.0008    0.0000 </r>
       <r>   13.0008    0.0000 </r>
       <r>   13.0285    0.0000 </r>
       <r>   13.1319    0.0000 </r>
       <r>   13.1319    0.0000 </r>
       <r>   13.1825    0.0000 </r>
       <r>   13.5279    0.0000 </r>
       <r>   15.6135    0.0000 </r>
       <r>   15.8008    0.0000 </r>
       <r>   15.8008    0.0000 </r>
       <r>   16.4913    0.0000 </r>
       <r>   18.2923    0.0000 </r>
       <r>   18.2923    0.0000 </r>
       <r>   18.8601    0.0000 </r>
       <r>   18.8602    0.0000 </r>
       <r>   19.1473    0.0000 </r>
       <r>   19.2290    0.0000 </r>
       <r>   19.5333    0.0000 </r>
       <r>   19.5333    0.0000 </r>
       <r>   19.7217    0.0000 </r>
       <r>   19.9888    0.0000 </r>
       <r>   19.9888    0.0000 </r>
       <r>   20.0167    0.0000 </r>
       <r>   20.4546    0.0000 </r>
       <r>   21.0813    0.0000 </r>
       <r>   21.3027    0.0000 </r>
       <r>   21.3027    0.0000 </r>
       <r>   22.8793    0.0000 </r>
       <r>   23.2968    0.0000 </r>
       <r>   23.2968    0.0000 </r>
       <r>   23.4397    0.0000 </r>
      </set>
      <set comment="kpoint 2">
       <r>  -18.5132    1.0000 </r>
       <r>  -14.7809    1.0000 </r>
       <r>  -14.6912    1.0000 </r>
       <r>  -12.3384    1.0000 </r>
       <r>  -12.2008    1.0000 </r>
       <r>  -11.0961    1.0000 </r>
       <r>   -9.7531    1.0000 </r>
       <r>   -7.3040    1.0000 </r>
       <r>   -7.1822    1.0000 </r>
       <r>   -5.0944    1.0000 </r>
       <r>   -4.9934    1.0000 </r>
       <r>   -3.2737    1.0000 </r>
       <r>   -3.1697    1.0000 </r>
       <r>   -2.6092    1.0000 </r>
       <r>   -2.5354    1.0000 </r>
       <r>   -0.8361    0.0000 </r>
       <r>    1.1605    0.0000 </r>
       <r>    1.4116    0.0000 </r>
       <r>    1.9153    0.0000 </r>
       <r>    1.9734    0.0000 </r>
       <r>    4.5728    0.0000 </r>
       <r>    5.9692    0.0000 </r>
       <r>    6.3866    0.0000 </r>
       <r>    6.4781    0.0000 </r>
       <r>    7.6627    0.0000 </r>
       <r>    8.0377    0.0000 </r>
       <r>    8.2336    0.0000 </r>
       <r>    8.2352    0.0000 </r>
       <r>    8.6808    0.0000 </r>
       <r>    8.7555    0.0000 </r>
       <r>    9.8480    0.0000 </r>
       <r>    9.8619    0.0000 </r>
       <r>    9.9124    0.0000 </r>
       <r>   10.3759    0.0000 </r>
       <r>   10.3995    0.0000 </r>
       <r>   10.4193    0.0000 </r>
       <r>   10.9077    0.0000 </r>
       <r>   11.4137    0.0000 </r>
       <r>   11.6687    0.0000 </r>
       <r>   12.0448    0.0000 </r>
       <r>   12.1516    0.0000 </r>
       <r>   12.3345    0.0000 </r>
       <r>   12.5608    0.0000 </r>
       <r>   12.8381    0.0000 </r>
       <r>   13.0972    0.0000 </r>
       <r>   13.6279    0.0000 </r>
       <r>   13.8001    0.0000 </r>
       <r>   14.2603    0.0000 </r>
       <r>   15.5623    0.0000 </r>
       <r>   15.6614    0.0000 </r>
       <r>   15.7181    0.0000 </r>
       <r>   16.2792    0.0000 </r>
       <r>   18.0211    0.0000 </r>
       <r>   18.0716    0.0000 </r>
       <r>   18.6452    0.0000 </r>
       <r>   18.9834    0.0000 </r>
       <r>   18.9928    0.0000 </r>
       <r>   19.3961    0.0000 </r>
       <r>   19.4430    0.0000 </r>
       <r>   19.8594    0.0000 </r>
       <r>   19.9227    0.0000 </r>
       <r>   19.9355    0.0000 </r>
       <r>   20.0222    0.0000 </r>
       <r>   20.0695    0.0000 </r>
       <r>   20.4469    0.0000 </r>
       <r>   20.9480    0.0000 </r>
       <r>   21.1306    0.0000 </r>
       <r>   21.1701    0.0000 </r>
       <r>   22.3006    0.0000 </r>
       <r>   22.5129    0.0000 </r>
       <r>   23.0923    0.0000 </r>
       <r>   23.5592    0.0000 </r>
      </set>
      <set comment="kpoint 3">
       <r>  -18.4341    1.0000 </r>
       <r>  -15.1059    1.0000 </r>
       <r>  -14.7954    1.0000 </r>
       <r>  -12.4549    1.0000 </r>
       <r>  -11.9317    1.0000 </r>
       <r>  -10.7149    1.0000 </r>
       <r>   -9.3237    1.0000 </r>
       <r>   -7.3645    1.0000 </r>
       <r>   -7.1816    1.0000 </r>
       <r>   -5.4404    1.0000 </r>
       <r>   -5.0296    1.0000 </r>
       <r>   -3.6157    1.0000 </r>
       <r>   -3.2240    1.0000 </r>
       <r>   -3.0165    1.0000 </r>
       <r>   -2.7272    1.0000 </r>
       <r>   -1.1839    0.0000 </r>
       <r>    1.3238    0.0000 </r>
       <r>    1.8881    0.0000 </r>
       <r>    2.1281    0.0000 </r>
       <r>    2.4358    0.0000 </r>
       <r>    4.7294    0.0000 </r>
       <r>    6.1240    0.0000 </r>
       <r>    6.5551    0.0000 </r>
       <r>    6.9440    0.0000 </r>
       <r>    6.9598    0.0000 </r>
       <r>    7.9146    0.0000 </r>
       <r>    8.1729    0.0000 </r>
       <r>    8.2020    0.0000 </r>
       <r>    8.5790    0.0000 </r>
       <r>    8.7436    0.0000 </r>
       <r>    9.0740    0.0000 </r>
       <r>    9.9077    0.0000 </r>
       <r>    9.9160    0.0000 </r>
       <r>   10.4672    0.0000 </r>
       <r>   10.5716    0.0000 </r>
       <r>   10.5788    0.0000 </r>
       <r>   10.9114    0.0000 </r>
       <r>   11.5894    0.0000 </r>
       <r>   11.8802    0.0000 </r>
       <r>   12.1077    0.0000 </r>
       <r>   12.1424    0.0000 </r>
       <r>   12.3419    0.0000 </r>
       <r>   12.6423    0.0000 </r>
       <r>   13.0075    0.0000 </r>
       <r>   13.4775    0.0000 </r>
       <r>   14.1695    0.0000 </r>
       <r>   14.3858    0.0000 </r>
       <r>   15.1545    0.0000 </r>
       <r>   15.2765    0.0000 </r>
       <r>   15.3889    0.0000 </r>
       <r>   15.7997    0.0000 </r>
       <r>   16.1743    0.0000 </r>
       <r>   17.3574    0.0000 </r>
       <r>   17.5941    0.0000 </r>
       <r>   17.8616    0.0000 </r>
       <r>   19.0273    0.0000 </r>
       <r>   19.0831    0.0000 </r>
       <r>   19.1612    0.0000 </r>
       <r>   19.5522    0.0000 </r>
       <r>   19.8344    0.0000 </r>
       <r>   19.9231    0.0000 </r>
       <r>   20.1859    0.0000 </r>
       <r>   20.2006    0.0000 </r>
       <r>   20.2953    0.0000 </r>
       <r>   20.4610    0.0000 </r>
       <r>   20.6854    0.0000 </r>
       <r>   20.9076    0.0000 </r>
       <r>   20.9177    0.0000 </r>
       <r>   20.9658    0.0000 </r>
       <r>   21.2974    0.0000 </r>
       <r>   23.1084    0.0000 </r>
       <r>   23.7417    0.0000 </r>
      </set>
      <set comment="kpoint 4">
       <r>  -18.3111    1.0000 </r>
       <r>  -15.5025    1.0000 </r>
       <r>  -14.9178    1.0000 </r>
       <r>  -12.6026    1.0000 </r>
       <r>  -11.5471    1.0000 </r>
       <r>  -10.1724    1.0000 </r>
       <r>   -8.7139    1.0000 </r>
       <r>   -7.6782    1.0000 </r>
       <r>   -6.9823    1.0000 </r>
       <r>   -5.9473    1.0000 </r>
       <r>   -5.0207    1.0000 </r>
       <r>   -4.0930    1.0000 </r>
       <r>   -3.6340    1.0000 </r>
       <r>   -3.2941    1.0000 </r>
       <r>   -3.0028    1.0000 </r>
       <r>   -1.4707    0.0000 </r>
       <r>    1.5522    0.0000 </r>
       <r>    2.2445    0.0000 </r>
       <r>    2.3849    0.0000 </r>
       <r>    3.3190    0.0000 </r>
       <r>    4.9927    0.0000 </r>
       <r>    6.0211    0.0000 </r>
       <r>    6.3584    0.0000 </r>
       <r>    6.7511    0.0000 </r>
       <r>    7.6029    0.0000 </r>
       <r>    7.8092    0.0000 </r>
       <r>    7.9266    0.0000 </r>
       <r>    8.1647    0.0000 </r>
       <r>    8.2206    0.0000 </r>
       <r>    8.9264    0.0000 </r>
       <r>    9.3180    0.0000 </r>
       <r>    9.4674    0.0000 </r>
       <r>    9.4698    0.0000 </r>
       <r>   10.1391    0.0000 </r>
       <r>   10.1768    0.0000 </r>
       <r>   11.1044    0.0000 </r>
       <r>   11.3401    0.0000 </r>
       <r>   11.7682    0.0000 </r>
       <r>   11.8214    0.0000 </r>
       <r>   12.3380    0.0000 </r>
       <r>   12.3959    0.0000 </r>
       <r>   12.5104    0.0000 </r>
       <r>   13.2333    0.0000 </r>
       <r>   13.2608    0.0000 </r>
       <r>   14.2225    0.0000 </r>
       <r>   14.4784    0.0000 </r>
       <r>   14.8590    0.0000 </r>
       <r>   15.0380    0.0000 </r>
       <r>   15.3045    0.0000 </r>
       <r>   16.0072    0.0000 </r>
       <r>   16.0964    0.0000 </r>
       <r>   16.2607    0.0000 </r>
       <r>   16.4635    0.0000 </r>
       <r>   17.1509    0.0000 </r>
       <r>   17.2038    0.0000 </r>
       <r>   18.7148    0.0000 </r>
       <r>   18.8973    0.0000 </r>
       <r>   18.9961    0.0000 </r>
       <r>   19.1637    0.0000 </r>
       <r>   19.3560    0.0000 </r>
       <r>   19.6341    0.0000 </r>
       <r>   19.6521    0.0000 </r>
       <r>   19.8567    0.0000 </r>
       <r>   20.1793    0.0000 </r>
       <r>   20.2805    0.0000 </r>
       <r>   20.6624    0.0000 </r>
       <r>   20.7056    0.0000 </r>
       <r>   21.0592    0.0000 </r>
       <r>   21.0780    0.0000 </r>
       <r>   21.4988    0.0000 </r>
       <r>   21.9505    0.0000 </r>
       <r>   22.9605    0.0000 </r>
      </set>
      <set comment="kpoint 5">
       <r>  -18.1625    1.0000 </r>
       <r>  -15.8797    1.0000 </r>
       <r>  -15.0239    1.0000 </r>
       <r>  -12.7316    1.0000 </r>
       <r>  -11.1092    1.0000 </r>
       <r>   -9.5491    1.0000 </r>
       <r>   -8.0852    1.0000 </r>
       <r>   -8.0108    1.0000 </r>
       <r>   -6.7177    1.0000 </r>
       <r>   -6.5247    1.0000 </r>
       <r>   -4.9417    1.0000 </r>
       <r>   -4.6103    1.0000 </r>
       <r>   -4.3954    1.0000 </r>
       <r>   -3.3602    1.0000 </r>
       <r>   -3.3072    1.0000 </r>
       <r>   -1.6689    0.0000 </r>
       <r>    1.7888    0.0000 </r>
       <r>    2.5685    0.0000 </r>
       <r>    2.7430    0.0000 </r>
       <r>    4.2903    0.0000 </r>
       <r>    5.1738    0.0000 </r>
       <r>    5.3723    0.0000 </r>
       <r>    6.6300    0.0000 </r>
       <r>    6.9218    0.0000 </r>
       <r>    7.4317    0.0000 </r>
       <r>    7.5747    0.0000 </r>
       <r>    7.6596    0.0000 </r>
       <r>    8.1261    0.0000 </r>
       <r>    8.5825    0.0000 </r>
       <r>    8.5992    0.0000 </r>
       <r>    9.1056    0.0000 </r>
       <r>    9.1461    0.0000 </r>
       <r>    9.8097    0.0000 </r>
       <r>    9.9117    0.0000 </r>
       <r>   10.3942    0.0000 </r>
       <r>   11.3233    0.0000 </r>
       <r>   11.5760    0.0000 </r>
       <r>   12.0495    0.0000 </r>
       <r>   12.1462    0.0000 </r>
       <r>   12.1731    0.0000 </r>
       <r>   12.2810    0.0000 </r>
       <r>   13.0014    0.0000 </r>
       <r>   13.5155    0.0000 </r>
       <r>   14.2023    0.0000 </r>
       <r>   14.2919    0.0000 </r>
       <r>   14.6098    0.0000 </r>
       <r>   14.9235    0.0000 </r>
       <r>   15.3296    0.0000 </r>
       <r>   15.4034    0.0000 </r>
       <r>   15.7518    0.0000 </r>
       <r>   16.3012    0.0000 </r>
       <r>   16.5796    0.0000 </r>
       <r>   16.6247    0.0000 </r>
       <r>   17.1348    0.0000 </r>
       <r>   17.2323    0.0000 </r>
       <r>   17.6843    0.0000 </r>
       <r>   17.8094    0.0000 </r>
       <r>   18.4659    0.0000 </r>
       <r>   18.6258    0.0000 </r>
       <r>   18.8087    0.0000 </r>
       <r>   19.7113    0.0000 </r>
       <r>   19.9249    0.0000 </r>
       <r>   20.0480    0.0000 </r>
       <r>   20.0842    0.0000 </r>
       <r>   20.2596    0.0000 </r>
       <r>   20.3208    0.0000 </r>
       <r>   20.6361    0.0000 </r>
       <r>   20.9062    0.0000 </r>
       <r>   21.0103    0.0000 </r>
       <r>   21.2642    0.0000 </r>
       <r>   21.6925    0.0000 </r>
       <r>   21.7278    0.0000 </r>
      </set>
      <set comment="kpoint 6">
       <r>  -18.0272    1.0000 </r>
       <r>  -16.1629    1.0000 </r>
       <r>  -15.0939    1.0000 </r>
       <r>  -12.8160    1.0000 </r>
       <r>  -10.7080    1.0000 </r>
       <r>   -8.9042    1.0000 </r>
       <r>   -8.4816    1.0000 </r>
       <r>   -7.5745    1.0000 </r>
       <r>   -6.7929    1.0000 </r>
       <r>   -6.4253    1.0000 </r>
       <r>   -5.2343    1.0000 </r>
       <r>   -5.0733    1.0000 </r>
       <r>   -4.8255    1.0000 </r>
       <r>   -3.5685    1.0000 </r>
       <r>   -3.4063    1.0000 </r>
       <r>   -1.7847    0.0000 </r>
       <r>    1.9692    0.0000 </r>
       <r>    2.8120    0.0000 </r>
       <r>    3.2016    0.0000 </r>
       <r>    4.4184    0.0000 </r>
       <r>    5.2007    0.0000 </r>
       <r>    5.8937    0.0000 </r>
       <r>    6.7443    0.0000 </r>
       <r>    6.7975    0.0000 </r>
       <r>    7.1991    0.0000 </r>
       <r>    7.4335    0.0000 </r>
       <r>    7.5840    0.0000 </r>
       <r>    7.7340    0.0000 </r>
       <r>    8.0166    0.0000 </r>
       <r>    8.6500    0.0000 </r>
       <r>    8.8572    0.0000 </r>
       <r>    9.5160    0.0000 </r>
       <r>    9.5495    0.0000 </r>
       <r>   10.6449    0.0000 </r>
       <r>   11.2326    0.0000 </r>
       <r>   11.2992    0.0000 </r>
       <r>   11.6977    0.0000 </r>
       <r>   11.9222    0.0000 </r>
       <r>   12.1340    0.0000 </r>
       <r>   12.1610    0.0000 </r>
       <r>   12.5332    0.0000 </r>
       <r>   13.4739    0.0000 </r>
       <r>   13.8226    0.0000 </r>
       <r>   13.9784    0.0000 </r>
       <r>   14.4402    0.0000 </r>
       <r>   14.5157    0.0000 </r>
       <r>   14.5333    0.0000 </r>
       <r>   14.8859    0.0000 </r>
       <r>   16.0731    0.0000 </r>
       <r>   16.2936    0.0000 </r>
       <r>   16.3614    0.0000 </r>
       <r>   16.4705    0.0000 </r>
       <r>   16.8056    0.0000 </r>
       <r>   17.2299    0.0000 </r>
       <r>   17.4944    0.0000 </r>
       <r>   17.5993    0.0000 </r>
       <r>   17.8535    0.0000 </r>
       <r>   18.0816    0.0000 </r>
       <r>   18.1855    0.0000 </r>
       <r>   18.3931    0.0000 </r>
       <r>   19.2319    0.0000 </r>
       <r>   19.3262    0.0000 </r>
       <r>   19.9117    0.0000 </r>
       <r>   20.0815    0.0000 </r>
       <r>   20.1586    0.0000 </r>
       <r>   20.3208    0.0000 </r>
       <r>   20.3607    0.0000 </r>
       <r>   20.5816    0.0000 </r>
       <r>   20.6691    0.0000 </r>
       <r>   21.2355    0.0000 </r>
       <r>   21.4672    0.0000 </r>
       <r>   21.5752    0.0000 </r>
      </set>
      <set comment="kpoint 7">
       <r>  -17.9687    1.0000 </r>
       <r>  -16.2722    1.0000 </r>
       <r>  -15.1182    1.0000 </r>
       <r>  -12.8452    1.0000 </r>
       <r>  -10.5233    1.0000 </r>
       <r>   -8.6674    1.0000 </r>
       <r>   -8.4603    1.0000 </r>
       <r>   -7.8540    1.0000 </r>
       <r>   -6.2579    1.0000 </r>
       <r>   -6.2284    1.0000 </r>
       <r>   -5.9752    1.0000 </r>
       <r>   -5.3004    1.0000 </r>
       <r>   -4.7629    1.0000 </r>
       <r>   -3.6806    1.0000 </r>
       <r>   -3.4227    1.0000 </r>
       <r>   -1.8229    0.0000 </r>
       <r>    2.0369    0.0000 </r>
       <r>    2.9042    0.0000 </r>
       <r>    3.7591    0.0000 </r>
       <r>    3.7616    0.0000 </r>
       <r>    5.8295    0.0000 </r>
       <r>    6.0178    0.0000 </r>
       <r>    6.6833    0.0000 </r>
       <r>    6.8324    0.0000 </r>
       <r>    7.0070    0.0000 </r>
       <r>    7.3848    0.0000 </r>
       <r>    7.5018    0.0000 </r>
       <r>    7.5244    0.0000 </r>
       <r>    7.8615    0.0000 </r>
       <r>    8.4188    0.0000 </r>
       <r>    8.7679    0.0000 </r>
       <r>    9.4538    0.0000 </r>
       <r>   10.0363    0.0000 </r>
       <r>   11.0875    0.0000 </r>
       <r>   11.2965    0.0000 </r>
       <r>   11.3093    0.0000 </r>
       <r>   11.8230    0.0000 </r>
       <r>   11.8675    0.0000 </r>
       <r>   12.0688    0.0000 </r>
       <r>   12.5005    0.0000 </r>
       <r>   12.7063    0.0000 </r>
       <r>   12.8630    0.0000 </r>
       <r>   13.6413    0.0000 </r>
       <r>   14.0529    0.0000 </r>
       <r>   14.3493    0.0000 </r>
       <r>   14.6915    0.0000 </r>
       <r>   15.0594    0.0000 </r>
       <r>   15.2109    0.0000 </r>
       <r>   15.3651    0.0000 </r>
       <r>   15.3664    0.0000 </r>
       <r>   16.6211    0.0000 </r>
       <r>   16.9789    0.0000 </r>
       <r>   17.1612    0.0000 </r>
       <r>   17.3312    0.0000 </r>
       <r>   17.3606    0.0000 </r>
       <r>   17.7409    0.0000 </r>
       <r>   18.2136    0.0000 </r>
       <r>   18.3643    0.0000 </r>
       <r>   18.5835    0.0000 </r>
       <r>   18.6120    0.0000 </r>
       <r>   18.8324    0.0000 </r>
       <r>   18.9763    0.0000 </r>
       <r>   19.1429    0.0000 </r>
       <r>   19.3566    0.0000 </r>
       <r>   19.9079    0.0000 </r>
       <r>   19.9569    0.0000 </r>
       <r>   20.0143    0.0000 </r>
       <r>   20.1817    0.0000 </r>
       <r>   20.9535    0.0000 </r>
       <r>   21.1326    0.0000 </r>
       <r>   21.6406    0.0000 </r>
       <r>   21.7580    0.0000 </r>
      </set>
      <set comment="kpoint 8">
       <r>  -18.4601    1.0000 </r>
       <r>  -14.9943    1.0000 </r>
       <r>  -14.7809    1.0000 </r>
       <r>  -12.3670    1.0000 </r>
       <r>  -12.0744    1.0000 </r>
       <r>  -10.8255    1.0000 </r>
       <r>   -9.4616    1.0000 </r>
       <r>   -7.3045    1.0000 </r>
       <r>   -7.2222    1.0000 </r>
       <r>   -5.3045    1.0000 </r>
       <r>   -5.0454    1.0000 </r>
       <r>   -3.4865    1.0000 </r>
       <r>   -3.2340    1.0000 </r>
       <r>   -2.8750    1.0000 </r>
       <r>   -2.6748    1.0000 </r>
       <r>   -1.0765    0.0000 </r>
       <r>    1.1928    0.0000 </r>
       <r>    1.9201    0.0000 </r>
       <r>    2.0766    0.0000 </r>
       <r>    2.1721    0.0000 </r>
       <r>    4.6771    0.0000 </r>
       <r>    6.0776    0.0000 </r>
       <r>    6.5380    0.0000 </r>
       <r>    6.7516    0.0000 </r>
       <r>    7.3986    0.0000 </r>
       <r>    7.5582    0.0000 </r>
       <r>    8.0759    0.0000 </r>
       <r>    8.3552    0.0000 </r>
       <r>    8.5474    0.0000 </r>
       <r>    9.2291    0.0000 </r>
       <r>    9.4118    0.0000 </r>
       <r>    9.5260    0.0000 </r>
       <r>    9.6858    0.0000 </r>
       <r>   10.2460    0.0000 </r>
       <r>   10.7998    0.0000 </r>
       <r>   10.8126    0.0000 </r>
       <r>   11.1324    0.0000 </r>
       <r>   11.4092    0.0000 </r>
       <r>   11.5924    0.0000 </r>
       <r>   11.7043    0.0000 </r>
       <r>   12.1663    0.0000 </r>
       <r>   12.7034    0.0000 </r>
       <r>   12.7084    0.0000 </r>
       <r>   13.2664    0.0000 </r>
       <r>   13.2707    0.0000 </r>
       <r>   13.3116    0.0000 </r>
       <r>   14.6751    0.0000 </r>
       <r>   14.8541    0.0000 </r>
       <r>   15.0942    0.0000 </r>
       <r>   15.7535    0.0000 </r>
       <r>   15.7542    0.0000 </r>
       <r>   16.0620    0.0000 </r>
       <r>   17.5711    0.0000 </r>
       <r>   17.7323    0.0000 </r>
       <r>   18.0866    0.0000 </r>
       <r>   18.7975    0.0000 </r>
       <r>   19.2809    0.0000 </r>
       <r>   19.3447    0.0000 </r>
       <r>   19.6799    0.0000 </r>
       <r>   19.7002    0.0000 </r>
       <r>   19.7886    0.0000 </r>
       <r>   19.9487    0.0000 </r>
       <r>   20.3937    0.0000 </r>
       <r>   20.4966    0.0000 </r>
       <r>   20.5031    0.0000 </r>
       <r>   20.6163    0.0000 </r>
       <r>   20.7882    0.0000 </r>
       <r>   20.9393    0.0000 </r>
       <r>   21.1718    0.0000 </r>
       <r>   22.5187    0.0000 </r>
       <r>   22.5238    0.0000 </r>
       <r>   23.2618    0.0000 </r>
      </set>
      <set comment="kpoint 9">
       <r>  -18.3587    1.0000 </r>
       <r>  -15.3297    1.0000 </r>
       <r>  -14.9244    1.0000 </r>
       <r>  -12.4374    1.0000 </r>
       <r>  -11.8221    1.0000 </r>
       <r>  -10.3336    1.0000 </r>
       <r>   -8.9537    1.0000 </r>
       <r>   -7.5669    1.0000 </r>
       <r>   -7.0611    1.0000 </r>
       <r>   -5.6745    1.0000 </r>
       <r>   -5.1027    1.0000 </r>
       <r>   -3.8636    1.0000 </r>
       <r>   -3.3655    1.0000 </r>
       <r>   -3.3565    1.0000 </r>
       <r>   -2.9300    1.0000 </r>
       <r>   -1.3035    0.0000 </r>
       <r>    1.2600    0.0000 </r>
       <r>    2.2825    0.0000 </r>
       <r>    2.4279    0.0000 </r>
       <r>    2.8510    0.0000 </r>
       <r>    4.8861    0.0000 </r>
       <r>    6.2808    0.0000 </r>
       <r>    6.5078    0.0000 </r>
       <r>    6.7723    0.0000 </r>
       <r>    7.1502    0.0000 </r>
       <r>    7.2481    0.0000 </r>
       <r>    8.2401    0.0000 </r>
       <r>    8.6339    0.0000 </r>
       <r>    8.6392    0.0000 </r>
       <r>    9.0266    0.0000 </r>
       <r>    9.0745    0.0000 </r>
       <r>    9.1530    0.0000 </r>
       <r>    9.7711    0.0000 </r>
       <r>   10.1428    0.0000 </r>
       <r>   10.4882    0.0000 </r>
       <r>   10.5456    0.0000 </r>
       <r>   11.0698    0.0000 </r>
       <r>   11.7230    0.0000 </r>
       <r>   11.9531    0.0000 </r>
       <r>   12.1359    0.0000 </r>
       <r>   12.5589    0.0000 </r>
       <r>   12.9163    0.0000 </r>
       <r>   13.0498    0.0000 </r>
       <r>   13.1819    0.0000 </r>
       <r>   13.7879    0.0000 </r>
       <r>   13.8784    0.0000 </r>
       <r>   14.6673    0.0000 </r>
       <r>   15.0635    0.0000 </r>
       <r>   15.6424    0.0000 </r>
       <r>   15.7272    0.0000 </r>
       <r>   15.9300    0.0000 </r>
       <r>   16.1285    0.0000 </r>
       <r>   16.9985    0.0000 </r>
       <r>   17.2342    0.0000 </r>
       <r>   17.4622    0.0000 </r>
       <r>   18.5950    0.0000 </r>
       <r>   18.8063    0.0000 </r>
       <r>   19.1417    0.0000 </r>
       <r>   19.3697    0.0000 </r>
       <r>   19.5440    0.0000 </r>
       <r>   19.7248    0.0000 </r>
       <r>   19.8257    0.0000 </r>
       <r>   20.1113    0.0000 </r>
       <r>   20.3707    0.0000 </r>
       <r>   20.4668    0.0000 </r>
       <r>   20.6286    0.0000 </r>
       <r>   20.9226    0.0000 </r>
       <r>   21.0740    0.0000 </r>
       <r>   21.1664    0.0000 </r>
       <r>   21.4502    0.0000 </r>
       <r>   22.1496    0.0000 </r>
       <r>   22.6793    0.0000 </r>
      </set>
      <set comment="kpoint 10">
       <r>  -18.2216    1.0000 </r>
       <r>  -15.7004    1.0000 </r>
       <r>  -15.0616    1.0000 </r>
       <r>  -12.5469    1.0000 </r>
       <r>  -11.4382    1.0000 </r>
       <r>   -9.7295    1.0000 </r>
       <r>   -8.3073    1.0000 </r>
       <r>   -7.9559    1.0000 </r>
       <r>   -6.8281    1.0000 </r>
       <r>   -6.1688    1.0000 </r>
       <r>   -5.0887    1.0000 </r>
       <r>   -4.3446    1.0000 </r>
       <r>   -4.0291    1.0000 </r>
       <r>   -3.4802    1.0000 </r>
       <r>   -3.2435    1.0000 </r>
       <r>   -1.4533    0.0000 </r>
       <r>    1.3910    0.0000 </r>
       <r>    2.5899    0.0000 </r>
       <r>    2.8067    0.0000 </r>
       <r>    3.7951    0.0000 </r>
       <r>    5.2029    0.0000 </r>
       <r>    5.6251    0.0000 </r>
       <r>    6.5571    0.0000 </r>
       <r>    6.7674    0.0000 </r>
       <r>    7.0737    0.0000 </r>
       <r>    7.8279    0.0000 </r>
       <r>    7.9147    0.0000 </r>
       <r>    8.3378    0.0000 </r>
       <r>    8.6659    0.0000 </r>
       <r>    8.6990    0.0000 </r>
       <r>    9.1704    0.0000 </r>
       <r>    9.2839    0.0000 </r>
       <r>    9.7390    0.0000 </r>
       <r>    9.9807    0.0000 </r>
       <r>   10.0715    0.0000 </r>
       <r>   10.8298    0.0000 </r>
       <r>   11.0001    0.0000 </r>
       <r>   12.0982    0.0000 </r>
       <r>   12.1244    0.0000 </r>
       <r>   12.5786    0.0000 </r>
       <r>   12.8305    0.0000 </r>
       <r>   12.9172    0.0000 </r>
       <r>   13.4026    0.0000 </r>
       <r>   13.7595    0.0000 </r>
       <r>   14.2720    0.0000 </r>
       <r>   14.3241    0.0000 </r>
       <r>   14.7098    0.0000 </r>
       <r>   14.9550    0.0000 </r>
       <r>   15.6340    0.0000 </r>
       <r>   15.9762    0.0000 </r>
       <r>   16.1911    0.0000 </r>
       <r>   16.4212    0.0000 </r>
       <r>   16.6714    0.0000 </r>
       <r>   17.0105    0.0000 </r>
       <r>   17.3281    0.0000 </r>
       <r>   17.5761    0.0000 </r>
       <r>   18.4350    0.0000 </r>
       <r>   18.8089    0.0000 </r>
       <r>   19.0964    0.0000 </r>
       <r>   19.1508    0.0000 </r>
       <r>   19.2617    0.0000 </r>
       <r>   19.6154    0.0000 </r>
       <r>   19.8877    0.0000 </r>
       <r>   20.0871    0.0000 </r>
       <r>   20.3315    0.0000 </r>
       <r>   20.5944    0.0000 </r>
       <r>   20.7302    0.0000 </r>
       <r>   21.0003    0.0000 </r>
       <r>   21.4442    0.0000 </r>
       <r>   21.4587    0.0000 </r>
       <r>   21.6178    0.0000 </r>
       <r>   21.9149    0.0000 </r>
      </set>
      <set comment="kpoint 11">
       <r>  -18.0756    1.0000 </r>
       <r>  -16.0252    1.0000 </r>
       <r>  -15.1634    1.0000 </r>
       <r>  -12.6404    1.0000 </r>
       <r>  -11.0116    1.0000 </r>
       <r>   -9.0961    1.0000 </r>
       <r>   -8.3956    1.0000 </r>
       <r>   -7.6307    1.0000 </r>
       <r>   -6.6685    1.0000 </r>
       <r>   -6.5435    1.0000 </r>
       <r>   -5.0399    1.0000 </r>
       <r>   -4.8339    1.0000 </r>
       <r>   -4.7659    1.0000 </r>
       <r>   -3.5742    1.0000 </r>
       <r>   -3.5495    1.0000 </r>
       <r>   -1.5440    0.0000 </r>
       <r>    1.5375    0.0000 </r>
       <r>    2.9983    0.0000 </r>
       <r>    3.1243    0.0000 </r>
       <r>    4.7554    0.0000 </r>
       <r>    4.8227    0.0000 </r>
       <r>    5.6422    0.0000 </r>
       <r>    6.5803    0.0000 </r>
       <r>    6.9203    0.0000 </r>
       <r>    7.0832    0.0000 </r>
       <r>    7.1993    0.0000 </r>
       <r>    8.0687    0.0000 </r>
       <r>    8.1881    0.0000 </r>
       <r>    8.4265    0.0000 </r>
       <r>    8.7179    0.0000 </r>
       <r>    8.8474    0.0000 </r>
       <r>    9.0897    0.0000 </r>
       <r>    9.7103    0.0000 </r>
       <r>   10.2321    0.0000 </r>
       <r>   10.6019    0.0000 </r>
       <r>   11.0090    0.0000 </r>
       <r>   11.6887    0.0000 </r>
       <r>   12.0284    0.0000 </r>
       <r>   12.1822    0.0000 </r>
       <r>   12.5784    0.0000 </r>
       <r>   12.6707    0.0000 </r>
       <r>   13.2500    0.0000 </r>
       <r>   13.6798    0.0000 </r>
       <r>   14.0947    0.0000 </r>
       <r>   14.3039    0.0000 </r>
       <r>   14.4920    0.0000 </r>
       <r>   14.8849    0.0000 </r>
       <r>   15.2102    0.0000 </r>
       <r>   15.2365    0.0000 </r>
       <r>   16.1354    0.0000 </r>
       <r>   16.5526    0.0000 </r>
       <r>   16.5876    0.0000 </r>
       <r>   16.8810    0.0000 </r>
       <r>   17.0073    0.0000 </r>
       <r>   17.0822    0.0000 </r>
       <r>   17.7143    0.0000 </r>
       <r>   18.0642    0.0000 </r>
       <r>   18.2106    0.0000 </r>
       <r>   18.3640    0.0000 </r>
       <r>   18.4602    0.0000 </r>
       <r>   19.3009    0.0000 </r>
       <r>   19.5575    0.0000 </r>
       <r>   19.6724    0.0000 </r>
       <r>   19.7642    0.0000 </r>
       <r>   20.2203    0.0000 </r>
       <r>   20.3520    0.0000 </r>
       <r>   20.6519    0.0000 </r>
       <r>   20.8933    0.0000 </r>
       <r>   20.9733    0.0000 </r>
       <r>   21.4474    0.0000 </r>
       <r>   21.4870    0.0000 </r>
       <r>   21.8863    0.0000 </r>
      </set>
      <set comment="kpoint 12">
       <r>  -17.9725    1.0000 </r>
       <r>  -16.2237    1.0000 </r>
       <r>  -15.2167    1.0000 </r>
       <r>  -12.6918    1.0000 </r>
       <r>  -10.6841    1.0000 </r>
       <r>   -8.8037    1.0000 </r>
       <r>   -8.4393    1.0000 </r>
       <r>   -7.5709    1.0000 </r>
       <r>   -6.4910    1.0000 </r>
       <r>   -6.2836    1.0000 </r>
       <r>   -5.6651    1.0000 </r>
       <r>   -5.2067    1.0000 </r>
       <r>   -4.8631    1.0000 </r>
       <r>   -3.7590    1.0000 </r>
       <r>   -3.6241    1.0000 </r>
       <r>   -1.5880    0.0000 </r>
       <r>    1.6337    0.0000 </r>
       <r>    3.3120    0.0000 </r>
       <r>    3.5072    0.0000 </r>
       <r>    4.1157    0.0000 </r>
       <r>    5.5886    0.0000 </r>
       <r>    6.1336    0.0000 </r>
       <r>    6.4948    0.0000 </r>
       <r>    6.5320    0.0000 </r>
       <r>    7.1185    0.0000 </r>
       <r>    7.2599    0.0000 </r>
       <r>    7.4693    0.0000 </r>
       <r>    7.9843    0.0000 </r>
       <r>    8.3677    0.0000 </r>
       <r>    8.5249    0.0000 </r>
       <r>    8.5648    0.0000 </r>
       <r>    9.4992    0.0000 </r>
       <r>    9.7749    0.0000 </r>
       <r>   10.4077    0.0000 </r>
       <r>   11.1312    0.0000 </r>
       <r>   11.8728    0.0000 </r>
       <r>   11.9166    0.0000 </r>
       <r>   11.9281    0.0000 </r>
       <r>   11.9614    0.0000 </r>
       <r>   12.4084    0.0000 </r>
       <r>   12.6492    0.0000 </r>
       <r>   13.0146    0.0000 </r>
       <r>   13.9476    0.0000 </r>
       <r>   13.9755    0.0000 </r>
       <r>   14.2875    0.0000 </r>
       <r>   14.3681    0.0000 </r>
       <r>   15.0071    0.0000 </r>
       <r>   15.0551    0.0000 </r>
       <r>   15.5229    0.0000 </r>
       <r>   15.8458    0.0000 </r>
       <r>   16.5975    0.0000 </r>
       <r>   17.0422    0.0000 </r>
       <r>   17.1281    0.0000 </r>
       <r>   17.4167    0.0000 </r>
       <r>   17.4738    0.0000 </r>
       <r>   17.5299    0.0000 </r>
       <r>   17.9574    0.0000 </r>
       <r>   18.0364    0.0000 </r>
       <r>   18.1885    0.0000 </r>
       <r>   18.5297    0.0000 </r>
       <r>   18.6499    0.0000 </r>
       <r>   18.9250    0.0000 </r>
       <r>   19.4415    0.0000 </r>
       <r>   19.8337    0.0000 </r>
       <r>   19.9578    0.0000 </r>
       <r>   20.0548    0.0000 </r>
       <r>   20.3809    0.0000 </r>
       <r>   20.4340    0.0000 </r>
       <r>   20.6765    0.0000 </r>
       <r>   21.4236    0.0000 </r>
       <r>   21.4765    0.0000 </r>
       <r>   21.9861    0.0000 </r>
      </set>
      <set comment="kpoint 13">
       <r>  -18.2423    1.0000 </r>
       <r>  -15.5946    1.0000 </r>
       <r>  -15.1334    1.0000 </r>
       <r>  -12.3267    1.0000 </r>
       <r>  -11.7182    1.0000 </r>
       <r>   -9.7514    1.0000 </r>
       <r>   -8.4235    1.0000 </r>
       <r>   -7.9297    1.0000 </r>
       <r>   -6.8657    1.0000 </r>
       <r>   -5.9215    1.0000 </r>
       <r>   -5.2465    1.0000 </r>
       <r>   -4.1761    1.0000 </r>
       <r>   -3.8607    1.0000 </r>
       <r>   -3.6321    1.0000 </r>
       <r>   -3.2639    1.0000 </r>
       <r>   -1.2839    0.0000 </r>
       <r>    1.1312    0.0000 </r>
       <r>    2.5390    0.0000 </r>
       <r>    3.2334    0.0000 </r>
       <r>    3.3406    0.0000 </r>
       <r>    5.1459    0.0000 </r>
       <r>    6.1570    0.0000 </r>
       <r>    6.1840    0.0000 </r>
       <r>    6.5511    0.0000 </r>
       <r>    7.2517    0.0000 </r>
       <r>    7.4875    0.0000 </r>
       <r>    8.1543    0.0000 </r>
       <r>    8.4357    0.0000 </r>
       <r>    8.5197    0.0000 </r>
       <r>    9.2339    0.0000 </r>
       <r>    9.2540    0.0000 </r>
       <r>    9.3888    0.0000 </r>
       <r>    9.6763    0.0000 </r>
       <r>    9.9552    0.0000 </r>
       <r>   10.2174    0.0000 </r>
       <r>   10.2839    0.0000 </r>
       <r>   10.4107    0.0000 </r>
       <r>   12.1075    0.0000 </r>
       <r>   12.2675    0.0000 </r>
       <r>   12.9348    0.0000 </r>
       <r>   13.2035    0.0000 </r>
       <r>   13.3180    0.0000 </r>
       <r>   13.4217    0.0000 </r>
       <r>   13.6038    0.0000 </r>
       <r>   13.7449    0.0000 </r>
       <r>   13.8856    0.0000 </r>
       <r>   14.3433    0.0000 </r>
       <r>   15.0667    0.0000 </r>
       <r>   15.5160    0.0000 </r>
       <r>   16.1575    0.0000 </r>
       <r>   16.1977    0.0000 </r>
       <r>   16.3722    0.0000 </r>
       <r>   16.8962    0.0000 </r>
       <r>   17.1998    0.0000 </r>
       <r>   17.3524    0.0000 </r>
       <r>   17.4870    0.0000 </r>
       <r>   18.3669    0.0000 </r>
       <r>   18.7180    0.0000 </r>
       <r>   19.0151    0.0000 </r>
       <r>   19.2652    0.0000 </r>
       <r>   19.3598    0.0000 </r>
       <r>   19.5902    0.0000 </r>
       <r>   20.0268    0.0000 </r>
       <r>   20.3129    0.0000 </r>
       <r>   20.3463    0.0000 </r>
       <r>   20.8500    0.0000 </r>
       <r>   21.1173    0.0000 </r>
       <r>   21.1262    0.0000 </r>
       <r>   21.3102    0.0000 </r>
       <r>   21.5558    0.0000 </r>
       <r>   21.6803    0.0000 </r>
       <r>   21.6901    0.0000 </r>
      </set>
      <set comment="kpoint 14">
       <r>  -18.1037    1.0000 </r>
       <r>  -15.8717    1.0000 </r>
       <r>  -15.3171    1.0000 </r>
       <r>  -12.2968    1.0000 </r>
       <r>  -11.4379    1.0000 </r>
       <r>   -9.1205    1.0000 </r>
       <r>   -8.3761    1.0000 </r>
       <r>   -7.7953    1.0000 </r>
       <r>   -6.6081    1.0000 </r>
       <r>   -6.2644    1.0000 </r>
       <r>   -5.3186    1.0000 </r>
       <r>   -4.5716    1.0000 </r>
       <r>   -4.4650    1.0000 </r>
       <r>   -3.8735    1.0000 </r>
       <r>   -3.6394    1.0000 </r>
       <r>   -1.1996    0.0000 </r>
       <r>    1.0639    0.0000 </r>
       <r>    2.8970    0.0000 </r>
       <r>    3.6622    0.0000 </r>
       <r>    4.2506    0.0000 </r>
       <r>    5.3268    0.0000 </r>
       <r>    5.5089    0.0000 </r>
       <r>    5.9261    0.0000 </r>
       <r>    6.8987    0.0000 </r>
       <r>    7.4604    0.0000 </r>
       <r>    7.4938    0.0000 </r>
       <r>    7.9953    0.0000 </r>
       <r>    8.0582    0.0000 </r>
       <r>    8.6104    0.0000 </r>
       <r>    8.6818    0.0000 </r>
       <r>    9.3542    0.0000 </r>
       <r>    9.5055    0.0000 </r>
       <r>    9.7054    0.0000 </r>
       <r>    9.8064    0.0000 </r>
       <r>   10.2744    0.0000 </r>
       <r>   10.4720    0.0000 </r>
       <r>   10.7500    0.0000 </r>
       <r>   12.3322    0.0000 </r>
       <r>   12.6517    0.0000 </r>
       <r>   12.9735    0.0000 </r>
       <r>   13.2991    0.0000 </r>
       <r>   13.3034    0.0000 </r>
       <r>   13.5833    0.0000 </r>
       <r>   13.9434    0.0000 </r>
       <r>   14.0663    0.0000 </r>
       <r>   14.2054    0.0000 </r>
       <r>   14.4722    0.0000 </r>
       <r>   15.1626    0.0000 </r>
       <r>   15.4299    0.0000 </r>
       <r>   16.0510    0.0000 </r>
       <r>   16.4786    0.0000 </r>
       <r>   16.5319    0.0000 </r>
       <r>   16.6870    0.0000 </r>
       <r>   16.8877    0.0000 </r>
       <r>   17.2496    0.0000 </r>
       <r>   17.8049    0.0000 </r>
       <r>   18.2329    0.0000 </r>
       <r>   18.4619    0.0000 </r>
       <r>   18.5689    0.0000 </r>
       <r>   18.8895    0.0000 </r>
       <r>   18.9923    0.0000 </r>
       <r>   19.4225    0.0000 </r>
       <r>   19.5959    0.0000 </r>
       <r>   19.6521    0.0000 </r>
       <r>   20.0626    0.0000 </r>
       <r>   20.5689    0.0000 </r>
       <r>   20.6138    0.0000 </r>
       <r>   20.6398    0.0000 </r>
       <r>   21.4961    0.0000 </r>
       <r>   21.6968    0.0000 </r>
       <r>   21.9591    0.0000 </r>
       <r>   22.0665    0.0000 </r>
      </set>
      <set comment="kpoint 15">
       <r>  -17.9801    1.0000 </r>
       <r>  -16.0976    1.0000 </r>
       <r>  -15.4298    1.0000 </r>
       <r>  -12.3214    1.0000 </r>
       <r>  -11.0771    1.0000 </r>
       <r>   -8.9724    1.0000 </r>
       <r>   -8.3329    1.0000 </r>
       <r>   -7.2613    1.0000 </r>
       <r>   -6.5698    1.0000 </r>
       <r>   -6.3281    1.0000 </r>
       <r>   -5.4537    1.0000 </r>
       <r>   -4.9770    1.0000 </r>
       <r>   -4.9741    1.0000 </r>
       <r>   -4.0100    1.0000 </r>
       <r>   -3.9555    1.0000 </r>
       <r>   -1.1306    0.0000 </r>
       <r>    1.0489    0.0000 </r>
       <r>    3.3557    0.0000 </r>
       <r>    3.9513    0.0000 </r>
       <r>    4.5722    0.0000 </r>
       <r>    5.1717    0.0000 </r>
       <r>    5.7779    0.0000 </r>
       <r>    5.9790    0.0000 </r>
       <r>    6.7564    0.0000 </r>
       <r>    7.3143    0.0000 </r>
       <r>    7.4811    0.0000 </r>
       <r>    7.5963    0.0000 </r>
       <r>    8.1315    0.0000 </r>
       <r>    8.3864    0.0000 </r>
       <r>    8.7379    0.0000 </r>
       <r>    9.2083    0.0000 </r>
       <r>    9.4588    0.0000 </r>
       <r>    9.4842    0.0000 </r>
       <r>    9.6928    0.0000 </r>
       <r>   10.9083    0.0000 </r>
       <r>   11.0681    0.0000 </r>
       <r>   11.5383    0.0000 </r>
       <r>   12.1838    0.0000 </r>
       <r>   12.3779    0.0000 </r>
       <r>   12.8229    0.0000 </r>
       <r>   13.0796    0.0000 </r>
       <r>   13.0926    0.0000 </r>
       <r>   13.8537    0.0000 </r>
       <r>   14.1111    0.0000 </r>
       <r>   14.2108    0.0000 </r>
       <r>   14.3247    0.0000 </r>
       <r>   14.9056    0.0000 </r>
       <r>   14.9378    0.0000 </r>
       <r>   15.7047    0.0000 </r>
       <r>   15.8549    0.0000 </r>
       <r>   16.7299    0.0000 </r>
       <r>   16.7796    0.0000 </r>
       <r>   16.9107    0.0000 </r>
       <r>   17.2193    0.0000 </r>
       <r>   17.4411    0.0000 </r>
       <r>   17.5170    0.0000 </r>
       <r>   17.9788    0.0000 </r>
       <r>   18.1213    0.0000 </r>
       <r>   18.4264    0.0000 </r>
       <r>   18.4932    0.0000 </r>
       <r>   18.5154    0.0000 </r>
       <r>   18.8225    0.0000 </r>
       <r>   19.1116    0.0000 </r>
       <r>   19.6460    0.0000 </r>
       <r>   19.7748    0.0000 </r>
       <r>   20.6746    0.0000 </r>
       <r>   20.7039    0.0000 </r>
       <r>   20.7977    0.0000 </r>
       <r>   21.3880    0.0000 </r>
       <r>   21.4360    0.0000 </r>
       <r>   21.9344    0.0000 </r>
       <r>   21.9954    0.0000 </r>
      </set>
      <set comment="kpoint 16">
       <r>  -17.9277    1.0000 </r>
       <r>  -16.1875    1.0000 </r>
       <r>  -15.4670    1.0000 </r>
       <r>  -12.3351    1.0000 </r>
       <r>  -10.8914    1.0000 </r>
       <r>   -9.1568    1.0000 </r>
       <r>   -7.9544    1.0000 </r>
       <r>   -7.3553    1.0000 </r>
       <r>   -6.2381    1.0000 </r>
       <r>   -6.1730    1.0000 </r>
       <r>   -5.9420    1.0000 </r>
       <r>   -5.1767    1.0000 </r>
       <r>   -5.0349    1.0000 </r>
       <r>   -4.0904    1.0000 </r>
       <r>   -4.0533    1.0000 </r>
       <r>   -1.1062    0.0000 </r>
       <r>    1.0502    0.0000 </r>
       <r>    3.9109    0.0000 </r>
       <r>    3.9180    0.0000 </r>
       <r>    4.0594    0.0000 </r>
       <r>    5.7284    0.0000 </r>
       <r>    5.8797    0.0000 </r>
       <r>    6.0777    0.0000 </r>
       <r>    6.5092    0.0000 </r>
       <r>    6.9436    0.0000 </r>
       <r>    7.5530    0.0000 </r>
       <r>    7.7874    0.0000 </r>
       <r>    7.9911    0.0000 </r>
       <r>    8.0021    0.0000 </r>
       <r>    8.8220    0.0000 </r>
       <r>    9.2908    0.0000 </r>
       <r>    9.3644    0.0000 </r>
       <r>    9.6600    0.0000 </r>
       <r>    9.7238    0.0000 </r>
       <r>   10.9364    0.0000 </r>
       <r>   11.7395    0.0000 </r>
       <r>   11.8370    0.0000 </r>
       <r>   12.0132    0.0000 </r>
       <r>   12.2837    0.0000 </r>
       <r>   12.3629    0.0000 </r>
       <r>   12.9925    0.0000 </r>
       <r>   13.1554    0.0000 </r>
       <r>   14.0170    0.0000 </r>
       <r>   14.0505    0.0000 </r>
       <r>   14.1697    0.0000 </r>
       <r>   14.3469    0.0000 </r>
       <r>   14.6281    0.0000 </r>
       <r>   15.3097    0.0000 </r>
       <r>   15.4128    0.0000 </r>
       <r>   16.5966    0.0000 </r>
       <r>   16.6867    0.0000 </r>
       <r>   17.0899    0.0000 </r>
       <r>   17.1150    0.0000 </r>
       <r>   17.2565    0.0000 </r>
       <r>   17.2695    0.0000 </r>
       <r>   17.5684    0.0000 </r>
       <r>   17.6316    0.0000 </r>
       <r>   17.7297    0.0000 </r>
       <r>   17.9631    0.0000 </r>
       <r>   18.5840    0.0000 </r>
       <r>   18.8344    0.0000 </r>
       <r>   18.8463    0.0000 </r>
       <r>   19.1801    0.0000 </r>
       <r>   19.2614    0.0000 </r>
       <r>   19.4256    0.0000 </r>
       <r>   20.4368    0.0000 </r>
       <r>   20.8612    0.0000 </r>
       <r>   21.0545    0.0000 </r>
       <r>   21.0941    0.0000 </r>
       <r>   21.2846    0.0000 </r>
       <r>   21.7313    0.0000 </r>
       <r>   22.1843    0.0000 </r>
      </set>
      <set comment="kpoint 17">
       <r>  -17.9837    1.0000 </r>
       <r>  -15.9999    1.0000 </r>
       <r>  -15.5660    1.0000 </r>
       <r>  -12.0256    1.0000 </r>
       <r>  -11.3863    1.0000 </r>
       <r>   -9.0296    1.0000 </r>
       <r>   -8.2677    1.0000 </r>
       <r>   -7.2565    1.0000 </r>
       <r>   -6.3795    1.0000 </r>
       <r>   -6.3477    1.0000 </r>
       <r>   -5.5925    1.0000 </r>
       <r>   -4.8681    1.0000 </r>
       <r>   -4.7863    1.0000 </r>
       <r>   -4.2577    1.0000 </r>
       <r>   -4.0964    1.0000 </r>
       <r>   -0.8660    0.0000 </r>
       <r>    0.7476    0.0000 </r>
       <r>    3.3053    0.0000 </r>
       <r>    4.4813    0.0000 </r>
       <r>    4.7155    0.0000 </r>
       <r>    5.1173    0.0000 </r>
       <r>    5.1385    0.0000 </r>
       <r>    5.8980    0.0000 </r>
       <r>    6.9762    0.0000 </r>
       <r>    7.3118    0.0000 </r>
       <r>    7.4640    0.0000 </r>
       <r>    7.9765    0.0000 </r>
       <r>    8.1126    0.0000 </r>
       <r>    8.2550    0.0000 </r>
       <r>    8.9047    0.0000 </r>
       <r>    9.0557    0.0000 </r>
       <r>    9.4083    0.0000 </r>
       <r>    9.4570    0.0000 </r>
       <r>   10.2724    0.0000 </r>
       <r>   10.5788    0.0000 </r>
       <r>   10.5887    0.0000 </r>
       <r>   11.0151    0.0000 </r>
       <r>   12.2909    0.0000 </r>
       <r>   12.6909    0.0000 </r>
       <r>   12.7645    0.0000 </r>
       <r>   13.4885    0.0000 </r>
       <r>   13.6843    0.0000 </r>
       <r>   13.7528    0.0000 </r>
       <r>   13.8501    0.0000 </r>
       <r>   14.1720    0.0000 </r>
       <r>   14.3742    0.0000 </r>
       <r>   14.4336    0.0000 </r>
       <r>   14.8563    0.0000 </r>
       <r>   16.0035    0.0000 </r>
       <r>   16.1042    0.0000 </r>
       <r>   16.5091    0.0000 </r>
       <r>   16.5364    0.0000 </r>
       <r>   16.8469    0.0000 </r>
       <r>   17.1282    0.0000 </r>
       <r>   17.3452    0.0000 </r>
       <r>   17.4290    0.0000 </r>
       <r>   17.9958    0.0000 </r>
       <r>   18.1474    0.0000 </r>
       <r>   18.4389    0.0000 </r>
       <r>   18.6264    0.0000 </r>
       <r>   18.6765    0.0000 </r>
       <r>   18.9675    0.0000 </r>
       <r>   19.2054    0.0000 </r>
       <r>   19.4775    0.0000 </r>
       <r>   20.1335    0.0000 </r>
       <r>   20.1360    0.0000 </r>
       <r>   20.9800    0.0000 </r>
       <r>   21.0570    0.0000 </r>
       <r>   21.1419    0.0000 </r>
       <r>   21.5280    0.0000 </r>
       <r>   22.0188    0.0000 </r>
       <r>   22.1169    0.0000 </r>
      </set>
      <set comment="kpoint 18">
       <r>  -17.9035    1.0000 </r>
       <r>  -16.0734    1.0000 </r>
       <r>  -15.7140    1.0000 </r>
       <r>  -11.9033    1.0000 </r>
       <r>  -11.2356    1.0000 </r>
       <r>   -9.3725    1.0000 </r>
       <r>   -7.6539    1.0000 </r>
       <r>   -6.9970    1.0000 </r>
       <r>   -6.4838    1.0000 </r>
       <r>   -6.1271    1.0000 </r>
       <r>   -5.8405    1.0000 </r>
       <r>   -5.0821    1.0000 </r>
       <r>   -4.9870    1.0000 </r>
       <r>   -4.4628    1.0000 </r>
       <r>   -4.4486    1.0000 </r>
       <r>   -0.6039    0.0000 </r>
       <r>    0.5137    0.0000 </r>
       <r>    3.8140    0.0000 </r>
       <r>    4.4221    0.0000 </r>
       <r>    4.7973    0.0000 </r>
       <r>    5.0285    0.0000 </r>
       <r>    5.4990    0.0000 </r>
       <r>    6.2768    0.0000 </r>
       <r>    6.3566    0.0000 </r>
       <r>    7.0694    0.0000 </r>
       <r>    7.5416    0.0000 </r>
       <r>    7.8028    0.0000 </r>
       <r>    8.2056    0.0000 </r>
       <r>    8.3953    0.0000 </r>
       <r>    8.9516    0.0000 </r>
       <r>    9.0224    0.0000 </r>
       <r>    9.2379    0.0000 </r>
       <r>    9.4084    0.0000 </r>
       <r>   10.3522    0.0000 </r>
       <r>   10.7582    0.0000 </r>
       <r>   11.0447    0.0000 </r>
       <r>   11.4016    0.0000 </r>
       <r>   11.8592    0.0000 </r>
       <r>   12.1080    0.0000 </r>
       <r>   12.9907    0.0000 </r>
       <r>   13.5848    0.0000 </r>
       <r>   13.6634    0.0000 </r>
       <r>   13.8848    0.0000 </r>
       <r>   13.9056    0.0000 </r>
       <r>   14.0140    0.0000 </r>
       <r>   14.4976    0.0000 </r>
       <r>   14.6599    0.0000 </r>
       <r>   15.0161    0.0000 </r>
       <r>   15.9990    0.0000 </r>
       <r>   16.3932    0.0000 </r>
       <r>   16.6025    0.0000 </r>
       <r>   16.7659    0.0000 </r>
       <r>   16.8212    0.0000 </r>
       <r>   17.1014    0.0000 </r>
       <r>   17.1776    0.0000 </r>
       <r>   17.4772    0.0000 </r>
       <r>   17.5595    0.0000 </r>
       <r>   17.9784    0.0000 </r>
       <r>   18.1726    0.0000 </r>
       <r>   18.3740    0.0000 </r>
       <r>   18.6827    0.0000 </r>
       <r>   18.9739    0.0000 </r>
       <r>   19.1660    0.0000 </r>
       <r>   19.4175    0.0000 </r>
       <r>   20.0936    0.0000 </r>
       <r>   20.2171    0.0000 </r>
       <r>   20.6466    0.0000 </r>
       <r>   21.0550    0.0000 </r>
       <r>   21.2020    0.0000 </r>
       <r>   21.6803    0.0000 </r>
       <r>   21.7405    0.0000 </r>
       <r>   22.1063    0.0000 </r>
      </set>
      <set comment="kpoint 19">
       <r>  -17.8740    1.0000 </r>
       <r>  -15.9418    1.0000 </r>
       <r>  -15.9417    1.0000 </r>
       <r>  -11.5104    1.0000 </r>
       <r>  -11.5103    1.0000 </r>
       <r>   -9.5490    1.0000 </r>
       <r>   -7.0492    1.0000 </r>
       <r>   -7.0491    1.0000 </r>
       <r>   -6.6880    1.0000 </r>
       <r>   -6.0398    1.0000 </r>
       <r>   -5.9081    1.0000 </r>
       <r>   -4.8955    1.0000 </r>
       <r>   -4.8955    1.0000 </r>
       <r>   -4.8156    1.0000 </r>
       <r>   -4.8156    1.0000 </r>
       <r>   -0.0438    0.0000 </r>
       <r>   -0.0438    0.0000 </r>
       <r>    4.3574    0.0000 </r>
       <r>    4.3796    0.0000 </r>
       <r>    4.3796    0.0000 </r>
       <r>    5.5697    0.0000 </r>
       <r>    5.5697    0.0000 </r>
       <r>    5.7006    0.0000 </r>
       <r>    6.5547    0.0000 </r>
       <r>    7.0876    0.0000 </r>
       <r>    7.0876    0.0000 </r>
       <r>    8.3356    0.0000 </r>
       <r>    8.3356    0.0000 </r>
       <r>    8.4021    0.0000 </r>
       <r>    8.6499    0.0000 </r>
       <r>    9.1394    0.0000 </r>
       <r>    9.2503    0.0000 </r>
       <r>    9.2503    0.0000 </r>
       <r>   10.7508    0.0000 </r>
       <r>   10.7508    0.0000 </r>
       <r>   11.2970    0.0000 </r>
       <r>   11.2970    0.0000 </r>
       <r>   11.3168    0.0000 </r>
       <r>   11.7365    0.0000 </r>
       <r>   13.5539    0.0000 </r>
       <r>   13.5539    0.0000 </r>
       <r>   13.7149    0.0000 </r>
       <r>   13.7149    0.0000 </r>
       <r>   13.9773    0.0000 </r>
       <r>   14.2586    0.0000 </r>
       <r>   14.2586    0.0000 </r>
       <r>   14.7538    0.0000 </r>
       <r>   15.7409    0.0000 </r>
       <r>   15.7410    0.0000 </r>
       <r>   16.1134    0.0000 </r>
       <r>   16.6479    0.0000 </r>
       <r>   16.6875    0.0000 </r>
       <r>   16.6875    0.0000 </r>
       <r>   16.8167    0.0000 </r>
       <r>   17.1279    0.0000 </r>
       <r>   17.1279    0.0000 </r>
       <r>   17.6193    0.0000 </r>
       <r>   18.0211    0.0000 </r>
       <r>   18.0211    0.0000 </r>
       <r>   18.7277    0.0000 </r>
       <r>   19.2774    0.0000 </r>
       <r>   19.3682    0.0000 </r>
       <r>   19.3682    0.0000 </r>
       <r>   19.6064    0.0000 </r>
       <r>   19.7681    0.0000 </r>
       <r>   19.7681    0.0000 </r>
       <r>   20.1710    0.0000 </r>
       <r>   20.5886    0.0000 </r>
       <r>   20.5886    0.0000 </r>
       <r>   22.0239    0.0000 </r>
       <r>   22.0239    0.0000 </r>
       <r>   22.8070    0.0000 </r>
      </set>
     </set>
    </set>
   </array>
  </eigenvalues>
  <separator name="orbital magnetization" >
   <v name="MAGDIPOLOUT">      0.00000000      0.00000000      0.00000000</v>
  </separator>
  <dielectricfunction>
   <imag>
    <array>
     <dimension dim="1">gridpoints</dimension>
     <field>energy</field>
     <field>xx</field>
     <field>yy</field>
     <field>zz</field>
     <field>xy</field>
     <field>yz</field>
     <field>zx</field>
     <set>
      <r>     0.0000     0.0000     0.0000     0.0000     0.0000     0.0000     0.0000 </r>
      <r>     0.0211     0.0051     0.0051     0.0000     0.0000     0.0000    -0.0000 </r>
      <r>     0.0423     0.0102     0.0102     0.0001     0.0000     0.0000    -0.0000 </r>
      <r>     0.0634     0.0154     0.0154     0.0001     0.0000     0.0000    -0.0000 </r>
      <r>     0.0846     0.0205     0.0205     0.0001     0.0000     0.0000    -0.0000 </r>
      <r>     0.1057     0.0257     0.0257     0.0001     0.0000     0.0000    -0.0000 </r>
      <r>     0.1269     0.0309     0.0309     0.0002     0.0000     0.0000    -0.0000 </r>
      <r>     0.1480     0.0362     0.0362     0.0002     0.0000     0.0000    -0.0000 </r>
      <r>     0.1692     0.0416     0.0416     0.0002     0.0000     0.0000    -0.0000 </r>
      <r>     0.1903     0.0470     0.0470     0.0003     0.0000     0.0000    -0.0000 </r>
      <r>     0.2115     0.0524     0.0524     0.0003     0.0000     0.0000    -0.0000 </r>
      <r>     0.2326     0.0580     0.0580     0.0003     0.0000     0.0000    -0.0000 </r>
      <r>     0.2538     0.0637     0.0637     0.0004     0.0000     0.0000    -0.0000 </r>
      <r>     0.2749     0.0695     0.0695     0.0004     0.0000     0.0000    -0.0000 </r>
      <r>     0.2961     0.0754     0.0754     0.0004     0.0000     0.0000    -0.0000 </r>
      <r>     0.3172     0.0814     0.0814     0.0004     0.0000     0.0000    -0.0000 </r>
      <r>     0.3384     0.0876     0.0876     0.0005     0.0000     0.0000    -0.0000 </r>
      <r>     0.3595     0.0939     0.0939     0.0005     0.0000     0.0000    -0.0000 </r>
      <r>     0.3807     0.1004     0.1004     0.0005     0.0000     0.0000    -0.0000 </r>
      <r>     0.4018     0.1071     0.1071     0.0006     0.0000     0.0000    -0.0000 </r>
      <r>     0.4230     0.1140     0.1140     0.0006     0.0000     0.0000    -0.0000 </r>
      <r>     0.4441     0.1211     0.1211     0.0006     0.0000     0.0000    -0.0000 </r>
      <r>     0.4653     0.1284     0.1284     0.0007     0.0000     0.0000    -0.0000 </r>
      <r>     0.4864     0.1360     0.1360     0.0007     0.0000     0.0000    -0.0000 </r>
      <r>     0.5076     0.1439     0.1439     0.0007     0.0000     0.0000    -0.0000 </r>
      <r>     0.5287     0.1521     0.1521     0.0008     0.0000     0.0000    -0.0000 </r>
      <r>     0.5499     0.1606     0.1606     0.0008     0.0000     0.0000    -0.0000 </r>
[...]
       <r>    18.4499    13.1904   115.0680 </r>
       <r>    18.4693    17.3431   115.4042 </r>
       <r>    18.4886     5.7333   115.5154 </r>
       <r>    18.5080     7.5089   115.6610 </r>
       <r>    18.5274    10.2771   115.8602 </r>
       <r>    18.5468     5.7182   115.9711 </r>
       <r>    18.5662     3.1039   116.0312 </r>
       <r>    18.5856    10.1100   116.2272 </r>
       <r>    18.6050    10.1496   116.4240 </r>
       <r>    18.6244     5.8837   116.5381 </r>
       <r>    18.6437     8.5865   116.7046 </r>
       <r>    18.6631     9.3712   116.8862 </r>
       <r>    18.6825     7.8169   117.0378 </r>
       <r>    18.7019     5.3818   117.1421 </r>
       <r>    18.7213     6.5403   117.2689 </r>
       <r>    18.7407     3.2706   117.3323 </r>
       <r>    18.7601     0.0516   117.3333 </r>
       <r>    18.7794     0.0238   117.3338 </r>
       <r>    18.7988     4.7368   117.4256 </r>
       <r>    18.8182    21.8986   117.8502 </r>
       <r>    18.8376    12.6183   118.0948 </r>
       <r>    18.8570     6.0433   118.2120 </r>
       <r>    18.8764     1.5095   118.2412 </r>
       <r>    18.8958     8.4962   118.4060 </r>
       <r>    18.9152     4.8102   118.4992 </r>
       <r>    18.9345     7.1571   118.6380 </r>
       <r>    18.9539     0.9035   118.6555 </r>
       <r>    18.9733     8.3921   118.8182 </r>
       <r>    18.9927    18.3126   119.1732 </r>
       <r>    19.0121    11.1226   119.3889 </r>
       <r>    19.0315     5.9230   119.5037 </r>
       <r>    19.0509     1.2401   119.5277 </r>
       <r>    19.0703     0.1525   119.5307 </r>
       <r>    19.0896     4.8469   119.6247 </r>
       <r>    19.1090    10.6546   119.8312 </r>
       <r>    19.1284     6.0755   119.9490 </r>
       <r>    19.1478    11.8064   120.1779 </r>
       <r>    19.1672    19.3601   120.5533 </r>
       <r>    19.1866     9.3664   120.7348 </r>
       <r>    19.2060     3.0726   120.7944 </r>
       <r>    19.2254     2.9716   120.8520 </r>
       <r>    19.2447     4.0107   120.9298 </r>
       <r>    19.2641    10.2722   121.1289 </r>
       <r>    19.2835    10.9106   121.3405 </r>
       <r>    19.3029     7.0450   121.4770 </r>
       <r>    19.3223     4.5711   121.5657 </r>
       <r>    19.3417     4.5991   121.6548 </r>
       <r>    19.3611    11.4382   121.8766 </r>
       <r>    19.3805    12.9064   122.1268 </r>
       <r>    19.3998     3.6977   122.1985 </r>
       <r>    19.4192     9.9270   122.3910 </r>
       <r>    19.4386    16.6075   122.7129 </r>
       <r>    19.4580     8.9303   122.8861 </r>
       <r>    19.4774     2.2745   122.9302 </r>
       <r>    19.4968     2.1561   122.9720 </r>
       <r>    19.5162     0.0250   122.9724 </r>
       <r>    19.5356     1.9347   123.0100 </r>
       <r>    19.5549    13.4431   123.2706 </r>
       <r>    19.5743     7.5212   123.4164 </r>
       <r>    19.5937     6.3154   123.5388 </r>
       <r>    19.6131    10.9472   123.7511 </r>
       <r>    19.6325     7.6501   123.8994 </r>
       <r>    19.6519    15.4861   124.1996 </r>
       <r>    19.6713    12.5296   124.4425 </r>
       <r>    19.6907     8.7662   124.6125 </r>
       <r>    19.7100     5.9109   124.7271 </r>
       <r>    19.7294     9.6174   124.9135 </r>
       <r>    19.7488     2.4446   124.9609 </r>
       <r>    19.7682     8.9664   125.1348 </r>
       <r>    19.7876    12.5458   125.3780 </r>
       <r>    19.8070     2.7258   125.4308 </r>
       <r>    19.8264     6.4345   125.5556 </r>
       <r>    19.8458    14.7901   125.8423 </r>
       <r>    19.8651     7.4625   125.9870 </r>
       <r>    19.8845     4.2176   126.0688 </r>
       <r>    19.9039     6.9119   126.2028 </r>
       <r>    19.9233    11.4943   126.4256 </r>
       <r>    19.9427    11.3266   126.6452 </r>
       <r>    19.9621    11.7407   126.8728 </r>
       <r>    19.9815     3.1893   126.9347 </r>
       <r>    20.0009     1.2352   126.9586 </r>
       <r>    20.0202     4.6511   127.0488 </r>
       <r>    20.0396     7.2595   127.1895 </r>
       <r>    20.0590    12.7119   127.4360 </r>
       <r>    20.0784    15.4261   127.7351 </r>
       <r>    20.0978    20.1242   128.1252 </r>
       <r>    20.1172     9.7651   128.3145 </r>
       <r>    20.1366     6.8432   128.4472 </r>
       <r>    20.1560     4.9704   128.5436 </r>
       <r>    20.1753     5.6905   128.6539 </r>
       <r>    20.1947     9.5507   128.8391 </r>
       <r>    20.2141     8.4016   129.0019 </r>
       <r>    20.2335    12.4418   129.2432 </r>
       <r>    20.2529     1.0940   129.2644 </r>
       <r>    20.2723     3.9265   129.3405 </r>
       <r>    20.2917     4.9825   129.4371 </r>
       <r>    20.3111     5.6223   129.5461 </r>
       <r>    20.3304    13.5931   129.8096 </r>
       <r>    20.3498    12.0084   130.0424 </r>
       <r>    20.3692    14.1536   130.3168 </r>
       <r>    20.3886    13.5049   130.5787 </r>
       <r>    20.4080     4.4455   130.6648 </r>
       <r>    20.4274     2.0043   130.7037 </r>
       <r>    20.4468    12.6756   130.9495 </r>
       <r>    20.4661    10.5648   131.1543 </r>
       <r>    20.4855     5.9014   131.2687 </r>
       <r>    20.5049     6.1237   131.3874 </r>
       <r>    20.5243     2.2194   131.4304 </r>
       <r>    20.5437     0.0076   131.4306 </r>
       <r>    20.5631     1.7958   131.4654 </r>
       <r>    20.5825     9.8731   131.6568 </r>
       <r>    20.6019    11.8067   131.8857 </r>
       <r>    20.6212    12.8593   132.1350 </r>
       <r>    20.6406    19.1945   132.5072 </r>
       <r>    20.6600    21.3399   132.9209 </r>
       <r>    20.6794    20.3123   133.3147 </r>
       <r>    20.6988    11.4436   133.5365 </r>
       <r>    20.7182    10.3322   133.7369 </r>
       <r>    20.7376     7.2915   133.8782 </r>
       <r>    20.7570     1.2661   133.9028 </r>
       <r>    20.7763     0.2128   133.9069 </r>
       <r>    20.7957     6.8406   134.0395 </r>
       <r>    20.8151     5.7835   134.1516 </r>
       <r>    20.8345     0.1202   134.1540 </r>
       <r>    20.8539     3.6312   134.2244 </r>
       <r>    20.8733     4.7325   134.3161 </r>
       <r>    20.8927     4.3668   134.4008 </r>
       <r>    20.9121    12.4382   134.6419 </r>
       <r>    20.9314    13.0503   134.8949 </r>
       <r>    20.9508     8.1290   135.0525 </r>
       <r>    20.9702     9.3632   135.2341 </r>
       <r>    20.9896    10.9545   135.4464 </r>
       <r>    21.0090     9.3794   135.6283 </r>
       <r>    21.0284     3.3904   135.6940 </r>
       <r>    21.0478     2.7292   135.7469 </r>
       <r>    21.0672    19.1064   136.1174 </r>
       <r>    21.0865    12.9286   136.3680 </r>
       <r>    21.1059     4.7016   136.4592 </r>
       <r>    21.1253     6.9900   136.5947 </r>
       <r>    21.1447    10.6245   136.8007 </r>
       <r>    21.1641     6.3545   136.9238 </r>
       <r>    21.1835    12.1631   137.1597 </r>
       <r>    21.2029     5.0927   137.2584 </r>
       <r>    21.2223     3.9769   137.3355 </r>
       <r>    21.2416     3.3544   137.4005 </r>
       <r>    21.2610     2.2410   137.4440 </r>
       <r>    21.2804     4.0674   137.5228 </r>
       <r>    21.2998     6.5796   137.6504 </r>
       <r>    21.3192     6.1157   137.7690 </r>
       <r>    21.3386     0.4547   137.7778 </r>
       <r>    21.3580     0.0002   137.7778 </r>
       <r>    21.3774     0.5643   137.7887 </r>
       <r>    21.3967     7.0974   137.9263 </r>
       <r>    21.4161     2.2104   137.9692 </r>
       <r>    21.4355    12.5086   138.2117 </r>
       <r>    21.4549    27.9176   138.7529 </r>
       <r>    21.4743    16.9615   139.0818 </r>
       <r>    21.4937    17.0285   139.4119 </r>
       <r>    21.5131    10.1849   139.6094 </r>
       <r>    21.5325     3.2527   139.6724 </r>
       <r>    21.5518     2.3825   139.7186 </r>
       <r>    21.5712     4.2286   139.8006 </r>
       <r>    21.5906     3.0594   139.8599 </r>
       <r>    21.6100     1.2112   139.8834 </r>
       <r>    21.6294     7.1285   140.0216 </r>
       <r>    21.6488     2.2031   140.0643 </r>
       <r>    21.6682     0.8304   140.0804 </r>
       <r>    21.6876    13.7833   140.3476 </r>
       <r>    21.7069    14.9760   140.6380 </r>
       <r>    21.7263     3.7907   140.7115 </r>
       <r>    21.7457    12.1440   140.9469 </r>
       <r>    21.7651     3.8307   141.0212 </r>
       <r>    21.7845     0.3403   141.0278 </r>
       <r>    21.8039     0.0002   141.0278 </r>
       <r>    21.8233     0.0000   141.0278 </r>
       <r>    21.8427     0.0000   141.0278 </r>
       <r>    21.8620     0.0026   141.0278 </r>
       <r>    21.8814     2.1023   141.0686 </r>
       <r>    21.9008     6.5182   141.1950 </r>
       <r>    21.9202     6.8133   141.3270 </r>
       <r>    21.9396     8.6470   141.4947 </r>
       <r>    21.9590     9.7552   141.6838 </r>
       <r>    21.9784     6.0732   141.8016 </r>
       <r>    21.9978    12.3639   142.0413 </r>
       <r>    22.0171     5.8308   142.1543 </r>
       <r>    22.0365     4.8026   142.2474 </r>
       <r>    22.0559     0.7115   142.2612 </r>
       <r>    22.0753     7.1029   142.3989 </r>
       <r>    22.0947     1.3531   142.4252 </r>
       <r>    22.1141     8.4864   142.5897 </r>
       <r>    22.1335     4.0256   142.6677 </r>
       <r>    22.1528     5.7564   142.7793 </r>
       <r>    22.1722     2.9713   142.8369 </r>
       <r>    22.1916     3.4735   142.9043 </r>
       <r>    22.2110     0.6388   142.9167 </r>
       <r>    22.2304     0.0003   142.9167 </r>
       <r>    22.2498     0.0000   142.9167 </r>
       <r>    22.2692     0.0000   142.9167 </r>
       <r>    22.2886     0.1933   142.9204 </r>
       <r>    22.3079     3.4699   142.9877 </r>
       <r>    22.3273     0.6348   143.0000 </r>
       <r>    22.3467     0.0003   143.0000 </r>
       <r>    22.3661     0.0000   143.0000 </r>
       <r>    22.3855     0.0000   143.0000 </r>
       <r>    22.4049     0.0000   143.0000 </r>
       <r>    22.4243     0.0000   143.0000 </r>
       <r>    22.4437     0.0000   143.0000 </r>
       <r>    22.4630     0.0000   143.0000 </r>
       <r>    22.4824     0.0000   143.0000 </r>
       <r>    22.5018     0.2893   143.0056 </r>
       <r>    22.5212     7.7608   143.1561 </r>
       <r>    22.5406     4.8023   143.2492 </r>
       <r>    22.5600     0.0426   143.2500 </r>
       <r>    22.5794     0.0000   143.2500 </r>
       <r>    22.5988     0.0000   143.2500 </r>
       <r>    22.6181     0.0000   143.2500 </r>
       <r>    22.6375     0.0000   143.2500 </r>
       <r>    22.6569     0.0067   143.2501 </r>
       <r>    22.6763     2.8856   143.3061 </r>
       <r>    22.6957     5.6168   143.4150 </r>
       <r>    22.7151     0.0875   143.4167 </r>
       <r>    22.7345     0.0000   143.4167 </r>
       <r>    22.7539     0.0000   143.4167 </r>
       <r>    22.7732     0.0000   143.4167 </r>
       <r>    22.7926     0.0299   143.4172 </r>
       <r>    22.8120     1.0589   143.4378 </r>
       <r>    22.8314     0.3435   143.4444 </r>
       <r>    22.8508     0.0004   143.4444 </r>
       <r>    22.8702     0.0702   143.4458 </r>
       <r>    22.8896     0.5934   143.4573 </r>
       <r>    22.9090     0.0528   143.4583 </r>
       <r>    22.9283     0.0000   143.4583 </r>
       <r>    22.9477     0.1514   143.4613 </r>
       <r>    22.9671     3.3927   143.5270 </r>
       <r>    22.9865     0.7537   143.5417 </r>
       <r>    23.0059     0.0005   143.5417 </r>
       <r>    23.0253     0.0000   143.5417 </r>
       <r>    23.0447     0.0000   143.5417 </r>
       <r>    23.0641     0.0001   143.5417 </r>
       <r>    23.0834     0.4524   143.5504 </r>
       <r>    23.1028     4.4866   143.6374 </r>
       <r>    23.1222     3.5502   143.7063 </r>
       <r>    23.1416     0.1073   143.7083 </r>
       <r>    23.1610     0.0000   143.7083 </r>
       <r>    23.1804     0.0000   143.7083 </r>
       <r>    23.1998     0.0000   143.7083 </r>
       <r>    23.2192     0.0000   143.7083 </r>
       <r>    23.2385     0.0022   143.7084 </r>
       <r>    23.2579     1.2569   143.7327 </r>
       <r>    23.2773     2.9832   143.7906 </r>
       <r>    23.2967     0.7640   143.8054 </r>
       <r>    23.3161     0.7203   143.8194 </r>
       <r>    23.3355     0.0046   143.8194 </r>
       <r>    23.3549     0.0000   143.8194 </r>
       <r>    23.3743     0.0000   143.8194 </r>
       <r>    23.3936     0.0000   143.8194 </r>
       <r>    23.4130     0.0001   143.8194 </r>
       <r>    23.4324     0.1080   143.8215 </r>
       <r>    23.4518     0.5770   143.8327 </r>
       <r>    23.4712     0.0313   143.8333 </r>
       <r>    23.4906     0.0000   143.8333 </r>
       <r>    23.5100     0.0000   143.8333 </r>
       <r>    23.5294     0.0001   143.8333 </r>
       <r>    23.5487     0.3004   143.8392 </r>
       <r>    23.5681     3.5556   143.9081 </r>
       <r>    23.5875     0.4421   143.9167 </r>
       <r>    23.6069     0.0001   143.9167 </r>
       <r>    23.6263     0.0000   143.9167 </r>
       <r>    23.6457     0.0000   143.9167 </r>
       <r>    23.6651     0.0000   143.9167 </r>
       <r>    23.6845     0.0000   143.9167 </r>
       <r>    23.7038     0.0000   143.9167 </r>
       <r>    23.7232     0.0191   143.9170 </r>
       <r>    23.7426     2.3433   143.9625 </r>
       <r>    23.7620     1.9271   143.9998 </r>
       <r>    23.7814     0.0089   144.0000 </r>
       <r>    23.8008     0.0000   144.0000 </r>
       <r>    23.8202     0.0000   144.0000 </r>
       <r>    23.8395     0.0000   144.0000 </r>
       <r>    23.8589     0.0000   144.0000 </r>
       <r>    23.8783     0.0000   144.0000 </r>
       <r>    23.8977     0.0000   144.0000 </r>
       <r>    23.9171     0.0000   144.0000 </r>
       <r>    23.9365     0.0000   144.0000 </r>
       <r>    23.9559     0.0000   144.0000 </r>
       <r>    23.9753     0.0000   144.0000 </r>
       <r>    23.9946     0.0000   144.0000 </r>
       <r>    24.0140     0.0000   144.0000 </r>
       <r>    24.0334     0.0000   144.0000 </r>
       <r>    24.0528     0.0000   144.0000 </r>
       <r>    24.0722     0.0000   144.0000 </r>
       <r>    24.0916     0.0000   144.0000 </r>
       <r>    24.1110     0.0000   144.0000 </r>
       <r>    24.1304     0.0000   144.0000 </r>
       <r>    24.1497     0.0000   144.0000 </r>
       <r>    24.1691     0.0000   144.0000 </r>
       <r>    24.1885     0.0000   144.0000 </r>
       <r>    24.2079     0.0000   144.0000 </r>
       <r>    24.2273     0.0000   144.0000 </r>
       <r>    24.2467     0.0000   144.0000 </r>
       <r>    24.2661     0.0000   144.0000 </r>
       <r>    24.2855     0.0000   144.0000 </r>
       <r>    24.3048     0.0000   144.0000 </r>
       <r>    24.3242     0.0000   144.0000 </r>
       <r>    24.3436     0.0000   144.0000 </r>
       <r>    24.3630     0.0000   144.0000 </r>
       <r>    24.3824     0.0000   144.0000 </r>
       <r>    24.4018     0.0000   144.0000 </r>
       <r>    24.4212     0.0000   144.0000 </r>
       <r>    24.4406     0.0000   144.0000 </r>
       <r>    24.4599     0.0000   144.0000 </r>
       <r>    24.4793     0.0000   144.0000 </r>
       <r>    24.4987     0.0000   144.0000 </r>
       <r>    24.5181     0.0000   144.0000 </r>
       <r>    24.5375     0.0000   144.0000 </r>
       <r>    24.5569     0.0000   144.0000 </r>
       <r>    24.5763     0.0000   144.0000 </r>
       <r>    24.5957     0.0000   144.0000 </r>
       <r>    24.6150     0.0000   144.0000 </r>
       <r>    24.6344     0.0000   144.0000 </r>
       <r>    24.6538     0.0000   144.0000 </r>
       <r>    24.6732     0.0000   144.0000 </r>
       <r>    24.6926     0.0000   144.0000 </r>
       <r>    24.7120     0.0000   144.0000 </r>
       <r>    24.7314     0.0000   144.0000 </r>
       <r>    24.7508     0.0000   144.0000 </r>
       <r>    24.7701     0.0000   144.0000 </r>
       <r>    24.7895     0.0000   144.0000 </r>
       <r>    24.8089     0.0000   144.0000 </r>
       <r>    24.8283     0.0000   144.0000 </r>
       <r>    24.8477     0.0000   144.0000 </r>
       <r>    24.8671     0.0000   144.0000 </r>
       <r>    24.8865     0.0000   144.0000 </r>
       <r>    24.9059     0.0000   144.0000 </r>
       <r>    24.9252     0.0000   144.0000 </r>
       <r>    24.9446     0.0000   144.0000 </r>
       <r>    24.9640     0.0000   144.0000 </r>
       <r>    24.9834     0.0000   144.0000 </r>
       <r>    25.0028     0.0000   144.0000 </r>
       <r>    25.0222     0.0000   144.0000 </r>
       <r>    25.0416     0.0000   144.0000 </r>
       <r>    25.0610     0.0000   144.0000 </r>
       <r>    25.0803     0.0000   144.0000 </r>
       <r>    25.0997     0.0000   144.0000 </r>
       <r>    25.1191     0.0000   144.0000 </r>
       <r>    25.1385     0.0000   144.0000 </r>
       <r>    25.1579     0.0000   144.0000 </r>
       <r>    25.1773     0.0000   144.0000 </r>
       <r>    25.1967     0.0000   144.0000 </r>
       <r>    25.2161     0.0000   144.0000 </r>
       <r>    25.2354     0.0000   144.0000 </r>
       <r>    25.2548     0.0000   144.0000 </r>
       <r>    25.2742     0.0000   144.0000 </r>
       <r>    25.2936     0.0000   144.0000 </r>
       <r>    25.3130     0.0000   144.0000 </r>
       <r>    25.3324     0.0000   144.0000 </r>
       <r>    25.3518     0.0000   144.0000 </r>
       <r>    25.3712     0.0000   144.0000 </r>
       <r>    25.3905     0.0000   144.0000 </r>
       <r>    25.4099     0.0000   144.0000 </r>
       <r>    25.4293     0.0000   144.0000 </r>
       <r>    25.4487     0.0000   144.0000 </r>
       <r>    25.4681     0.0000   144.0000 </r>
       <r>    25.4875     0.0000   144.0000 </r>
       <r>    25.5069     0.0000   144.0000 </r>
       <r>    25.5262     0.0000   144.0000 </r>
       <r>    25.5456     0.0000   144.0000 </r>
       <r>    25.5650     0.0000   144.0000 </r>
       <r>    25.5844     0.0000   144.0000 </r>
       <r>    25.6038     0.0000   144.0000 </r>
       <r>    25.6232     0.0000   144.0000 </r>
       <r>    25.6426     0.0000   144.0000 </r>
       <r>    25.6620     0.0000   144.0000 </r>
       <r>    25.6813     0.0000   144.0000 </r>
       <r>    25.7007     0.0000   144.0000 </r>
       <r>    25.7201     0.0000   144.0000 </r>
       <r>    25.7395     0.0000   144.0000 </r>
       <r>    25.7589     0.0000   144.0000 </r>
       <r>    25.7783     0.0000   144.0000 </r>
       <r>    25.7977     0.0000   144.0000 </r>
       <r>    25.8171     0.0000   144.0000 </r>
       <r>    25.8364     0.0000   144.0000 </r>
       <r>    25.8558     0.0000   144.0000 </r>
      </set>
     </set>
    </array>
   </total>
  </dos>
 </calculation>
 <structure name="finalpos" >
  <crystal>
   <varray name="basis" >
    <v>       4.48084843       2.58701885       0.00000000 </v>
    <v>      -4.48084843       2.58701885       0.00000000 </v>
    <v>       0.00000000       0.00000000       8.52022140 </v>
   </varray>
   <i name="volume">    197.53348383 </i>
   <varray name="rec_basis" >
    <v>       0.11158601       0.19327265       0.00000000 </v>
    <v>      -0.11158601       0.19327265       0.00000000 </v>
    <v>       0.00000000       0.00000000       0.11736784 </v>
   </varray>
  </crystal>
  <varray name="positions" >
   <v>       0.33333300       0.66666600       0.25000000 </v>
   <v>       0.66666600       0.33333300       0.25000000 </v>
   <v>       0.15869124       0.31738348       0.25000000 </v>
   <v>       0.31738348       0.15869124       0.25000000 </v>
   <v>       0.15869124       0.84130776       0.25000000 </v>
   <v>       0.84130776       0.15869124       0.25000000 </v>
   <v>       0.68261552       0.84130776       0.25000000 </v>
   <v>       0.84130776       0.68261552       0.25000000 </v>
  </varray>
 </structure>
</modeling>
