   8   8   0   0
  0.2469169E+02  0.5174038E-09  0.5174038E-09  0.8520222E-09  0.5000000E-15
  1.000000000000000E-004
  CAR 
 BC3-optical                             
    105.47120233    -24.44564089 2400     -2.39795652      1.00000000
    -24.446  0.0000E+00  0.0000E+00
    -24.391  0.0000E+00  0.0000E+00
    -24.337  0.0000E+00  0.0000E+00
    -24.283  0.0000E+00  0.0000E+00
    -24.229  0.0000E+00  0.0000E+00
    -24.175  0.0000E+00  0.0000E+00
    -24.121  0.0000E+00  0.0000E+00
    -24.067  0.0000E+00  0.0000E+00
    -24.012  0.0000E+00  0.0000E+00
    -23.958  0.0000E+00  0.0000E+00
    -23.904  0.0000E+00  0.0000E+00
    -23.850  0.0000E+00  0.0000E+00
    -23.796  0.0000E+00  0.0000E+00
    -23.742  0.0000E+00  0.0000E+00
    -23.687  0.0000E+00  0.0000E+00
    -23.633  0.0000E+00  0.0000E+00
    -23.579  0.0000E+00  0.0000E+00
    -23.525  0.0000E+00  0.0000E+00
    -23.471  0.0000E+00  0.0000E+00
    -23.417  0.0000E+00  0.0000E+00
    -23.363  0.0000E+00  0.0000E+00
    -23.308  0.0000E+00  0.0000E+00
    -23.254  0.0000E+00  0.0000E+00
    -23.200  0.0000E+00  0.0000E+00
    -23.146  0.0000E+00  0.0000E+00
    -23.092  0.0000E+00  0.0000E+00
    -23.038  0.0000E+00  0.0000E+00
    -22.983  0.0000E+00  0.0000E+00
    -22.929  0.0000E+00  0.0000E+00
    -22.875  0.0000E+00  0.0000E+00
    -22.821  0.0000E+00  0.0000E+00
    -22.767  0.0000E+00  0.0000E+00
    -22.713  0.0000E+00  0.0000E+00
    -22.659  0.0000E+00  0.0000E+00
    -22.604  0.0000E+00  0.0000E+00
    -22.550  0.0000E+00  0.0000E+00
    -22.496  0.0000E+00  0.0000E+00
    -22.442  0.0000E+00  0.0000E+00
    -22.388  0.0000E+00  0.0000E+00
    -22.334  0.0000E+00  0.0000E+00
    -22.279  0.0000E+00  0.0000E+00
    -22.225  0.0000E+00  0.0000E+00
    -22.171  0.0000E+00  0.0000E+00
    -22.117  0.0000E+00  0.0000E+00
    -22.063  0.0000E+00  0.0000E+00
    -22.009  0.0000E+00  0.0000E+00
    -21.955  0.0000E+00  0.0000E+00
    -21.900  0.0000E+00  0.0000E+00
    -21.846  0.0000E+00  0.0000E+00
    -21.792  0.0000E+00  0.0000E+00
    -21.738  0.0000E+00  0.0000E+00
    -21.684  0.0000E+00  0.0000E+00
    -21.630  0.0000E+00  0.0000E+00
    -21.575  0.0000E+00  0.0000E+00
    -21.521  0.0000E+00  0.0000E+00
    -21.467  0.0000E+00  0.0000E+00
    -21.413  0.0000E+00  0.0000E+00
    -21.359  0.0000E+00  0.0000E+00
    -21.305  0.0000E+00  0.0000E+00
    -21.251  0.0000E+00  0.0000E+00
    -21.196  0.0000E+00  0.0000E+00
    -21.142  0.0000E+00  0.0000E+00
    -21.088  0.0000E+00  0.0000E+00
    -21.034  0.0000E+00  0.0000E+00
    -20.980  0.0000E+00  0.0000E+00
    -20.926  0.0000E+00  0.0000E+00
    -20.871  0.0000E+00  0.0000E+00
    -20.817  0.0000E+00  0.0000E+00
    -20.763  0.0000E+00  0.0000E+00
    -20.709  0.0000E+00  0.0000E+00
    -20.655  0.0000E+00  0.0000E+00
    -20.601  0.0000E+00  0.0000E+00
    -20.547  0.0000E+00  0.0000E+00
    -20.492  0.0000E+00  0.0000E+00
    -20.438  0.0000E+00  0.0000E+00
    -20.384  0.0000E+00  0.0000E+00
    -20.330  0.0000E+00  0.0000E+00
    -20.276  0.0000E+00  0.0000E+00
    -20.222  0.0000E+00  0.0000E+00
    -20.167  0.0000E+00  0.0000E+00
    -20.113  0.0000E+00  0.0000E+00
    -20.059  0.0000E+00  0.0000E+00
    -20.005  0.0000E+00  0.0000E+00
    -19.951  0.0000E+00  0.0000E+00
    -19.897  0.0000E+00  0.0000E+00
    -19.843  0.0000E+00  0.0000E+00
    -19.788  0.0000E+00  0.0000E+00
    -19.734  0.0000E+00  0.0000E+00
    -19.680  0.0000E+00  0.0000E+00
    -19.626  0.0000E+00  0.0000E+00
    -19.572  0.0000E+00  0.0000E+00
    -19.518  0.0000E+00  0.0000E+00
    -19.463  0.0000E+00  0.0000E+00
    -19.409  0.0000E+00  0.0000E+00
    -19.355  0.0000E+00  0.0000E+00
    -19.301  0.0000E+00  0.0000E+00
    -19.247  0.0000E+00  0.0000E+00
    -19.193  0.0000E+00  0.0000E+00
    -19.138  0.0000E+00  0.0000E+00
    -19.084  0.0000E+00  0.0000E+00
    -19.030  0.0000E+00  0.0000E+00
    -18.976  0.0000E+00  0.0000E+00
    -18.922  0.0000E+00  0.0000E+00
    -18.868  0.0000E+00  0.0000E+00
    -18.814  0.0000E+00  0.0000E+00
    -18.759  0.0000E+00  0.0000E+00
    -18.705  0.0000E+00  0.0000E+00
    -18.651  0.0000E+00  0.0000E+00
    -18.597  0.1566E-15  0.8481E-17
    -18.543  0.9334E-01  0.5055E-02
    -18.489  0.1702E+01  0.9720E-01
    -18.434  0.2279E+01  0.2206E+00
    -18.380  0.8023E+00  0.2641E+00
    -18.326  0.3100E+01  0.4319E+00
    -18.272  0.1513E+01  0.5139E+00
    -18.218  0.3690E+01  0.7137E+00
    -18.164  0.1594E+01  0.8001E+00
    -18.110  0.1496E+01  0.8811E+00
    -18.055  0.5523E+01  0.1180E+01
    -18.001  0.1560E+01  0.1265E+01
    -17.947  0.8452E+01  0.1722E+01
    -17.893  0.4410E+01  0.1961E+01
    -17.839  0.7163E+00  0.2000E+01
    -17.785  0.0000E+00  0.2000E+01
    -17.730  0.0000E+00  0.2000E+01
    -17.676  0.0000E+00  0.2000E+01
    -17.622  0.0000E+00  0.2000E+01
    -17.568  0.0000E+00  0.2000E+01
    -17.514  0.0000E+00  0.2000E+01
    -17.460  0.0000E+00  0.2000E+01
    -17.406  0.0000E+00  0.2000E+01
    -17.351  0.0000E+00  0.2000E+01
    -17.297  0.0000E+00  0.2000E+01
    -17.243  0.0000E+00  0.2000E+01
    -17.189  0.0000E+00  0.2000E+01
    -17.135  0.0000E+00  0.2000E+01
    -17.081  0.0000E+00  0.2000E+01
    -17.026  0.0000E+00  0.2000E+01
    -16.972  0.0000E+00  0.2000E+01
    -16.918  0.0000E+00  0.2000E+01
    -16.864  0.0000E+00  0.2000E+01
    -16.810  0.0000E+00  0.2000E+01
    -16.756  0.0000E+00  0.2000E+01
    -16.702  0.0000E+00  0.2000E+01
    -16.647  0.0000E+00  0.2000E+01
    -16.593  0.0000E+00  0.2000E+01
    -16.539  0.0000E+00  0.2000E+01
    -16.485  0.0000E+00  0.2000E+01
    -16.431  0.0000E+00  0.2000E+01
    -16.377  0.0000E+00  0.2000E+01
    -16.322  0.4585E-12  0.2000E+01
    -16.268  0.5460E+00  0.2030E+01
    -16.214  0.3027E+01  0.2194E+01
    -16.160  0.2827E+01  0.2347E+01
    -16.106  0.9015E+00  0.2395E+01
    -16.052  0.5775E+01  0.2708E+01
    -15.998  0.4056E+01  0.2928E+01
    -15.943  0.9842E+00  0.2981E+01
    -15.889  0.7641E+00  0.3022E+01
    -15.835  0.4458E+01  0.3264E+01
    -15.781  0.0000E+00  0.3264E+01
    -15.727  0.1102E+00  0.3270E+01
    -15.673  0.6045E+01  0.3597E+01
    -15.618  0.5889E-03  0.3597E+01
    -15.564  0.2456E+01  0.3730E+01
    -15.510  0.8365E+00  0.3776E+01
    -15.456  0.2771E+01  0.3926E+01
    -15.402  0.3169E+01  0.4097E+01
    -15.348  0.1671E-01  0.4098E+01
    -15.294  0.6137E+01  0.4430E+01
    -15.239  0.3397E-02  0.4431E+01
    -15.185  0.3079E+01  0.4597E+01
    -15.131  0.4073E+01  0.4818E+01
    -15.077  0.4423E+01  0.5057E+01
    -15.023  0.3910E+01  0.5269E+01
    -14.969  0.2210E+01  0.5389E+01
    -14.914  0.3881E+01  0.5599E+01
    -14.860  0.7358E+00  0.5639E+01
    -14.806  0.1006E+00  0.5644E+01
    -14.752  0.4516E+01  0.5889E+01
    -14.698  0.2679E+00  0.5903E+01
    -14.644  0.1664E+01  0.5994E+01
    -14.590  0.1198E+00  0.6000E+01
    -14.535  0.0000E+00  0.6000E+01
    -14.481  0.0000E+00  0.6000E+01
    -14.427  0.0000E+00  0.6000E+01
    -14.373  0.0000E+00  0.6000E+01
    -14.319  0.0000E+00  0.6000E+01
    -14.265  0.0000E+00  0.6000E+01
    -14.210  0.0000E+00  0.6000E+01
    -14.156  0.0000E+00  0.6000E+01
    -14.102  0.0000E+00  0.6000E+01
    -14.048  0.0000E+00  0.6000E+01
    -13.994  0.0000E+00  0.6000E+01
    -13.940  0.0000E+00  0.6000E+01
    -13.885  0.0000E+00  0.6000E+01
    -13.831  0.0000E+00  0.6000E+01
    -13.777  0.0000E+00  0.6000E+01
    -13.723  0.0000E+00  0.6000E+01
    -13.669  0.0000E+00  0.6000E+01
    -13.615  0.0000E+00  0.6000E+01
    -13.561  0.0000E+00  0.6000E+01
    -13.506  0.0000E+00  0.6000E+01
    -13.452  0.0000E+00  0.6000E+01
    -13.398  0.0000E+00  0.6000E+01
    -13.344  0.0000E+00  0.6000E+01
    -13.290  0.0000E+00  0.6000E+01
    -13.236  0.0000E+00  0.6000E+01
    -13.181  0.0000E+00  0.6000E+01
    -13.127  0.0000E+00  0.6000E+01
    -13.073  0.0000E+00  0.6000E+01
    -13.019  0.0000E+00  0.6000E+01
    -12.965  0.0000E+00  0.6000E+01
    -12.911  0.0000E+00  0.6000E+01
    -12.857  0.4148E-01  0.6002E+01
    -12.802  0.2225E+01  0.6123E+01
    -12.748  0.5549E-01  0.6126E+01
    -12.694  0.2664E+01  0.6270E+01
    -12.640  0.3554E+01  0.6462E+01
    -12.586  0.2988E+01  0.6624E+01
    -12.532  0.3044E+01  0.6789E+01
    -12.477  0.4838E-01  0.6792E+01
    -12.423  0.4545E+01  0.7038E+01
    -12.369  0.6520E+00  0.7073E+01
    -12.315  0.8026E+01  0.7508E+01
    -12.261  0.4216E+01  0.7736E+01
    -12.207  0.3086E+00  0.7753E+01
    -12.153  0.1230E+01  0.7819E+01
    -12.098  0.5241E-03  0.7819E+01
    -12.044  0.1545E+01  0.7903E+01
    -11.990  0.1532E+01  0.7986E+01
    -11.936  0.4194E+00  0.8009E+01
    -11.882  0.4193E+01  0.8236E+01
    -11.828  0.6706E+00  0.8272E+01
    -11.773  0.2411E+01  0.8403E+01
    -11.719  0.6753E+00  0.8439E+01
    -11.665  0.8635E+00  0.8486E+01
    -11.611  0.0000E+00  0.8486E+01
    -11.557  0.1297E+00  0.8493E+01
    -11.503  0.2293E+01  0.8617E+01
    -11.449  0.5714E+00  0.8648E+01
    -11.394  0.5922E+01  0.8969E+01
    -11.340  0.1343E+01  0.9042E+01
    -11.286  0.1515E-11  0.9042E+01
    -11.232  0.2267E+01  0.9164E+01
    -11.178  0.1067E+01  0.9222E+01
    -11.124  0.3183E-01  0.9224E+01
    -11.069  0.5696E+01  0.9532E+01
    -11.015  0.1347E+01  0.9605E+01
    -10.961  0.2157E+01  0.9722E+01
    -10.907  0.2079E-01  0.9723E+01
    -10.853  0.1518E+01  0.9806E+01
    -10.799  0.1539E+01  0.9889E+01
    -10.745  0.2186E-04  0.9889E+01
    -10.690  0.3642E+01  0.1009E+02
    -10.636  0.2513E+01  0.1022E+02
    -10.582  0.4271E-16  0.1022E+02
    -10.528  0.1964E+00  0.1023E+02
    -10.474  0.5730E+00  0.1026E+02
    -10.420  0.0000E+00  0.1026E+02
    -10.365  0.1011E-04  0.1026E+02
    -10.311  0.3075E+01  0.1043E+02
    -10.257  0.2500E-02  0.1043E+02
    -10.203  0.1146E-04  0.1043E+02
    -10.149  0.1538E+01  0.1051E+02
    -10.095  0.6721E-03  0.1051E+02
    -10.041  0.0000E+00  0.1051E+02
     -9.986  0.0000E+00  0.1051E+02
     -9.932  0.1064E-02  0.1051E+02
     -9.878  0.2554E+00  0.1053E+02
     -9.824  0.0000E+00  0.1053E+02
     -9.770  0.2189E-01  0.1053E+02
     -9.716  0.6059E+01  0.1086E+02
     -9.661  0.7461E-01  0.1086E+02
     -9.607  0.1993E-15  0.1086E+02
     -9.553  0.5828E+00  0.1089E+02
     -9.499  0.1469E+01  0.1097E+02
     -9.445  0.1525E+01  0.1105E+02
     -9.391  0.2923E-01  0.1106E+02
     -9.337  0.3116E+01  0.1123E+02
     -9.282  0.1485E+01  0.1131E+02
     -9.228  0.0000E+00  0.1131E+02
     -9.174  0.1130E-01  0.1131E+02
     -9.120  0.3167E+01  0.1148E+02
     -9.066  0.4515E+01  0.1172E+02
     -9.012  0.1531E+01  0.1181E+02
     -8.957  0.3956E+01  0.1202E+02
     -8.903  0.3058E+01  0.1218E+02
     -8.849  0.6888E+00  0.1222E+02
     -8.795  0.2746E+01  0.1237E+02
     -8.741  0.3321E+00  0.1239E+02
     -8.687  0.1541E+01  0.1247E+02
     -8.633  0.7669E+00  0.1251E+02
     -8.578  0.0000E+00  0.1251E+02
     -8.524  0.1264E-08  0.1251E+02
     -8.470  0.1524E+01  0.1260E+02
     -8.416  0.5190E+01  0.1288E+02
     -8.362  0.6300E+01  0.1322E+02
     -8.308  0.4635E+01  0.1347E+02
     -8.253  0.3091E+01  0.1364E+02
     -8.199  0.3395E-01  0.1364E+02
     -8.145  0.0000E+00  0.1364E+02
     -8.091  0.3194E+00  0.1366E+02
     -8.037  0.1220E+01  0.1372E+02
     -7.983  0.1539E+01  0.1381E+02
     -7.928  0.5489E+01  0.1410E+02
     -7.874  0.6674E+00  0.1414E+02
     -7.820  0.7685E+00  0.1418E+02
     -7.766  0.3077E+01  0.1435E+02
     -7.712  0.1487E-05  0.1435E+02
     -7.658  0.2439E+01  0.1448E+02
     -7.604  0.5255E+01  0.1476E+02
     -7.549  0.7669E+01  0.1518E+02
     -7.495  0.2457E-01  0.1518E+02
     -7.441  0.0000E+00  0.1518E+02
     -7.387  0.1174E-02  0.1518E+02
     -7.333  0.3322E+01  0.1536E+02
     -7.279  0.3112E+01  0.1553E+02
     -7.224  0.5168E+01  0.1581E+02
     -7.170  0.3886E+01  0.1602E+02
     -7.116  0.3855E+00  0.1604E+02
     -7.062  0.1448E+01  0.1612E+02
     -7.008  0.2873E+01  0.1627E+02
     -6.954  0.4426E+01  0.1651E+02
     -6.900  0.1301E-05  0.1651E+02
     -6.845  0.1558E+01  0.1660E+02
     -6.791  0.3970E+01  0.1681E+02
     -6.737  0.6322E+00  0.1685E+02
     -6.683  0.1990E+01  0.1696E+02
     -6.629  0.3140E+01  0.1713E+02
     -6.575  0.3840E+01  0.1733E+02
     -6.520  0.6503E+01  0.1769E+02
     -6.466  0.6557E+01  0.1804E+02
     -6.412  0.1511E+01  0.1812E+02
     -6.358  0.1698E+01  0.1821E+02
     -6.304  0.4512E+01  0.1846E+02
     -6.250  0.6844E+01  0.1883E+02
     -6.196  0.2384E+01  0.1896E+02
     -6.141  0.4682E+01  0.1921E+02
     -6.087  0.3011E+01  0.1937E+02
     -6.033  0.4259E+00  0.1940E+02
     -5.979  0.3163E+00  0.1942E+02
     -5.925  0.4103E+01  0.1964E+02
     -5.871  0.1566E+01  0.1972E+02
     -5.816  0.3077E+01  0.1989E+02
     -5.762  0.1057E-02  0.1989E+02
     -5.708  0.3087E-05  0.1989E+02
     -5.654  0.5970E+01  0.2021E+02
     -5.600  0.4163E+00  0.2023E+02
     -5.546  0.1308E+01  0.2031E+02
     -5.492  0.1381E-06  0.2031E+02
     -5.437  0.4068E+01  0.2053E+02
     -5.383  0.5486E+00  0.2056E+02
     -5.329  0.2142E+00  0.2057E+02
     -5.275  0.5172E+01  0.2085E+02
     -5.221  0.3105E+01  0.2102E+02
     -5.167  0.4471E+01  0.2126E+02
     -5.112  0.3861E+00  0.2128E+02
     -5.058  0.1208E+02  0.2193E+02
     -5.004  0.9302E+01  0.2244E+02
     -4.950  0.1136E+02  0.2305E+02
     -4.896  0.1850E+01  0.2315E+02
     -4.842  0.5584E+01  0.2345E+02
     -4.788  0.5874E+01  0.2377E+02
     -4.733  0.4719E+01  0.2403E+02
     -4.679  0.0000E+00  0.2403E+02
     -4.625  0.2802E-01  0.2403E+02
     -4.571  0.3162E+01  0.2420E+02
     -4.517  0.1426E+01  0.2428E+02
     -4.463  0.3597E+01  0.2447E+02
     -4.408  0.5686E+01  0.2478E+02
     -4.354  0.1749E+01  0.2488E+02
     -4.300  0.2817E+01  0.2503E+02
     -4.246  0.1465E+01  0.2511E+02
     -4.192  0.9395E-01  0.2511E+02
     -4.138  0.1519E+01  0.2519E+02
     -4.084  0.4172E+01  0.2542E+02
     -4.029  0.3479E+01  0.2561E+02
     -3.975  0.4668E+01  0.2586E+02
     -3.921  0.3069E+01  0.2603E+02
     -3.867  0.3822E+01  0.2623E+02
     -3.813  0.3872E+01  0.2644E+02
     -3.759  0.1607E+01  0.2653E+02
     -3.704  0.1471E+01  0.2661E+02
     -3.650  0.9868E+00  0.2666E+02
     -3.596  0.1055E+02  0.2724E+02
     -3.542  0.7256E+01  0.2763E+02
     -3.488  0.1528E+01  0.2771E+02
     -3.434  0.3575E+01  0.2791E+02
     -3.380  0.2341E+01  0.2803E+02
     -3.325  0.7622E+01  0.2844E+02
     -3.271  0.4287E+01  0.2868E+02
     -3.217  0.7751E+01  0.2910E+02
     -3.163  0.1558E+01  0.2918E+02
     -3.109  0.7574E+00  0.2922E+02
     -3.055  0.5422E-07  0.2922E+02
     -3.000  0.2495E+01  0.2936E+02
     -2.946  0.6153E+00  0.2939E+02
     -2.892  0.3057E+01  0.2956E+02
     -2.838  0.1527E+01  0.2964E+02
     -2.784  0.8542E-15  0.2964E+02
     -2.730  0.5574E+00  0.2967E+02
     -2.675  0.1694E+01  0.2976E+02
     -2.621  0.8932E+00  0.2981E+02
     -2.567  0.1472E+01  0.2989E+02
     -2.513  0.1538E+01  0.2997E+02
     -2.459  0.4440E+00  0.3000E+02
     -2.405  0.7010E-01  0.3000E+02
     -2.351  0.0000E+00  0.3000E+02
     -2.296  0.0000E+00  0.3000E+02
     -2.242  0.0000E+00  0.3000E+02
     -2.188  0.0000E+00  0.3000E+02
     -2.134  0.0000E+00  0.3000E+02
     -2.080  0.0000E+00  0.3000E+02
     -2.026  0.0000E+00  0.3000E+02
     -1.971  0.0000E+00  0.3000E+02
     -1.917  0.0000E+00  0.3000E+02
     -1.863  0.4518E-08  0.3000E+02
     -1.809  0.7504E+00  0.3004E+02
     -1.755  0.1558E+01  0.3012E+02
     -1.701  0.5346E-05  0.3013E+02
     -1.647  0.1538E+01  0.3021E+02
     -1.592  0.8238E+00  0.3025E+02
     -1.538  0.4690E+01  0.3051E+02
     -1.484  0.6877E+00  0.3054E+02
     -1.430  0.4570E+01  0.3079E+02
     -1.376  0.1487E-02  0.3079E+02
     -1.322  0.1570E-01  0.3079E+02
     -1.267  0.4585E+01  0.3104E+02
     -1.213  0.9502E-01  0.3105E+02
     -1.159  0.4537E+01  0.3129E+02
     -1.105  0.3953E+01  0.3151E+02
     -1.051  0.2202E+01  0.3162E+02
     -0.997  0.2242E-03  0.3162E+02
     -0.943  0.0000E+00  0.3162E+02
     -0.888  0.1169E-02  0.3163E+02
     -0.834  0.2470E+01  0.3176E+02
     -0.780  0.6068E+00  0.3179E+02
     -0.726  0.0000E+00  0.3179E+02
     -0.672  0.1524E-08  0.3179E+02
     -0.618  0.3295E+00  0.3181E+02
     -0.563  0.3005E+01  0.3197E+02
     -0.509  0.0000E+00  0.3197E+02
     -0.455  0.0000E+00  0.3197E+02
     -0.401  0.0000E+00  0.3197E+02
     -0.347  0.0000E+00  0.3197E+02
     -0.293  0.0000E+00  0.3197E+02
     -0.239  0.0000E+00  0.3197E+02
     -0.184  0.0000E+00  0.3197E+02
     -0.130  0.0000E+00  0.3197E+02
     -0.076  0.2553E-05  0.3197E+02
     -0.022  0.1025E+01  0.3203E+02
      0.032  0.1017E-02  0.3203E+02
      0.086  0.0000E+00  0.3203E+02
      0.141  0.0000E+00  0.3203E+02
      0.195  0.0000E+00  0.3203E+02
      0.249  0.0000E+00  0.3203E+02
      0.303  0.0000E+00  0.3203E+02
      0.357  0.0000E+00  0.3203E+02
      0.411  0.0000E+00  0.3203E+02
      0.465  0.1388E-10  0.3203E+02
      0.520  0.2458E+01  0.3216E+02
      0.574  0.6193E+00  0.3219E+02
      0.628  0.0000E+00  0.3219E+02
      0.682  0.0000E+00  0.3219E+02
      0.736  0.8312E-01  0.3220E+02
      0.790  0.1456E+01  0.3228E+02
      0.845  0.0000E+00  0.3228E+02
      0.899  0.0000E+00  0.3228E+02
      0.953  0.0000E+00  0.3228E+02
      1.007  0.5741E-08  0.3228E+02
      1.061  0.5469E+01  0.3257E+02
      1.115  0.2746E+01  0.3272E+02
      1.169  0.2915E+01  0.3288E+02
      1.224  0.1694E+01  0.3297E+02
      1.278  0.3059E+01  0.3314E+02
      1.332  0.1365E+01  0.3321E+02
      1.386  0.9478E+00  0.3326E+02
      1.440  0.3861E+01  0.3347E+02
      1.494  0.1637E-08  0.3347E+02
      1.549  0.3361E+01  0.3365E+02
      1.603  0.1255E+01  0.3372E+02
      1.657  0.3076E+01  0.3389E+02
      1.711  0.1607E-02  0.3389E+02
      1.765  0.6772E-03  0.3389E+02
      1.819  0.1795E+01  0.3399E+02
      1.873  0.3008E-01  0.3399E+02
      1.928  0.4507E+01  0.3423E+02
      1.982  0.3175E+01  0.3440E+02
      2.036  0.5827E+00  0.3444E+02
      2.090  0.1920E+01  0.3454E+02
      2.144  0.1565E+01  0.3462E+02
      2.198  0.1556E+01  0.3471E+02
      2.253  0.1343E+01  0.3478E+02
      2.307  0.3273E+01  0.3496E+02
      2.361  0.1434E-02  0.3496E+02
      2.415  0.1647E+01  0.3505E+02
      2.469  0.4508E+01  0.3529E+02
      2.523  0.2067E-01  0.3529E+02
      2.577  0.3022E+01  0.3546E+02
      2.632  0.3112E+01  0.3562E+02
      2.686  0.5125E-15  0.3562E+02
      2.740  0.5164E+00  0.3565E+02
      2.794  0.1147E+01  0.3572E+02
      2.848  0.5562E+01  0.3602E+02
      2.902  0.4713E+01  0.3627E+02
      2.957  0.1141E+01  0.3633E+02
      3.011  0.2955E+01  0.3649E+02
      3.065  0.1229E+00  0.3650E+02
      3.119  0.7026E+00  0.3654E+02
      3.173  0.2375E+01  0.3667E+02
      3.227  0.1838E+01  0.3677E+02
      3.282  0.1240E+01  0.3683E+02
      3.336  0.6519E+01  0.3719E+02
      3.390  0.4252E+01  0.3742E+02
      3.444  0.0000E+00  0.3742E+02
      3.498  0.3099E+00  0.3743E+02
      3.552  0.2768E+01  0.3758E+02
      3.606  0.4954E-14  0.3758E+02
      3.661  0.1267E+01  0.3765E+02
      3.715  0.1810E+01  0.3775E+02
      3.769  0.1358E+01  0.3782E+02
      3.823  0.6030E+01  0.3815E+02
      3.877  0.3060E+00  0.3817E+02
      3.931  0.3037E+01  0.3833E+02
      3.986  0.3118E+01  0.3850E+02
      4.040  0.4074E-02  0.3850E+02
      4.094  0.1538E+01  0.3858E+02
      4.148  0.3075E+01  0.3875E+02
      4.202  0.1141E-10  0.3875E+02
      4.256  0.2434E+01  0.3888E+02
      4.310  0.2179E+01  0.3900E+02
      4.365  0.4555E+00  0.3902E+02
      4.419  0.2866E+01  0.3918E+02
      4.473  0.3016E+01  0.3934E+02
      4.527  0.1570E+01  0.3943E+02
      4.581  0.4173E+01  0.3965E+02
      4.635  0.4907E+00  0.3968E+02
      4.690  0.1479E+01  0.3976E+02
      4.744  0.3255E+01  0.3994E+02
      4.798  0.4591E+01  0.4019E+02
      4.852  0.4523E+01  0.4043E+02
      4.906  0.3071E+01  0.4060E+02
      4.960  0.7060E-02  0.4060E+02
      5.014  0.1611E+01  0.4068E+02
      5.069  0.3006E+01  0.4085E+02
      5.123  0.1218E+01  0.4091E+02
      5.177  0.6800E+01  0.4128E+02
      5.231  0.5831E+01  0.4160E+02
      5.285  0.6385E-08  0.4160E+02
      5.339  0.2962E+01  0.4176E+02
      5.394  0.1652E+01  0.4185E+02
      5.448  0.2027E-02  0.4185E+02
      5.502  0.2518E+01  0.4198E+02
      5.556  0.3664E+01  0.4218E+02
      5.610  0.4126E+01  0.4241E+02
      5.664  0.6102E+01  0.4274E+02
      5.718  0.6369E+00  0.4277E+02
      5.773  0.2121E+01  0.4289E+02
      5.827  0.2644E+01  0.4303E+02
      5.881  0.1442E+01  0.4311E+02
      5.935  0.6697E+01  0.4347E+02
      5.989  0.4696E+01  0.4372E+02
      6.043  0.2538E+01  0.4386E+02
      6.098  0.3071E+01  0.4403E+02
      6.152  0.4954E+01  0.4430E+02
      6.206  0.2746E+01  0.4444E+02
      6.260  0.3313E-01  0.4445E+02
      6.314  0.6353E+01  0.4479E+02
      6.368  0.4634E+01  0.4504E+02
      6.422  0.1805E+01  0.4514E+02
      6.477  0.6578E+00  0.4517E+02
      6.531  0.1014E+02  0.4572E+02
      6.585  0.1201E+02  0.4637E+02
      6.639  0.2172E+01  0.4649E+02
      6.693  0.8603E+00  0.4654E+02
      6.747  0.2302E+01  0.4666E+02
      6.802  0.1271E+02  0.4735E+02
      6.856  0.1204E+01  0.4742E+02
      6.910  0.3191E+01  0.4759E+02
      6.964  0.8757E+01  0.4806E+02
      7.018  0.2627E+01  0.4821E+02
      7.072  0.3584E+01  0.4840E+02
      7.126  0.9402E+01  0.4891E+02
      7.181  0.3492E+01  0.4910E+02
      7.235  0.4703E+01  0.4935E+02
      7.289  0.7589E+01  0.4976E+02
      7.343  0.4615E+01  0.5001E+02
      7.397  0.1394E+01  0.5009E+02
      7.451  0.4368E+01  0.5033E+02
      7.506  0.1540E+02  0.5116E+02
      7.560  0.6420E+01  0.5151E+02
      7.614  0.8471E+01  0.5197E+02
      7.668  0.2727E+01  0.5211E+02
      7.722  0.7923E+00  0.5216E+02
      7.776  0.1556E+01  0.5224E+02
      7.830  0.8034E+01  0.5268E+02
      7.885  0.1878E+01  0.5278E+02
      7.939  0.6089E+01  0.5311E+02
      7.993  0.6540E+01  0.5346E+02
      8.047  0.7418E+01  0.5386E+02
      8.101  0.8247E+01  0.5431E+02
      8.155  0.7097E+01  0.5469E+02
      8.210  0.1028E+02  0.5525E+02
      8.264  0.1007E+02  0.5580E+02
      8.318  0.1813E+00  0.5581E+02
      8.372  0.7930E+01  0.5624E+02
      8.426  0.9727E+01  0.5676E+02
      8.480  0.3103E+01  0.5693E+02
      8.534  0.4374E+01  0.5717E+02
      8.589  0.7616E+01  0.5758E+02
      8.643  0.1016E+02  0.5813E+02
      8.697  0.1180E+02  0.5877E+02
      8.751  0.9756E+01  0.5930E+02
      8.805  0.2215E+01  0.5942E+02
      8.859  0.5423E+01  0.5971E+02
      8.914  0.2150E+01  0.5983E+02
      8.968  0.4688E+01  0.6008E+02
      9.022  0.2526E+01  0.6022E+02
      9.076  0.8287E+01  0.6067E+02
      9.130  0.6499E+01  0.6102E+02
      9.184  0.8552E+01  0.6148E+02
      9.239  0.7413E+01  0.6188E+02
      9.293  0.8264E+01  0.6233E+02
      9.347  0.3326E+01  0.6251E+02
      9.401  0.6408E+01  0.6286E+02
      9.455  0.7513E+01  0.6327E+02
      9.509  0.1480E+02  0.6407E+02
      9.563  0.5661E+01  0.6437E+02
      9.618  0.3708E-01  0.6438E+02
      9.672  0.1908E+01  0.6448E+02
      9.726  0.1294E+02  0.6518E+02
      9.780  0.8740E+01  0.6565E+02
      9.834  0.5691E+01  0.6596E+02
      9.888  0.3045E+01  0.6613E+02
      9.943  0.6205E+01  0.6646E+02
      9.997  0.4523E+01  0.6671E+02
     10.051  0.7960E+00  0.6675E+02
     10.105  0.3088E+01  0.6692E+02
     10.159  0.4591E+01  0.6717E+02
     10.213  0.2005E+01  0.6727E+02
     10.267  0.6599E+01  0.6763E+02
     10.322  0.5325E+01  0.6792E+02
     10.376  0.4043E+01  0.6814E+02
     10.430  0.9899E+01  0.6867E+02
     10.484  0.5434E+01  0.6897E+02
     10.538  0.2823E+01  0.6912E+02
     10.592  0.8501E+01  0.6958E+02
     10.647  0.4265E+01  0.6981E+02
     10.701  0.1140E+01  0.6987E+02
     10.755  0.4025E+01  0.7009E+02
     10.809  0.5025E+01  0.7036E+02
     10.863  0.4290E+01  0.7060E+02
     10.917  0.5401E+01  0.7089E+02
     10.971  0.2293E+01  0.7101E+02
     11.026  0.7569E+01  0.7142E+02
     11.080  0.9067E+01  0.7191E+02
     11.134  0.5502E+01  0.7221E+02
     11.188  0.1713E+01  0.7231E+02
     11.242  0.1405E+01  0.7238E+02
     11.296  0.1550E+01  0.7247E+02
     11.351  0.6328E+01  0.7281E+02
     11.405  0.3527E+01  0.7300E+02
     11.459  0.3603E+01  0.7319E+02
     11.513  0.5351E-03  0.7319E+02
     11.567  0.3241E+01  0.7337E+02
     11.621  0.4452E+01  0.7361E+02
     11.675  0.1373E+01  0.7369E+02
     11.730  0.9071E+01  0.7418E+02
     11.784  0.3897E+01  0.7439E+02
     11.838  0.3154E+01  0.7456E+02
     11.892  0.9096E+01  0.7505E+02
     11.946  0.8325E+01  0.7550E+02
     12.000  0.5913E+01  0.7582E+02
     12.055  0.7165E+01  0.7621E+02
     12.109  0.7553E+01  0.7662E+02
     12.163  0.1668E+02  0.7752E+02
     12.217  0.9330E+01  0.7803E+02
     12.271  0.1267E+01  0.7810E+02
     12.325  0.5620E+01  0.7840E+02
     12.379  0.1030E+02  0.7896E+02
     12.434  0.5890E+01  0.7928E+02
     12.488  0.2965E-01  0.7928E+02
     12.542  0.3683E+01  0.7948E+02
     12.596  0.1087E+02  0.8007E+02
     12.650  0.4382E+01  0.8030E+02
     12.704  0.9522E+01  0.8082E+02
     12.759  0.2600E+01  0.8096E+02
     12.813  0.1479E+01  0.8104E+02
     12.867  0.7991E+01  0.8147E+02
     12.921  0.4737E+01  0.8173E+02
     12.975  0.5056E+01  0.8200E+02
     13.029  0.1258E+02  0.8269E+02
     13.083  0.5772E+01  0.8300E+02
     13.138  0.5584E+01  0.8330E+02
     13.192  0.4772E+01  0.8356E+02
     13.246  0.4126E+01  0.8378E+02
     13.300  0.9634E+01  0.8430E+02
     13.354  0.6444E+01  0.8465E+02
     13.408  0.2492E+01  0.8479E+02
     13.463  0.2235E+01  0.8491E+02
     13.517  0.5399E+01  0.8520E+02
     13.571  0.2118E+01  0.8532E+02
     13.625  0.8034E+01  0.8575E+02
     13.679  0.6610E+01  0.8611E+02
     13.733  0.3967E+01  0.8632E+02
     13.787  0.7600E+01  0.8674E+02
     13.842  0.4936E+01  0.8700E+02
     13.896  0.1194E+02  0.8765E+02
     13.950  0.7627E+01  0.8806E+02
     14.004  0.7108E+01  0.8845E+02
     14.058  0.6638E+01  0.8881E+02
     14.112  0.7894E+01  0.8923E+02
     14.167  0.2691E+01  0.8938E+02
     14.221  0.1125E+02  0.8999E+02
     14.275  0.5907E+01  0.9031E+02
     14.329  0.1326E+02  0.9103E+02
     14.383  0.1035E+02  0.9159E+02
     14.437  0.2810E+01  0.9174E+02
     14.492  0.8081E+01  0.9218E+02
     14.546  0.7172E+01  0.9257E+02
     14.600  0.1846E+00  0.9258E+02
     14.654  0.3672E+01  0.9277E+02
     14.708  0.8983E+01  0.9326E+02
     14.762  0.2295E+01  0.9339E+02
     14.816  0.5936E-01  0.9339E+02
     14.871  0.4579E+01  0.9364E+02
     14.925  0.8698E+01  0.9411E+02
     14.979  0.6727E+01  0.9447E+02
     15.033  0.6504E+01  0.9482E+02
     15.087  0.9896E+01  0.9536E+02
     15.141  0.1349E+01  0.9543E+02
     15.196  0.4633E+01  0.9568E+02
     15.250  0.6759E+01  0.9605E+02
     15.304  0.2659E+01  0.9619E+02
     15.358  0.3804E+01  0.9640E+02
     15.412  0.4968E+01  0.9667E+02
     15.466  0.4053E+01  0.9689E+02
     15.520  0.2250E+01  0.9701E+02
     15.575  0.3841E+01  0.9722E+02
     15.629  0.1098E+01  0.9728E+02
     15.683  0.6917E+01  0.9765E+02
     15.737  0.7786E+01  0.9807E+02
     15.791  0.5769E+01  0.9839E+02
     15.845  0.3577E+01  0.9858E+02
     15.900  0.4410E+01  0.9882E+02
     15.954  0.3079E+01  0.9899E+02
     16.008  0.7774E+01  0.9941E+02
     16.062  0.5205E+01  0.9969E+02
     16.116  0.5879E+01  0.1000E+03
     16.170  0.8204E+01  0.1005E+03
     16.224  0.5764E+01  0.1008E+03
     16.279  0.2276E+01  0.1009E+03
     16.333  0.3879E+01  0.1011E+03
     16.387  0.3627E+01  0.1013E+03
     16.441  0.5599E+01  0.1016E+03
     16.495  0.6353E+01  0.1019E+03
     16.549  0.7139E+01  0.1023E+03
     16.604  0.1222E+02  0.1030E+03
     16.658  0.5112E+01  0.1033E+03
     16.712  0.8698E+01  0.1037E+03
     16.766  0.4695E+01  0.1040E+03
     16.820  0.7737E+01  0.1044E+03
     16.874  0.4071E+01  0.1046E+03
     16.928  0.1014E+02  0.1052E+03
     16.983  0.5950E+00  0.1052E+03
     17.037  0.1011E+02  0.1058E+03
     17.091  0.6208E+01  0.1061E+03
     17.145  0.1277E+02  0.1068E+03
     17.199  0.6334E+01  0.1071E+03
     17.253  0.1386E+02  0.1079E+03
     17.308  0.3492E+01  0.1081E+03
     17.362  0.8312E+01  0.1085E+03
     17.416  0.2358E+01  0.1086E+03
     17.470  0.1032E+02  0.1092E+03
     17.524  0.1149E+02  0.1098E+03
     17.578  0.1063E+02  0.1104E+03
     17.632  0.5926E+01  0.1107E+03
     17.687  0.1680E+01  0.1108E+03
     17.741  0.6835E+01  0.1112E+03
     17.795  0.9326E+00  0.1112E+03
     17.849  0.4811E+01  0.1115E+03
     17.903  0.2608E+01  0.1116E+03
     17.957  0.1871E+01  0.1117E+03
     18.012  0.1065E+02  0.1123E+03
     18.066  0.7574E+01  0.1127E+03
     18.120  0.6844E+01  0.1131E+03
     18.174  0.5259E+01  0.1134E+03
     18.228  0.1036E+02  0.1139E+03
     18.282  0.2372E+01  0.1141E+03
     18.336  0.4720E+00  0.1141E+03
     18.391  0.8995E+01  0.1146E+03
     18.445  0.8194E+01  0.1150E+03
     18.499  0.1067E+02  0.1156E+03
     18.553  0.6803E+01  0.1160E+03
     18.607  0.8502E+01  0.1164E+03
     18.661  0.8241E+01  0.1169E+03
     18.716  0.6183E+01  0.1172E+03
     18.770  0.2171E+01  0.1173E+03
     18.824  0.1111E+02  0.1179E+03
     18.878  0.5727E+01  0.1182E+03
     18.932  0.7052E+01  0.1186E+03
     18.986  0.7706E+01  0.1190E+03
     19.040  0.8882E+01  0.1195E+03
     19.095  0.2766E+01  0.1197E+03
     19.149  0.9638E+01  0.1202E+03
     19.203  0.1077E+02  0.1208E+03
     19.257  0.4184E+01  0.1210E+03
     19.311  0.9681E+01  0.1215E+03
     19.365  0.7757E+01  0.1220E+03
     19.420  0.8250E+01  0.1224E+03
     19.474  0.9522E+01  0.1229E+03
     19.528  0.1230E+01  0.1230E+03
     19.582  0.8326E+01  0.1234E+03
     19.636  0.9193E+01  0.1239E+03
     19.690  0.1260E+02  0.1246E+03
     19.744  0.6408E+01  0.1250E+03
     19.799  0.8599E+01  0.1254E+03
     19.853  0.8515E+01  0.1259E+03
     19.907  0.6223E+01  0.1262E+03
     19.961  0.1182E+02  0.1269E+03
     20.015  0.2642E+01  0.1270E+03
     20.069  0.1123E+02  0.1276E+03
     20.124  0.1361E+02  0.1284E+03
     20.178  0.6024E+01  0.1287E+03
     20.232  0.1038E+02  0.1292E+03