<?xml version="1.0" encoding="ISO-8859-1"?>
<modeling>
 <generator>
  <i name="program" type="string">vasp </i>
  <i name="version" type="string">5.4.4.18Apr17-6-g9f103f2a35  </i>
  <i name="subversion" type="string">(build Mar 30 2023 15:39:25) complex            parallel </i>
  <i name="platform" type="string">LinuxIFC </i>
  <i name="date" type="string">2023 06 28 </i>
  <i name="time" type="string">01:55:04 </i>
 </generator>
 <incar>
  <i type="string" name="SYSTEM"> BC3-optical</i>
  <i type="int" name="ISTART">     1</i>
  <i type="string" name="PREC">accurate</i>
  <i type="string" name="ALGO"> Exact</i>
  <i type="int" name="ICHARG">     2</i>
  <i name="EDIFF">      0.00000001</i>
  <i name="ENCUT">    450.00000000</i>
  <i type="int" name="NBANDS">   480</i>
  <i type="int" name="NEDOS">  2400</i>
  <i type="logical" name="LREAL"> F  </i>
  <i type="int" name="ISMEAR">     0</i>
  <i name="SIGMA">      0.01000000</i>
  <i type="int" name="NWRITE">     3</i>
  <i type="logical" name="LOPTICS"> T  </i>
  <v type="int" name="KPOINT_BSE">    -1     0     0     0</v>
  <i name="CSHIFT">      0.10000000</i>
  <i name="CSHIFT">      0.10000000</i>
 </incar>
 <structure name="primitive_cell" >
  <crystal>
   <varray name="basis" >
    <v>       4.48084843       2.58701885       0.00000000 </v>
    <v>      -4.48084843       2.58701885       0.00000000 </v>
    <v>       0.00000000       0.00000000       8.52022140 </v>
   </varray>
   <i name="volume">    197.53348383 </i>
   <varray name="rec_basis" >
    <v>       0.11158601       0.19327265       0.00000000 </v>
    <v>      -0.11158601       0.19327265       0.00000000 </v>
    <v>       0.00000000       0.00000000       0.11736784 </v>
   </varray>
  </crystal>
  <varray name="positions" >
   <v>       0.33333300      -0.33333400       0.25000000 </v>
   <v>       0.15869124       0.31738348       0.25000000 </v>
   <v>      -0.31738448      -0.15869224       0.25000000 </v>
   <v>       0.15869124      -0.15869224       0.25000000 </v>
   <v>      -0.15869224       0.15869124       0.25000000 </v>
   <v>       0.31738348       0.15869124       0.25000000 </v>
   <v>      -0.15869224      -0.31738448       0.25000000 </v>
   <v>      -0.33333400       0.33333300       0.25000000 </v>
  </varray>
 </structure>
 <varray name="primitive_index" >
  <v type="int" >        1 </v>
  <v type="int" >        3 </v>
  <v type="int" >        7 </v>
  <v type="int" >        5 </v>
  <v type="int" >        6 </v>
  <v type="int" >        4 </v>
  <v type="int" >        8 </v>
  <v type="int" >        2 </v>
 </varray>
 <kpoints>
  <generation param="Gamma">
   <v type="int" name="divisions">      12       12        1 </v>
   <v name="usershift">      0.00000000       0.00000000       0.00000000 </v>
   <v name="genvec1">      0.08333333       0.00000000       0.00000000 </v>
   <v name="genvec2">      0.00000000       0.08333333       0.00000000 </v>
   <v name="genvec3">      0.00000000       0.00000000       1.00000000 </v>
   <v name="shift">      0.00000000       0.00000000       0.00000000 </v>
  </generation>
  <varray name="kpointlist" >
   <v>       0.00000000       0.00000000       0.00000000 </v>
   <v>       0.08333333       0.00000000       0.00000000 </v>
   <v>       0.16666667       0.00000000       0.00000000 </v>
   <v>       0.25000000      -0.00000000       0.00000000 </v>
   <v>       0.33333333      -0.00000000       0.00000000 </v>
   <v>       0.41666667       0.00000000       0.00000000 </v>
   <v>       0.50000000      -0.00000000       0.00000000 </v>
   <v>       0.08333333       0.08333333       0.00000000 </v>
   <v>       0.16666667       0.08333333       0.00000000 </v>
   <v>       0.25000000       0.08333333       0.00000000 </v>
   <v>       0.33333333       0.08333333       0.00000000 </v>
   <v>       0.41666667       0.08333333       0.00000000 </v>
   <v>       0.16666667       0.16666667       0.00000000 </v>
   <v>       0.25000000       0.16666667       0.00000000 </v>
   <v>       0.33333333       0.16666667       0.00000000 </v>
   <v>       0.41666667       0.16666667       0.00000000 </v>
   <v>       0.25000000       0.25000000       0.00000000 </v>
   <v>       0.33333333       0.25000000       0.00000000 </v>
   <v>       0.33333333       0.33333333       0.00000000 </v>
  </varray>
  <varray name="weights" >
   <v>       0.00694444 </v>
   <v>       0.04166667 </v>
   <v>       0.04166667 </v>
   <v>       0.04166667 </v>
   <v>       0.04166667 </v>
   <v>       0.04166667 </v>
   <v>       0.02083333 </v>
   <v>       0.04166667 </v>
   <v>       0.08333333 </v>
   <v>       0.08333333 </v>
   <v>       0.08333333 </v>
   <v>       0.08333333 </v>
   <v>       0.04166667 </v>
   <v>       0.08333333 </v>
   <v>       0.08333333 </v>
   <v>       0.04166667 </v>
   <v>       0.04166667 </v>
   <v>       0.08333333 </v>
   <v>       0.01388889 </v>
  </varray>
 </kpoints>
 <parameters>
  <separator name="general" >
   <i type="string" name="SYSTEM">BC3-optical</i>
   <i type="logical" name="LCOMPAT"> F  </i>
  </separator>
  <separator name="electronic" >
   <i type="string" name="PREC">accura</i>
   <i name="ENMAX">    450.00000000</i>
   <i name="ENAUG">    644.87300000</i>
   <i name="EDIFF">      0.00000001</i>
   <i type="int" name="IALGO">    90</i>
   <i type="int" name="IWAVPR">    10</i>
   <i type="int" name="NBANDS">   480</i>
   <i name="NELECT">     30.00000000</i>
   <i type="int" name="TURBO">     0</i>
   <i type="int" name="IRESTART">     0</i>
   <i type="int" name="NREBOOT">     0</i>
   <i type="int" name="NMIN">     0</i>
   <i name="EREF">      0.00000000</i>
   <separator name="electronic smearing" >
    <i type="int" name="ISMEAR">     0</i>
    <i name="SIGMA">      0.01000000</i>
    <i name="KSPACING">      0.50000000</i>
    <i type="logical" name="KGAMMA"> T  </i>
   </separator>
   <separator name="electronic projectors" >
    <i type="logical" name="LREAL"> F  </i>
    <v name="ROPT">      0.00000000      0.00000000</v>
    <i type="int" name="LMAXPAW">  -100</i>
    <i type="int" name="LMAXMIX">     2</i>
    <i type="logical" name="NLSPLINE"> F  </i>
   </separator>
   <separator name="electronic startup" >
    <i type="int" name="ISTART">     1</i>
    <i type="int" name="ICHARG">     2</i>
    <i type="int" name="INIWAV">     1</i>
   </separator>
   <separator name="electronic spin" >
    <i type="int" name="ISPIN">     1</i>
    <i type="logical" name="LNONCOLLINEAR"> F  </i>
    <v name="MAGMOM">      1.00000000      1.00000000      1.00000000      1.00000000      1.00000000      1.00000000      1.00000000      1.00000000</v>
    <i name="NUPDOWN">     -1.00000000</i>
    <i type="logical" name="LSORBIT"> F  </i>
    <v name="SAXIS">      0.00000000      0.00000000      1.00000000</v>
    <i type="logical" name="LSPIRAL"> F  </i>
    <v name="QSPIRAL">      0.00000000      0.00000000      0.00000000</v>
    <i type="logical" name="LZEROZ"> F  </i>
   </separator>
   <separator name="electronic exchange-correlation" >
    <i type="logical" name="LASPH"> F  </i>
    <i type="logical" name="LMETAGGA"> F  </i>
   </separator>
   <separator name="electronic convergence" >
    <i type="int" name="NELM">    60</i>
    <i type="int" name="NELMDL">     0</i>
    <i type="int" name="NELMIN">     2</i>
    <i name="ENINI">    450.00000000</i>
    <separator name="electronic convergence detail" >
     <i type="logical" name="LDIAG"> T  </i>
     <i type="logical" name="LSUBROT"> F  </i>
     <i name="WEIMIN">      0.00000000</i>
     <i name="EBREAK">      0.00000000</i>
     <i name="DEPER">      0.30000000</i>
     <i type="int" name="NRMM">     4</i>
     <i name="TIME">      0.40000000</i>
    </separator>
   </separator>
   <separator name="electronic mixer" >
    <i name="AMIX">      0.40000000</i>
    <i name="BMIX">      1.00000000</i>
    <i name="AMIN">      0.10000000</i>
    <i name="AMIX_MAG">      1.60000000</i>
    <i name="BMIX_MAG">      1.00000000</i>
    <separator name="electronic mixer details" >
     <i type="int" name="IMIX">     4</i>
     <i type="logical" name="MIXFIRST"> F  </i>
     <i type="int" name="MAXMIX">   -45</i>
     <i name="WC">    100.00000000</i>
     <i type="int" name="INIMIX">     1</i>
     <i type="int" name="MIXPRE">     1</i>
     <i type="int" name="MREMOVE">     5</i>
    </separator>
   </separator>
   <separator name="electronic dipolcorrection" >
    <i type="logical" name="LDIPOL"> F  </i>
    <i type="logical" name="LMONO"> F  </i>
    <i type="int" name="IDIPOL">     0</i>
    <i name="EPSILON">      1.00000000</i>
    <v name="DIPOL">   -100.00000000   -100.00000000   -100.00000000</v>
    <i name="EFIELD">      0.00000000</i>
   </separator>
  </separator>
  <separator name="grids" >
   <i type="int" name="NGX">    36</i>
   <i type="int" name="NGY">    36</i>
   <i type="int" name="NGZ">    60</i>
   <i type="int" name="NGXF">    72</i>
   <i type="int" name="NGYF">    72</i>
   <i type="int" name="NGZF">   120</i>
   <i type="logical" name="ADDGRID"> F  </i>
  </separator>
  <separator name="ionic" >
   <i type="int" name="NSW">     0</i>
   <i type="int" name="IBRION">    -1</i>
   <i type="int" name="MDALGO">     0</i>
   <i type="int" name="ISIF">     2</i>
   <i name="PSTRESS">      0.00000000</i>
   <i name="EDIFFG">      0.00000010</i>
   <i type="int" name="NFREE">     0</i>
   <i name="POTIM">      0.50000000</i>
   <i name="SMASS">     -3.00000000</i>
   <i name="SCALEE">      1.00000000</i>
  </separator>
  <separator name="ionic md" >
   <i name="TEBEG">      0.00010000</i>
   <i name="TEEND">      0.00010000</i>
   <i type="int" name="NBLOCK">     1</i>
   <i type="int" name="KBLOCK">     1</i>
   <i type="int" name="NPACO">   256</i>
   <i name="APACO">     16.00000000</i>
  </separator>
  <separator name="symmetry" >
   <i type="int" name="ISYM">     2</i>
   <i name="SYMPREC">      0.00001000</i>
  </separator>
  <separator name="dos" >
   <i type="int" name="LORBIT">     0</i>
   <v name="RWIGS">     -1.00000000     -1.00000000</v>
   <i type="int" name="NEDOS">  2400</i>
   <i name="EMIN">     10.00000000</i>
   <i name="EMAX">    -10.00000000</i>
   <i name="EFERMI">      0.00000000</i>
  </separator>
  <separator name="writing" >
   <i type="int" name="NWRITE">     3</i>
   <i type="logical" name="LWAVE"> T  </i>
   <i type="logical" name="LDOWNSAMPLE"> F  </i>
   <i type="logical" name="LCHARG"> T  </i>
   <i type="logical" name="LPARD"> F  </i>
   <i type="logical" name="LVTOT"> F  </i>
   <i type="logical" name="LVHAR"> F  </i>
   <i type="logical" name="LELF"> F  </i>
   <i type="logical" name="LOPTICS"> T  </i>
   <v name="STM">      0.00000000      0.00000000      0.00000000      0.00000000      0.00000000      0.00000000      0.00000000</v>
  </separator>
  <separator name="performance" >
   <i type="int" name="NPAR">    12</i>
   <i type="int" name="NSIM">     4</i>
   <i type="int" name="NBLK">    -1</i>
   <i type="logical" name="LPLANE"> T  </i>
   <i type="logical" name="LSCALAPACK"> T  </i>
   <i type="logical" name="LSCAAWARE"> T  </i>
   <i type="logical" name="LSCALU"> F  </i>
   <i type="logical" name="LASYNC"> F  </i>
   <i type="logical" name="LORBITALREAL"> F  </i>
  </separator>
  <separator name="miscellaneous" >
   <i type="int" name="IDIOT">     3</i>
   <i type="int" name="ISPECIAL">     0</i>
   <i type="logical" name="LMUSIC"> F  </i>
   <v name="POMASS">     10.81100000     12.01100000</v>
   <v name="DARWINR">      0.00000000      0.00000000</v>
   <v name="DARWINV">      1.00000000      1.00000000</v>
   <i type="logical" name="LCORR"> T  </i>
  </separator>
  <i type="logical" name="GGA_COMPAT"> T  </i>
  <i type="logical" name="LBERRY"> F  </i>
  <i type="int" name="ICORELEVEL">     0</i>
  <i type="logical" name="LDAU"> F  </i>
  <i type="int" name="I_CONSTRAINED_M">     0</i>
  <separator name="electronic exchange-correlation" >
   <i type="string" name="GGA">--</i>
   <i type="int" name="VOSKOWN">     0</i>
   <i type="logical" name="LHFCALC"> F  </i>
   <i type="string" name="PRECFOCK"></i>
   <i type="logical" name="LSYMGRAD"> F  </i>
   <i type="logical" name="LHFONE"> F  </i>
   <i type="logical" name="LRHFCALC"> F  </i>
   <i type="logical" name="LTHOMAS"> F  </i>
   <i type="logical" name="LMODELHF"> F  </i>
   <i name="ENCUT4O">     -1.00000000</i>
   <i type="int" name="EXXOEP">     0</i>
   <i type="int" name="FOURORBIT">     0</i>
   <i name="AEXX">      0.00000000</i>
   <i name="HFALPHA">      0.00000000</i>
   <i name="MCALPHA">      0.00000000</i>
   <i name="ALDAX">      1.00000000</i>
   <i name="AGGAX">      1.00000000</i>
   <i name="ALDAC">      1.00000000</i>
   <i name="AGGAC">      1.00000000</i>
   <i type="int" name="NKREDX">     1</i>
   <i type="int" name="NKREDY">     1</i>
   <i type="int" name="NKREDZ">     1</i>
   <i type="logical" name="SHIFTRED"> F  </i>
   <i type="logical" name="ODDONLY"> F  </i>
   <i type="logical" name="EVENONLY"> F  </i>
   <i type="int" name="LMAXFOCK">     0</i>
   <i type="int" name="NMAXFOCKAE">     0</i>
   <i type="logical" name="LFOCKAEDFT"> F  </i>
   <i name="HFSCREEN">      0.00000000</i>
   <i name="HFSCREENC">      0.00000000</i>
   <i type="int" name="NBANDSGWLOW">     0</i>
  </separator>
  <separator name="vdW DFT" >
   <i type="logical" name="LUSE_VDW"> F  </i>
   <i name="Zab_VDW">     -0.84910000</i>
   <i name="PARAM1">      0.12340000</i>
   <i name="PARAM2">      1.00000000</i>
   <i name="PARAM3">      0.00000000</i>
  </separator>
  <separator name="model GW" >
   <i type="int" name="MODEL_GW">     0</i>
   <i name="MODEL_EPS0">     14.81501129</i>
   <i name="MODEL_ALPHA">      1.00000000</i>
  </separator>
  <separator name="linear response parameters" >
   <i type="logical" name="LEPSILON"> F  </i>
   <i type="logical" name="LRPA"> F  </i>
   <i type="logical" name="LNABLA"> F  </i>
   <i type="logical" name="LVEL"> F  </i>
   <i type="int" name="KINTER">     0</i>
   <i name="CSHIFT">      0.10000000</i>
   <i name="OMEGAMAX">     -1.00000000</i>
   <i name="DEG_THRESHOLD">      0.00200000</i>
   <i name="RTIME">     -0.10000000</i>
   <i name="WPLASMAI">      0.00000000</i>
   <v name="DFIELD">      0.00000000      0.00000000      0.00000000</v>
   <v name="WPLASMA">      0.00000000      0.00000000      0.00000000      0.00000000      0.00000000      0.00000000      0.00000000      0.00000000      0.00000000</v>
  </separator>
  <separator name="orbital magnetization" >
   <i type="logical" name="NUCIND"> F  </i>
   <v name="MAGPOS">      0.00000000      0.00000000      0.00000000</v>
   <i type="logical" name="LNICSALL"> T  </i>
   <i type="logical" name="ORBITALMAG"> F  </i>
   <i type="logical" name="LMAGBLOCH"> F  </i>
   <i type="logical" name="LCHIMAG"> F  </i>
   <i type="logical" name="LGAUGE"> T  </i>
   <i type="int" name="MAGATOM">     0</i>
   <v name="MAGDIPOL">      0.00000000      0.00000000      0.00000000</v>
   <v name="AVECCONST">      0.00000000      0.00000000      0.00000000</v>
  </separator>
  <separator name="response functions" >
   <i type="logical" name="LADDER"> F  </i>
   <i type="logical" name="LRPAFORCE"> F  </i>
   <i type="logical" name="LFXC"> F  </i>
   <i type="logical" name="LHARTREE"> T  </i>
   <i type="int" name="IBSE">     0</i>
   <v type="int" name="KPOINT">    -1     0     0     0</v>
   <i type="logical" name="LTCTE"> F  </i>
   <i type="logical" name="LTETE"> F  </i>
   <i type="logical" name="LTRIPLET"> F  </i>
   <i type="logical" name="LFXCEPS"> F  </i>
   <i type="logical" name="LFXHEG"> F  </i>
   <i type="int" name="NATURALO">     2</i>
   <i type="logical" name="L2ORDER"> F  </i>
   <i type="logical" name="LMP2LT"> F  </i>
   <i type="logical" name="LUSEW"> F  </i>
   <i name="ENCUTGW">     -2.00000000</i>
   <i name="ENCUTGWSOFT">     -2.00000000</i>
   <i name="ENCUTLF">     -1.00000000</i>
   <i type="int" name="LMAXMP2">    -1</i>
   <i name="SCISSOR">      0.00000000</i>
   <i type="int" name="NOMEGA">     0</i>
   <i type="int" name="NOMEGAR">     0</i>
   <i type="int" name="NBANDSGW">    -1</i>
   <i type="int" name="NBANDSO">    -1</i>
   <i type="int" name="NBANDSV">    -1</i>
   <i type="int" name="NELM">     1</i>
   <i type="int" name="NELMHF">     1</i>
   <i type="int" name="DIM">     3</i>
   <i type="int" name="ANTIRES">     0</i>
   <i name="OMEGAMAX">    -30.00000000</i>
   <i name="OMEGAMIN">    -30.00000000</i>
   <i name="OMEGATL">   -200.00000000</i>
   <i type="int" name="OMEGAGRID">   140</i>
   <i name="CSHIFT">      0.10000000</i>
   <i type="logical" name="SELFENERGY"> F  </i>
   <i type="logical" name="LSPECTRAL"> F  </i>
   <i type="logical" name="LSPECTRALGW"> F  </i>
   <i type="logical" name="LSINGLES"> F  </i>
   <i type="logical" name="LFERMIGW"> F  </i>
   <i type="logical" name="ODDONLYGW"> F  </i>
   <i type="logical" name="EVENONLYGW"> F  </i>
   <i type="int" name="NKREDLFX">     1</i>
   <i type="int" name="NKREDLFY">     1</i>
   <i type="int" name="NKREDLFZ">     1</i>
   <i type="int" name="MAXMEM">  2800</i>
   <i type="int" name="TELESCOPE">     0</i>
   <i type="int" name="TAUPAR">     1</i>
   <i type="int" name="OMEGAPAR">    -1</i>
   <i name="LAMBDA">      1.00000000</i>
  </separator>
  <separator name="External order field" >
   <i name="OFIELD_KAPPA">      0.00000000</i>
   <v name="OFIELD_K">      0.00000000      0.00000000      0.00000000</v>
   <i name="OFIELD_Q6_NEAR">      0.00000000</i>
   <i name="OFIELD_Q6_FAR">      0.00000000</i>
   <i name="OFIELD_A">      0.00000000</i>
  </separator>
 </parameters>
 <atominfo>
  <atoms>       8 </atoms>
  <types>       2 </types>
  <array name="atoms" >
   <dimension dim="1">ion</dimension>
   <field type="string">element</field>
   <field type="int">atomtype</field>
   <set>
    <rc><c>B </c><c>   1</c></rc>
    <rc><c>B </c><c>   1</c></rc>
    <rc><c>C </c><c>   2</c></rc>
    <rc><c>C </c><c>   2</c></rc>
    <rc><c>C </c><c>   2</c></rc>
    <rc><c>C </c><c>   2</c></rc>
    <rc><c>C </c><c>   2</c></rc>
    <rc><c>C </c><c>   2</c></rc>
   </set>
  </array>
  <array name="atomtypes" >
   <dimension dim="1">type</dimension>
   <field type="int">atomspertype</field>
   <field type="string">element</field>
   <field>mass</field>
   <field>valence</field>
   <field type="string">pseudopotential</field>
   <set>
    <rc><c>   2</c><c>B </c><c>     10.81100000</c><c>      3.00000000</c><c>  PAW_PBE B 06Sep2000                   </c></rc>
    <rc><c>   6</c><c>C </c><c>     12.01100000</c><c>      4.00000000</c><c>  PAW_PBE C 08Apr2002                   </c></rc>
   </set>
  </array>
 </atominfo>
 <structure name="initialpos" >
  <crystal>
   <varray name="basis" >
    <v>       4.48084843       2.58701885       0.00000000 </v>
    <v>      -4.48084843       2.58701885       0.00000000 </v>
    <v>       0.00000000       0.00000000       8.52022140 </v>
   </varray>
   <i name="volume">    197.53348383 </i>
   <varray name="rec_basis" >
    <v>       0.11158601       0.19327265       0.00000000 </v>
    <v>      -0.11158601       0.19327265       0.00000000 </v>
    <v>       0.00000000       0.00000000       0.11736784 </v>
   </varray>
  </crystal>
  <varray name="positions" >
   <v>       0.33333300       0.66666600       0.25000000 </v>
   <v>       0.66666600       0.33333300       0.25000000 </v>
   <v>       0.15869124       0.31738348       0.25000000 </v>
   <v>       0.31738348       0.15869124       0.25000000 </v>
   <v>       0.15869124       0.84130776       0.25000000 </v>
   <v>       0.84130776       0.15869124       0.25000000 </v>
   <v>       0.68261552       0.84130776       0.25000000 </v>
   <v>       0.84130776       0.68261552       0.25000000 </v>
  </varray>
 </structure>
 <calculation>
  <scstep>
   <time name="diag">  543.36  543.36</time>
   <time name="total">  543.47  543.47</time>
   <energy>
    <i name="alphaZ">     25.67921176 </i>
    <i name="ewald">    700.27145080 </i>
    <i name="hartreedc">  -1524.76618073 </i>
    <i name="XCdc">     91.14273073 </i>
    <i name="pawpsdc">    738.13200929 </i>
    <i name="pawaedc">   -739.83780425 </i>
    <i name="eentropy">     -0.00000000 </i>
    <i name="bandstr">   -389.26594481 </i>
    <i name="atom">   1025.20389953 </i>
    <i name="e_fr_energy">    -73.44062769 </i>
    <i name="e_wo_entrp">    -73.44062769 </i>
    <i name="e_0_energy">    -73.44062769 </i>
   </energy>
  </scstep>
  <scstep>
   <time name="diag">  566.58  566.58</time>
   <time name="total">  566.70  566.70</time>
   <energy>
    <i name="e_fr_energy">    -68.99901163 </i>
    <i name="e_wo_entrp">    -68.99901163 </i>
    <i name="e_0_energy">    -68.99901163 </i>
   </energy>
  </scstep>
  <scstep>
   <time name="diag">  551.97  551.97</time>
   <time name="total">  552.09  552.09</time>
   <energy>
    <i name="e_fr_energy">    -67.35394036 </i>
    <i name="e_wo_entrp">    -67.35394036 </i>
    <i name="e_0_energy">    -67.35394036 </i>
   </energy>
  </scstep>
  <scstep>
   <time name="diag">  564.53  564.53</time>
   <time name="total">  564.65  564.65</time>
   <energy>
    <i name="e_fr_energy">    -67.24757337 </i>
    <i name="e_wo_entrp">    -67.24757337 </i>
    <i name="e_0_energy">    -67.24757337 </i>
   </energy>
  </scstep>
  <scstep>
   <time name="diag">  582.27  582.26</time>
   <time name="total">  582.39  582.39</time>
   <energy>
    <i name="e_fr_energy">    -67.22049319 </i>
    <i name="e_wo_entrp">    -67.22049319 </i>
    <i name="e_0_energy">    -67.22049319 </i>
   </energy>
  </scstep>
  <scstep>
   <time name="diag">  570.10  570.10</time>
   <time name="total">  570.23  570.22</time>
   <energy>
    <i name="e_fr_energy">    -67.21907962 </i>
    <i name="e_wo_entrp">    -67.21907962 </i>
    <i name="e_0_energy">    -67.21907962 </i>
   </energy>
  </scstep>
  <scstep>
   <time name="diag">  571.56  571.56</time>
   <time name="total">  571.69  571.68</time>
   <energy>
    <i name="e_fr_energy">    -67.22295241 </i>
    <i name="e_wo_entrp">    -67.22295241 </i>
    <i name="e_0_energy">    -67.22295241 </i>
   </energy>
  </scstep>
  <scstep>
   <time name="diag">  563.01  563.00</time>
   <time name="total">  563.13  563.13</time>
   <energy>
    <i name="e_fr_energy">    -67.22702477 </i>
    <i name="e_wo_entrp">    -67.22702477 </i>
    <i name="e_0_energy">    -67.22702477 </i>
   </energy>
  </scstep>
  <scstep>
   <time name="diag">  546.51  546.51</time>
   <time name="total">  546.63  546.63</time>
   <energy>
    <i name="e_fr_energy">    -67.22770203 </i>
    <i name="e_wo_entrp">    -67.22770203 </i>
    <i name="e_0_energy">    -67.22770203 </i>
   </energy>
  </scstep>
  <scstep>
   <time name="diag">  560.16  560.15</time>
   <time name="total">  560.28  560.28</time>
   <energy>
    <i name="e_fr_energy">    -67.22771724 </i>
    <i name="e_wo_entrp">    -67.22771724 </i>
    <i name="e_0_energy">    -67.22771724 </i>
   </energy>
  </scstep>
  <scstep>
   <time name="diag">  559.05  559.05</time>
   <time name="total">  559.18  559.18</time>
   <energy>
    <i name="e_fr_energy">    -67.22773009 </i>
    <i name="e_wo_entrp">    -67.22773009 </i>
    <i name="e_0_energy">    -67.22773009 </i>
   </energy>
  </scstep>
  <scstep>
   <time name="diag">  561.15  561.14</time>
   <time name="total">  561.27  561.27</time>
   <energy>
    <i name="e_fr_energy">    -67.22773016 </i>
    <i name="e_wo_entrp">    -67.22773016 </i>
    <i name="e_0_energy">    -67.22773016 </i>
   </energy>
  </scstep>
  <scstep>
   <time name="diag">  560.34  560.33</time>
   <time name="total">  560.46  560.46</time>
   <energy>
    <i name="e_fr_energy">    -67.22773024 </i>
    <i name="e_wo_entrp">    -67.22773024 </i>
    <i name="e_0_energy">    -67.22773024 </i>
   </energy>
  </scstep>
  <scstep>
   <time name="diag">  560.54  560.53</time>
   <time name="total">  560.60  560.60</time>
   <energy>
    <i name="alphaZ">     25.67921176 </i>
    <i name="ewald">    700.27145080 </i>
    <i name="hartreedc">  -1646.75291199 </i>
    <i name="XCdc">     96.02426133 </i>
    <i name="pawpsdc">   2894.38113021 </i>
    <i name="pawaedc">  -2896.90834130 </i>
    <i name="eentropy">     -0.00000000 </i>
    <i name="bandstr">   -265.12643058 </i>
    <i name="atom">   1025.20389953 </i>
    <i name="e_fr_energy">    -67.22773025 </i>
    <i name="e_wo_entrp">    -67.22773025 </i>
    <i name="e_0_energy">    -67.22773025 </i>
   </energy>
  </scstep>
  <structure>
   <crystal>
    <varray name="basis" >
     <v>       4.48084843       2.58701885       0.00000000 </v>
     <v>      -4.48084843       2.58701885       0.00000000 </v>
     <v>       0.00000000       0.00000000       8.52022140 </v>
    </varray>
    <i name="volume">    197.53348383 </i>
    <varray name="rec_basis" >
     <v>       0.11158601       0.19327265       0.00000000 </v>
     <v>      -0.11158601       0.19327265       0.00000000 </v>
     <v>       0.00000000       0.00000000       0.11736784 </v>
    </varray>
   </crystal>
   <varray name="positions" >
    <v>       0.33333300       0.66666600       0.25000000 </v>
    <v>       0.66666600       0.33333300       0.25000000 </v>
    <v>       0.15869124       0.31738348       0.25000000 </v>
    <v>       0.31738348       0.15869124       0.25000000 </v>
    <v>       0.15869124       0.84130776       0.25000000 </v>
    <v>       0.84130776       0.15869124       0.25000000 </v>
    <v>       0.68261552       0.84130776       0.25000000 </v>
    <v>       0.84130776       0.68261552       0.25000000 </v>
   </varray>
  </structure>
  <varray name="forces" >
   <v>      -0.00000000      -0.00000000      -0.00000000 </v>
   <v>      -0.00000000      -0.00000000      -0.00000000 </v>
   <v>      -0.00064694       0.00112054       0.00000000 </v>
   <v>       0.00064694       0.00112054       0.00000000 </v>
   <v>       0.00129389      -0.00000000      -0.00000000 </v>
   <v>      -0.00129389      -0.00000000       0.00000000 </v>
   <v>      -0.00064694      -0.00112054      -0.00000000 </v>
   <v>       0.00064694      -0.00112054      -0.00000000 </v>
  </varray>
  <varray name="stress" >
   <v>      -0.53277496       0.00000000      -0.00000000 </v>
   <v>       0.00000000      -0.53277488      -0.00000000 </v>
   <v>       0.00000000      -0.00000000      -1.27118547 </v>
  </varray>
  <energy>
   <i name="e_fr_energy">    -67.22773025 </i>
   <i name="e_wo_entrp">    -67.22773025 </i>
   <i name="e_0_energy">     -0.00000000 </i>
  </energy>
  <time name="totalsc"> 7869.42 7871.92</time>
  <eigenvalues>
   <array>
    <dimension dim="1">band</dimension>
    <dimension dim="2">kpoint</dimension>
    <dimension dim="3">spin</dimension>
    <field>eigene</field>
    <field>occ</field>
    <set>
     <set comment="spin 1">
      <set comment="kpoint 1">
       <r>  -18.5403    1.0000 </r>
       <r>  -14.6488    1.0000 </r>
       <r>  -14.6488    1.0000 </r>
       <r>  -12.2992    1.0000 </r>
       <r>  -12.2992    1.0000 </r>
       <r>  -11.2307    1.0000 </r>
       <r>   -9.9135    1.0000 </r>
       <r>   -7.3452    1.0000 </r>
       <r>   -7.1249    1.0000 </r>
       <r>   -4.9710    1.0000 </r>
       <r>   -4.9710    1.0000 </r>
       <r>   -3.1493    1.0000 </r>
       <r>   -3.1492    1.0000 </r>
       <r>   -2.4667    1.0000 </r>
       <r>   -2.4666    1.0000 </r>
       <r>   -0.6315    0.0000 </r>
       <r>    1.1011    0.0000 </r>
       <r>    1.1012    0.0000 </r>
       <r>    1.7906    0.0000 </r>
       <r>    1.9217    0.0000 </r>
       <r>    4.5207    0.0000 </r>
       <r>    5.9130    0.0000 </r>
       <r>    6.3151    0.0000 </r>
       <r>    6.3151    0.0000 </r>
       <r>    7.6726    0.0000 </r>
       <r>    8.0796    0.0000 </r>
       <r>    8.0797    0.0000 </r>
       <r>    8.9955    0.0000 </r>
       <r>    9.1419    0.0000 </r>
       <r>    9.1419    0.0000 </r>
       <r>    9.2976    0.0000 </r>
       <r>    9.2976    0.0000 </r>
       <r>    9.5160    0.0000 </r>
       <r>   10.3273    0.0000 </r>
       <r>   10.6836    0.0000 </r>
       <r>   10.6836    0.0000 </r>
       <r>   11.3540    0.0000 </r>
       <r>   11.3541    0.0000 </r>
       <r>   11.3922    0.0000 </r>
       <r>   11.3995    0.0000 </r>
       <r>   11.9841    0.0000 </r>
       <r>   13.0008    0.0000 </r>
       <r>   13.0008    0.0000 </r>
       <r>   13.0285    0.0000 </r>
       <r>   13.1319    0.0000 </r>
       <r>   13.1319    0.0000 </r>
       <r>   13.1825    0.0000 </r>
       <r>   13.5279    0.0000 </r>
       <r>   15.6135    0.0000 </r>
       <r>   15.8008    0.0000 </r>
       <r>   15.8008    0.0000 </r>
       <r>   16.4913    0.0000 </r>
       <r>   18.2923    0.0000 </r>
       <r>   18.2923    0.0000 </r>
       <r>   18.8601    0.0000 </r>
       <r>   18.8602    0.0000 </r>
       <r>   19.1473    0.0000 </r>
       <r>   19.2290    0.0000 </r>
       <r>   19.5333    0.0000 </r>
       <r>   19.5333    0.0000 </r>
       <r>   19.7217    0.0000 </r>
       <r>   19.9888    0.0000 </r>
       <r>   19.9888    0.0000 </r>
       <r>   20.0167    0.0000 </r>
       <r>   20.4546    0.0000 </r>
       <r>   21.0813    0.0000 </r>
       <r>   21.3027    0.0000 </r>
       <r>   21.3027    0.0000 </r>
       <r>   22.8793    0.0000 </r>
       <r>   23.2968    0.0000 </r>
       <r>   23.2968    0.0000 </r>
       <r>   23.4397    0.0000 </r>
       <r>   23.4397    0.0000 </r>
       <r>   23.5738    0.0000 </r>
       <r>   24.0936    0.0000 </r>
       <r>   24.0936    0.0000 </r>
       <r>   24.4126    0.0000 </r>
       <r>   24.4126    0.0000 </r>
       <r>   24.5372    0.0000 </r>
       <r>   24.6374    0.0000 </r>
       <r>   24.8763    0.0000 </r>
       <r>   25.2174    0.0000 </r>
       <r>   25.2174    0.0000 </r>
       <r>   26.6516    0.0000 </r>
       <r>   26.6516    0.0000 </r>
       <r>   26.7538    0.0000 </r>
       <r>   26.7538    0.0000 </r>
       <r>   26.8463    0.0000 </r>
       <r>   27.0341    0.0000 </r>
       <r>   27.1216    0.0000 </r>
       <r>   27.7308    0.0000 </r>
       <r>   27.7308    0.0000 </r>
       <r>   27.7998    0.0000 </r>
       <r>   27.7998    0.0000 </r>
       <r>   27.8401    0.0000 </r>
       <r>   28.2967    0.0000 </r>
       <r>   28.2967    0.0000 </r>
       <r>   28.7936    0.0000 </r>
       <r>   28.7936    0.0000 </r>
       <r>   28.9524    0.0000 </r>
       <r>   29.6489    0.0000 </r>
       <r>   30.2897    0.0000 </r>
       <r>   31.1920    0.0000 </r>
       <r>   31.1920    0.0000 </r>
       <r>   31.4239    0.0000 </r>
       <r>   31.4816    0.0000 </r>
       <r>   31.4816    0.0000 </r>
       <r>   31.8841    0.0000 </r>
       <r>   32.0865    0.0000 </r>
       <r>   32.0865    0.0000 </r>
       <r>   32.4044    0.0000 </r>
       <r>   32.6844    0.0000 </r>
       <r>   33.2983    0.0000 </r>
       <r>   33.2983    0.0000 </r>
       <r>   33.3127    0.0000 </r>
       <r>   33.3127    0.0000 </r>
       <r>   33.4606    0.0000 </r>
       <r>   34.0099    0.0000 </r>
       <r>   34.9816    0.0000 </r>
       <r>   34.9816    0.0000 </r>
       <r>   35.0442    0.0000 </r>
       <r>   35.0442    0.0000 </r>
       <r>   35.2268    0.0000 </r>
       <r>   35.2268    0.0000 </r>
       <r>   35.8334    0.0000 </r>
       <r>   35.8655    0.0000 </r>
       <r>   35.8655    0.0000 </r>
       <r>   36.0454    0.0000 </r>
       <r>   36.6964    0.0000 </r>
       <r>   36.6964    0.0000 </r>
       <r>   37.0546    0.0000 </r>
       <r>   37.3010    0.0000 </r>
       <r>   37.3124    0.0000 </r>
       <r>   37.3124    0.0000 </r>
       <r>   37.3416    0.0000 </r>
       <r>   37.3416    0.0000 </r>
       <r>   37.3663    0.0000 </r>
       <r>   37.4564    0.0000 </r>
       <r>   37.4564    0.0000 </r>
       <r>   37.6595    0.0000 </r>
       <r>   37.8898    0.0000 </r>
       <r>   37.9469    0.0000 </r>
       <r>   38.2105    0.0000 </r>
       <r>   38.2105    0.0000 </r>
       <r>   38.5577    0.0000 </r>
       <r>   38.8474    0.0000 </r>
       <r>   38.8474    0.0000 </r>
       <r>   40.8943    0.0000 </r>
       <r>   42.2089    0.0000 </r>
       <r>   42.2089    0.0000 </r>
       <r>   42.3915    0.0000 </r>
       <r>   43.7541    0.0000 </r>
       <r>   43.7541    0.0000 </r>
       <r>   43.9385    0.0000 </r>
       <r>   43.9385    0.0000 </r>
       <r>   44.3103    0.0000 </r>
       <r>   44.3103    0.0000 </r>
       <r>   44.3566    0.0000 </r>
       <r>   44.4926    0.0000 </r>
       <r>   44.4926    0.0000 </r>
       <r>   44.7977    0.0000 </r>
       <r>   45.3264    0.0000 </r>
       <r>   45.3264    0.0000 </r>
       <r>   45.6092    0.0000 </r>
       <r>   45.6092    0.0000 </r>
       <r>   46.0655    0.0000 </r>
       <r>   46.5987    0.0000 </r>
       <r>   46.8263    0.0000 </r>
       <r>   47.8871    0.0000 </r>
       <r>   47.9682    0.0000 </r>
       <r>   48.7262    0.0000 </r>
       <r>   48.7262    0.0000 </r>
       <r>   48.9385    0.0000 </r>
       <r>   49.0206    0.0000 </r>
       <r>   49.0207    0.0000 </r>
       <r>   49.1895    0.0000 </r>
       <r>   49.3789    0.0000 </r>
       <r>   49.5076    0.0000 </r>
       <r>   49.5077    0.0000 </r>
       <r>   49.7124    0.0000 </r>
       <r>   49.7124    0.0000 </r>
       <r>   50.1370    0.0000 </r>
       <r>   50.3457    0.0000 </r>
       <r>   50.3458    0.0000 </r>
       <r>   50.5718    0.0000 </r>
       <r>   50.6150    0.0000 </r>
       <r>   50.6150    0.0000 </r>
       <r>   51.5785    0.0000 </r>
       <r>   51.5785    0.0000 </r>
       <r>   51.7184    0.0000 </r>
       <r>   52.0203    0.0000 </r>
       <r>   52.4951    0.0000 </r>
       <r>   52.4951    0.0000 </r>
       <r>   52.5049    0.0000 </r>
       <r>   52.5049    0.0000 </r>
       <r>   52.8867    0.0000 </r>
       <r>   53.4918    0.0000 </r>
       <r>   53.4918    0.0000 </r>
       <r>   53.4926    0.0000 </r>
       <r>   53.8300    0.0000 </r>
       <r>   53.8300    0.0000 </r>
       <r>   53.9143    0.0000 </r>
       <r>   54.2916    0.0000 </r>
       <r>   54.3186    0.0000 </r>
       <r>   54.3186    0.0000 </r>
       <r>   54.4694    0.0000 </r>
       <r>   54.4695    0.0000 </r>
       <r>   54.6490    0.0000 </r>
       <r>   54.9433    0.0000 </r>
       <r>   54.9433    0.0000 </r>
       <r>   55.2684    0.0000 </r>
       <r>   55.3383    0.0000 </r>
       <r>   55.6000    0.0000 </r>
       <r>   55.7091    0.0000 </r>
       <r>   55.8562    0.0000 </r>
       <r>   55.8562    0.0000 </r>
       <r>   55.9784    0.0000 </r>
       <r>   55.9785    0.0000 </r>
       <r>   56.0273    0.0000 </r>
       <r>   56.4062    0.0000 </r>
       <r>   56.4062    0.0000 </r>
       <r>   57.0541    0.0000 </r>
       <r>   57.0541    0.0000 </r>
       <r>   57.1684    0.0000 </r>
       <r>   57.1813    0.0000 </r>
       <r>   57.1813    0.0000 </r>
       <r>   57.4345    0.0000 </r>
       <r>   57.4759    0.0000 </r>
       <r>   57.4759    0.0000 </r>
       <r>   57.6909    0.0000 </r>
       <r>   57.6909    0.0000 </r>
       <r>   57.8660    0.0000 </r>
       <r>   57.8786    0.0000 </r>
       <r>   57.9830    0.0000 </r>
       <r>   57.9830    0.0000 </r>
       <r>   58.0113    0.0000 </r>
       <r>   58.0225    0.0000 </r>
       <r>   58.1490    0.0000 </r>
       <r>   58.1490    0.0000 </r>
       <r>   58.1727    0.0000 </r>
       <r>   58.3631    0.0000 </r>
       <r>   58.3631    0.0000 </r>
       <r>   58.3839    0.0000 </r>
       <r>   58.3839    0.0000 </r>
       <r>   58.8988    0.0000 </r>
       <r>   58.8988    0.0000 </r>
       <r>   59.0563    0.0000 </r>
       <r>   59.7119    0.0000 </r>
       <r>   59.7119    0.0000 </r>
       <r>   59.9710    0.0000 </r>
       <r>   60.2200    0.0000 </r>
       <r>   60.6108    0.0000 </r>
       <r>   60.6108    0.0000 </r>
       <r>   60.9781    0.0000 </r>
       <r>   61.1585    0.0000 </r>
       <r>   61.1585    0.0000 </r>
       <r>   62.1187    0.0000 </r>
       <r>   62.1187    0.0000 </r>
       <r>   62.7654    0.0000 </r>
       <r>   63.2527    0.0000 </r>
       <r>   63.6720    0.0000 </r>
       <r>   63.6720    0.0000 </r>
       <r>   65.3916    0.0000 </r>
       <r>   65.3916    0.0000 </r>
       <r>   65.7610    0.0000 </r>
       <r>   65.7610    0.0000 </r>
       <r>   65.9659    0.0000 </r>
       <r>   66.0271    0.0000 </r>
       <r>   66.1788    0.0000 </r>
       <r>   66.1788    0.0000 </r>
       <r>   66.2120    0.0000 </r>
       <r>   66.2537    0.0000 </r>
       <r>   66.3494    0.0000 </r>
       <r>   66.3494    0.0000 </r>
       <r>   66.5925    0.0000 </r>
       <r>   66.7507    0.0000 </r>
       <r>   66.7508    0.0000 </r>
       <r>   66.8896    0.0000 </r>
       <r>   67.0713    0.0000 </r>
       <r>   67.0713    0.0000 </r>
       <r>   67.2113    0.0000 </r>
       <r>   67.2989    0.0000 </r>
       <r>   67.2989    0.0000 </r>
       <r>   67.3851    0.0000 </r>
       <r>   67.6908    0.0000 </r>
       <r>   67.6908    0.0000 </r>
       <r>   68.2115    0.0000 </r>
       <r>   68.2115    0.0000 </r>
       <r>   68.5114    0.0000 </r>
       <r>   68.5114    0.0000 </r>
       <r>   68.6015    0.0000 </r>
       <r>   68.6015    0.0000 </r>
       <r>   68.6157    0.0000 </r>
       <r>   68.6247    0.0000 </r>
       <r>   68.6344    0.0000 </r>
       <r>   68.9972    0.0000 </r>
       <r>   69.2825    0.0000 </r>
       <r>   69.3119    0.0000 </r>
       <r>   69.3119    0.0000 </r>
       <r>   69.4176    0.0000 </r>
       <r>   69.4177    0.0000 </r>
       <r>   69.5744    0.0000 </r>
       <r>   69.9786    0.0000 </r>
       <r>   69.9786    0.0000 </r>
       <r>   70.2573    0.0000 </r>
       <r>   70.7134    0.0000 </r>
       <r>   70.7134    0.0000 </r>
       <r>   71.1024    0.0000 </r>
       <r>   71.2748    0.0000 </r>
       <r>   71.7878    0.0000 </r>
       <r>   72.4061    0.0000 </r>
       <r>   72.4061    0.0000 </r>
       <r>   72.4156    0.0000 </r>
       <r>   72.6734    0.0000 </r>
       <r>   72.7043    0.0000 </r>
       <r>   72.7043    0.0000 </r>
       <r>   72.7429    0.0000 </r>
       <r>   72.7472    0.0000 </r>
       <r>   72.7472    0.0000 </r>
       <r>   73.3727    0.0000 </r>
       <r>   73.3727    0.0000 </r>
       <r>   73.3751    0.0000 </r>
       <r>   73.3751    0.0000 </r>
       <r>   73.4653    0.0000 </r>
       <r>   73.4653    0.0000 </r>
       <r>   73.6715    0.0000 </r>
       <r>   73.9920    0.0000 </r>
       <r>   74.0075    0.0000 </r>
       <r>   74.0075    0.0000 </r>
       <r>   74.4828    0.0000 </r>
       <r>   75.0597    0.0000 </r>
       <r>   75.0597    0.0000 </r>
       <r>   75.1478    0.0000 </r>
       <r>   75.8349    0.0000 </r>
       <r>   76.6256    0.0000 </r>
       <r>   76.6256    0.0000 </r>
       <r>   76.8710    0.0000 </r>
       <r>   77.0277    0.0000 </r>
       <r>   77.5077    0.0000 </r>
       <r>   77.7840    0.0000 </r>
       <r>   77.7840    0.0000 </r>
       <r>   77.8734    0.0000 </r>
       <r>   77.8734    0.0000 </r>
       <r>   77.9113    0.0000 </r>
       <r>   77.9113    0.0000 </r>
       <r>   78.0212    0.0000 </r>
       <r>   78.3211    0.0000 </r>
       <r>   78.3211    0.0000 </r>
       <r>   78.6119    0.0000 </r>
       <r>   78.6120    0.0000 </r>
       <r>   78.6572    0.0000 </r>
       <r>   78.9605    0.0000 </r>
       <r>   78.9606    0.0000 </r>
       <r>   79.3666    0.0000 </r>
       <r>   79.4510    0.0000 </r>
       <r>   79.4510    0.0000 </r>
       <r>   79.9352    0.0000 </r>
       <r>   79.9352    0.0000 </r>
       <r>   80.0121    0.0000 </r>
       <r>   80.0897    0.0000 </r>
       <r>   80.7824    0.0000 </r>
       <r>   80.7825    0.0000 </r>
       <r>   81.0321    0.0000 </r>
       <r>   81.0321    0.0000 </r>
       <r>   81.1526    0.0000 </r>
       <r>   81.3520    0.0000 </r>
       <r>   81.3520    0.0000 </r>
       <r>   81.3784    0.0000 </r>
       <r>   81.4070    0.0000 </r>
       <r>   81.5901    0.0000 </r>
       <r>   81.8722    0.0000 </r>
       <r>   81.9254    0.0000 </r>
       <r>   81.9254    0.0000 </r>
       <r>   81.9366    0.0000 </r>
       <r>   81.9366    0.0000 </r>
       <r>   82.3570    0.0000 </r>
       <r>   82.6418    0.0000 </r>
       <r>   82.6418    0.0000 </r>
       <r>   82.6462    0.0000 </r>
       <r>   82.7812    0.0000 </r>
       <r>   82.7880    0.0000 </r>
       <r>   82.9769    0.0000 </r>
       <r>   83.0263    0.0000 </r>
       <r>   83.0263    0.0000 </r>
       <r>   83.0285    0.0000 </r>
       <r>   83.0285    0.0000 </r>
       <r>   84.1896    0.0000 </r>
       <r>   84.1896    0.0000 </r>
       <r>   84.2833    0.0000 </r>
       <r>   84.2833    0.0000 </r>
       <r>   84.9984    0.0000 </r>
       <r>   84.9984    0.0000 </r>
       <r>   85.6300    0.0000 </r>
       <r>   85.6549    0.0000 </r>
       <r>   85.6549    0.0000 </r>
       <r>   86.5747    0.0000 </r>
       <r>   86.8479    0.0000 </r>
       <r>   86.8479    0.0000 </r>
       <r>   87.6634    0.0000 </r>
       <r>   88.4822    0.0000 </r>
       <r>   88.4822    0.0000 </r>
       <r>   89.1168    0.0000 </r>
       <r>   89.7621    0.0000 </r>
       <r>   89.7621    0.0000 </r>
       <r>   90.2041    0.0000 </r>
       <r>   90.2041    0.0000 </r>
       <r>   90.3667    0.0000 </r>
       <r>   91.1495    0.0000 </r>
       <r>   91.7127    0.0000 </r>
       <r>   91.7128    0.0000 </r>
       <r>   91.7477    0.0000 </r>
       <r>   91.7477    0.0000 </r>
       <r>   91.7833    0.0000 </r>
       <r>   92.0133    0.0000 </r>
       <r>   92.0926    0.0000 </r>
       <r>   92.1247    0.0000 </r>
       <r>   92.1961    0.0000 </r>
       <r>   92.1961    0.0000 </r>
       <r>   92.2186    0.0000 </r>
       <r>   92.2186    0.0000 </r>
       <r>   92.2763    0.0000 </r>
       <r>   92.5633    0.0000 </r>
       <r>   93.0951    0.0000 </r>
       <r>   93.2759    0.0000 </r>
       <r>   93.2759    0.0000 </r>
       <r>   93.5665    0.0000 </r>
       <r>   93.5665    0.0000 </r>
       <r>   93.8782    0.0000 </r>
       <r>   94.5586    0.0000 </r>
       <r>   94.5586    0.0000 </r>
       <r>   94.6939    0.0000 </r>
       <r>   94.6939    0.0000 </r>
       <r>   95.2238    0.0000 </r>
       <r>   95.2238    0.0000 </r>
       <r>   95.3031    0.0000 </r>
       <r>   95.4568    0.0000 </r>
       <r>   95.4740    0.0000 </r>
       <r>   95.5496    0.0000 </r>
       <r>   95.5496    0.0000 </r>
       <r>   95.5565    0.0000 </r>
       <r>   95.5565    0.0000 </r>
       <r>   95.5648    0.0000 </r>
       <r>   95.6407    0.0000 </r>
       <r>   95.6407    0.0000 </r>
       <r>   95.6413    0.0000 </r>
       <r>   95.8103    0.0000 </r>
       <r>   95.8103    0.0000 </r>
       <r>   95.8886    0.0000 </r>
       <r>   95.8974    0.0000 </r>
       <r>   95.8974    0.0000 </r>
       <r>   95.9135    0.0000 </r>
       <r>   95.9762    0.0000 </r>
       <r>   96.3296    0.0000 </r>
       <r>   96.3296    0.0000 </r>
       <r>   96.3488    0.0000 </r>
       <r>   96.6568    0.0000 </r>
       <r>   96.6568    0.0000 </r>
       <r>   96.9390    0.0000 </r>
       <r>   97.1876    0.0000 </r>
       <r>   97.2840    0.0000 </r>
       <r>   97.2841    0.0000 </r>
       <r>   97.3371    0.0000 </r>
       <r>   97.9581    0.0000 </r>
       <r>   97.9581    0.0000 </r>
       <r>   98.0972    0.0000 </r>
       <r>   98.4877    0.0000 </r>
       <r>   98.4877    0.0000 </r>
       <r>   98.7806    0.0000 </r>
       <r>   98.9778    0.0000 </r>
       <r>   98.9778    0.0000 </r>
       <r>   99.0057    0.0000 </r>
       <r>   99.0240    0.0000 </r>
       <r>   99.0507    0.0000 </r>
       <r>   99.0507    0.0000 </r>
       <r>   99.1151    0.0000 </r>
       <r>   99.1151    0.0000 </r>
       <r>   99.4659    0.0000 </r>
       <r>   99.4659    0.0000 </r>
       <r>   99.5170    0.0000 </r>
       <r>   99.5659    0.0000 </r>
      </set>
      <set comment="kpoint 2">
       <r>  -18.5132    1.0000 </r>
       <r>  -14.7809    1.0000 </r>
       <r>  -14.6912    1.0000 </r>
       <r>  -12.3384    1.0000 </r>
       <r>  -12.2008    1.0000 </r>
       <r>  -11.0961    1.0000 </r>
       <r>   -9.7531    1.0000 </r>
       <r>   -7.3040    1.0000 </r>
       <r>   -7.1822    1.0000 </r>
       <r>   -5.0944    1.0000 </r>
       <r>   -4.9934    1.0000 </r>
       <r>   -3.2737    1.0000 </r>
       <r>   -3.1697    1.0000 </r>
       <r>   -2.6092    1.0000 </r>
       <r>   -2.5354    1.0000 </r>
       <r>   -0.8361    0.0000 </r>
       <r>    1.1605    0.0000 </r>
       <r>    1.4116    0.0000 </r>
       <r>    1.9153    0.0000 </r>
       <r>    1.9734    0.0000 </r>
       <r>    4.5728    0.0000 </r>
       <r>    5.9692    0.0000 </r>
       <r>    6.3866    0.0000 </r>
       <r>    6.4781    0.0000 </r>
       <r>    7.6627    0.0000 </r>
       <r>    8.0377    0.0000 </r>
       <r>    8.2336    0.0000 </r>
       <r>    8.2352    0.0000 </r>
       <r>    8.6808    0.0000 </r>
       <r>    8.7555    0.0000 </r>
       <r>    9.8480    0.0000 </r>
       <r>    9.8619    0.0000 </r>
       <r>    9.9124    0.0000 </r>
       <r>   10.3759    0.0000 </r>
       <r>   10.3995    0.0000 </r>
       <r>   10.4193    0.0000 </r>
       <r>   10.9077    0.0000 </r>
       <r>   11.4137    0.0000 </r>
       <r>   11.6687    0.0000 </r>
       <r>   12.0448    0.0000 </r>
       <r>   12.1516    0.0000 </r>
       <r>   12.3345    0.0000 </r>
       <r>   12.5608    0.0000 </r>
       <r>   12.8381    0.0000 </r>
       <r>   13.0972    0.0000 </r>
       <r>   13.6279    0.0000 </r>
       <r>   13.8001    0.0000 </r>
       <r>   14.2603    0.0000 </r>
       <r>   15.5623    0.0000 </r>
       <r>   15.6614    0.0000 </r>
       <r>   15.7181    0.0000 </r>
       <r>   16.2792    0.0000 </r>
       <r>   18.0211    0.0000 </r>
       <r>   18.0716    0.0000 </r>
       <r>   18.6452    0.0000 </r>
       <r>   18.9834    0.0000 </r>
       <r>   18.9928    0.0000 </r>
       <r>   19.3961    0.0000 </r>
       <r>   19.4430    0.0000 </r>
       <r>   19.8594    0.0000 </r>
       <r>   19.9227    0.0000 </r>
       <r>   19.9355    0.0000 </r>
       <r>   20.0222    0.0000 </r>
       <r>   20.0695    0.0000 </r>
       <r>   20.4469    0.0000 </r>
       <r>   20.9480    0.0000 </r>
       <r>   21.1306    0.0000 </r>
       <r>   21.1701    0.0000 </r>
       <r>   22.3006    0.0000 </r>
       <r>   22.5129    0.0000 </r>
       <r>   23.0923    0.0000 </r>
       <r>   23.5592    0.0000 </r>
       <r>   23.5744    0.0000 </r>
       <r>   23.6015    0.0000 </r>
       <r>   23.8165    0.0000 </r>
       <r>   24.0248    0.0000 </r>
       <r>   24.2674    0.0000 </r>
       <r>   24.5217    0.0000 </r>
       <r>   24.8306    0.0000 </r>
       <r>   24.9676    0.0000 </r>
       <r>   25.0475    0.0000 </r>
       <r>   25.5521    0.0000 </r>
       <r>   25.6964    0.0000 </r>
       <r>   25.7980    0.0000 </r>
       <r>   25.9189    0.0000 </r>
       <r>   26.1275    0.0000 </r>
       <r>   26.3973    0.0000 </r>
       <r>   26.9094    0.0000 </r>
       <r>   26.9234    0.0000 </r>
       <r>   27.0815    0.0000 </r>
       <r>   27.0849    0.0000 </r>
       <r>   27.5813    0.0000 </r>
       <r>   27.8918    0.0000 </r>
       <r>   28.1065    0.0000 </r>
       <r>   28.6632    0.0000 </r>
       <r>   28.9184    0.0000 </r>
       <r>   29.0466    0.0000 </r>
       <r>   29.1763    0.0000 </r>
       <r>   29.2646    0.0000 </r>
       <r>   29.6366    0.0000 </r>
       <r>   29.6478    0.0000 </r>
       <r>   30.1213    0.0000 </r>
       <r>   30.1818    0.0000 </r>
       <r>   30.7678    0.0000 </r>
       <r>   31.1259    0.0000 </r>
       <r>   31.8749    0.0000 </r>
       <r>   31.9108    0.0000 </r>
       <r>   32.0148    0.0000 </r>
       <r>   32.0886    0.0000 </r>
       <r>   32.5461    0.0000 </r>
       <r>   32.6542    0.0000 </r>
       <r>   32.9444    0.0000 </r>
       <r>   33.0816    0.0000 </r>
       <r>   33.3384    0.0000 </r>
       <r>   33.4640    0.0000 </r>
       <r>   33.5848    0.0000 </r>
       <r>   33.6087    0.0000 </r>
       <r>   33.8445    0.0000 </r>
       <r>   34.0075    0.0000 </r>
       <r>   34.0686    0.0000 </r>
       <r>   34.1281    0.0000 </r>
       <r>   34.2291    0.0000 </r>
       <r>   35.1281    0.0000 </r>
       <r>   35.9146    0.0000 </r>
       <r>   35.9610    0.0000 </r>
       <r>   35.9882    0.0000 </r>
       <r>   36.2332    0.0000 </r>
       <r>   36.3840    0.0000 </r>
       <r>   36.5942    0.0000 </r>
       <r>   36.7596    0.0000 </r>
       <r>   36.8647    0.0000 </r>
       <r>   37.0219    0.0000 </r>
       <r>   37.1188    0.0000 </r>
       <r>   37.2090    0.0000 </r>
       <r>   37.4568    0.0000 </r>
       <r>   37.5348    0.0000 </r>
       <r>   37.8830    0.0000 </r>
       <r>   37.9740    0.0000 </r>
       <r>   38.0606    0.0000 </r>
       <r>   38.1707    0.0000 </r>
       <r>   38.3342    0.0000 </r>
       <r>   38.4488    0.0000 </r>
       <r>   38.9582    0.0000 </r>
       <r>   39.0151    0.0000 </r>
       <r>   39.1512    0.0000 </r>
       <r>   39.7411    0.0000 </r>
       <r>   39.8913    0.0000 </r>
       <r>   40.4036    0.0000 </r>
       <r>   41.6591    0.0000 </r>
       <r>   41.7874    0.0000 </r>
       <r>   42.0183    0.0000 </r>
       <r>   43.0529    0.0000 </r>
       <r>   43.1371    0.0000 </r>
       <r>   43.1853    0.0000 </r>
       <r>   43.3711    0.0000 </r>
       <r>   43.6680    0.0000 </r>
       <r>   43.9100    0.0000 </r>
       <r>   44.3356    0.0000 </r>
       <r>   44.4581    0.0000 </r>
       <r>   44.7940    0.0000 </r>
       <r>   44.8728    0.0000 </r>
       <r>   45.0487    0.0000 </r>
       <r>   45.2335    0.0000 </r>
       <r>   46.1032    0.0000 </r>
       <r>   46.2269    0.0000 </r>
       <r>   46.3651    0.0000 </r>
       <r>   46.4216    0.0000 </r>
       <r>   46.8963    0.0000 </r>
       <r>   47.1013    0.0000 </r>
       <r>   48.0085    0.0000 </r>
       <r>   48.2044    0.0000 </r>
       <r>   48.2685    0.0000 </r>
       <r>   48.4867    0.0000 </r>
       <r>   48.4867    0.0000 </r>
       <r>   48.6077    0.0000 </r>
       <r>   49.4193    0.0000 </r>
       <r>   49.4674    0.0000 </r>
       <r>   49.4813    0.0000 </r>
       <r>   49.4971    0.0000 </r>
       <r>   50.1891    0.0000 </r>
       <r>   50.2489    0.0000 </r>
       <r>   50.3481    0.0000 </r>
       <r>   50.4411    0.0000 </r>
       <r>   50.7495    0.0000 </r>
       <r>   50.7703    0.0000 </r>
       <r>   51.0252    0.0000 </r>
       <r>   51.0836    0.0000 </r>
       <r>   51.2201    0.0000 </r>
       <r>   51.2372    0.0000 </r>
       <r>   51.3233    0.0000 </r>
       <r>   52.0790    0.0000 </r>
       <r>   52.1310    0.0000 </r>
       <r>   52.3383    0.0000 </r>
       <r>   52.5341    0.0000 </r>
       <r>   52.6621    0.0000 </r>
       <r>   52.7051    0.0000 </r>
       <r>   52.7968    0.0000 </r>
       <r>   52.9839    0.0000 </r>
       <r>   53.1591    0.0000 </r>
       <r>   53.4564    0.0000 </r>
       <r>   53.6301    0.0000 </r>
       <r>   53.6776    0.0000 </r>
       <r>   53.8575    0.0000 </r>
       <r>   54.1638    0.0000 </r>
       <r>   54.4158    0.0000 </r>
       <r>   54.5037    0.0000 </r>
       <r>   54.6902    0.0000 </r>
       <r>   54.7543    0.0000 </r>
       <r>   54.8263    0.0000 </r>
       <r>   54.8421    0.0000 </r>
       <r>   54.8679    0.0000 </r>
       <r>   55.0431    0.0000 </r>
       <r>   55.0736    0.0000 </r>
       <r>   55.3025    0.0000 </r>
       <r>   55.4662    0.0000 </r>
       <r>   55.5311    0.0000 </r>
       <r>   55.6692    0.0000 </r>
       <r>   56.1756    0.0000 </r>
       <r>   56.1912    0.0000 </r>
       <r>   56.2449    0.0000 </r>
       <r>   56.3750    0.0000 </r>
       <r>   56.4639    0.0000 </r>
       <r>   56.5464    0.0000 </r>
       <r>   56.5747    0.0000 </r>
       <r>   56.8251    0.0000 </r>
       <r>   56.8859    0.0000 </r>
       <r>   57.0189    0.0000 </r>
       <r>   57.0577    0.0000 </r>
       <r>   57.1652    0.0000 </r>
       <r>   57.2095    0.0000 </r>
       <r>   57.4579    0.0000 </r>
       <r>   57.6391    0.0000 </r>
       <r>   57.6791    0.0000 </r>
       <r>   57.7261    0.0000 </r>
       <r>   58.0939    0.0000 </r>
       <r>   58.1463    0.0000 </r>
       <r>   58.2340    0.0000 </r>
       <r>   58.6067    0.0000 </r>
       <r>   58.7254    0.0000 </r>
       <r>   58.7317    0.0000 </r>
       <r>   59.1755    0.0000 </r>
       <r>   59.4085    0.0000 </r>
       <r>   59.5037    0.0000 </r>
       <r>   60.0199    0.0000 </r>
       <r>   60.0306    0.0000 </r>
       <r>   60.2943    0.0000 </r>
       <r>   60.3322    0.0000 </r>
       <r>   60.4211    0.0000 </r>
       <r>   60.5725    0.0000 </r>
       <r>   60.5849    0.0000 </r>
       <r>   60.7327    0.0000 </r>
       <r>   61.0217    0.0000 </r>
       <r>   61.0341    0.0000 </r>
       <r>   61.3763    0.0000 </r>
       <r>   61.5507    0.0000 </r>
       <r>   61.6702    0.0000 </r>
       <r>   62.1374    0.0000 </r>
       <r>   62.2604    0.0000 </r>
       <r>   62.7760    0.0000 </r>
       <r>   63.5386    0.0000 </r>
       <r>   63.8106    0.0000 </r>
       <r>   64.0655    0.0000 </r>
       <r>   64.1332    0.0000 </r>
       <r>   64.1393    0.0000 </r>
       <r>   64.1615    0.0000 </r>
       <r>   64.2112    0.0000 </r>
       <r>   64.4574    0.0000 </r>
       <r>   65.0710    0.0000 </r>
       <r>   65.2099    0.0000 </r>
       <r>   65.3051    0.0000 </r>
       <r>   65.6032    0.0000 </r>
       <r>   65.6439    0.0000 </r>
       <r>   65.8292    0.0000 </r>
       <r>   66.3752    0.0000 </r>
       <r>   66.4268    0.0000 </r>
       <r>   66.4561    0.0000 </r>
       <r>   66.6966    0.0000 </r>
       <r>   66.7485    0.0000 </r>
       <r>   66.8655    0.0000 </r>
       <r>   66.8769    0.0000 </r>
       <r>   67.1461    0.0000 </r>
       <r>   67.1550    0.0000 </r>
       <r>   67.4064    0.0000 </r>
       <r>   67.5691    0.0000 </r>
       <r>   67.6359    0.0000 </r>
       <r>   67.8043    0.0000 </r>
       <r>   67.8925    0.0000 </r>
       <r>   68.2152    0.0000 </r>
       <r>   68.3085    0.0000 </r>
       <r>   68.5106    0.0000 </r>
       <r>   68.5845    0.0000 </r>
       <r>   69.0390    0.0000 </r>
       <r>   69.1340    0.0000 </r>
       <r>   69.1491    0.0000 </r>
       <r>   69.3886    0.0000 </r>
       <r>   69.7238    0.0000 </r>
       <r>   69.7471    0.0000 </r>
       <r>   69.8479    0.0000 </r>
       <r>   69.8762    0.0000 </r>
       <r>   70.1228    0.0000 </r>
       <r>   70.3301    0.0000 </r>
       <r>   70.4921    0.0000 </r>
       <r>   70.4967    0.0000 </r>
       <r>   70.6342    0.0000 </r>
       <r>   70.6996    0.0000 </r>
       <r>   70.9202    0.0000 </r>
       <r>   70.9263    0.0000 </r>
       <r>   71.0767    0.0000 </r>
       <r>   71.3548    0.0000 </r>
       <r>   71.4285    0.0000 </r>
       <r>   71.4422    0.0000 </r>
       <r>   71.4481    0.0000 </r>
       <r>   71.5697    0.0000 </r>
       <r>   71.6282    0.0000 </r>
       <r>   72.8180    0.0000 </r>
       <r>   72.9641    0.0000 </r>
       <r>   72.9941    0.0000 </r>
       <r>   73.0840    0.0000 </r>
       <r>   73.5707    0.0000 </r>
       <r>   73.6158    0.0000 </r>
       <r>   73.7438    0.0000 </r>
       <r>   73.7774    0.0000 </r>
       <r>   74.0381    0.0000 </r>
       <r>   74.0873    0.0000 </r>
       <r>   74.2790    0.0000 </r>
       <r>   74.5998    0.0000 </r>
       <r>   74.6212    0.0000 </r>
       <r>   74.6645    0.0000 </r>
       <r>   74.8909    0.0000 </r>
       <r>   74.9799    0.0000 </r>
       <r>   75.3516    0.0000 </r>
       <r>   75.5207    0.0000 </r>
       <r>   75.9478    0.0000 </r>
       <r>   76.2251    0.0000 </r>
       <r>   76.3269    0.0000 </r>
       <r>   76.4378    0.0000 </r>
       <r>   76.6432    0.0000 </r>
       <r>   77.0400    0.0000 </r>
       <r>   77.0610    0.0000 </r>
       <r>   77.2144    0.0000 </r>
       <r>   77.3628    0.0000 </r>
       <r>   77.4198    0.0000 </r>
       <r>   77.5806    0.0000 </r>
       <r>   77.7200    0.0000 </r>
       <r>   77.9108    0.0000 </r>
       <r>   78.2082    0.0000 </r>
       <r>   78.2427    0.0000 </r>
       <r>   78.2612    0.0000 </r>
       <r>   78.2907    0.0000 </r>
       <r>   78.6760    0.0000 </r>
       <r>   78.7094    0.0000 </r>
       <r>   78.7275    0.0000 </r>
       <r>   79.0150    0.0000 </r>
       <r>   79.1421    0.0000 </r>
       <r>   79.1515    0.0000 </r>
       <r>   79.2345    0.0000 </r>
       <r>   79.2612    0.0000 </r>
       <r>   79.3174    0.0000 </r>
       <r>   79.5721    0.0000 </r>
       <r>   79.6689    0.0000 </r>
       <r>   79.8982    0.0000 </r>
       <r>   79.9118    0.0000 </r>
       <r>   80.1923    0.0000 </r>
       <r>   80.2444    0.0000 </r>
       <r>   80.4263    0.0000 </r>
       <r>   80.4901    0.0000 </r>
       <r>   80.5611    0.0000 </r>
       <r>   80.9882    0.0000 </r>
       <r>   81.2651    0.0000 </r>
       <r>   81.3481    0.0000 </r>
       <r>   81.8540    0.0000 </r>
       <r>   81.8852    0.0000 </r>
       <r>   82.0023    0.0000 </r>
       <r>   82.2395    0.0000 </r>
       <r>   82.6005    0.0000 </r>
       <r>   82.7009    0.0000 </r>
       <r>   82.9487    0.0000 </r>
       <r>   83.1451    0.0000 </r>
       <r>   83.1783    0.0000 </r>
       <r>   83.4019    0.0000 </r>
       <r>   83.4858    0.0000 </r>
       <r>   83.9376    0.0000 </r>
       <r>   84.0937    0.0000 </r>
       <r>   84.1838    0.0000 </r>
       <r>   84.3310    0.0000 </r>
       <r>   84.6606    0.0000 </r>
       <r>   84.8569    0.0000 </r>
       <r>   84.8822    0.0000 </r>
       <r>   85.1654    0.0000 </r>
       <r>   85.4277    0.0000 </r>
       <r>   85.4483    0.0000 </r>
       <r>   85.6360    0.0000 </r>
       <r>   85.9702    0.0000 </r>
       <r>   85.9975    0.0000 </r>
       <r>   86.1189    0.0000 </r>
       <r>   86.2743    0.0000 </r>
       <r>   86.7391    0.0000 </r>
       <r>   87.2595    0.0000 </r>
       <r>   87.3630    0.0000 </r>
       <r>   87.9322    0.0000 </r>
       <r>   87.9946    0.0000 </r>
       <r>   88.1374    0.0000 </r>
       <r>   88.2755    0.0000 </r>
       <r>   88.4795    0.0000 </r>
       <r>   88.7955    0.0000 </r>
       <r>   89.8355    0.0000 </r>
       <r>   90.5749    0.0000 </r>
       <r>   90.6763    0.0000 </r>
       <r>   90.7112    0.0000 </r>
       <r>   91.1599    0.0000 </r>
       <r>   91.1680    0.0000 </r>
       <r>   91.2909    0.0000 </r>
       <r>   91.3412    0.0000 </r>
       <r>   91.6520    0.0000 </r>
       <r>   91.9248    0.0000 </r>
       <r>   91.9549    0.0000 </r>
       <r>   92.0274    0.0000 </r>
       <r>   92.0603    0.0000 </r>
       <r>   92.1269    0.0000 </r>
       <r>   92.1423    0.0000 </r>
       <r>   92.2067    0.0000 </r>
       <r>   92.2102    0.0000 </r>
       <r>   92.7072    0.0000 </r>
       <r>   92.7229    0.0000 </r>
       <r>   92.9206    0.0000 </r>
       <r>   93.2587    0.0000 </r>
       <r>   93.3464    0.0000 </r>
       <r>   93.3774    0.0000 </r>
       <r>   93.4009    0.0000 </r>
       <r>   93.6882    0.0000 </r>
       <r>   93.7349    0.0000 </r>
       <r>   94.0006    0.0000 </r>
       <r>   94.0550    0.0000 </r>
       <r>   94.3248    0.0000 </r>
       <r>   94.4155    0.0000 </r>
       <r>   94.4392    0.0000 </r>
       <r>   94.6421    0.0000 </r>
       <r>   94.7394    0.0000 </r>
       <r>   94.7541    0.0000 </r>
       <r>   95.1124    0.0000 </r>
       <r>   95.3504    0.0000 </r>
       <r>   95.5217    0.0000 </r>
       <r>   95.5490    0.0000 </r>
       <r>   95.5971    0.0000 </r>
       <r>   95.6215    0.0000 </r>
       <r>   95.8077    0.0000 </r>
       <r>   95.9462    0.0000 </r>
       <r>   95.9517    0.0000 </r>
       <r>   95.9920    0.0000 </r>
       <r>   96.0128    0.0000 </r>
       <r>   96.1187    0.0000 </r>
       <r>   96.1294    0.0000 </r>
       <r>   96.2115    0.0000 </r>
       <r>   96.4844    0.0000 </r>
       <r>   96.5926    0.0000 </r>
       <r>   96.6526    0.0000 </r>
       <r>   97.3917    0.0000 </r>
       <r>   97.4073    0.0000 </r>
       <r>   97.4605    0.0000 </r>
       <r>   97.5336    0.0000 </r>
       <r>   97.6893    0.0000 </r>
       <r>   97.8448    0.0000 </r>
       <r>   97.8817    0.0000 </r>
       <r>   97.9179    0.0000 </r>
       <r>   97.9666    0.0000 </r>
       <r>   98.1116    0.0000 </r>
       <r>   98.2884    0.0000 </r>
       <r>   98.2949    0.0000 </r>
       <r>   98.3126    0.0000 </r>
       <r>   98.3792    0.0000 </r>
       <r>   98.5915    0.0000 </r>
       <r>   98.6327    0.0000 </r>
       <r>   98.6543    0.0000 </r>
       <r>   98.6854    0.0000 </r>
       <r>   98.8739    0.0000 </r>
       <r>   98.9115    0.0000 </r>
       <r>   98.9734    0.0000 </r>
       <r>   99.0002    0.0000 </r>
       <r>   99.0508    0.0000 </r>
       <r>   99.2070    0.0000 </r>
      </set>
      <set comment="kpoint 3">
       <r>  -18.4341    1.0000 </r>
       <r>  -15.1059    1.0000 </r>
       <r>  -14.7954    1.0000 </r>
       <r>  -12.4549    1.0000 </r>
       <r>  -11.9317    1.0000 </r>
       <r>  -10.7149    1.0000 </r>
       <r>   -9.3237    1.0000 </r>
       <r>   -7.3645    1.0000 </r>
       <r>   -7.1816    1.0000 </r>
       <r>   -5.4404    1.0000 </r>
       <r>   -5.0296    1.0000 </r>
       <r>   -3.6157    1.0000 </r>
       <r>   -3.2240    1.0000 </r>
       <r>   -3.0165    1.0000 </r>
       <r>   -2.7272    1.0000 </r>
       <r>   -1.1839    0.0000 </r>
       <r>    1.3238    0.0000 </r>
       <r>    1.8881    0.0000 </r>
       <r>    2.1281    0.0000 </r>
       <r>    2.4358    0.0000 </r>
       <r>    4.7294    0.0000 </r>
       <r>    6.1240    0.0000 </r>
       <r>    6.5551    0.0000 </r>
       <r>    6.9440    0.0000 </r>
       <r>    6.9598    0.0000 </r>
       <r>    7.9146    0.0000 </r>
       <r>    8.1729    0.0000 </r>
       <r>    8.2020    0.0000 </r>
       <r>    8.5790    0.0000 </r>
       <r>    8.7436    0.0000 </r>
       <r>    9.0740    0.0000 </r>
       <r>    9.9077    0.0000 </r>
       <r>    9.9160    0.0000 </r>
       <r>   10.4672    0.0000 </r>
       <r>   10.5716    0.0000 </r>
       <r>   10.5788    0.0000 </r>
       <r>   10.9114    0.0000 </r>
       <r>   11.5894    0.0000 </r>
       <r>   11.8802    0.0000 </r>
       <r>   12.1077    0.0000 </r>
       <r>   12.1424    0.0000 </r>
       <r>   12.3419    0.0000 </r>
       <r>   12.6423    0.0000 </r>
       <r>   13.0075    0.0000 </r>
       <r>   13.4775    0.0000 </r>
       <r>   14.1695    0.0000 </r>
       <r>   14.3858    0.0000 </r>
       <r>   15.1545    0.0000 </r>
       <r>   15.2765    0.0000 </r>
       <r>   15.3889    0.0000 </r>
       <r>   15.7997    0.0000 </r>
       <r>   16.1743    0.0000 </r>
       <r>   17.3574    0.0000 </r>
       <r>   17.5941    0.0000 </r>
       <r>   17.8616    0.0000 </r>
       <r>   19.0273    0.0000 </r>
       <r>   19.0831    0.0000 </r>
       <r>   19.1612    0.0000 </r>
       <r>   19.5522    0.0000 </r>
       <r>   19.8344    0.0000 </r>
       <r>   19.9231    0.0000 </r>
       <r>   20.1859    0.0000 </r>
       <r>   20.2006    0.0000 </r>
       <r>   20.2953    0.0000 </r>
       <r>   20.4610    0.0000 </r>
       <r>   20.6854    0.0000 </r>
       <r>   20.9076    0.0000 </r>
       <r>   20.9177    0.0000 </r>
       <r>   20.9658    0.0000 </r>
       <r>   21.2974    0.0000 </r>
       <r>   23.1084    0.0000 </r>
       <r>   23.7417    0.0000 </r>
       <r>   23.7808    0.0000 </r>
       <r>   23.9368    0.0000 </r>
       <r>   24.0480    0.0000 </r>
       <r>   24.1155    0.0000 </r>
       <r>   24.2288    0.0000 </r>
       <r>   24.2478    0.0000 </r>
       <r>   24.4571    0.0000 </r>
       <r>   24.5114    0.0000 </r>
       <r>   24.6934    0.0000 </r>
       <r>   24.7126    0.0000 </r>
       <r>   25.1039    0.0000 </r>
       <r>   25.1717    0.0000 </r>
       <r>   25.2293    0.0000 </r>
       <r>   26.4776    0.0000 </r>
       <r>   26.6052    0.0000 </r>
       <r>   26.9337    0.0000 </r>
       <r>   27.0663    0.0000 </r>
       <r>   27.5561    0.0000 </r>
       <r>   27.7010    0.0000 </r>
       <r>   28.0595    0.0000 </r>
       <r>   28.1032    0.0000 </r>
       <r>   28.1118    0.0000 </r>
       <r>   28.1885    0.0000 </r>
       <r>   29.1207    0.0000 </r>
       <r>   29.1320    0.0000 </r>
       <r>   29.6998    0.0000 </r>
       <r>   29.7331    0.0000 </r>
       <r>   29.7997    0.0000 </r>
       <r>   30.2525    0.0000 </r>
       <r>   30.3510    0.0000 </r>
       <r>   30.5885    0.0000 </r>
       <r>   30.9582    0.0000 </r>
       <r>   30.9705    0.0000 </r>
       <r>   31.5020    0.0000 </r>
       <r>   31.7567    0.0000 </r>
       <r>   31.9397    0.0000 </r>
       <r>   32.6385    0.0000 </r>
       <r>   32.7569    0.0000 </r>
       <r>   32.8169    0.0000 </r>
       <r>   32.8397    0.0000 </r>
       <r>   32.9283    0.0000 </r>
       <r>   33.0869    0.0000 </r>
       <r>   33.1632    0.0000 </r>
       <r>   33.2361    0.0000 </r>
       <r>   33.7486    0.0000 </r>
       <r>   33.7648    0.0000 </r>
       <r>   33.9660    0.0000 </r>
       <r>   34.0186    0.0000 </r>
       <r>   34.2044    0.0000 </r>
       <r>   34.6047    0.0000 </r>
       <r>   34.9498    0.0000 </r>
       <r>   35.2437    0.0000 </r>
       <r>   35.4874    0.0000 </r>
       <r>   36.2302    0.0000 </r>
       <r>   36.5183    0.0000 </r>
       <r>   36.7573    0.0000 </r>
       <r>   36.8777    0.0000 </r>
       <r>   37.0315    0.0000 </r>
       <r>   37.0646    0.0000 </r>
       <r>   37.4346    0.0000 </r>
       <r>   37.5842    0.0000 </r>
       <r>   37.9624    0.0000 </r>
       <r>   38.0094    0.0000 </r>
       <r>   38.1555    0.0000 </r>
       <r>   38.4170    0.0000 </r>
       <r>   38.8542    0.0000 </r>
       <r>   38.8811    0.0000 </r>
       <r>   39.1132    0.0000 </r>
       <r>   39.2447    0.0000 </r>
       <r>   39.8819    0.0000 </r>
       <r>   39.9875    0.0000 </r>
       <r>   40.0175    0.0000 </r>
       <r>   40.2079    0.0000 </r>
       <r>   40.3686    0.0000 </r>
       <r>   40.5672    0.0000 </r>
       <r>   40.9918    0.0000 </r>
       <r>   41.4309    0.0000 </r>
       <r>   41.5055    0.0000 </r>
       <r>   41.6760    0.0000 </r>
       <r>   41.6996    0.0000 </r>
       <r>   41.7220    0.0000 </r>
       <r>   41.9303    0.0000 </r>
       <r>   42.6752    0.0000 </r>
       <r>   42.7148    0.0000 </r>
       <r>   43.5865    0.0000 </r>
       <r>   43.8867    0.0000 </r>
       <r>   44.2380    0.0000 </r>
       <r>   44.5378    0.0000 </r>
       <r>   44.5403    0.0000 </r>
       <r>   44.7224    0.0000 </r>
       <r>   44.7919    0.0000 </r>
       <r>   45.3049    0.0000 </r>
       <r>   45.7839    0.0000 </r>
       <r>   46.2576    0.0000 </r>
       <r>   46.9417    0.0000 </r>
       <r>   47.1444    0.0000 </r>
       <r>   47.2395    0.0000 </r>
       <r>   47.3560    0.0000 </r>
       <r>   47.5831    0.0000 </r>
       <r>   47.7528    0.0000 </r>
       <r>   48.0740    0.0000 </r>
       <r>   48.1983    0.0000 </r>
       <r>   48.7077    0.0000 </r>
       <r>   48.8128    0.0000 </r>
       <r>   48.9407    0.0000 </r>
       <r>   49.0230    0.0000 </r>
       <r>   49.0710    0.0000 </r>
       <r>   49.1833    0.0000 </r>
       <r>   49.6233    0.0000 </r>
       <r>   50.0096    0.0000 </r>
       <r>   50.4447    0.0000 </r>
       <r>   50.7960    0.0000 </r>
       <r>   50.8175    0.0000 </r>
       <r>   51.0702    0.0000 </r>
       <r>   51.0973    0.0000 </r>
       <r>   51.2646    0.0000 </r>
       <r>   51.6052    0.0000 </r>
       <r>   51.7024    0.0000 </r>
       <r>   51.7616    0.0000 </r>
       <r>   51.7799    0.0000 </r>
       <r>   51.8773    0.0000 </r>
       <r>   52.1730    0.0000 </r>
       <r>   52.2752    0.0000 </r>
       <r>   52.3139    0.0000 </r>
       <r>   52.4321    0.0000 </r>
       <r>   52.4735    0.0000 </r>
       <r>   52.9221    0.0000 </r>
       <r>   52.9401    0.0000 </r>
       <r>   53.1255    0.0000 </r>
       <r>   53.2064    0.0000 </r>
       <r>   53.2902    0.0000 </r>
       <r>   53.3798    0.0000 </r>
       <r>   53.6811    0.0000 </r>
       <r>   53.9041    0.0000 </r>
       <r>   53.9563    0.0000 </r>
       <r>   54.2682    0.0000 </r>
       <r>   54.5095    0.0000 </r>
       <r>   54.6353    0.0000 </r>
       <r>   54.6388    0.0000 </r>
       <r>   54.6881    0.0000 </r>
       <r>   54.9549    0.0000 </r>
       <r>   55.2356    0.0000 </r>
       <r>   55.5023    0.0000 </r>
       <r>   55.5858    0.0000 </r>
       <r>   55.6711    0.0000 </r>
       <r>   56.0427    0.0000 </r>
       <r>   56.1326    0.0000 </r>
       <r>   56.4570    0.0000 </r>
       <r>   56.4874    0.0000 </r>
       <r>   56.6230    0.0000 </r>
       <r>   56.7015    0.0000 </r>
       <r>   56.7793    0.0000 </r>
       <r>   56.7801    0.0000 </r>
       <r>   56.8025    0.0000 </r>
       <r>   57.0056    0.0000 </r>
       <r>   57.0066    0.0000 </r>
       <r>   57.2368    0.0000 </r>
       <r>   57.3407    0.0000 </r>
       <r>   57.4834    0.0000 </r>
       <r>   57.8336    0.0000 </r>
       <r>   57.9182    0.0000 </r>
       <r>   58.1056    0.0000 </r>
       <r>   58.2455    0.0000 </r>
       <r>   58.4224    0.0000 </r>
       <r>   58.4813    0.0000 </r>
       <r>   59.4516    0.0000 </r>
       <r>   59.4563    0.0000 </r>
       <r>   59.8112    0.0000 </r>
       <r>   59.9746    0.0000 </r>
       <r>   60.0811    0.0000 </r>
       <r>   60.0917    0.0000 </r>
       <r>   60.2638    0.0000 </r>
       <r>   61.1602    0.0000 </r>
       <r>   61.3572    0.0000 </r>
       <r>   61.3716    0.0000 </r>
       <r>   61.5326    0.0000 </r>
       <r>   61.5417    0.0000 </r>
       <r>   61.6584    0.0000 </r>
       <r>   61.7090    0.0000 </r>
       <r>   61.7498    0.0000 </r>
       <r>   61.8022    0.0000 </r>
       <r>   61.9057    0.0000 </r>
       <r>   62.0189    0.0000 </r>
       <r>   62.0238    0.0000 </r>
       <r>   62.3300    0.0000 </r>
       <r>   62.5653    0.0000 </r>
       <r>   62.9404    0.0000 </r>
       <r>   63.0027    0.0000 </r>
       <r>   63.0147    0.0000 </r>
       <r>   63.1569    0.0000 </r>
       <r>   63.1792    0.0000 </r>
       <r>   63.6481    0.0000 </r>
       <r>   63.8384    0.0000 </r>
       <r>   64.5425    0.0000 </r>
       <r>   64.5654    0.0000 </r>
       <r>   64.5866    0.0000 </r>
       <r>   64.6965    0.0000 </r>
       <r>   64.7318    0.0000 </r>
       <r>   64.9493    0.0000 </r>
       <r>   65.1634    0.0000 </r>
       <r>   65.2316    0.0000 </r>
       <r>   65.2661    0.0000 </r>
       <r>   65.9334    0.0000 </r>
       <r>   65.9874    0.0000 </r>
       <r>   66.1768    0.0000 </r>
       <r>   66.2473    0.0000 </r>
       <r>   66.2570    0.0000 </r>
       <r>   66.3764    0.0000 </r>
       <r>   66.4075    0.0000 </r>
       <r>   66.7719    0.0000 </r>
       <r>   67.2470    0.0000 </r>
       <r>   67.4248    0.0000 </r>
       <r>   67.5070    0.0000 </r>
       <r>   67.6463    0.0000 </r>
       <r>   67.9536    0.0000 </r>
       <r>   68.1121    0.0000 </r>
       <r>   68.1307    0.0000 </r>
       <r>   68.4140    0.0000 </r>
       <r>   68.4233    0.0000 </r>
       <r>   68.9782    0.0000 </r>
       <r>   69.2038    0.0000 </r>
       <r>   69.2284    0.0000 </r>
       <r>   69.4678    0.0000 </r>
       <r>   69.5242    0.0000 </r>
       <r>   69.9148    0.0000 </r>
       <r>   69.9249    0.0000 </r>
       <r>   70.1112    0.0000 </r>
       <r>   70.1375    0.0000 </r>
       <r>   70.2368    0.0000 </r>
       <r>   70.2394    0.0000 </r>
       <r>   71.1069    0.0000 </r>
       <r>   71.3740    0.0000 </r>
       <r>   71.8423    0.0000 </r>
       <r>   71.8744    0.0000 </r>
       <r>   72.1543    0.0000 </r>
       <r>   72.4509    0.0000 </r>
       <r>   72.5701    0.0000 </r>
       <r>   72.6800    0.0000 </r>
       <r>   72.8245    0.0000 </r>
       <r>   72.8464    0.0000 </r>
       <r>   72.8694    0.0000 </r>
       <r>   72.9487    0.0000 </r>
       <r>   73.2455    0.0000 </r>
       <r>   73.2690    0.0000 </r>
       <r>   73.4245    0.0000 </r>
       <r>   73.5394    0.0000 </r>
       <r>   73.7491    0.0000 </r>
       <r>   74.0139    0.0000 </r>
       <r>   74.1464    0.0000 </r>
       <r>   74.1779    0.0000 </r>
       <r>   74.2703    0.0000 </r>
       <r>   74.2903    0.0000 </r>
       <r>   74.4060    0.0000 </r>
       <r>   74.4292    0.0000 </r>
       <r>   74.9345    0.0000 </r>
       <r>   75.1801    0.0000 </r>
       <r>   75.2354    0.0000 </r>
       <r>   75.5101    0.0000 </r>
       <r>   75.6743    0.0000 </r>
       <r>   75.8107    0.0000 </r>
       <r>   76.0990    0.0000 </r>
       <r>   76.3046    0.0000 </r>
       <r>   76.3550    0.0000 </r>
       <r>   76.4491    0.0000 </r>
       <r>   76.5580    0.0000 </r>
       <r>   76.7580    0.0000 </r>
       <r>   76.7796    0.0000 </r>
       <r>   76.8412    0.0000 </r>
       <r>   76.8907    0.0000 </r>
       <r>   77.0644    0.0000 </r>
       <r>   77.2053    0.0000 </r>
       <r>   77.2098    0.0000 </r>
       <r>   77.2651    0.0000 </r>
       <r>   77.5168    0.0000 </r>
       <r>   77.9975    0.0000 </r>
       <r>   78.0429    0.0000 </r>
       <r>   78.1376    0.0000 </r>
       <r>   78.3209    0.0000 </r>
       <r>   78.4194    0.0000 </r>
       <r>   78.8013    0.0000 </r>
       <r>   78.8751    0.0000 </r>
       <r>   78.8780    0.0000 </r>
       <r>   78.9060    0.0000 </r>
       <r>   79.1304    0.0000 </r>
       <r>   79.2140    0.0000 </r>
       <r>   79.2184    0.0000 </r>
       <r>   79.6083    0.0000 </r>
       <r>   79.6841    0.0000 </r>
       <r>   79.9031    0.0000 </r>
       <r>   79.9117    0.0000 </r>
       <r>   80.0249    0.0000 </r>
       <r>   80.2832    0.0000 </r>
       <r>   80.3424    0.0000 </r>
       <r>   80.3745    0.0000 </r>
       <r>   80.4647    0.0000 </r>
       <r>   80.9587    0.0000 </r>
       <r>   81.3427    0.0000 </r>
       <r>   81.3717    0.0000 </r>
       <r>   81.9811    0.0000 </r>
       <r>   82.2948    0.0000 </r>
       <r>   82.4543    0.0000 </r>
       <r>   82.4851    0.0000 </r>
       <r>   83.0253    0.0000 </r>
       <r>   83.1184    0.0000 </r>
       <r>   83.6797    0.0000 </r>
       <r>   83.8270    0.0000 </r>
       <r>   83.9231    0.0000 </r>
       <r>   84.2105    0.0000 </r>
       <r>   84.3311    0.0000 </r>
       <r>   84.6183    0.0000 </r>
       <r>   84.6613    0.0000 </r>
       <r>   84.8472    0.0000 </r>
       <r>   84.9400    0.0000 </r>
       <r>   85.0504    0.0000 </r>
       <r>   85.2029    0.0000 </r>
       <r>   85.4069    0.0000 </r>
       <r>   85.4362    0.0000 </r>
       <r>   86.0062    0.0000 </r>
       <r>   86.0772    0.0000 </r>
       <r>   86.1274    0.0000 </r>
       <r>   86.4064    0.0000 </r>
       <r>   86.4259    0.0000 </r>
       <r>   86.5872    0.0000 </r>
       <r>   87.0219    0.0000 </r>
       <r>   87.0540    0.0000 </r>
       <r>   87.4051    0.0000 </r>
       <r>   87.5456    0.0000 </r>
       <r>   87.6281    0.0000 </r>
       <r>   87.6893    0.0000 </r>
       <r>   87.7694    0.0000 </r>
       <r>   87.8628    0.0000 </r>
       <r>   88.1814    0.0000 </r>
       <r>   88.4175    0.0000 </r>
       <r>   88.8077    0.0000 </r>
       <r>   88.9624    0.0000 </r>
       <r>   89.1116    0.0000 </r>
       <r>   89.1164    0.0000 </r>
       <r>   89.3527    0.0000 </r>
       <r>   90.1022    0.0000 </r>
       <r>   90.1514    0.0000 </r>
       <r>   90.1541    0.0000 </r>
       <r>   90.5435    0.0000 </r>
       <r>   90.5817    0.0000 </r>
       <r>   90.6225    0.0000 </r>
       <r>   90.7796    0.0000 </r>
       <r>   90.8776    0.0000 </r>
       <r>   90.9427    0.0000 </r>
       <r>   91.1693    0.0000 </r>
       <r>   91.2612    0.0000 </r>
       <r>   91.6811    0.0000 </r>
       <r>   91.8827    0.0000 </r>
       <r>   92.1035    0.0000 </r>
       <r>   92.2480    0.0000 </r>
       <r>   92.2647    0.0000 </r>
       <r>   92.3925    0.0000 </r>
       <r>   92.4657    0.0000 </r>
       <r>   92.7122    0.0000 </r>
       <r>   92.7417    0.0000 </r>
       <r>   93.0355    0.0000 </r>
       <r>   93.2906    0.0000 </r>
       <r>   93.6392    0.0000 </r>
       <r>   93.7194    0.0000 </r>
       <r>   93.8359    0.0000 </r>
       <r>   94.0397    0.0000 </r>
       <r>   94.0625    0.0000 </r>
       <r>   94.1577    0.0000 </r>
       <r>   94.2586    0.0000 </r>
       <r>   94.3071    0.0000 </r>
       <r>   94.4977    0.0000 </r>
       <r>   94.5450    0.0000 </r>
       <r>   94.5831    0.0000 </r>
       <r>   94.5901    0.0000 </r>
       <r>   94.6311    0.0000 </r>
       <r>   94.8688    0.0000 </r>
       <r>   94.9071    0.0000 </r>
       <r>   95.0021    0.0000 </r>
       <r>   95.3893    0.0000 </r>
       <r>   95.5503    0.0000 </r>
       <r>   95.5804    0.0000 </r>
       <r>   95.5820    0.0000 </r>
       <r>   95.6431    0.0000 </r>
       <r>   95.7469    0.0000 </r>
       <r>   95.9332    0.0000 </r>
       <r>   96.0912    0.0000 </r>
       <r>   96.3084    0.0000 </r>
       <r>   96.5222    0.0000 </r>
       <r>   96.6489    0.0000 </r>
       <r>   96.7735    0.0000 </r>
       <r>   96.8556    0.0000 </r>
       <r>   96.8803    0.0000 </r>
       <r>   96.9919    0.0000 </r>
       <r>   97.0754    0.0000 </r>
       <r>   97.1719    0.0000 </r>
       <r>   97.1804    0.0000 </r>
       <r>   97.2641    0.0000 </r>
       <r>   97.3287    0.0000 </r>
       <r>   97.4432    0.0000 </r>
       <r>   97.5481    0.0000 </r>
       <r>   97.7844    0.0000 </r>
       <r>   97.9161    0.0000 </r>
       <r>   98.0000    0.0000 </r>
       <r>   98.0246    0.0000 </r>
       <r>   98.1026    0.0000 </r>
       <r>   98.4163    0.0000 </r>
       <r>   98.4970    0.0000 </r>
       <r>   98.5720    0.0000 </r>
       <r>   98.8519    0.0000 </r>
       <r>   99.0025    0.0000 </r>
      </set>
      <set comment="kpoint 4">
       <r>  -18.3111    1.0000 </r>
       <r>  -15.5025    1.0000 </r>
       <r>  -14.9178    1.0000 </r>
       <r>  -12.6026    1.0000 </r>
       <r>  -11.5471    1.0000 </r>
       <r>  -10.1724    1.0000 </r>
       <r>   -8.7139    1.0000 </r>
       <r>   -7.6782    1.0000 </r>
       <r>   -6.9823    1.0000 </r>
       <r>   -5.9473    1.0000 </r>
       <r>   -5.0207    1.0000 </r>
       <r>   -4.0930    1.0000 </r>
       <r>   -3.6340    1.0000 </r>
       <r>   -3.2941    1.0000 </r>
       <r>   -3.0028    1.0000 </r>
       <r>   -1.4707    0.0000 </r>
       <r>    1.5522    0.0000 </r>
       <r>    2.2445    0.0000 </r>
       <r>    2.3849    0.0000 </r>
       <r>    3.3190    0.0000 </r>
       <r>    4.9927    0.0000 </r>
       <r>    6.0211    0.0000 </r>
       <r>    6.3584    0.0000 </r>
       <r>    6.7511    0.0000 </r>
       <r>    7.6029    0.0000 </r>
       <r>    7.8092    0.0000 </r>
       <r>    7.9266    0.0000 </r>
       <r>    8.1647    0.0000 </r>
       <r>    8.2206    0.0000 </r>
[...]
       <r>    84.7842    20.9317   773.7740 </r>
       <r>    84.8383     5.4272   774.0679 </r>
       <r>    84.8925    18.8771   775.0902 </r>
       <r>    84.9466    16.4106   775.9789 </r>
       <r>    85.0008    18.5221   776.9819 </r>
       <r>    85.0549    13.3715   777.7060 </r>
       <r>    85.1091    10.8493   778.2936 </r>
       <r>    85.1632    25.5697   779.6783 </r>
       <r>    85.2174    11.1531   780.2823 </r>
       <r>    85.2715    10.6920   780.8613 </r>
       <r>    85.3257    16.9461   781.7790 </r>
       <r>    85.3799    18.6786   782.7906 </r>
       <r>    85.4340    13.2795   783.5097 </r>
       <r>    85.4882    12.8939   784.2080 </r>
       <r>    85.5423    13.3708   784.9321 </r>
       <r>    85.5965    10.2293   785.4861 </r>
       <r>    85.6506     9.4839   785.9997 </r>
       <r>    85.7048     5.6465   786.3055 </r>
       <r>    85.7589     9.0317   786.7946 </r>
       <r>    85.8131    19.3523   787.8426 </r>
       <r>    85.8672     9.4767   788.3558 </r>
       <r>    85.9214     8.3520   788.8081 </r>
       <r>    85.9756    15.9997   789.6745 </r>
       <r>    86.0297    25.5865   791.0602 </r>
       <r>    86.0839     4.3756   791.2971 </r>
       <r>    86.1380    11.0188   791.8938 </r>
       <r>    86.1922    12.5575   792.5739 </r>
       <r>    86.2463    12.6788   793.2605 </r>
       <r>    86.3005    18.0757   794.2394 </r>
       <r>    86.3546     8.6753   794.7092 </r>
       <r>    86.4088     8.0030   795.1426 </r>
       <r>    86.4629    22.3008   796.3503 </r>
       <r>    86.5171    13.4195   797.0770 </r>
       <r>    86.5713     6.7382   797.4420 </r>
       <r>    86.6254    21.5899   798.6112 </r>
       <r>    86.6796    13.4957   799.3420 </r>
       <r>    86.7337    11.2364   799.9505 </r>
       <r>    86.7879    15.7796   800.8051 </r>
       <r>    86.8420     2.3070   800.9300 </r>
       <r>    86.8962    12.7547   801.6207 </r>
       <r>    86.9503    11.6421   802.2512 </r>
       <r>    87.0045     8.7454   802.7248 </r>
       <r>    87.0586     9.7440   803.2525 </r>
       <r>    87.1128     7.2676   803.6461 </r>
       <r>    87.1670    13.2239   804.3622 </r>
       <r>    87.2211     6.2432   804.7003 </r>
       <r>    87.2753    10.1525   805.2501 </r>
       <r>    87.3294     7.6622   805.6651 </r>
       <r>    87.3836    20.2961   806.7642 </r>
       <r>    87.4377    14.1770   807.5319 </r>
       <r>    87.4919    12.3733   808.2020 </r>
       <r>    87.5460    12.4261   808.8749 </r>
       <r>    87.6002    10.8337   809.4616 </r>
       <r>    87.6543     6.1021   809.7921 </r>
       <r>    87.7085    13.0666   810.4997 </r>
       <r>    87.7627    11.0396   811.0976 </r>
       <r>    87.8168    13.6357   811.8360 </r>
       <r>    87.8710    12.7719   812.5277 </r>
       <r>    87.9251     6.2701   812.8672 </r>
       <r>    87.9793    14.3539   813.6446 </r>
       <r>    88.0334    20.0792   814.7319 </r>
       <r>    88.0876     9.6924   815.2568 </r>
       <r>    88.1417    19.5420   816.3151 </r>
       <r>    88.1959    10.9439   816.9078 </r>
       <r>    88.2500     7.8894   817.3350 </r>
       <r>    88.3042     5.5923   817.6379 </r>
       <r>    88.3584    14.0517   818.3988 </r>
       <r>    88.4125     9.9323   818.9367 </r>
       <r>    88.4667    21.9608   820.1260 </r>
       <r>    88.5208    12.8493   820.8219 </r>
       <r>    88.5750    12.0811   821.4761 </r>
       <r>    88.6291    12.7351   822.1658 </r>
       <r>    88.6833    12.4186   822.8383 </r>
       <r>    88.7374    24.0194   824.1391 </r>
       <r>    88.7916     7.8643   824.5650 </r>
       <r>    88.8457    19.3394   825.6123 </r>
       <r>    88.8999    14.9057   826.4195 </r>
       <r>    88.9541    11.7121   827.0538 </r>
       <r>    89.0082    13.2688   827.7723 </r>
       <r>    89.0624    12.5692   828.4530 </r>
       <r>    89.1165     7.4533   828.8566 </r>
       <r>    89.1707    17.5595   829.8076 </r>
       <r>    89.2248     8.6631   830.2767 </r>
       <r>    89.2790     7.8975   830.7044 </r>
       <r>    89.3331    14.5284   831.4912 </r>
       <r>    89.3873    21.4034   832.6503 </r>
       <r>    89.4414     9.7880   833.1804 </r>
       <r>    89.4956    13.8756   833.9318 </r>
       <r>    89.5498    19.5334   834.9896 </r>
       <r>    89.6039     7.6772   835.4054 </r>
       <r>    89.6581     8.6705   835.8749 </r>
       <r>    89.7122     6.2390   836.2128 </r>
       <r>    89.7664     5.9148   836.5331 </r>
       <r>    89.8205    10.6357   837.1091 </r>
       <r>    89.8747    18.7631   838.1252 </r>
       <r>    89.9288     4.3136   838.3588 </r>
       <r>    89.9830    11.6400   838.9892 </r>
       <r>    90.0371    10.5030   839.5579 </r>
       <r>    90.0913    11.3601   840.1731 </r>
       <r>    90.1455    12.3891   840.8441 </r>
       <r>    90.1996    13.0102   841.5486 </r>
       <r>    90.2538     7.1419   841.9354 </r>
       <r>    90.3079    12.9812   842.6384 </r>
       <r>    90.3621     7.8603   843.0641 </r>
       <r>    90.4162    12.1428   843.7217 </r>
       <r>    90.4704    10.4424   844.2872 </r>
       <r>    90.5245     8.3644   844.7401 </r>
       <r>    90.5787    11.1659   845.3448 </r>
       <r>    90.6328    15.9207   846.2070 </r>
       <r>    90.6870    10.3879   846.7696 </r>
       <r>    90.7412    17.0727   847.6941 </r>
       <r>    90.7953    13.3523   848.4172 </r>
       <r>    90.8495    14.4542   849.2000 </r>
       <r>    90.9036    15.6805   850.0492 </r>
       <r>    90.9578    12.9895   850.7526 </r>
       <r>    91.0119    11.5907   851.3803 </r>
       <r>    91.0661    22.7547   852.6126 </r>
       <r>    91.1202    11.4172   853.2309 </r>
       <r>    91.1744    14.6469   854.0241 </r>
       <r>    91.2285     8.5033   854.4846 </r>
       <r>    91.2827     8.5194   854.9459 </r>
       <r>    91.3369    12.8306   855.6408 </r>
       <r>    91.3910    11.3542   856.2556 </r>
       <r>    91.4452     7.0960   856.6399 </r>
       <r>    91.4993    12.9780   857.3427 </r>
       <r>    91.5535    17.8289   858.3083 </r>
       <r>    91.6076    12.5879   858.9900 </r>
       <r>    91.6618    17.6293   859.9447 </r>
       <r>    91.7159    14.0998   860.7082 </r>
       <r>    91.7701    12.2118   861.3696 </r>
       <r>    91.8242    10.4204   861.9339 </r>
       <r>    91.8784    11.6007   862.5621 </r>
       <r>    91.9326    24.6856   863.8990 </r>
       <r>    91.9867     5.7793   864.2119 </r>
       <r>    92.0409    18.3945   865.2081 </r>
       <r>    92.0950    15.3395   866.0388 </r>
       <r>    92.1492     9.8005   866.5695 </r>
       <r>    92.2033     6.5174   866.9225 </r>
       <r>    92.2575    17.0597   867.8463 </r>
       <r>    92.3116    24.4168   869.1686 </r>
       <r>    92.3658    11.5496   869.7941 </r>
       <r>    92.4199     6.1639   870.1279 </r>
       <r>    92.4741    14.9537   870.9377 </r>
       <r>    92.5283     9.6166   871.4585 </r>
       <r>    92.5824    15.2871   872.2864 </r>
       <r>    92.6366    12.0400   872.9384 </r>
       <r>    92.6907     7.6695   873.3537 </r>
       <r>    92.7449    22.3134   874.5621 </r>
       <r>    92.7990    17.1691   875.4919 </r>
       <r>    92.8532    17.3623   876.4322 </r>
       <r>    92.9073    16.5364   877.3277 </r>
       <r>    92.9615    16.4469   878.2184 </r>
       <r>    93.0156     7.5742   878.6285 </r>
       <r>    93.0698     9.6816   879.1528 </r>
       <r>    93.1240     7.0137   879.5327 </r>
       <r>    93.1781    11.6138   880.1616 </r>
       <r>    93.2323    17.4700   881.1077 </r>
       <r>    93.2864    15.8320   881.9651 </r>
       <r>    93.3406    14.8047   882.7668 </r>
       <r>    93.3947    23.0432   884.0147 </r>
       <r>    93.4489    15.4223   884.8499 </r>
       <r>    93.5030    12.5491   885.5295 </r>
       <r>    93.5572    16.4456   886.4201 </r>
       <r>    93.6113    13.1055   887.1298 </r>
       <r>    93.6655    17.7792   888.0927 </r>
       <r>    93.7197    22.4527   889.3086 </r>
       <r>    93.7738    10.7203   889.8892 </r>
       <r>    93.8280    14.5685   890.6781 </r>
       <r>    93.8821    13.1890   891.3924 </r>
       <r>    93.9363     3.5797   891.5862 </r>
       <r>    93.9904    17.9817   892.5600 </r>
       <r>    94.0446     8.5530   893.0232 </r>
       <r>    94.0987    16.7919   893.9326 </r>
       <r>    94.1529     7.0218   894.3128 </r>
       <r>    94.2070     7.3674   894.7118 </r>
       <r>    94.2612    14.0572   895.4731 </r>
       <r>    94.3154     7.6700   895.8884 </r>
       <r>    94.3695    13.6032   896.6251 </r>
       <r>    94.4237    12.2044   897.2860 </r>
       <r>    94.4778    16.6915   898.1900 </r>
       <r>    94.5320    16.7397   899.0965 </r>
       <r>    94.5861    21.2937   900.2496 </r>
       <r>    94.6403    13.4805   900.9797 </r>
       <r>    94.6944     7.7941   901.4018 </r>
       <r>    94.7486    13.5263   902.1343 </r>
       <r>    94.8027    12.9350   902.8348 </r>
       <r>    94.8569    10.4814   903.4024 </r>
       <r>    94.9111     9.5978   903.9222 </r>
       <r>    94.9652    14.5737   904.7114 </r>
       <r>    95.0194     3.4018   904.8956 </r>
       <r>    95.0735    10.2421   905.4503 </r>
       <r>    95.1277     7.5795   905.8607 </r>
       <r>    95.1818    14.8337   906.6641 </r>
       <r>    95.2360    15.3106   907.4932 </r>
       <r>    95.2901     9.0201   907.9817 </r>
       <r>    95.3443     5.8683   908.2995 </r>
       <r>    95.3984    21.7883   909.4794 </r>
       <r>    95.4526    15.9176   910.3414 </r>
       <r>    95.5068    13.3261   911.0631 </r>
       <r>    95.5609    14.6856   911.8584 </r>
       <r>    95.6151    14.1308   912.6237 </r>
       <r>    95.6692    21.6046   913.7936 </r>
       <r>    95.7234    17.8803   914.7619 </r>
       <r>    95.7775     9.2231   915.2614 </r>
       <r>    95.8317    11.3485   915.8760 </r>
       <r>    95.8858    11.5138   916.4995 </r>
       <r>    95.9400     8.9432   916.9839 </r>
       <r>    95.9942    19.3748   918.0331 </r>
       <r>    96.0483     7.7007   918.4501 </r>
       <r>    96.1025     9.0388   918.9396 </r>
       <r>    96.1566    11.4898   919.5618 </r>
       <r>    96.2108     8.3982   920.0166 </r>
       <r>    96.2649    16.0762   920.8872 </r>
       <r>    96.3191    16.5197   921.7819 </r>
       <r>    96.3732    13.0034   922.4861 </r>
       <r>    96.4274     8.3551   922.9385 </r>
       <r>    96.4815    10.9130   923.5295 </r>
       <r>    96.5357     8.4856   923.9891 </r>
       <r>    96.5899    16.6247   924.8894 </r>
       <r>    96.6440    16.4045   925.7778 </r>
       <r>    96.6982    10.6607   926.3551 </r>
       <r>    96.7523    12.6775   927.0416 </r>
       <r>    96.8065    13.3657   927.7655 </r>
       <r>    96.8606    19.6009   928.8269 </r>
       <r>    96.9148    11.1828   929.4326 </r>
       <r>    96.9689    14.2500   930.2043 </r>
       <r>    97.0231     8.4476   930.6617 </r>
       <r>    97.0772     3.2034   930.8352 </r>
       <r>    97.1314    19.7191   931.9031 </r>
       <r>    97.1856     9.9620   932.4426 </r>
       <r>    97.2397    10.4067   933.0062 </r>
       <r>    97.2939    11.3852   933.6227 </r>
       <r>    97.3480    15.6794   934.4718 </r>
       <r>    97.4022    14.7936   935.2730 </r>
       <r>    97.4563    16.9555   936.1912 </r>
       <r>    97.5105    11.9870   936.8404 </r>
       <r>    97.5646    15.3908   937.6738 </r>
       <r>    97.6188    22.0638   938.8687 </r>
       <r>    97.6729     7.2775   939.2628 </r>
       <r>    97.7271    12.8851   939.9606 </r>
       <r>    97.7813    22.5814   941.1835 </r>
       <r>    97.8354    12.0175   941.8343 </r>
       <r>    97.8896    14.3872   942.6134 </r>
       <r>    97.9437    18.6223   943.6219 </r>
       <r>    97.9979     9.7081   944.1476 </r>
       <r>    98.0520    11.9901   944.7970 </r>
       <r>    98.1062    13.7937   945.5440 </r>
       <r>    98.1603    17.8969   946.5132 </r>
       <r>    98.2145    14.1559   947.2798 </r>
       <r>    98.2686    11.3860   947.8964 </r>
       <r>    98.3228    19.6696   948.9616 </r>
       <r>    98.3770     9.0318   949.4507 </r>
       <r>    98.4311    12.1813   950.1104 </r>
       <r>    98.4853    14.0386   950.8707 </r>
       <r>    98.5394    15.3442   951.7016 </r>
       <r>    98.5936    13.3347   952.4238 </r>
       <r>    98.6477    13.2301   953.1402 </r>
       <r>    98.7019    17.7438   954.1011 </r>
       <r>    98.7560     8.2370   954.5472 </r>
       <r>    98.8102     1.7174   954.6402 </r>
       <r>    98.8643     8.4413   955.0974 </r>
       <r>    98.9185    20.6482   956.2156 </r>
       <r>    98.9727    13.2123   956.9311 </r>
       <r>    99.0268    11.1690   957.5360 </r>
       <r>    99.0810    11.5398   958.1609 </r>
       <r>    99.1351    10.5935   958.7346 </r>
       <r>    99.1893     1.6635   958.8247 </r>
       <r>    99.2434     9.5529   959.3420 </r>
       <r>    99.2976     1.8916   959.4444 </r>
       <r>    99.3517     1.2279   959.5109 </r>
       <r>    99.4059     5.2085   959.7930 </r>
       <r>    99.4600     2.9012   959.9501 </r>
       <r>    99.5142     0.4971   959.9770 </r>
       <r>    99.5684     0.3307   959.9949 </r>
       <r>    99.6225     0.0933   960.0000 </r>
       <r>    99.6767     0.0000   960.0000 </r>
       <r>    99.7308     0.0000   960.0000 </r>
       <r>    99.7850     0.0000   960.0000 </r>
       <r>    99.8391     0.0000   960.0000 </r>
       <r>    99.8933     0.0000   960.0000 </r>
       <r>    99.9474     0.0000   960.0000 </r>
       <r>   100.0016     0.0000   960.0000 </r>
       <r>   100.0557     0.0000   960.0000 </r>
       <r>   100.1099     0.0000   960.0000 </r>
       <r>   100.1641     0.0000   960.0000 </r>
       <r>   100.2182     0.0000   960.0000 </r>
       <r>   100.2724     0.0000   960.0000 </r>
       <r>   100.3265     0.0000   960.0000 </r>
       <r>   100.3807     0.0000   960.0000 </r>
       <r>   100.4348     0.0000   960.0000 </r>
       <r>   100.4890     0.0000   960.0000 </r>
       <r>   100.5431     0.0000   960.0000 </r>
       <r>   100.5973     0.0000   960.0000 </r>
       <r>   100.6514     0.0000   960.0000 </r>
       <r>   100.7056     0.0000   960.0000 </r>
       <r>   100.7598     0.0000   960.0000 </r>
       <r>   100.8139     0.0000   960.0000 </r>
       <r>   100.8681     0.0000   960.0000 </r>
       <r>   100.9222     0.0000   960.0000 </r>
       <r>   100.9764     0.0000   960.0000 </r>
       <r>   101.0305     0.0000   960.0000 </r>
       <r>   101.0847     0.0000   960.0000 </r>
       <r>   101.1388     0.0000   960.0000 </r>
       <r>   101.1930     0.0000   960.0000 </r>
       <r>   101.2471     0.0000   960.0000 </r>
       <r>   101.3013     0.0000   960.0000 </r>
       <r>   101.3555     0.0000   960.0000 </r>
       <r>   101.4096     0.0000   960.0000 </r>
       <r>   101.4638     0.0000   960.0000 </r>
       <r>   101.5179     0.0000   960.0000 </r>
       <r>   101.5721     0.0000   960.0000 </r>
       <r>   101.6262     0.0000   960.0000 </r>
       <r>   101.6804     0.0000   960.0000 </r>
       <r>   101.7345     0.0000   960.0000 </r>
       <r>   101.7887     0.0000   960.0000 </r>
       <r>   101.8428     0.0000   960.0000 </r>
       <r>   101.8970     0.0000   960.0000 </r>
       <r>   101.9512     0.0000   960.0000 </r>
       <r>   102.0053     0.0000   960.0000 </r>
       <r>   102.0595     0.0000   960.0000 </r>
       <r>   102.1136     0.0000   960.0000 </r>
       <r>   102.1678     0.0000   960.0000 </r>
       <r>   102.2219     0.0000   960.0000 </r>
       <r>   102.2761     0.0000   960.0000 </r>
       <r>   102.3302     0.0000   960.0000 </r>
       <r>   102.3844     0.0000   960.0000 </r>
       <r>   102.4385     0.0000   960.0000 </r>
       <r>   102.4927     0.0000   960.0000 </r>
       <r>   102.5469     0.0000   960.0000 </r>
       <r>   102.6010     0.0000   960.0000 </r>
       <r>   102.6552     0.0000   960.0000 </r>
       <r>   102.7093     0.0000   960.0000 </r>
       <r>   102.7635     0.0000   960.0000 </r>
       <r>   102.8176     0.0000   960.0000 </r>
       <r>   102.8718     0.0000   960.0000 </r>
       <r>   102.9259     0.0000   960.0000 </r>
       <r>   102.9801     0.0000   960.0000 </r>
       <r>   103.0342     0.0000   960.0000 </r>
       <r>   103.0884     0.0000   960.0000 </r>
       <r>   103.1426     0.0000   960.0000 </r>
       <r>   103.1967     0.0000   960.0000 </r>
       <r>   103.2509     0.0000   960.0000 </r>
       <r>   103.3050     0.0000   960.0000 </r>
       <r>   103.3592     0.0000   960.0000 </r>
       <r>   103.4133     0.0000   960.0000 </r>
       <r>   103.4675     0.0000   960.0000 </r>
       <r>   103.5216     0.0000   960.0000 </r>
       <r>   103.5758     0.0000   960.0000 </r>
       <r>   103.6299     0.0000   960.0000 </r>
       <r>   103.6841     0.0000   960.0000 </r>
       <r>   103.7383     0.0000   960.0000 </r>
       <r>   103.7924     0.0000   960.0000 </r>
       <r>   103.8466     0.0000   960.0000 </r>
       <r>   103.9007     0.0000   960.0000 </r>
       <r>   103.9549     0.0000   960.0000 </r>
       <r>   104.0090     0.0000   960.0000 </r>
       <r>   104.0632     0.0000   960.0000 </r>
       <r>   104.1173     0.0000   960.0000 </r>
       <r>   104.1715     0.0000   960.0000 </r>
       <r>   104.2256     0.0000   960.0000 </r>
       <r>   104.2798     0.0000   960.0000 </r>
       <r>   104.3340     0.0000   960.0000 </r>
       <r>   104.3881     0.0000   960.0000 </r>
       <r>   104.4423     0.0000   960.0000 </r>
       <r>   104.4964     0.0000   960.0000 </r>
       <r>   104.5506     0.0000   960.0000 </r>
       <r>   104.6047     0.0000   960.0000 </r>
       <r>   104.6589     0.0000   960.0000 </r>
       <r>   104.7130     0.0000   960.0000 </r>
       <r>   104.7672     0.0000   960.0000 </r>
       <r>   104.8213     0.0000   960.0000 </r>
       <r>   104.8755     0.0000   960.0000 </r>
       <r>   104.9297     0.0000   960.0000 </r>
       <r>   104.9838     0.0000   960.0000 </r>
       <r>   105.0380     0.0000   960.0000 </r>
       <r>   105.0921     0.0000   960.0000 </r>
       <r>   105.1463     0.0000   960.0000 </r>
       <r>   105.2004     0.0000   960.0000 </r>
       <r>   105.2546     0.0000   960.0000 </r>
       <r>   105.3087     0.0000   960.0000 </r>
       <r>   105.3629     0.0000   960.0000 </r>
       <r>   105.4170     0.0000   960.0000 </r>
       <r>   105.4712     0.0000   960.0000 </r>
      </set>
     </set>
    </array>
   </total>
  </dos>
 </calculation>
 <structure name="finalpos" >
  <crystal>
   <varray name="basis" >
    <v>       4.48084843       2.58701885       0.00000000 </v>
    <v>      -4.48084843       2.58701885       0.00000000 </v>
    <v>       0.00000000       0.00000000       8.52022140 </v>
   </varray>
   <i name="volume">    197.53348383 </i>
   <varray name="rec_basis" >
    <v>       0.11158601       0.19327265       0.00000000 </v>
    <v>      -0.11158601       0.19327265       0.00000000 </v>
    <v>       0.00000000       0.00000000       0.11736784 </v>
   </varray>
  </crystal>
  <varray name="positions" >
   <v>       0.33333300       0.66666600       0.25000000 </v>
   <v>       0.66666600       0.33333300       0.25000000 </v>
   <v>       0.15869124       0.31738348       0.25000000 </v>
   <v>       0.31738348       0.15869124       0.25000000 </v>
   <v>       0.15869124       0.84130776       0.25000000 </v>
   <v>       0.84130776       0.15869124       0.25000000 </v>
   <v>       0.68261552       0.84130776       0.25000000 </v>
   <v>       0.84130776       0.68261552       0.25000000 </v>
  </varray>
 </structure>
</modeling>
