   1   1   1   0
  0.3125000E+02  0.3535534E-09  0.3535534E-09  0.3535534E-09  0.5000000E-15
  1.000000000000000E-004
  CAR 
 fcc Si bandstructure                    
     26.47903684     -8.12072876  301      3.95930545      1.00000000
     -8.121  0.0000E+00  0.0000E+00
     -8.005  0.0000E+00  0.0000E+00
     -7.890  0.0000E+00  0.0000E+00
     -7.775  0.0000E+00  0.0000E+00
     -7.659  0.0000E+00  0.0000E+00
     -7.544  0.0000E+00  0.0000E+00
     -7.429  0.0000E+00  0.0000E+00
     -7.313  0.0000E+00  0.0000E+00
     -7.198  0.0000E+00  0.0000E+00
     -7.083  0.2582E-13  0.2978E-14
     -6.967  0.1968E-08  0.2270E-09
     -6.852  0.1131E-04  0.1304E-05
     -6.737  0.5237E-02  0.6053E-03
     -6.621  0.2278E+00  0.2688E-01
     -6.506  0.1226E+01  0.1683E+00
     -6.391  0.1193E+01  0.3059E+00
     -6.275  0.7690E+00  0.3946E+00
     -6.160  0.5557E+00  0.4587E+00
     -6.045  0.3753E+00  0.5020E+00
     -5.929  0.4767E+00  0.5569E+00
     -5.814  0.4930E+00  0.6138E+00
     -5.699  0.2785E+00  0.6459E+00
     -5.583  0.1539E+00  0.6636E+00
     -5.468  0.4151E+00  0.7115E+00
     -5.353  0.5604E+00  0.7762E+00
     -5.237  0.1975E+00  0.7989E+00
     -5.122  0.2322E-01  0.8016E+00
     -5.007  0.2084E+00  0.8256E+00
     -4.891  0.5409E+00  0.8880E+00
     -4.776  0.4339E+00  0.9381E+00
     -4.661  0.1003E+00  0.9496E+00
     -4.545  0.2321E-01  0.9523E+00
     -4.430  0.2365E+00  0.9796E+00
     -4.315  0.4547E+00  0.1032E+01
     -4.199  0.2891E+00  0.1065E+01
     -4.084  0.2951E+00  0.1099E+01
     -3.969  0.2932E+00  0.1133E+01
     -3.853  0.2567E+00  0.1163E+01
     -3.738  0.3076E+00  0.1198E+01
     -3.623  0.3238E+00  0.1236E+01
     -3.507  0.3273E+00  0.1273E+01
     -3.392  0.2069E+00  0.1297E+01
     -3.277  0.2363E-01  0.1300E+01
     -3.161  0.9651E-02  0.1301E+01
     -3.046  0.1999E+00  0.1324E+01
     -2.931  0.4979E+00  0.1382E+01
     -2.815  0.3688E+00  0.1424E+01
     -2.700  0.2063E+01  0.1662E+01
     -2.585  0.2520E+01  0.1953E+01
     -2.469  0.4032E+00  0.1999E+01
     -2.354  0.7317E-02  0.2000E+01
     -2.239  0.1268E-04  0.2000E+01
     -2.123  0.1853E-08  0.2000E+01
     -2.008  0.2113E-13  0.2000E+01
     -1.893  0.0000E+00  0.2000E+01
     -1.777  0.0000E+00  0.2000E+01
     -1.662  0.0000E+00  0.2000E+01
     -1.547  0.0000E+00  0.2000E+01
     -1.431  0.0000E+00  0.2000E+01
     -1.316  0.0000E+00  0.2000E+01
     -1.201  0.0000E+00  0.2000E+01
     -1.085  0.0000E+00  0.2000E+01
     -0.970  0.3638E-12  0.2000E+01
     -0.855  0.1236E-07  0.2000E+01
     -0.739  0.3176E-04  0.2000E+01
     -0.624  0.6543E-02  0.2001E+01
     -0.509  0.1219E+00  0.2015E+01
     -0.393  0.2470E+00  0.2043E+01
     -0.278  0.1099E+00  0.2056E+01
     -0.163  0.2433E+00  0.2084E+01
     -0.047  0.1306E+00  0.2099E+01
      0.068  0.2062E-01  0.2101E+01
      0.183  0.3601E+00  0.2143E+01
      0.299  0.1269E+01  0.2289E+01
      0.414  0.1052E+01  0.2411E+01
      0.529  0.9025E+00  0.2515E+01
      0.645  0.8596E+00  0.2614E+01
      0.760  0.5536E+00  0.2678E+01
      0.875  0.5360E+00  0.2740E+01
      0.991  0.4567E+00  0.2792E+01
      1.106  0.1021E+00  0.2804E+01
      1.221  0.2985E+00  0.2838E+01
      1.337  0.5711E+00  0.2904E+01
      1.452  0.8077E+00  0.2998E+01
      1.567  0.5506E+00  0.3061E+01
      1.683  0.5695E+00  0.3127E+01
      1.798  0.4990E+00  0.3184E+01
      1.913  0.4084E+00  0.3231E+01
      2.029  0.3604E+00  0.3273E+01
      2.144  0.3247E+00  0.3310E+01
      2.259  0.2775E+00  0.3342E+01
      2.375  0.1685E+00  0.3362E+01
      2.490  0.6825E+00  0.3440E+01
      2.605  0.8004E+00  0.3533E+01
      2.721  0.2205E+00  0.3558E+01
      2.836  0.3967E+00  0.3604E+01
      2.951  0.3485E+00  0.3644E+01
      3.067  0.5705E-01  0.3651E+01
      3.182  0.1297E+00  0.3666E+01
      3.297  0.2471E+00  0.3694E+01
      3.413  0.2040E+00  0.3718E+01
      3.528  0.6766E+00  0.3796E+01
      3.643  0.8175E+00  0.3890E+01
      3.759  0.5001E+00  0.3948E+01
      3.874  0.2764E+00  0.3980E+01
      3.989  0.2431E+00  0.4008E+01
      4.105  0.9442E+00  0.4117E+01
      4.220  0.2457E+01  0.4400E+01
      4.335  0.1815E+01  0.4609E+01
      4.451  0.1392E+01  0.4770E+01
      4.566  0.1360E+01  0.4927E+01
      4.681  0.1607E+01  0.5112E+01
      4.797  0.9068E+00  0.5217E+01
      4.912  0.3153E+00  0.5253E+01
      5.027  0.5557E+00  0.5317E+01
      5.143  0.6253E+00  0.5389E+01
      5.258  0.1002E+00  0.5401E+01
      5.373  0.2041E+00  0.5424E+01
      5.489  0.9421E+00  0.5533E+01
      5.604  0.9463E+00  0.5642E+01
      5.719  0.3728E+00  0.5685E+01
      5.835  0.2221E+00  0.5711E+01
      5.950  0.5961E+00  0.5780E+01
      6.065  0.1019E+01  0.5897E+01
      6.181  0.1462E+01  0.6066E+01
      6.296  0.1808E+01  0.6274E+01
      6.411  0.1447E+01  0.6441E+01
      6.527  0.1423E+01  0.6605E+01
      6.642  0.1215E+01  0.6746E+01
      6.757  0.1273E+01  0.6892E+01
      6.873  0.1650E+01  0.7083E+01
      6.988  0.2246E+01  0.7342E+01
      7.103  0.3429E+01  0.7737E+01
      7.219  0.2100E+01  0.7979E+01
      7.334  0.3137E+00  0.8016E+01
      7.449  0.7579E+00  0.8103E+01
      7.564  0.1004E+01  0.8219E+01
      7.680  0.7820E+00  0.8309E+01
      7.795  0.9168E+00  0.8415E+01
      7.910  0.1607E+01  0.8600E+01
      8.026  0.1214E+01  0.8740E+01
      8.141  0.9472E+00  0.8849E+01
      8.256  0.7542E+00  0.8936E+01
      8.372  0.5819E+00  0.9004E+01
      8.487  0.6063E+00  0.9073E+01
      8.602  0.5092E+00  0.9132E+01
      8.718  0.1951E+00  0.9155E+01
      8.833  0.3229E+00  0.9192E+01
      8.948  0.5936E+00  0.9260E+01
      9.064  0.3192E+00  0.9297E+01
      9.179  0.2427E-01  0.9300E+01
      9.294  0.1013E-01  0.9301E+01
      9.410  0.2612E+00  0.9331E+01
      9.525  0.9103E+00  0.9436E+01
      9.640  0.5073E+00  0.9495E+01
      9.756  0.4491E-01  0.9500E+01
      9.871  0.1123E-01  0.9501E+01
      9.986  0.1569E+00  0.9519E+01
     10.102  0.4277E+00  0.9569E+01
     10.217  0.8944E+00  0.9672E+01
     10.332  0.9702E+00  0.9784E+01
     10.448  0.4446E+00  0.9835E+01
     10.563  0.3687E+00  0.9878E+01
     10.678  0.7234E+00  0.9961E+01
     10.794  0.3422E+00  0.1000E+02
     10.909  0.2353E+00  0.1003E+02
     11.024  0.4086E+00  0.1007E+02
     11.140  0.5299E+00  0.1014E+02
     11.255  0.6637E+00  0.1021E+02
     11.370  0.3211E+00  0.1025E+02
     11.486  0.3946E+00  0.1029E+02
     11.601  0.1138E+01  0.1043E+02
     11.716  0.1510E+01  0.1060E+02
     11.832  0.1722E+01  0.1080E+02
     11.947  0.1267E+01  0.1094E+02
     12.062  0.2842E+01  0.1127E+02
     12.178  0.3423E+01  0.1167E+02
     12.293  0.1754E+01  0.1187E+02
     12.408  0.1890E+01  0.1209E+02
     12.524  0.1540E+01  0.1227E+02
     12.639  0.1570E+01  0.1245E+02
     12.754  0.1005E+01  0.1256E+02
     12.870  0.6128E+00  0.1263E+02
     12.985  0.1210E+01  0.1277E+02
     13.100  0.8439E+00  0.1287E+02
     13.216  0.1176E+01  0.1301E+02
     13.331  0.1619E+01  0.1319E+02
     13.446  0.6317E+00  0.1327E+02
     13.562  0.5255E+00  0.1333E+02
     13.677  0.3265E+00  0.1336E+02
     13.792  0.6667E+00  0.1344E+02
     13.908  0.1172E+01  0.1358E+02
     14.023  0.1237E+01  0.1372E+02
     14.138  0.6948E+00  0.1380E+02
     14.254  0.4318E+00  0.1385E+02
     14.369  0.2797E+00  0.1388E+02
     14.484  0.4430E+00  0.1393E+02
     14.600  0.9307E+00  0.1404E+02
     14.715  0.1295E+01  0.1419E+02
     14.830  0.1229E+01  0.1433E+02
     14.946  0.1507E+01  0.1450E+02
     15.061  0.1210E+01  0.1464E+02
     15.176  0.1155E+01  0.1478E+02
     15.292  0.1522E+01  0.1495E+02
     15.407  0.8555E+00  0.1505E+02
     15.522  0.7363E+00  0.1514E+02
     15.638  0.1184E+01  0.1527E+02
     15.753  0.2021E+01  0.1551E+02
     15.868  0.2745E+01  0.1582E+02
     15.984  0.2320E+01  0.1609E+02
     16.099  0.1171E+01  0.1622E+02
     16.214  0.5591E+00  0.1629E+02
     16.330  0.1136E+01  0.1642E+02
     16.445  0.1360E+01  0.1658E+02
     16.560  0.6589E+00  0.1665E+02
     16.676  0.9045E+00  0.1676E+02
     16.791  0.1321E+01  0.1691E+02
     16.906  0.7175E+00  0.1699E+02
     17.022  0.4445E+00  0.1704E+02
     17.137  0.1273E+01  0.1719E+02
     17.252  0.1081E+01  0.1731E+02
     17.368  0.7404E+00  0.1740E+02
     17.483  0.1047E+01  0.1752E+02
     17.598  0.1325E+01  0.1767E+02
     17.714  0.9495E+00  0.1778E+02
     17.829  0.7634E+00  0.1787E+02
     17.944  0.5239E+00  0.1793E+02
     18.060  0.9320E+00  0.1804E+02
     18.175  0.1091E+01  0.1817E+02
     18.290  0.9417E+00  0.1827E+02
     18.406  0.1301E+01  0.1842E+02
     18.521  0.1047E+01  0.1854E+02
     18.636  0.6422E+00  0.1862E+02
     18.752  0.8622E+00  0.1872E+02
     18.867  0.1386E+01  0.1888E+02
     18.982  0.1891E+01  0.1910E+02
     19.098  0.1483E+01  0.1927E+02
     19.213  0.8453E+00  0.1936E+02
     19.328  0.2151E+01  0.1961E+02
     19.444  0.1478E+01  0.1978E+02
     19.559  0.4314E+00  0.1983E+02
     19.674  0.1085E+01  0.1996E+02
     19.790  0.1972E+01  0.2019E+02
     19.905  0.2235E+01  0.2044E+02
     20.020  0.1612E+01  0.2063E+02
     20.136  0.1783E+01  0.2083E+02
     20.251  0.1064E+01  0.2096E+02
     20.366  0.6115E+00  0.2103E+02
     20.482  0.4191E+00  0.2108E+02
     20.597  0.3535E+00  0.2112E+02
     20.712  0.6210E+00  0.2119E+02
     20.828  0.6773E+00  0.2127E+02
     20.943  0.4492E+00  0.2132E+02
     21.058  0.8311E+00  0.2141E+02
     21.174  0.8596E+00  0.2151E+02
     21.289  0.7854E+00  0.2160E+02
     21.404  0.7056E+00  0.2169E+02
     21.520  0.4836E+00  0.2174E+02
     21.635  0.2135E+00  0.2177E+02
     21.750  0.3474E+00  0.2181E+02
     21.866  0.5700E+00  0.2187E+02
     21.981  0.9544E+00  0.2198E+02
     22.096  0.1680E+01  0.2218E+02
     22.212  0.1262E+01  0.2232E+02
     22.327  0.8011E+00  0.2241E+02
     22.442  0.5940E+00  0.2248E+02
     22.558  0.5664E+00  0.2255E+02
     22.673  0.8889E+00  0.2265E+02
     22.788  0.9849E+00  0.2276E+02
     22.904  0.5848E+00  0.2283E+02
     23.019  0.2527E+00  0.2286E+02
     23.134  0.6065E+00  0.2293E+02
     23.250  0.1034E+01  0.2305E+02
     23.365  0.4101E+00  0.2310E+02
     23.480  0.5893E-01  0.2310E+02
     23.596  0.3604E+00  0.2314E+02
     23.711  0.1012E+01  0.2326E+02
     23.826  0.6887E+00  0.2334E+02
     23.942  0.2140E+00  0.2337E+02
     24.057  0.3593E+00  0.2341E+02
     24.172  0.6286E+00  0.2348E+02
     24.288  0.8572E+00  0.2358E+02
     24.403  0.5037E+00  0.2364E+02
     24.518  0.5411E+00  0.2370E+02
     24.634  0.7465E+00  0.2379E+02
     24.749  0.4802E+00  0.2384E+02
     24.864  0.6759E+00  0.2392E+02
     24.980  0.5753E+00  0.2398E+02
     25.095  0.1279E+00  0.2400E+02
     25.210  0.3291E-02  0.2400E+02
     25.326  0.7396E-05  0.2400E+02
     25.441  0.1303E-08  0.2400E+02
     25.556  0.1713E-13  0.2400E+02
     25.672  0.0000E+00  0.2400E+02
     25.787  0.0000E+00  0.2400E+02
     25.902  0.0000E+00  0.2400E+02
     26.018  0.0000E+00  0.2400E+02
     26.133  0.0000E+00  0.2400E+02
     26.248  0.0000E+00  0.2400E+02
     26.364  0.0000E+00  0.2400E+02
     26.479  0.0000E+00  0.2400E+02
     26.47903684     -8.12072876  301      3.95930545      1.00000000
     -8.121  0.0000E+00  0.0000E+00  0.0000E+00  0.0000E+00  0.0000E+00  0.0000E+00  0.0000E+00  0.0000E+00  0.0000E+00
     -8.005  0.0000E+00  0.0000E+00  0.0000E+00  0.0000E+00  0.0000E+00  0.0000E+00  0.0000E+00  0.0000E+00  0.0000E+00
     -7.890  0.0000E+00  0.0000E+00  0.0000E+00  0.0000E+00  0.0000E+00  0.0000E+00  0.0000E+00  0.0000E+00  0.0000E+00
     -7.775  0.0000E+00  0.0000E+00  0.0000E+00  0.0000E+00  0.0000E+00  0.0000E+00  0.0000E+00  0.0000E+00  0.0000E+00
     -7.659  0.0000E+00  0.0000E+00  0.0000E+00  0.0000E+00  0.0000E+00  0.0000E+00  0.0000E+00  0.0000E+00  0.0000E+00
     -7.544  0.0000E+00  0.0000E+00  0.0000E+00  0.0000E+00  0.0000E+00  0.0000E+00  0.0000E+00  0.0000E+00  0.0000E+00
     -7.429  0.0000E+00  0.0000E+00  0.0000E+00  0.0000E+00  0.0000E+00  0.0000E+00  0.0000E+00  0.0000E+00  0.0000E+00
     -7.313  0.0000E+00  0.0000E+00  0.0000E+00  0.0000E+00  0.0000E+00  0.0000E+00  0.0000E+00  0.0000E+00  0.0000E+00
     -7.198  0.0000E+00  0.0000E+00  0.0000E+00  0.0000E+00  0.0000E+00  0.0000E+00  0.0000E+00  0.0000E+00  0.0000E+00
     -7.083  0.8968E-14  0.9660E-20  0.9660E-20  0.9660E-20  0.0000E+00  0.0000E+00  0.0000E+00  0.0000E+00  0.0000E+00
     -6.967  0.6834E-09  0.2016E-14  0.3402E-14  0.1664E-14  0.0000E+00  0.0000E+00  0.0000E+00  0.0000E+00  0.0000E+00
     -6.852  0.3926E-05  0.3779E-10  0.7092E-10  0.2771E-10  0.0000E+00  0.0000E+00  0.0000E+00  0.0000E+00  0.0000E+00
     -6.737  0.1819E-02  0.5718E-07  0.1174E-06  0.3532E-07  0.0000E+00  0.0000E+00  0.0000E+00  0.0000E+00  0.0000E+00
     -6.621  0.7913E-01  0.7554E-05  0.1645E-04  0.3730E-05  0.0000E+00  0.0000E+00  0.0000E+00  0.0000E+00  0.0000E+00
     -6.506  0.4259E+00  0.1038E-03  0.2268E-03  0.4243E-04  0.0000E+00  0.0000E+00  0.0000E+00  0.0000E+00  0.0000E+00
     -6.391  0.4146E+00  0.2714E-03  0.5623E-03  0.1402E-03  0.0000E+00  0.0000E+00  0.0000E+00  0.0000E+00  0.0000E+00
     -6.275  0.2680E+00  0.5106E-03  0.1232E-02  0.2029E-03  0.0000E+00  0.0000E+00  0.0000E+00  0.0000E+00  0.0000E+00
     -6.160  0.1941E+00  0.6101E-03  0.1131E-02  0.2336E-03  0.0000E+00  0.0000E+00  0.0000E+00  0.0000E+00  0.0000E+00
     -6.045  0.1316E+00  0.5103E-03  0.1014E-02  0.4131E-03  0.0000E+00  0.0000E+00  0.0000E+00  0.0000E+00  0.0000E+00
     -5.929  0.1679E+00  0.6886E-03  0.2389E-02  0.1347E-03  0.0000E+00  0.0000E+00  0.0000E+00  0.0000E+00  0.0000E+00
     -5.814  0.1742E+00  0.1263E-02  0.1994E-02  0.4254E-03  0.0000E+00  0.0000E+00  0.0000E+00  0.0000E+00  0.0000E+00
     -5.699  0.9879E-01  0.7741E-03  0.8641E-03  0.6273E-03  0.0000E+00  0.0000E+00  0.0000E+00  0.0000E+00  0.0000E+00
     -5.583  0.5491E-01  0.1459E-03  0.1374E-02  0.1119E-03  0.0000E+00  0.0000E+00  0.0000E+00  0.0000E+00  0.0000E+00
     -5.468  0.1490E+00  0.8620E-03  0.3725E-02  0.2023E-03  0.0000E+00  0.0000E+00  0.0000E+00  0.0000E+00  0.0000E+00
     -5.353  0.2027E+00  0.2407E-02  0.3187E-02  0.9236E-03  0.0000E+00  0.0000E+00  0.0000E+00  0.0000E+00  0.0000E+00
     -5.237  0.7161E-01  0.8847E-03  0.9082E-03  0.4951E-03  0.0000E+00  0.0000E+00  0.0000E+00  0.0000E+00  0.0000E+00
     -5.122  0.8505E-02  0.4311E-04  0.2591E-03  0.3253E-04  0.0000E+00  0.0000E+00  0.0000E+00  0.0000E+00  0.0000E+00
     -5.007  0.7716E-01  0.2182E-03  0.2895E-02  0.1953E-03  0.0000E+00  0.0000E+00  0.0000E+00  0.0000E+00  0.0000E+00
     -4.891  0.2021E+00  0.1703E-02  0.5394E-02  0.1042E-02  0.0000E+00  0.0000E+00  0.0000E+00  0.0000E+00  0.0000E+00
     -4.776  0.1633E+00  0.2644E-02  0.3230E-02  0.6445E-03  0.0000E+00  0.0000E+00  0.0000E+00  0.0000E+00  0.0000E+00
     -4.661  0.3775E-01  0.7514E-03  0.7606E-03  0.4457E-04  0.0000E+00  0.0000E+00  0.0000E+00  0.0000E+00  0.0000E+00
     -4.545  0.9238E-02  0.1003E-03  0.1237E-03  0.7395E-04  0.0000E+00  0.0000E+00  0.0000E+00  0.0000E+00  0.0000E+00
     -4.430  0.9438E-01  0.7269E-03  0.1797E-02  0.7265E-03  0.0000E+00  0.0000E+00  0.0000E+00  0.0000E+00  0.0000E+00
     -4.315  0.1790E+00  0.8753E-03  0.5809E-02  0.8077E-03  0.0000E+00  0.0000E+00  0.0000E+00  0.0000E+00  0.0000E+00
     -4.199  0.1143E+00  0.1234E-02  0.3881E-02  0.1041E-03  0.0000E+00  0.0000E+00  0.0000E+00  0.0000E+00  0.0000E+00
     -4.084  0.1205E+00  0.2143E-02  0.2298E-02  0.8358E-04  0.0000E+00  0.0000E+00  0.0000E+00  0.0000E+00  0.0000E+00
     -3.969  0.1270E+00  0.8591E-03  0.8600E-03  0.4225E-03  0.0000E+00  0.0000E+00  0.0000E+00  0.0000E+00  0.0000E+00
     -3.853  0.1152E+00  0.2609E-03  0.2814E-03  0.2516E-03  0.0000E+00  0.0000E+00  0.0000E+00  0.0000E+00  0.0000E+00
     -3.738  0.1397E+00  0.1791E-04  0.1011E-02  0.1643E-04  0.0000E+00  0.0000E+00  0.0000E+00  0.0000E+00  0.0000E+00
     -3.623  0.1391E+00  0.1414E-03  0.4969E-02  0.9846E-07  0.0000E+00  0.0000E+00  0.0000E+00  0.0000E+00  0.0000E+00
     -3.507  0.1428E+00  0.1302E-02  0.4030E-02  0.4766E-10  0.0000E+00  0.0000E+00  0.0000E+00  0.0000E+00  0.0000E+00
     -3.392  0.9238E-01  0.1358E-02  0.1526E-02  0.1802E-14  0.0000E+00  0.0000E+00  0.0000E+00  0.0000E+00  0.0000E+00
     -3.277  0.1058E-01  0.1610E-03  0.1624E-03  0.6207E-17  0.0000E+00  0.0000E+00  0.0000E+00  0.0000E+00  0.0000E+00
     -3.161  0.4652E-02  0.8449E-05  0.8826E-04  0.1840E-13  0.0000E+00  0.0000E+00  0.0000E+00  0.0000E+00  0.0000E+00
     -3.046  0.9713E-01  0.2218E-03  0.1629E-02  0.2151E-09  0.0000E+00  0.0000E+00  0.0000E+00  0.0000E+00  0.0000E+00
     -2.931  0.2437E+00  0.7697E-03  0.3464E-02  0.1978E-06  0.0000E+00  0.0000E+00  0.0000E+00  0.0000E+00  0.0000E+00
     -2.815  0.1892E+00  0.3412E-03  0.9260E-03  0.1576E-04  0.0000E+00  0.0000E+00  0.0000E+00  0.0000E+00  0.0000E+00
     -2.700  0.1091E+01  0.2388E-03  0.1232E-03  0.1292E-03  0.0000E+00  0.0000E+00  0.0000E+00  0.0000E+00  0.0000E+00
     -2.585  0.1335E+01  0.2103E-03  0.7919E-04  0.1311E-03  0.0000E+00  0.0000E+00  0.0000E+00  0.0000E+00  0.0000E+00
     -2.469  0.2139E+00  0.2432E-04  0.7297E-05  0.1702E-04  0.0000E+00  0.0000E+00  0.0000E+00  0.0000E+00  0.0000E+00
     -2.354  0.3888E-02  0.3126E-06  0.6337E-07  0.2492E-06  0.0000E+00  0.0000E+00  0.0000E+00  0.0000E+00  0.0000E+00
     -2.239  0.6745E-05  0.4011E-09  0.4509E-10  0.3560E-09  0.0000E+00  0.0000E+00  0.0000E+00  0.0000E+00  0.0000E+00
     -2.123  0.9867E-09  0.4663E-13  0.2451E-14  0.4418E-13  0.0000E+00  0.0000E+00  0.0000E+00  0.0000E+00  0.0000E+00
     -2.008  0.1126E-13  0.4324E-18  0.3180E-31  0.4324E-18  0.0000E+00  0.0000E+00  0.0000E+00  0.0000E+00  0.0000E+00
     -1.893  0.0000E+00  0.0000E+00  0.0000E+00  0.0000E+00  0.0000E+00  0.0000E+00  0.0000E+00  0.0000E+00  0.0000E+00
     -1.777  0.0000E+00  0.0000E+00  0.0000E+00  0.0000E+00  0.0000E+00  0.0000E+00  0.0000E+00  0.0000E+00  0.0000E+00
     -1.662  0.0000E+00  0.0000E+00  0.0000E+00  0.0000E+00  0.0000E+00  0.0000E+00  0.0000E+00  0.0000E+00  0.0000E+00
     -1.547  0.0000E+00  0.0000E+00  0.0000E+00  0.0000E+00  0.0000E+00  0.0000E+00  0.0000E+00  0.0000E+00  0.0000E+00
     -1.431  0.0000E+00  0.0000E+00  0.0000E+00  0.0000E+00  0.0000E+00  0.0000E+00  0.0000E+00  0.0000E+00  0.0000E+00
     -1.316  0.0000E+00  0.0000E+00  0.0000E+00  0.0000E+00  0.0000E+00  0.0000E+00  0.0000E+00  0.0000E+00  0.0000E+00
     -1.201  0.0000E+00  0.0000E+00  0.0000E+00  0.0000E+00  0.0000E+00  0.0000E+00  0.0000E+00  0.0000E+00  0.0000E+00
     -1.085  0.0000E+00  0.0000E+00  0.0000E+00  0.0000E+00  0.0000E+00  0.0000E+00  0.0000E+00  0.0000E+00  0.0000E+00
     -0.970  0.1961E-33  0.2660E-13  0.2660E-13  0.2660E-13  0.0000E+00  0.0000E+00  0.0000E+00  0.0000E+00  0.0000E+00
     -0.855  0.6664E-29  0.9040E-09  0.9040E-09  0.9040E-09  0.0000E+00  0.0000E+00  0.0000E+00  0.0000E+00  0.0000E+00
     -0.739  0.7271E-16  0.2322E-05  0.2322E-05  0.2322E-05  0.0000E+00  0.0000E+00  0.0000E+00  0.0000E+00  0.0000E+00
     -0.624  0.6714E-11  0.4784E-03  0.4784E-03  0.4784E-03  0.0000E+00  0.0000E+00  0.0000E+00  0.0000E+00  0.0000E+00
     -0.509  0.4624E-07  0.8916E-02  0.8916E-02  0.8916E-02  0.0000E+00  0.0000E+00  0.0000E+00  0.0000E+00  0.0000E+00
     -0.393  0.2484E-04  0.1806E-01  0.1806E-01  0.1806E-01  0.0000E+00  0.0000E+00  0.0000E+00  0.0000E+00  0.0000E+00
     -0.278  0.1142E-02  0.7984E-02  0.7984E-02  0.7984E-02  0.0000E+00  0.0000E+00  0.0000E+00  0.0000E+00  0.0000E+00
     -0.163  0.5297E-02  0.1755E-01  0.1755E-01  0.1755E-01  0.0000E+00  0.0000E+00  0.0000E+00  0.0000E+00  0.0000E+00
     -0.047  0.2859E-02  0.9416E-02  0.9427E-02  0.9416E-02  0.0000E+00  0.0000E+00  0.0000E+00  0.0000E+00  0.0000E+00
      0.068  0.1680E-03  0.5534E-03  0.3719E-02  0.5534E-03  0.0000E+00  0.0000E+00  0.0000E+00  0.0000E+00  0.0000E+00
      0.183  0.9973E-06  0.3091E-05  0.8810E-01  0.3091E-05  0.0000E+00  0.0000E+00  0.0000E+00  0.0000E+00  0.0000E+00
      0.299  0.5583E-04  0.7346E-04  0.3104E+00  0.7346E-04  0.0000E+00  0.0000E+00  0.0000E+00  0.0000E+00  0.0000E+00
      0.414  0.2769E-02  0.3561E-02  0.2496E+00  0.3561E-02  0.0000E+00  0.0000E+00  0.0000E+00  0.0000E+00  0.0000E+00
      0.529  0.1597E-01  0.1736E-01  0.1800E+00  0.1736E-01  0.0000E+00  0.0000E+00  0.0000E+00  0.0000E+00  0.0000E+00
      0.645  0.1915E-01  0.9828E-02  0.1861E+00  0.9856E-02  0.0000E+00  0.0000E+00  0.0000E+00  0.0000E+00  0.0000E+00
      0.760  0.6127E-02  0.6082E-03  0.1309E+00  0.4134E-02  0.0000E+00  0.0000E+00  0.0000E+00  0.0000E+00  0.0000E+00
      0.875  0.2990E-03  0.3510E-05  0.9181E-01  0.4156E-01  0.0000E+00  0.0000E+00  0.0000E+00  0.0000E+00  0.0000E+00
      0.991  0.1664E-04  0.5708E-04  0.5919E-01  0.5465E-01  0.0000E+00  0.0000E+00  0.0000E+00  0.0000E+00  0.0000E+00
      1.106  0.1159E-02  0.4028E-02  0.1233E-01  0.8267E-02  0.0000E+00  0.0000E+00  0.0000E+00  0.0000E+00  0.0000E+00
      1.221  0.1212E-01  0.3306E-01  0.3326E-01  0.9580E-03  0.0000E+00  0.0000E+00  0.0000E+00  0.0000E+00  0.0000E+00
      1.337  0.2964E-01  0.4975E-01  0.5625E-01  0.2498E-01  0.0000E+00  0.0000E+00  0.0000E+00  0.0000E+00  0.0000E+00
      1.452  0.4701E-01  0.3067E-01  0.8006E-01  0.8224E-01  0.0000E+00  0.0000E+00  0.0000E+00  0.0000E+00  0.0000E+00
      1.567  0.3133E-01  0.2711E-01  0.6293E-01  0.4134E-01  0.0000E+00  0.0000E+00  0.0000E+00  0.0000E+00  0.0000E+00
      1.683  0.8405E-02  0.6469E-01  0.3929E-01  0.3131E-01  0.0000E+00  0.0000E+00  0.0000E+00  0.0000E+00  0.0000E+00
      1.798  0.2534E-01  0.5854E-01  0.4024E-01  0.1840E-01  0.0000E+00  0.0000E+00  0.0000E+00  0.0000E+00  0.0000E+00
      1.913  0.1642E-01  0.4637E-01  0.1814E-01  0.3331E-01  0.0000E+00  0.0000E+00  0.0000E+00  0.0000E+00  0.0000E+00
      2.029  0.1248E-02  0.2119E-01  0.1278E-02  0.6884E-01  0.0000E+00  0.0000E+00  0.0000E+00  0.0000E+00  0.0000E+00
      2.144  0.2113E-04  0.1534E-01  0.9886E-05  0.6850E-01  0.0000E+00  0.0000E+00  0.0000E+00  0.0000E+00  0.0000E+00
      2.259  0.3046E-03  0.3150E-01  0.5250E-03  0.3808E-01  0.0000E+00  0.0000E+00  0.0000E+00  0.0000E+00  0.0000E+00
      2.375  0.1146E-01  0.1173E-01  0.1986E-01  0.1125E-01  0.0000E+00  0.0000E+00  0.0000E+00  0.0000E+00  0.0000E+00
      2.490  0.6120E-01  0.4743E-01  0.9235E-01  0.3462E-01  0.0000E+00  0.0000E+00  0.0000E+00  0.0000E+00  0.0000E+00
      2.605  0.6147E-01  0.7951E-01  0.7624E-01  0.4840E-01  0.0000E+00  0.0000E+00  0.0000E+00  0.0000E+00  0.0000E+00
      2.721  0.1154E-01  0.1832E-01  0.1263E-01  0.2667E-01  0.0000E+00  0.0000E+00  0.0000E+00  0.0000E+00  0.0000E+00
      2.836  0.5701E-03  0.2024E-01  0.3055E-03  0.8858E-01  0.0000E+00  0.0000E+00  0.0000E+00  0.0000E+00  0.0000E+00
      2.951  0.4577E-03  0.3214E-01  0.7369E-06  0.6364E-01  0.0000E+00  0.0000E+00  0.0000E+00  0.0000E+00  0.0000E+00
      3.067  0.1056E-03  0.7115E-02  0.8072E-09  0.8670E-02  0.0000E+00  0.0000E+00  0.0000E+00  0.0000E+00  0.0000E+00
      3.182  0.3468E-03  0.1886E-01  0.2893E-05  0.1886E-01  0.0000E+00  0.0000E+00  0.0000E+00  0.0000E+00  0.0000E+00
      3.297  0.1223E-02  0.3553E-01  0.1017E-02  0.3534E-01  0.0000E+00  0.0000E+00  0.0000E+00  0.0000E+00  0.0000E+00
      3.413  0.1885E-01  0.1733E-01  0.3202E-01  0.9167E-02  0.0000E+00  0.0000E+00  0.0000E+00  0.0000E+00  0.0000E+00
      3.528  0.6668E-01  0.5862E-01  0.1092E+00  0.2821E-01  0.0000E+00  0.0000E+00  0.0000E+00  0.0000E+00  0.0000E+00
      3.643  0.4288E-01  0.7331E-01  0.6173E-01  0.1061E+00  0.0000E+00  0.0000E+00  0.0000E+00  0.0000E+00  0.0000E+00
      3.759  0.1634E-01  0.3239E-01  0.2007E-01  0.9570E-01  0.0000E+00  0.0000E+00  0.0000E+00  0.0000E+00  0.0000E+00
      3.874  0.2053E-02  0.3969E-01  0.1989E-02  0.4917E-01  0.0000E+00  0.0000E+00  0.0000E+00  0.0000E+00  0.0000E+00
      3.989  0.3597E-03  0.4191E-01  0.2058E-04  0.4204E-01  0.0000E+00  0.0000E+00  0.0000E+00  0.0000E+00  0.0000E+00
      4.105  0.1806E-03  0.1730E+00  0.3314E-07  0.1730E+00  0.0000E+00  0.0000E+00  0.0000E+00  0.0000E+00  0.0000E+00
      4.220  0.9512E-04  0.4537E+00  0.2700E-04  0.4537E+00  0.0000E+00  0.0000E+00  0.0000E+00  0.0000E+00  0.0000E+00
      4.335  0.1644E-02  0.3348E+00  0.3854E-02  0.3347E+00  0.0000E+00  0.0000E+00  0.0000E+00  0.0000E+00  0.0000E+00
      4.451  0.2328E-01  0.2284E+00  0.5375E-01  0.2286E+00  0.0000E+00  0.0000E+00  0.0000E+00  0.0000E+00  0.0000E+00
      4.566  0.4901E-01  0.1795E+00  0.1097E+00  0.1937E+00  0.0000E+00  0.0000E+00  0.0000E+00  0.0000E+00  0.0000E+00
      4.681  0.2449E-01  0.2490E+00  0.8531E-01  0.2520E+00  0.0000E+00  0.0000E+00  0.0000E+00  0.0000E+00  0.0000E+00
      4.797  0.1422E-01  0.1507E+00  0.5931E-01  0.1243E+00  0.0000E+00  0.0000E+00  0.0000E+00  0.0000E+00  0.0000E+00
      4.912  0.1373E-01  0.4395E-01  0.2831E-01  0.3885E-01  0.0000E+00  0.0000E+00  0.0000E+00  0.0000E+00  0.0000E+00
      5.027  0.1778E-02  0.1066E+00  0.3018E-01  0.7941E-01  0.0000E+00  0.0000E+00  0.0000E+00  0.0000E+00  0.0000E+00
      5.143  0.2703E-04  0.1227E+00  0.4744E-01  0.7534E-01  0.0000E+00  0.0000E+00  0.0000E+00  0.0000E+00  0.0000E+00
      5.258  0.8687E-03  0.1815E-01  0.1253E-01  0.8554E-02  0.0000E+00  0.0000E+00  0.0000E+00  0.0000E+00  0.0000E+00
      5.373  0.1452E-01  0.1277E-01  0.5138E-01  0.1345E-01  0.0000E+00  0.0000E+00  0.0000E+00  0.0000E+00  0.0000E+00
      5.489  0.2654E-01  0.1146E+00  0.1217E+00  0.1340E+00  0.0000E+00  0.0000E+00  0.0000E+00  0.0000E+00  0.0000E+00
      5.604  0.9191E-02  0.1343E+00  0.7703E-01  0.1647E+00  0.0000E+00  0.0000E+00  0.0000E+00  0.0000E+00  0.0000E+00
      5.719  0.1564E-01  0.6384E-01  0.5621E-01  0.2576E-01  0.0000E+00  0.0000E+00  0.0000E+00  0.0000E+00  0.0000E+00
      5.835  0.1137E-01  0.3838E-01  0.3641E-01  0.1312E-01  0.0000E+00  0.0000E+00  0.0000E+00  0.0000E+00  0.0000E+00
      5.950  0.1186E-01  0.1078E+00  0.6404E-01  0.7805E-01  0.0000E+00  0.0000E+00  0.0000E+00  0.0000E+00  0.0000E+00
      6.065  0.4460E-02  0.2016E+00  0.9529E-01  0.1477E+00  0.0000E+00  0.0000E+00  0.0000E+00  0.0000E+00  0.0000E+00
      6.181  0.6861E-02  0.2240E+00  0.2341E+00  0.2147E+00  0.0000E+00  0.0000E+00  0.0000E+00  0.0000E+00  0.0000E+00
      6.296  0.1746E-01  0.2262E+00  0.3325E+00  0.2737E+00  0.0000E+00  0.0000E+00  0.0000E+00  0.0000E+00  0.0000E+00
      6.411  0.5325E-02  0.1942E+00  0.2122E+00  0.2624E+00  0.0000E+00  0.0000E+00  0.0000E+00  0.0000E+00  0.0000E+00
      6.527  0.4966E-03  0.2643E+00  0.1654E+00  0.2361E+00  0.0000E+00  0.0000E+00  0.0000E+00  0.0000E+00  0.0000E+00
      6.642  0.4356E-02  0.2334E+00  0.1558E+00  0.1840E+00  0.0000E+00  0.0000E+00  0.0000E+00  0.0000E+00  0.0000E+00
      6.757  0.9556E-02  0.2311E+00  0.2414E+00  0.1401E+00  0.0000E+00  0.0000E+00  0.0000E+00  0.0000E+00  0.0000E+00
      6.873  0.9067E-02  0.2470E+00  0.3119E+00  0.2500E+00  0.0000E+00  0.0000E+00  0.0000E+00  0.0000E+00  0.0000E+00
      6.988  0.3874E-02  0.3835E+00  0.3325E+00  0.4102E+00  0.0000E+00  0.0000E+00  0.0000E+00  0.0000E+00  0.0000E+00
      7.103  0.2707E-03  0.6449E+00  0.6098E+00  0.5035E+00  0.0000E+00  0.0000E+00  0.0000E+00  0.0000E+00  0.0000E+00
      7.219  0.2128E-03  0.3863E+00  0.3849E+00  0.3091E+00  0.0000E+00  0.0000E+00  0.0000E+00  0.0000E+00  0.0000E+00
      7.334  0.9675E-02  0.3265E-01  0.3260E-01  0.2725E-01  0.0000E+00  0.0000E+00  0.0000E+00  0.0000E+00  0.0000E+00
      7.449  0.5378E-01  0.8518E-03  0.2771E-03  0.8134E-03  0.0000E+00  0.0000E+00  0.0000E+00  0.0000E+00  0.0000E+00
      7.564  0.6748E-01  0.1770E-02  0.1425E-04  0.1770E-02  0.0000E+00  0.0000E+00  0.0000E+00  0.0000E+00  0.0000E+00
      7.680  0.4441E-01  0.2285E-02  0.8500E-05  0.2285E-02  0.0000E+00  0.0000E+00  0.0000E+00  0.0000E+00  0.0000E+00
      7.795  0.2950E-01  0.2054E-02  0.8425E-05  0.2054E-02  0.0000E+00  0.0000E+00  0.0000E+00  0.0000E+00  0.0000E+00
      7.910  0.3288E-01  0.2229E-02  0.8594E-04  0.2229E-02  0.0000E+00  0.0000E+00  0.0000E+00  0.0000E+00  0.0000E+00
      8.026  0.3132E-01  0.2566E-02  0.1055E-03  0.2565E-02  0.0000E+00  0.0000E+00  0.0000E+00  0.0000E+00  0.0000E+00
      8.141  0.1917E-01  0.4452E-02  0.6234E-04  0.4405E-02  0.0000E+00  0.0000E+00  0.0000E+00  0.0000E+00  0.0000E+00
      8.256  0.2043E-01  0.3380E-02  0.6059E-03  0.2774E-02  0.0000E+00  0.0000E+00  0.0000E+00  0.0000E+00  0.0000E+00
      8.372  0.1876E-01  0.3084E-02  0.8580E-03  0.2228E-02  0.0000E+00  0.0000E+00  0.0000E+00  0.0000E+00  0.0000E+00
      8.487  0.7887E-02  0.6526E-02  0.2323E-03  0.6386E-02  0.0000E+00  0.0000E+00  0.0000E+00  0.0000E+00  0.0000E+00
      8.602  0.1324E-01  0.3670E-02  0.4413E-03  0.3663E-02  0.0000E+00  0.0000E+00  0.0000E+00  0.0000E+00  0.0000E+00
      8.718  0.8140E-02  0.5042E-03  0.4687E-03  0.2721E-03  0.0000E+00  0.0000E+00  0.0000E+00  0.0000E+00  0.0000E+00
      8.833  0.9529E-02  0.3034E-02  0.1203E-02  0.1845E-02  0.0000E+00  0.0000E+00  0.0000E+00  0.0000E+00  0.0000E+00
      8.948  0.8029E-02  0.9912E-02  0.7071E-03  0.9205E-02  0.0000E+00  0.0000E+00  0.0000E+00  0.0000E+00  0.0000E+00
      9.064  0.2034E-02  0.5383E-02  0.4611E-04  0.5337E-02  0.0000E+00  0.0000E+00  0.0000E+00  0.0000E+00  0.0000E+00
      9.179  0.1107E-03  0.3407E-03  0.3221E-06  0.3403E-03  0.0000E+00  0.0000E+00  0.0000E+00  0.0000E+00  0.0000E+00
      9.294  0.1932E-03  0.3418E-03  0.1953E-04  0.3279E-03  0.0000E+00  0.0000E+00  0.0000E+00  0.0000E+00  0.0000E+00
      9.410  0.5843E-02  0.6532E-02  0.7294E-03  0.6062E-02  0.0000E+00  0.0000E+00  0.0000E+00  0.0000E+00  0.0000E+00
      9.525  0.2054E-01  0.1384E-01  0.2851E-02  0.1220E-01  0.0000E+00  0.0000E+00  0.0000E+00  0.0000E+00  0.0000E+00
      9.640  0.9099E-02  0.3532E-02  0.1326E-02  0.2861E-02  0.0000E+00  0.0000E+00  0.0000E+00  0.0000E+00  0.0000E+00
      9.756  0.4600E-03  0.1015E-03  0.6790E-04  0.7236E-04  0.0000E+00  0.0000E+00  0.0000E+00  0.0000E+00  0.0000E+00
      9.871  0.1166E-03  0.6238E-03  0.3227E-06  0.6237E-03  0.0000E+00  0.0000E+00  0.0000E+00  0.0000E+00  0.0000E+00