 vasp.5.4.4.18Apr17-6-g9f103f2a35 (build Mar 30 2023 15:39:25) complex          
  
 executed on             LinuxIFC date 2023.04.30  07:12:19
 running on   12 total cores
 distrk:  each k-point on   12 cores,    1 groups
 distr:  one band on NCORES_PER_BAND=   1 cores,   12 groups


--------------------------------------------------------------------------------------------------------


 INCAR:
 POTCAR:    PAW_PBE Si 05Jan2001                  

 ----------------------------------------------------------------------------- 
|                                                                             |
|           W    W    AA    RRRRR   N    N  II  N    N   GGGG   !!!           |
|           W    W   A  A   R    R  NN   N  II  NN   N  G    G  !!!           |
|           W    W  A    A  R    R  N N  N  II  N N  N  G       !!!           |
|           W WW W  AAAAAA  RRRRR   N  N N  II  N  N N  G  GGG   !            |
|           WW  WW  A    A  R   R   N   NN  II  N   NN  G    G                |
|           W    W  A    A  R    R  N    N  II  N    N   GGGG   !!!           |
|                                                                             |
|      For optimal performance we recommend to set                            |
|        NCORE= 4 - approx SQRT( number of cores)                             |
|      NCORE specifies how many cores store one orbital (NPAR=cpu/NCORE).     |
|      This setting can  greatly improve the performance of VASP for DFT.     |
|      The default,   NCORE=1            might be grossly inefficient         |
|      on modern multi-core architectures or massively parallel machines.     |
|      Do your own testing !!!!                                               |
|      Unfortunately you need to use the default for GW and RPA calculations. |
|      (for HF NCORE is supported but not extensively tested yet)             |
|                                                                             |
 ----------------------------------------------------------------------------- 

 POTCAR:    PAW_PBE Si 05Jan2001                  
   SHA256 =  79d9987ad8750f624c4d6acb2a16d13abf6a777132adc04dc6c8399be72b42bb Si
   COPYR  = (c) Copyright 05Jan2001 Georg Kresse                                
   COPYR  = This file is part of the software VASP. Any use, copying, and all ot
   COPYR  = If you do not have a valid VASP license, you may not use, copy or di
   VRHFIN =Si: s2p2                                                             
   LEXCH  = PE                                                                  
   EATOM  =   103.0669 eV,    7.5752 Ry                                         
                                                                                
   TITEL  = PAW_PBE Si 05Jan2001                                                
   LULTRA =        F    use ultrasoft PP ?                                      
   IUNSCR =        1    unscreen: 0-lin 1-nonlin 2-no                           
   RPACOR =    1.500    partial core radius                                     
   POMASS =   28.085; ZVAL   =    4.000    mass and valenz                      
   RCORE  =    1.900    outmost cutoff radius                                   
   RWIGS  =    2.480; RWIGS  =    1.312    wigner-seitz radius (au A)           
   ENMAX  =  245.345; ENMIN  =  184.009 eV                                      
   ICORE  =        2    local potential                                         
   LCOR   =        T    correct aug charges                                     
   LPAW   =        T    paw PP                                                  
   EAUG   =  322.069                                                            
   DEXC   =    0.000                                                            
   RMAX   =    1.950    core radius for proj-oper                               
   RAUG   =    1.300    factor for augmentation sphere                          
   RDEP   =    1.993    radius for radial grids                                 
   RDEPT  =    1.837    core radius for aug-charge                              
                                                                                
   Atomic configuration                                                         
    6 entries                                                                   
     n  l   j            E        occ.                                          
     1  0  0.50     -1785.8828   2.0000                                         
     2  0  0.50      -139.4969   2.0000                                         
     2  1  1.50       -95.5546   6.0000                                         
     3  0  0.50       -10.8127   2.0000                                         
     3  1  0.50        -4.0811   2.0000                                         
     3  2  1.50        -4.0817   0.0000                                         
   Description                                                                  
     l       E           TYP  RCUT    TYP  RCUT                                 
     0    -10.8127223     23  1.900                                             
     0     -7.6451159     23  1.900                                             
     1     -4.0811372     23  1.900                                             
     1      2.4879257     23  1.900                                             
     2     -4.0817478      7  1.900                                             
  local pseudopotential read in
  partial core-charges read in
  partial kinetic energy density read in
  atomic valenz-charges read in
  non local Contribution for L=           0  read in
    real space projection operators read in
  non local Contribution for L=           0  read in
    real space projection operators read in
  non local Contribution for L=           1  read in
    real space projection operators read in
  non local Contribution for L=           1  read in
    real space projection operators read in
    PAW grid and wavefunctions read in
 
   number of l-projection  operators is LMAX  =           4
   number of lm-projection operators is LMMAX =           8
 
  PAW_PBE Si 05Jan2001                  :
 energy of atom  1       EATOM= -103.0669
 kinetic energy error for atom=    0.0061 (will be added to EATOM!!)
 
 
 POSCAR: fcc Si:                                 
  positions in direct lattice
  No initial velocities read in
 exchange correlation table for  LEXCH =        8
   RHO(1)=    0.500       N(1)  =     2000
   RHO(2)=  100.500       N(2)  =     4000
 


--------------------------------------------------------------------------------------------------------


 ion  position               nearest neighbor table
   1  0.000  0.000  0.000-
 
  LATTYP: Found a face centered cubic cell.
 ALAT       =     5.0000000000
  
  Lattice vectors:
  
 A1 = (   2.5000000000,   2.5000000000,   0.0000000000)
 A2 = (   0.0000000000,   2.5000000000,   2.5000000000)
 A3 = (   2.5000000000,   0.0000000000,   2.5000000000)


Analysis of symmetry for initial positions (statically):
=====================================================================
 Subroutine PRICEL returns:
 Original cell was already a primitive cell.
 

 Routine SETGRP: Setting up the symmetry group for a 
 face centered cubic supercell.


 Subroutine GETGRP returns: Found 48 space group operations
 (whereof 48 operations were pure point group operations)
 out of a pool of 48 trial point group operations.


The static configuration has the point symmetry O_h .


Analysis of symmetry for dynamics (positions and initial velocities):
=====================================================================
 Subroutine PRICEL returns:
 Original cell was already a primitive cell.
 

 Routine SETGRP: Setting up the symmetry group for a 
 face centered cubic supercell.


 Subroutine GETGRP returns: Found 48 space group operations
 (whereof 48 operations were pure point group operations)
 out of a pool of 48 trial point group operations.


The dynamic configuration has the point symmetry O_h .


 Subroutine INISYM returns: Found 48 space group operations
 (whereof 48 operations are pure point group operations),
 and found     1 'primitive' translations

 
 
 KPOINTS: k-points for bandstructure L-G-X-U K-G  
  interpolating k-points between supplied coordinates
  k-points in reciprocal lattice
Space group operators:
 irot       det(A)        alpha          n_x          n_y          n_z        tau_x        tau_y        tau_z
    1     1.000000     0.000000     1.000000     0.000000     0.000000     0.000000     0.000000     0.000000
    2    -1.000000     0.000000     1.000000     0.000000     0.000000     0.000000     0.000000     0.000000
    3     1.000000   120.000000    -0.577350    -0.577350    -0.577350     0.000000     0.000000     0.000000
    4    -1.000000   120.000000    -0.577350    -0.577350    -0.577350     0.000000     0.000000     0.000000
    5     1.000000   120.000000     0.577350     0.577350     0.577350     0.000000     0.000000     0.000000
    6    -1.000000   120.000000     0.577350     0.577350     0.577350     0.000000     0.000000     0.000000
    7     1.000000    90.000000     0.000000    -1.000000     0.000000     0.000000     0.000000     0.000000
    8    -1.000000    90.000000     0.000000    -1.000000     0.000000     0.000000     0.000000     0.000000
    9     1.000000   180.000000     0.707107     0.707107     0.000000     0.000000     0.000000     0.000000
   10    -1.000000   180.000000     0.707107     0.707107     0.000000     0.000000     0.000000     0.000000
   11     1.000000    90.000000     1.000000     0.000000     0.000000     0.000000     0.000000     0.000000
   12    -1.000000    90.000000     1.000000     0.000000     0.000000     0.000000     0.000000     0.000000
   13     1.000000   180.000000     0.000000     1.000000     0.000000     0.000000     0.000000     0.000000
   14    -1.000000   180.000000     0.000000     1.000000     0.000000     0.000000     0.000000     0.000000
   15     1.000000   120.000000     0.577350     0.577350    -0.577350     0.000000     0.000000     0.000000
   16    -1.000000   120.000000     0.577350     0.577350    -0.577350     0.000000     0.000000     0.000000
   17     1.000000   120.000000     0.577350    -0.577350    -0.577350     0.000000     0.000000     0.000000
   18    -1.000000   120.000000     0.577350    -0.577350    -0.577350     0.000000     0.000000     0.000000
   19     1.000000    90.000000     0.000000     1.000000     0.000000     0.000000     0.000000     0.000000
   20    -1.000000    90.000000     0.000000     1.000000     0.000000     0.000000     0.000000     0.000000
   21     1.000000    90.000000     0.000000     0.000000    -1.000000     0.000000     0.000000     0.000000
   22    -1.000000    90.000000     0.000000     0.000000    -1.000000     0.000000     0.000000     0.000000
   23     1.000000   180.000000     0.000000     0.707107     0.707107     0.000000     0.000000     0.000000
   24    -1.000000   180.000000     0.000000     0.707107     0.707107     0.000000     0.000000     0.000000
   25     1.000000   120.000000    -0.577350     0.577350     0.577350     0.000000     0.000000     0.000000
   26    -1.000000   120.000000    -0.577350     0.577350     0.577350     0.000000     0.000000     0.000000
   27     1.000000   120.000000    -0.577350     0.577350    -0.577350     0.000000     0.000000     0.000000
   28    -1.000000   120.000000    -0.577350     0.577350    -0.577350     0.000000     0.000000     0.000000
   29     1.000000   180.000000     0.000000     0.000000     1.000000     0.000000     0.000000     0.000000
   30    -1.000000   180.000000     0.000000     0.000000     1.000000     0.000000     0.000000     0.000000
   31     1.000000    90.000000    -1.000000     0.000000     0.000000     0.000000     0.000000     0.000000
   32    -1.000000    90.000000    -1.000000     0.000000     0.000000     0.000000     0.000000     0.000000
   33     1.000000   180.000000     0.707107     0.000000     0.707107     0.000000     0.000000     0.000000
   34    -1.000000   180.000000     0.707107     0.000000     0.707107     0.000000     0.000000     0.000000
   35     1.000000    90.000000     0.000000     0.000000     1.000000     0.000000     0.000000     0.000000
   36    -1.000000    90.000000     0.000000     0.000000     1.000000     0.000000     0.000000     0.000000
   37     1.000000   120.000000    -0.577350    -0.577350     0.577350     0.000000     0.000000     0.000000
   38    -1.000000   120.000000    -0.577350    -0.577350     0.577350     0.000000     0.000000     0.000000
   39     1.000000   180.000000     1.000000     0.000000     0.000000     0.000000     0.000000     0.000000
   40    -1.000000   180.000000     1.000000     0.000000     0.000000     0.000000     0.000000     0.000000
   41     1.000000   120.000000     0.577350    -0.577350     0.577350     0.000000     0.000000     0.000000
   42    -1.000000   120.000000     0.577350    -0.577350     0.577350     0.000000     0.000000     0.000000
   43     1.000000   180.000000     0.707107    -0.707107     0.000000     0.000000     0.000000     0.000000
   44    -1.000000   180.000000     0.707107    -0.707107     0.000000     0.000000     0.000000     0.000000
   45     1.000000   180.000000     0.707107     0.000000    -0.707107     0.000000     0.000000     0.000000
   46    -1.000000   180.000000     0.707107     0.000000    -0.707107     0.000000     0.000000     0.000000
   47     1.000000   180.000000     0.000000    -0.707107     0.707107     0.000000     0.000000     0.000000
   48    -1.000000   180.000000     0.000000    -0.707107     0.707107     0.000000     0.000000     0.000000


--------------------------------------------------------------------------------------------------------




 Dimension of arrays:
   k-points           NKPTS =     40   k-points in BZ     NKDIM =     40   number of bands    NBANDS=     12
   number of dos      NEDOS =    301   number of ions     NIONS =      1
   non local maximal  LDIM  =      4   non local SUM 2l+1 LMDIM =      8
   total plane-waves  NPLWV =   5832
   max r-space proj   IRMAX =      1   max aug-charges    IRDMAX=   6439
   dimension x,y,z NGX =    18 NGY =   18 NGZ =   18
   dimension x,y,z NGXF=    36 NGYF=   36 NGZF=   36
   support grid    NGXF=    36 NGYF=   36 NGZF=   36
   ions per type =               1
   NGX,Y,Z   is equivalent  to a cutoff of   8.46,  8.46,  8.46 a.u.
   NGXF,Y,Z  is equivalent  to a cutoff of  16.93, 16.93, 16.93 a.u.

 SYSTEM =  fcc Si bandstructure                    
 POSCAR =  fcc Si:                                 

 Startparameter for this run:
   NWRITE =      2    write-flag & timer
   PREC   = accura    normal or accurate (medium, high low for compatibility)
   ISTART =      0    job   : 0-new  1-cont  2-samecut
   ICHARG =     11    charge: 1-file 2-atom 10-const
   ISPIN  =      1    spin polarized calculation?
   LNONCOLLINEAR =      F non collinear calculations
   LSORBIT =      F    spin-orbit coupling
   INIWAV =      1    electr: 0-lowe 1-rand  2-diag
   LASPH  =      F    aspherical Exc in radial PAW
   METAGGA=      F    non-selfconsistent MetaGGA calc.

 Electronic Relaxation 1
   ENCUT  =  240.0 eV  17.64 Ry    4.20 a.u.   4.47  4.47  4.47*2*pi/ulx,y,z
   ENINI  =  240.0     initial cutoff
   ENAUG  =  322.1 eV  augmentation charge cutoff
   NELM   =     60;   NELMIN=  2; NELMDL= -5     # of ELM steps 
   EDIFF  = 0.1E-05   stopping-criterion for ELM
   LREAL  =      F    real-space projection
   NLSPLINE    = F    spline interpolate recip. space projectors
   LCOMPAT=      F    compatible to vasp.4.4
   GGA_COMPAT  = T    GGA compatible to vasp.4.4-vasp.4.6
   LMAXPAW     = -100 max onsite density
   LMAXMIX     =    2 max onsite mixed and CHGCAR
   VOSKOWN=      0    Vosko Wilk Nusair interpolation
   ROPT   =    0.00000
 Ionic relaxation
   EDIFFG = -.1E-05   stopping-criterion for IOM
   NSW    =      0    number of steps for IOM
   NBLOCK =      1;   KBLOCK =      1    inner block; outer block 
   IBRION =     -1    ionic relax: 0-MD 1-quasi-New 2-CG
   NFREE  =      0    steps in history (QN), initial steepest desc. (CG)
   ISIF   =      2    stress and relaxation
   IWAVPR =     10    prediction:  0-non 1-charg 2-wave 3-comb
   ISYM   =      2    0-nonsym 1-usesym 2-fastsym
   LCORR  =      T    Harris-Foulkes like correction to forces

   POTIM  = 0.5000    time-step for ionic-motion
   TEIN   =    0.0    initial temperature
   TEBEG  =    0.0;   TEEND  =   0.0 temperature during run
   SMASS  =  -3.00    Nose mass-parameter (am)
   estimated Nose-frequenzy (Omega)   =  0.10E-29 period in steps =****** mass=  -0.286E-27a.u.
   SCALEE = 1.0000    scale energy and forces
   NPACO  =    256;   APACO  = 16.0  distance and # of slots for P.C.
   PSTRESS=    0.0 pullay stress

  Mass of Ions in am
   POMASS =  28.09
  Ionic Valenz
   ZVAL   =   4.00
  Atomic Wigner-Seitz radii
   RWIGS  =  -1.00
  virtual crystal weights 
   VCA    =   1.00
   NELECT =       4.0000    total number of electrons
   NUPDOWN=      -1.0000    fix difference up-down

 DOS related values:
   EMIN   =  10.00;   EMAX   =-10.00  energy-range for DOS
   EFERMI =   0.00
   ISMEAR =     0;   SIGMA  =   0.10  broadening in eV -4-tet -1-fermi 0-gaus

 Electronic relaxation 2 (details)
   IALGO  =     38    algorithm
   LDIAG  =      T    sub-space diagonalisation (order eigenvalues)
   LSUBROT=      F    optimize rotation matrix (better conditioning)
   TURBO    =      0    0=normal 1=particle mesh
   IRESTART =      0    0=no restart 2=restart with 2 vectors
   NREBOOT  =      0    no. of reboots
   NMIN     =      0    reboot dimension
   EREF     =   0.00    reference energy to select bands
   IMIX   =      4    mixing-type and parameters
     AMIX     =   0.40;   BMIX     =  1.00
     AMIX_MAG =   1.60;   BMIX_MAG =  1.00
     AMIN     =   0.10
     WC   =   100.;   INIMIX=   1;  MIXPRE=   1;  MAXMIX= -45

 Intra band minimization:
   WEIMIN = 0.0000     energy-eigenvalue tresh-hold
   EBREAK =  0.21E-08  absolut break condition
   DEPER  =   0.30     relativ break condition  

   TIME   =   0.40     timestep for ELM

  volume/ion in A,a.u.               =      31.25       210.89
  Fermi-wavevector in a.u.,A,eV,Ry     =   0.825046  1.559111  9.261498  0.680701
  Thomas-Fermi vector in A             =   1.936837
 
 Write flags
   LWAVE        =      T    write WAVECAR
   LDOWNSAMPLE  =      F    k-point downsampling of WAVECAR
   LCHARG       =      T    write CHGCAR
   LVTOT        =      F    write LOCPOT, total local potential
   LVHAR        =      F    write LOCPOT, Hartree potential only
   LELF         =      F    write electronic localiz. function (ELF)
   LORBIT       =     11    0 simple, 1 ext, 2 COOP (PROOUT), +10 PAW based schemes


 Dipole corrections
   LMONO  =      F    monopole corrections only (constant potential shift)
   LDIPOL =      F    correct potential (dipole corrections)
   IDIPOL =      0    1-x, 2-y, 3-z, 4-all directions 
   EPSILON=  1.0000000 bulk dielectric constant

 Exchange correlation treatment:
   GGA     =    --    GGA type
   LEXCH   =     8    internal setting for exchange type
   VOSKOWN=      0    Vosko Wilk Nusair interpolation
   LHFCALC =     F    Hartree Fock is set to
   LHFONE  =     F    Hartree Fock one center treatment
   AEXX    =    0.0000 exact exchange contribution

 Linear response parameters
   LEPSILON=     F    determine dielectric tensor
   LRPA    =     F    only Hartree local field effects (RPA)
   LNABLA  =     F    use nabla operator in PAW spheres
   LVEL    =     F    velocity operator in full k-point grid
   LINTERFAST=   F  fast interpolation
   KINTER  =     0    interpolate to denser k-point grid
   CSHIFT  =0.1000    complex shift for real part using Kramers Kronig
   OMEGAMAX=  -1.0    maximum frequency
   DEG_THRESHOLD= 0.2000000E-02 threshold for treating states as degnerate
   RTIME   =   -0.100 relaxation time in fs
  (WPLASMAI=    0.000 imaginary part of plasma frequency in eV, 0.658/RTIME)
   DFIELD  = 0.0000000 0.0000000 0.0000000 field for delta impulse in time
 
 Orbital magnetization related:
   ORBITALMAG=     F  switch on orbital magnetization
   LCHIMAG   =     F  perturbation theory with respect to B field
   DQ        =  0.001000  dq finite difference perturbation B field
   LLRAUG    =     F  two centre corrections for induced B field



--------------------------------------------------------------------------------------------------------


 Static calculation
 charge density and potential remain constant during run
 non-spin polarized calculation
 Variant of blocked Davidson
 Davidson routine will perform the subspace rotation
 perform sub-space diagonalisation
    after iterative eigenvector-optimisation
 no mixing
 using additional bands           10
 reciprocal scheme for non local part
 use partial core corrections
 calculate Harris-corrections to forces 
   (improved forces if not selfconsistent)
 use gradient corrections 
 WARNING: stress and forces are not correct
  (second derivative of E(xc) not defined)
 use of overlap-Matrix (Vanderbilt PP)
 Gauss-broadening in eV      SIGMA  =   0.10


--------------------------------------------------------------------------------------------------------


  energy-cutoff  :      240.00
  volume of cell :       31.25
      direct lattice vectors                 reciprocal lattice vectors
     2.500000000  2.500000000  0.000000000     0.200000000  0.200000000 -0.200000000
     0.000000000  2.500000000  2.500000000    -0.200000000  0.200000000  0.200000000
     2.500000000  0.000000000  2.500000000     0.200000000 -0.200000000  0.200000000

  length of vectors
     3.535533906  3.535533906  3.535533906     0.346410162  0.346410162  0.346410162


 
 k-points in units of 2pi/SCALE and weight: k-points for bandstructure L-G-X-U K-G  
   0.50000000  0.50000000  0.50000000       0.025
   0.44444444  0.44444444  0.44444444       0.025
   0.38888889  0.38888889  0.38888889       0.025
   0.33333333  0.33333333  0.33333333       0.025
   0.27777778  0.27777778  0.27777778       0.025
   0.22222222  0.22222222  0.22222222       0.025
   0.16666667  0.16666667  0.16666667       0.025
   0.11111111  0.11111111  0.11111111       0.025
   0.05555556  0.05555556  0.05555556       0.025
   0.00000000  0.00000000  0.00000000       0.025
   0.00000000  0.00000000  0.00000000       0.025
   0.00000000  0.00000000  0.11111111       0.025
   0.00000000  0.00000000  0.22222222       0.025
   0.00000000  0.00000000  0.33333333       0.025
   0.00000000  0.00000000  0.44444444       0.025
   0.00000000  0.00000000  0.55555556       0.025
   0.00000000  0.00000000  0.66666667       0.025
   0.00000000  0.00000000  0.77777778       0.025
   0.00000000  0.00000000  0.88888889       0.025
   0.00000000  0.00000000  1.00000000       0.025
   0.00000000  0.00000000  1.00000000       0.025
   0.02777778  0.02777778  1.00000000       0.025
   0.05555556  0.05555556  1.00000000       0.025
   0.08333333  0.08333333  1.00000000       0.025
   0.11111111  0.11111111  1.00000000       0.025
   0.13888889  0.13888889  1.00000000       0.025
   0.16666667  0.16666667  1.00000000       0.025
   0.19444444  0.19444444  1.00000000       0.025
   0.22222222  0.22222222  1.00000000       0.025
   0.25000000  0.25000000  1.00000000       0.025
   0.00000000  0.75000000  0.75000000       0.025
   0.00000000  0.66666667  0.66666667       0.025
   0.00000000  0.58333333  0.58333333       0.025
   0.00000000  0.50000000  0.50000000       0.025
   0.00000000  0.41666667  0.41666667       0.025
   0.00000000  0.33333333  0.33333333       0.025
   0.00000000  0.25000000  0.25000000       0.025
   0.00000000  0.16666667  0.16666667       0.025
   0.00000000  0.08333333  0.08333333       0.025
   0.00000000  0.00000000  0.00000000       0.025
 
 k-points in reciprocal lattice and weights: k-points for bandstructure L-G-X-U K-G  
   0.50000000  0.50000000  0.50000000       0.025
   0.44444444  0.44444444  0.44444444       0.025
   0.38888889  0.38888889  0.38888889       0.025
   0.33333333  0.33333333  0.33333333       0.025
   0.27777778  0.27777778  0.27777778       0.025
   0.22222222  0.22222222  0.22222222       0.025
   0.16666667  0.16666667  0.16666667       0.025
   0.11111111  0.11111111  0.11111111       0.025
   0.05555556  0.05555556  0.05555556       0.025
   0.00000000  0.00000000  0.00000000       0.025
   0.00000000  0.00000000  0.00000000       0.025
   0.00000000  0.05555556  0.05555556       0.025
   0.00000000  0.11111111  0.11111111       0.025
   0.00000000  0.16666667  0.16666667       0.025
   0.00000000  0.22222222  0.22222222       0.025
   0.00000000  0.27777778  0.27777778       0.025
   0.00000000  0.33333333  0.33333333       0.025
   0.00000000  0.38888889  0.38888889       0.025
   0.00000000  0.44444444  0.44444444       0.025
   0.00000000  0.50000000  0.50000000       0.025
   0.00000000  0.50000000  0.50000000       0.025
   0.02777778  0.51388889  0.51388889       0.025
   0.05555556  0.52777778  0.52777778       0.025
   0.08333333  0.54166667  0.54166667       0.025
   0.11111111  0.55555556  0.55555556       0.025
   0.13888889  0.56944444  0.56944444       0.025
   0.16666667  0.58333333  0.58333333       0.025
   0.19444444  0.59722222  0.59722222       0.025
   0.22222222  0.61111111  0.61111111       0.025
   0.25000000  0.62500000  0.62500000       0.025
   0.37500000  0.75000000  0.37500000       0.025
   0.33333333  0.66666667  0.33333333       0.025
   0.29166667  0.58333333  0.29166667       0.025
   0.25000000  0.50000000  0.25000000       0.025
   0.20833333  0.41666667  0.20833333       0.025
   0.16666667  0.33333333  0.16666667       0.025
   0.12500000  0.25000000  0.12500000       0.025
   0.08333333  0.16666667  0.08333333       0.025
   0.04166667  0.08333333  0.04166667       0.025
   0.00000000  0.00000000  0.00000000       0.025
 
 position of ions in fractional coordinates (direct lattice) 
   0.00000000  0.00000000  0.00000000
 
 position of ions in cartesian coordinates  (Angst):
   0.00000000  0.00000000  0.00000000
 


--------------------------------------------------------------------------------------------------------


 k-point  1 :   0.5000 0.5000 0.5000  plane waves:     266
 k-point  2 :   0.4444 0.4444 0.4444  plane waves:     269
 k-point  3 :   0.3889 0.3889 0.3889  plane waves:     269
 k-point  4 :   0.3333 0.3333 0.3333  plane waves:     256
 k-point  5 :   0.2778 0.2778 0.2778  plane waves:     268
 k-point  6 :   0.2222 0.2222 0.2222  plane waves:     274
 k-point  7 :   0.1667 0.1667 0.1667  plane waves:     274
 k-point  8 :   0.1111 0.1111 0.1111  plane waves:     271
 k-point  9 :   0.0556 0.0556 0.0556  plane waves:     271
 k-point 10 :   0.0000 0.0000 0.0000  plane waves:     259
 k-point 11 :   0.0000 0.0000 0.0000  plane waves:     259
 k-point 12 :   0.0000 0.0556 0.0556  plane waves:     267
 k-point 13 :   0.0000 0.1111 0.1111  plane waves:     267
 k-point 14 :   0.0000 0.1667 0.1667  plane waves:     270
 k-point 15 :   0.0000 0.2222 0.2222  plane waves:     274
 k-point 16 :   0.0000 0.2778 0.2778  plane waves:     258
 k-point 17 :   0.0000 0.3333 0.3333  plane waves:     266
 k-point 18 :   0.0000 0.3889 0.3889  plane waves:     258
 k-point 19 :   0.0000 0.4444 0.4444  plane waves:     254
 k-point 20 :   0.0000 0.5000 0.5000  plane waves:     254
 k-point 21 :   0.0000 0.5000 0.5000  plane waves:     254
 k-point 22 :   0.0278 0.5139 0.5139  plane waves:     254
 k-point 23 :   0.0556 0.5278 0.5278  plane waves:     254
 k-point 24 :   0.0833 0.5417 0.5417  plane waves:     260
 k-point 25 :   0.1111 0.5556 0.5556  plane waves:     260
 k-point 26 :   0.1389 0.5694 0.5694  plane waves:     256
 k-point 27 :   0.1667 0.5833 0.5833  plane waves:     264
 k-point 28 :   0.1944 0.5972 0.5972  plane waves:     268
 k-point 29 :   0.2222 0.6111 0.6111  plane waves:     268
 k-point 30 :   0.2500 0.6250 0.6250  plane waves:     264
 k-point 31 :   0.3750 0.7500 0.3750  plane waves:     264
 k-point 32 :   0.3333 0.6667 0.3333  plane waves:     268
 k-point 33 :   0.2917 0.5833 0.2917  plane waves:     258
 k-point 34 :   0.2500 0.5000 0.2500  plane waves:     264
 k-point 35 :   0.2083 0.4167 0.2083  plane waves:     265
 k-point 36 :   0.1667 0.3333 0.1667  plane waves:     269
 k-point 37 :   0.1250 0.2500 0.1250  plane waves:     273
 k-point 38 :   0.0833 0.1667 0.0833  plane waves:     271
 k-point 39 :   0.0417 0.0833 0.0417  plane waves:     271
 k-point 40 :   0.0000 0.0000 0.0000  plane waves:     259

 maximum and minimum number of plane-waves per node :       274      254

 maximum number of plane-waves:       274
 maximum index in each direction: 
   IXMAX=    4   IYMAX=    4   IZMAX=    4
   IXMIN=   -4   IYMIN=   -5   IZMIN=   -5


 serial   3D FFT for wavefunctions
 parallel 3D FFT for charge:
    minimum data exchange during FFTs selected (reduces bandwidth)


 total amount of memory used by VASP MPI-rank0    31490. kBytes
=======================================================================

   base      :      30000. kBytes
   nonl-proj :        710. kBytes
   fftplans  :        161. kBytes
   grid      :        432. kBytes
   one-center:          3. kBytes
   wavefun   :        184. kBytes
 
     INWAV:  cpu time    0.0000: real time    0.0001
 initial charge density was supplied:
 number of electron       3.9999996 magnetization 
 keeping initial charge density in first step


--------------------------------------------------------------------------------------------------------


 Maximum index for augmentation-charges          405 (set IRDMAX)


--------------------------------------------------------------------------------------------------------


 First call to EWALD:  gamma=   0.563
 Maximum number of real-space cells 3x 3x 3
 Maximum number of reciprocal cells 3x 3x 3

    FEWALD:  cpu time    0.0017: real time    0.0017


--------------------------------------- Iteration      1(   1)  ---------------------------------------


    POTLOK:  cpu time    0.0065: real time    0.0076
    SETDIJ:  cpu time    0.0018: real time    0.0018
     EDDAV:  cpu time    0.1070: real time    0.1071
       DOS:  cpu time    0.0004: real time    0.0004
    --------------------------------------------
      LOOP:  cpu time    0.1157: real time    0.1169

 eigenvalue-minimisations  :  1044
 total energy-change (2. order) :-0.2819711E+01  (-0.9174840E+02)
 number of electron       3.9999996 magnetization 
 augmentation part        3.9999996 magnetization 

 Free energy of the ion-electron system (eV)
  ---------------------------------------------------
  alpha Z        PSCENC =         1.07722019
  Ewald energy   TEWEN  =      -105.63366088
  -Hartree energ DENC   =        -3.74786099
  -exchange      EXHF   =         0.00000000
  -V(xc)+E(xc)   XCENC  =       -10.43339876
  PAW double counting   =       117.73886609     -100.09908966
  entropy T*S    EENTRO =        -0.00199569
  eigenvalues    EBANDS =        -4.78056838
  atomic energy  EATOM  =       103.06077658
  Solvation  Ediel_sol  =         0.00000000
  ---------------------------------------------------
  free energy    TOTEN  =        -2.81971150 eV

  energy without entropy =       -2.81771581  energy(sigma->0) =       -2.81871365


--------------------------------------------------------------------------------------------------------




--------------------------------------- Iteration      1(   2)  ---------------------------------------


     EDDAV:  cpu time    0.1616: real time    0.1620
       DOS:  cpu time    0.0003: real time    0.0003
    --------------------------------------------
      LOOP:  cpu time    0.1619: real time    0.1623

 eigenvalue-minimisations  :  1440
 total energy-change (2. order) :-0.9322554E+00  (-0.9208358E+00)
 number of electron       3.9999996 magnetization 
 augmentation part        3.9999996 magnetization 

 Free energy of the ion-electron system (eV)
  ---------------------------------------------------
  alpha Z        PSCENC =         1.07722019
  Ewald energy   TEWEN  =      -105.63366088
  -Hartree energ DENC   =        -3.74786099
  -exchange      EXHF   =         0.00000000
  -V(xc)+E(xc)   XCENC  =       -10.43339876
  PAW double counting   =       117.73886609     -100.09908966
  entropy T*S    EENTRO =        -0.00107608
  eigenvalues    EBANDS =        -5.71374343
  atomic energy  EATOM  =       103.06077658
  Solvation  Ediel_sol  =         0.00000000
  ---------------------------------------------------
  free energy    TOTEN  =        -3.75196693 eV

  energy without entropy =       -3.75089085  energy(sigma->0) =       -3.75142889


--------------------------------------------------------------------------------------------------------




--------------------------------------- Iteration      1(   3)  ---------------------------------------


     EDDAV:  cpu time    0.1124: real time    0.1125
       DOS:  cpu time    0.0003: real time    0.0003
    --------------------------------------------
      LOOP:  cpu time    0.1128: real time    0.1129

 eigenvalue-minimisations  :  1080
 total energy-change (2. order) :-0.3836819E-02  (-0.3836315E-02)
 number of electron       3.9999996 magnetization 
 augmentation part        3.9999996 magnetization 

 Free energy of the ion-electron system (eV)
  ---------------------------------------------------
  alpha Z        PSCENC =         1.07722019
  Ewald energy   TEWEN  =      -105.63366088
  -Hartree energ DENC   =        -3.74786099
  -exchange      EXHF   =         0.00000000
  -V(xc)+E(xc)   XCENC  =       -10.43339876
  PAW double counting   =       117.73886609     -100.09908966
  entropy T*S    EENTRO =        -0.00110180
  eigenvalues    EBANDS =        -5.71755453
  atomic energy  EATOM  =       103.06077658
  Solvation  Ediel_sol  =         0.00000000
  ---------------------------------------------------
  free energy    TOTEN  =        -3.75580375 eV

  energy without entropy =       -3.75470196  energy(sigma->0) =       -3.75525285


--------------------------------------------------------------------------------------------------------




--------------------------------------- Iteration      1(   4)  ---------------------------------------


     EDDAV:  cpu time    0.1861: real time    0.1862
       DOS:  cpu time    0.0003: real time    0.0003
    --------------------------------------------
      LOOP:  cpu time    0.1864: real time    0.1865

 eigenvalue-minimisations  :  1536
 total energy-change (2. order) :-0.2619601E-05  (-0.2619759E-05)
 number of electron       3.9999996 magnetization 
 augmentation part        3.9999996 magnetization 

 Free energy of the ion-electron system (eV)
  ---------------------------------------------------
  alpha Z        PSCENC =         1.07722019
  Ewald energy   TEWEN  =      -105.63366088
  -Hartree energ DENC   =        -3.74786099
  -exchange      EXHF   =         0.00000000
  -V(xc)+E(xc)   XCENC  =       -10.43339876
  PAW double counting   =       117.73886609     -100.09908966
  entropy T*S    EENTRO =        -0.00110180
  eigenvalues    EBANDS =        -5.71755715
  atomic energy  EATOM  =       103.06077658
  Solvation  Ediel_sol  =         0.00000000
  ---------------------------------------------------
  free energy    TOTEN  =        -3.75580637 eV

  energy without entropy =       -3.75470457  energy(sigma->0) =       -3.75525547


--------------------------------------------------------------------------------------------------------




--------------------------------------- Iteration      1(   5)  ---------------------------------------


     EDDAV:  cpu time    0.1135: real time    0.1136
       DOS:  cpu time    0.0004: real time    0.0004
    --------------------------------------------
      LOOP:  cpu time    0.1139: real time    0.1140

 eigenvalue-minimisations  :  1068
 total energy-change (2. order) :-0.9799805E-10  (-0.3338387E-09)
 number of electron       3.9999996 magnetization 
 augmentation part        3.9999996 magnetization 

 Free energy of the ion-electron system (eV)
  ---------------------------------------------------
  alpha Z        PSCENC =         1.07722019
  Ewald energy   TEWEN  =      -105.63366088
  -Hartree energ DENC   =        -3.74786099
  -exchange      EXHF   =         0.00000000
  -V(xc)+E(xc)   XCENC  =       -10.43339876
  PAW double counting   =       117.73886609     -100.09908966
  entropy T*S    EENTRO =        -0.00110180
  eigenvalues    EBANDS =        -5.71755715
  atomic energy  EATOM  =       103.06077658
  Solvation  Ediel_sol  =         0.00000000
  ---------------------------------------------------
  free energy    TOTEN  =        -3.75580637 eV

  energy without entropy =       -3.75470457  energy(sigma->0) =       -3.75525547


--------------------------------------------------------------------------------------------------------




--------------------------------------- Iteration      1(   6)  ---------------------------------------


     EDDAV:  cpu time    0.2006: real time    0.2008
       DOS:  cpu time    0.0004: real time    0.0004
    --------------------------------------------
      LOOP:  cpu time    0.2010: real time    0.2012

 eigenvalue-minimisations  :  1608
 total energy-change (2. order) : 0.1351026E-09  (-0.3010992E-12)
 number of electron       3.9999996 magnetization 
 augmentation part        3.9999996 magnetization 

 Free energy of the ion-electron system (eV)
  ---------------------------------------------------
  alpha Z        PSCENC =         1.07722019
  Ewald energy   TEWEN  =      -105.63366088
  -Hartree energ DENC   =        -3.74786099
  -exchange      EXHF   =         0.00000000
  -V(xc)+E(xc)   XCENC  =       -10.43339876
  PAW double counting   =       117.73886609     -100.09908966
  entropy T*S    EENTRO =        -0.00110180
  eigenvalues    EBANDS =        -5.71755715
  atomic energy  EATOM  =       103.06077658
  Solvation  Ediel_sol  =         0.00000000
  ---------------------------------------------------
  free energy    TOTEN  =        -3.75580637 eV

  energy without entropy =       -3.75470457  energy(sigma->0) =       -3.75525547


--------------------------------------------------------------------------------------------------------




 average (electrostatic) potential at core
  the test charge radii are     0.9892
  (the norm of the test charge is              1.0000)
       1 -87.8642
 
 
 
 E-fermi :   3.9593     XC(G=0):  -8.2935     alpha+bet : -7.6750


 k-point     1 :       0.5000    0.5000    0.5000
  band No.  band energies     occupation 
      1      -3.8112      2.00000
      2      -0.4710      2.00000
      3       6.1484      0.00000
      4       6.1484      0.00000
      5      10.1453      0.00000
      6      11.5154      0.00000
      7      11.5154      0.00000
      8      14.6695      0.00000
      9      18.7818      0.00000
     10      18.7818      0.00000
     11      20.1084      0.00000
     12      23.0834      0.00000

 k-point     2 :       0.4444    0.4444    0.4444
  band No.  band energies     occupation 
      1      -3.9967      2.00000
      2      -0.1960      2.00000
      3       6.1674      0.00000
      4       6.1674      0.00000
      5      10.1725      0.00000
      6      11.5751      0.00000
      7      11.5751      0.00000
      8      14.7386      0.00000
      9      18.3709      0.00000
     10      18.3709      0.00000
     11      19.7818      0.00000
     12      23.5901      0.00000

 k-point     3 :       0.3889    0.3889    0.3889
  band No.  band energies     occupation 
      1      -4.4244      2.00000
      2       0.4985      2.00000
      3       6.2245      0.00000
      4       6.2245      0.00000
      5      10.2599      0.00000
      6      11.7492      0.00000
      7      11.7492      0.00000
      8      14.9377      0.00000
      9      17.5010      0.00000
     10      17.5010      0.00000
     11      19.0102      0.00000
     12      24.7528      0.00000

 k-point     4 :       0.3333    0.3333    0.3333
  band No.  band energies     occupation 
      1      -4.9173      2.00000
      2       1.4304      2.00000
      3       6.3195      0.00000
      4       6.3195      0.00000
      5      10.4132      0.00000
      6      12.0280      0.00000
      7      12.0280      0.00000
      8      15.2310      0.00000
      9      16.5617      0.00000
     10      16.5617      0.00000
     11      18.1022      0.00000
     12      24.5660      0.00000

 k-point     5 :       0.2778    0.2778    0.2778
  band No.  band energies     occupation 
      1      -5.3864      2.00000
      2       2.4977      2.00000
      3       6.4481      0.00000
      4       6.4481      0.00000
      5      10.6285      0.00000
      6      12.3491      0.00000
      7      12.3491      0.00000
      8      15.4790      0.00000
      9      15.6807      0.00000
     10      15.6807      0.00000
     11      17.3236      0.00000
     12      22.6190      0.00000

 k-point     6 :       0.2222    0.2222    0.2222
  band No.  band energies     occupation 
      1      -5.7928      2.00000
      2       3.6411      1.99999
      3       6.6039      0.00000
      4       6.6039      0.00000
      5      10.9084      0.00000
      6      12.6192      0.00000
      7      12.6192      0.00000
      8      15.0678      0.00000
      9      15.0678      0.00000
     10      15.2546      0.00000
     11      17.1311      0.00000
     12      20.7980      0.00000

 k-point     7 :       0.1667    0.1667    0.1667
  band No.  band energies     occupation 
      1      -6.1189      2.00000
      2       4.8034      0.00000
      3       6.7731      0.00000
      4       6.7731      0.00000
      5      11.2533      0.00000
      6      12.6457      0.00000
      7      12.6457      0.00000
      8      14.5395      0.00000
      9      14.9167      0.00000
     10      14.9167      0.00000
     11      17.4236      0.00000
     12      19.3240      0.00000

 k-point     8 :       0.1111    0.1111    0.1111
  band No.  band energies     occupation 
      1      -6.3561      2.00000
      2       5.8957      0.00000
      3       6.9323      0.00000
      4       6.9323      0.00000
      5      11.6423      0.00000
      6      12.4227      0.00000
      7      12.4227      0.00000
      8      13.7574      0.00000
      9      15.2052      0.00000
     10      15.2052      0.00000
     11      17.0549      0.00000
     12      19.0272      0.00000

 k-point     9 :       0.0556    0.0556    0.0556
  band No.  band energies     occupation 
      1      -6.5000      2.00000
      2       6.7500      0.00000
      3       7.0498      0.00000
      4       7.0498      0.00000
      5      11.9736      0.00000
      6      12.1864      0.00000
      7      12.1864      0.00000
      8      13.1452      0.00000
      9      15.6205      0.00000
     10      15.6205      0.00000
     11      16.1986      0.00000
     12      19.6611      0.00000

 k-point    10 :       0.0000    0.0000    0.0000
  band No.  band energies     occupation 
      1      -6.5480      2.00000
      2       7.0939      0.00000
      3       7.0939      0.00000
      4       7.0939      0.00000
      5      12.0962      0.00000
      6      12.0962      0.00000
      7      12.0962      0.00000
      8      12.9273      0.00000
      9      15.8253      0.00000
     10      15.8473      0.00000
     11      15.8473      0.00000
     12      20.0851      0.00000

 k-point    11 :       0.0000    0.0000    0.0000
  band No.  band energies     occupation 
      1      -6.5480      2.00000
      2       7.0939      0.00000
      3       7.0939      0.00000
      4       7.0939      0.00000
      5      12.0962      0.00000
      6      12.0962      0.00000
      7      12.0962      0.00000
      8      12.9273      0.00000
      9      15.8253      0.00000
     10      15.8473      0.00000
     11      15.8473      0.00000
     12      20.0851      0.00000

 k-point    12 :       0.0000    0.0556    0.0556
  band No.  band energies     occupation 
      1      -6.4839      2.00000
      2       6.8515      0.00000
      3       6.9271      0.00000
      4       6.9271      0.00000
      5      11.7524      0.00000
      6      12.3371      0.00000
      7      12.3371      0.00000
      8      13.1703      0.00000
      9      15.2637      0.00000
     10      15.8944      0.00000
     11      16.3115      0.00000
     12      20.1235      0.00000

 k-point    13 :       0.0000    0.1111    0.1111
  band No.  band energies     occupation 
      1      -6.2919      2.00000
      2       6.2321      0.00000
      3       6.5130      0.00000
      4       6.5130      0.00000
      5      11.0282      0.00000
      6      12.9802      0.00000
      7      12.9802      0.00000
      8      13.2421      0.00000
      9      14.6388      0.00000
     10      16.0756      0.00000
     11      17.4625      0.00000
     12      20.3092      0.00000

 k-point    14 :       0.0000    0.1667    0.1667
  band No.  band energies     occupation 
      1      -5.9749      2.00000
      2       5.4056      0.00000
      3       5.9984      0.00000
      4       5.9984      0.00000
      5      10.2490      0.00000
      6      12.0243      0.00000
      7      13.8605      0.00000
      8      13.8605      0.00000
      9      15.4691      0.00000
     10      16.3728      0.00000
     11      18.9495      0.00000
     12      20.6697      0.00000

 k-point    15 :       0.0000    0.2222    0.2222
  band No.  band energies     occupation 
      1      -5.5378      2.00000
      2       4.4708      0.00000
      3       5.4848      0.00000
      4       5.4848      0.00000
      5       9.5377      0.00000
      6      10.6632      0.00000
      7      14.8701      0.00000
      8      14.8701      0.00000
      9      16.7055      0.00000
     10      16.7764      0.00000
     11      20.6499      0.00000
     12      21.1953      0.00000

 k-point    16 :       0.0000    0.2778    0.2778
  band No.  band energies     occupation 
      1      -4.9894      2.00000
      2       3.4722      2.00000
      3       5.0264      0.00000
      4       5.0264      0.00000
      5       8.9365      0.00000
      6       9.4921      0.00000
      7      15.9719      0.00000
      8      15.9719      0.00000
      9      17.2736      0.00000
     10      18.0296      0.00000
     11      21.9273      0.00000
     12      22.5226      0.00000

 k-point    17 :       0.0000    0.3333    0.3333
  band No.  band energies     occupation 
      1      -4.3484      2.00000
      2       2.4434      2.00000
      3       4.6509      0.00000
      4       4.6509      0.00000
      5       8.4517      0.00000
      6       8.5697      0.00000
      7      17.0763      0.00000
      8      17.0763      0.00000
      9      17.8146      0.00000
     10      19.2839      0.00000
     11      22.8675      0.00000
     12      23.9769      0.00000

 k-point    18 :       0.0000    0.3889    0.3889
  band No.  band energies     occupation 
      1      -3.6536      2.00000
      2       1.4444      2.00000
      3       4.3751      0.00000
      4       4.3751      0.00000
      5       7.9214      0.00000
      6       8.1074      0.00000
      7      18.2129      0.00000
      8      18.2129      0.00000
      9      18.3721      0.00000
     10      20.3273      0.00000
     11      23.6937      0.00000
     12      23.6943      0.00000

 k-point    19 :       0.0000    0.4444    0.4444
  band No.  band energies     occupation 
      1      -3.0111      2.00000
      2       0.6055      2.00000
      3       4.2068      0.00046
      4       4.2068      0.00046
      5       7.5369      0.00000
      6       7.9022      0.00000
      7      18.8020      0.00000
      8      19.2887      0.00000
      9      19.2887      0.00000
     10      21.0279      0.00000
     11      22.6806      0.00000
     12      22.6806      0.00000

 k-point    20 :       0.0000    0.5000    0.5000
  band No.  band energies     occupation 
      1      -2.7062      2.00000
      2       0.2327      2.00000
      3       4.1503      0.00692
      4       4.1503      0.00692
      5       7.4114      0.00000
      6       7.8326      0.00000
      7      18.9698      0.00000
      8      19.8798      0.00000
      9      19.8798      0.00000
     10      21.2785      0.00000
     11      22.0639      0.00000
     12      22.0639      0.00000

 k-point    21 :       0.0000    0.5000    0.5000
  band No.  band energies     occupation 
      1      -2.7062      2.00000
      2       0.2327      2.00000
      3       4.1503      0.00692
      4       4.1503      0.00692
      5       7.4114      0.00000
      6       7.8326      0.00000
      7      18.9698      0.00000
      8      19.8798      0.00000
      9      19.8798      0.00000
     10      21.2785      0.00000
     11      22.0639      0.00000
     12      22.0639      0.00000

 k-point    22 :       0.0278    0.5139    0.5139
  band No.  band energies     occupation 
      1      -2.7040      2.00000
      2       0.2409      2.00000
      3       4.0711      0.11385
      4       4.1570      0.00519
      5       7.4572      0.00000
      6       7.8939      0.00000
      7      18.8842      0.00000
      8      19.7209      0.00000
      9      19.8427      0.00000
     10      21.4418      0.00000
     11      22.0160      0.00000
     12      22.1612      0.00000

 k-point    23 :       0.0556    0.5278    0.5278
  band No.  band energies     occupation 
      1      -2.6975      2.00000
      2       0.2654      2.00000
      3       3.8575      1.84990
      4       4.1770      0.00208
      5       7.5456      0.00000
      6       8.1030      0.00000
      7      18.6546      0.00000
      8      19.3669      0.00000
      9      19.7341      0.00000
     10      21.8087      0.00000
     11      21.8789      0.00000
     12      22.4260      0.00000

 k-point    24 :       0.0833    0.5417    0.5417
  band No.  band energies     occupation 
      1      -2.6877      2.00000
      2       0.3062      2.00000
      3       3.5575      2.00000
      4       4.2102      0.00039
      5       7.6262      0.00000
      6       8.4583      0.00000
      7      18.3192      0.00000
      8      18.9377      0.00000
      9      19.5609      0.00000
     10      21.6689      0.00000
     11      22.2465      0.00000
     12      22.8032      0.00000

 k-point    25 :       0.1111    0.5556    0.5556
  band No.  band energies     occupation 
      1      -2.6762      2.00000
      2       0.3632      2.00000
      3       3.2160      2.00000
      4       4.2566      0.00003
      5       7.7044      0.00000
      6       8.9191      0.00000
      7      17.9500      0.00000
      8      18.4974      0.00000
      9      19.3347      0.00000
     10      21.4062      0.00000
     11      22.7129      0.00000
     12      23.2514      0.00000

 k-point    26 :       0.1389    0.5694    0.5694
  band No.  band energies     occupation 
      1      -2.6654      2.00000
      2       0.4366      2.00000
      3       2.8619      2.00000
      4       4.3159      0.00000
      5       7.7907      0.00000
      6       9.4475      0.00000
      7      17.5609      0.00000
      8      18.0574      0.00000
      9      19.0666      0.00000
     10      21.1098      0.00000
     11      23.1928      0.00000
     12      23.7448      0.00000

 k-point    27 :       0.1667    0.5833    0.5833
  band No.  band energies     occupation 
      1      -2.6589      2.00000
      2       0.5259      2.00000
      3       2.5146      2.00000
      4       4.3876      0.00000
      5       7.8866      0.00000
      6      10.0099      0.00000
      7      17.1506      0.00000
      8      17.6100      0.00000
      9      18.7526      0.00000
     10      20.7945      0.00000
     11      23.6590      0.00000
     12      24.2541      0.00000

 k-point    28 :       0.1944    0.5972    0.5972
  band No.  band energies     occupation 
      1      -2.6607      2.00000
      2       0.6314      2.00000
      3       2.1881      2.00000
      4       4.4718      0.00000
      5       8.0001      0.00000
      6      10.5980      0.00000
      7      16.7493      0.00000
      8      17.1681      0.00000
      9      18.4219      0.00000
     10      20.4754      0.00000
     11      24.1087      0.00000
     12      24.7832      0.00000

 k-point    29 :       0.2222    0.6111    0.6111
  band No.  band energies     occupation 
      1      -2.6760      2.00000
      2       0.7528      2.00000
      3       1.8939      2.00000
      4       4.5677      0.00000
      5       8.1294      0.00000
      6      11.1998      0.00000
      7      16.3617      0.00000
      8      16.7456      0.00000
      9      18.0840      0.00000
     10      20.1635      0.00000
     11      24.5407      0.00000
     12      24.5417      0.00000

 k-point    30 :       0.2500    0.6250    0.6250
  band No.  band energies     occupation 
      1      -2.7107      2.00000
      2       0.8900      2.00000
      3       1.6415      2.00000
      4       4.6753      0.00000
      5       8.2752      0.00000
      6      11.8060      0.00000
      7      15.9963      0.00000
      8      16.3347      0.00000
      9      17.7378      0.00000
     10      19.8697      0.00000
     11      24.2041      0.00000
     12      24.9063      0.00000

 k-point    31 :       0.3750    0.7500    0.3750
  band No.  band energies     occupation 
      1      -2.7107      2.00000
      2       0.8900      2.00000
      3       1.6415      2.00000
      4       4.6753      0.00000
      5       8.2752      0.00000
      6      11.8060      0.00000
      7      15.9963      0.00000
      8      16.3347      0.00000
      9      17.7378      0.00000
     10      19.8697      0.00000
     11      24.2041      0.00000
     12      24.9063      0.00000

 k-point    32 :       0.3333    0.6667    0.3333
  band No.  band energies     occupation 
      1      -2.9793      2.00000
      2       1.2060      2.00000
      3       1.3945      2.00000
      4       5.0572      0.00000
      5       8.8051      0.00000
      6      13.5053      0.00000
      7      14.9610      0.00000
      8      15.1759      0.00000
      9      16.6741      0.00000
     10      19.2306      0.00000
     11      23.1822      0.00000
     12      24.3671      0.00000

 k-point    33 :       0.2917    0.5833    0.2917
  band No.  band energies     occupation 
      1      -3.5052      2.00000
      2       1.2872      2.00000
      3       2.0330      2.00000
      4       5.5081      0.00000
      5       9.4770      0.00000
      6      14.1240      0.00000
      7      14.1543      0.00000
      8      14.5960      0.00000
      9      15.6744      0.00000
     10      19.3439      0.00000
     11      22.3439      0.00000
     12      23.1647      0.00000

 k-point    34 :       0.2500    0.5000    0.2500
  band No.  band energies     occupation 
      1      -4.1670      2.00000
      2       1.7755      2.00000
      3       2.7939      2.00000
      4       5.9842      0.00000
      5      10.2637      0.00000
      6      13.2722      0.00000
      7      13.5205      0.00000
      8      14.7114      0.00000
      9      14.7537      0.00000
     10      19.9822      0.00000
     11      22.0564      0.00000
     12      22.2282      0.00000

 k-point    35 :       0.2083    0.4167    0.2083
  band No.  band energies     occupation 
      1      -4.8320      2.00000
      2       2.5384      2.00000
      3       3.6568      1.99998
      4       6.4254      0.00000
      5      11.1360      0.00000
      6      12.5602      0.00000
      7      13.2301      0.00000
      8      13.9590      0.00000
      9      14.3557      0.00000
     10      19.7165      0.00000
     11      20.9984      0.00000
     12      21.0479      0.00000

 k-point    36 :       0.1667    0.3333    0.1667
  band No.  band energies     occupation 
      1      -5.4244      2.00000
      2       3.4898      2.00000
      3       4.5860      0.00000
      4       6.7661      0.00000
      5      11.9940      0.00000
      6      12.0317      0.00000
      7      13.2937      0.00000
      8      13.2997      0.00000
      9      13.9879      0.00000
     10      18.5458      0.00000
     11      19.7016      0.00000
     12      20.0642      0.00000

 k-point    37 :       0.1250    0.2500    0.1250
  band No.  band energies     occupation 
      1      -5.9070      2.00000
      2       4.5658      0.00000
      3       5.5168      0.00000
      4       6.9720      0.00000
      5      11.7277      0.00000
      6      12.5315      0.00000
      7      12.7711      0.00000
      8      13.7501      0.00000
      9      13.9258      0.00000
     10      16.8263      0.00000
     11      18.9396      0.00000
     12      19.2884      0.00000

 k-point    38 :       0.0833    0.1667    0.0833
  band No.  band energies     occupation 
      1      -6.2606      2.00000
      2       5.6819      0.00000
      3       6.3361      0.00000
      4       7.0631      0.00000
      5      11.6971      0.00000
      6      12.3953      0.00000
      7      12.5248      0.00000
      8      13.9492      0.00000
      9      14.5083      0.00000
     10      15.6911      0.00000
     11      17.5995      0.00000
     12      19.2777      0.00000

 k-point    39 :       0.0417    0.0833    0.0417
  band No.  band energies     occupation 
      1      -6.4759      2.00000
      2       6.6579      0.00000
      3       6.8971      0.00000
      4       7.0898      0.00000
      5      11.9139      0.00000
      6      12.1685      0.00000
      7      12.2959      0.00000
      8      13.2545      0.00000
      9      15.3673      0.00000
     10      15.7032      0.00000
     11      16.3691      0.00000
     12      19.6794      0.00000

 k-point    40 :       0.0000    0.0000    0.0000
  band No.  band energies     occupation 
      1      -6.5480      2.00000
      2       7.0939      0.00000
      3       7.0939      0.00000
      4       7.0939      0.00000
      5      12.0962      0.00000
      6      12.0962      0.00000
      7      12.0962      0.00000
      8      12.9273      0.00000
      9      15.8253      0.00000
     10      15.8473      0.00000
     11      15.8473      0.00000
     12      20.0851      0.00000


--------------------------------------------------------------------------------------------------------


 soft charge-density along one line, spin component           1
         0         1         2         3         4         5         6         7         8         9
 total charge-density along one line
 
 pseudopotential strength for first ion, spin component:           1
 18.881  26.346  -0.000   0.000   0.000  -0.000   0.000  -0.000
 26.346  36.767  -0.000   0.000   0.000  -0.000   0.000  -0.000
 -0.000  -0.000   4.226  -0.000  -0.000   7.880  -0.000  -0.000
  0.000   0.000  -0.000   4.226  -0.000  -0.000   7.880  -0.000
  0.000   0.000  -0.000  -0.000   4.226  -0.000  -0.000   7.880
 -0.000  -0.000   7.880  -0.000  -0.000  14.704  -0.000  -0.000
  0.000   0.000  -0.000   7.880  -0.000  -0.000  14.704  -0.000
 -0.000  -0.000  -0.000  -0.000   7.880  -0.000  -0.000  14.704
 total augmentation occupancy for first ion, spin component:           1
  2.000   0.000   0.000   0.000   0.000   0.000   0.000   0.000
  0.000   0.000   0.000   0.000   0.000   0.000   0.000   0.000
  0.000   0.000   0.667   0.000   0.000   0.000   0.000   0.000
  0.000   0.000   0.000   0.667   0.000   0.000   0.000   0.000
  0.000   0.000   0.000   0.000   0.667   0.000   0.000   0.000
  0.000   0.000   0.000   0.000   0.000   0.000   0.000   0.000
  0.000   0.000   0.000   0.000   0.000   0.000   0.000   0.000
  0.000   0.000   0.000   0.000   0.000   0.000   0.000   0.000


------------------------ aborting loop because EDIFF is reached ----------------------------------------


 


 total charge     
 
# of ion       s       p       d       tot
------------------------------------------
    1        0.912   0.519   0.000   1.431
 
    CHARGE:  cpu time    0.0071: real time    0.0071
    FORLOC:  cpu time    0.0001: real time    0.0001
    FORNL :  cpu time    0.0019: real time    0.0019
    STRESS:  cpu time    0.0315: real time    0.0316
    FORCOR:  cpu time    0.0034: real time    0.0035
    FORHAR:  cpu time    0.0008: real time    0.0008
    OFIELD:  cpu time    0.0000: real time    0.0000

  FORCE on cell =-STRESS in cart. coord.  units (eV):
  Direction    XX          YY          ZZ          XY          YZ          ZX
  --------------------------------------------------------------------------------------
  Alpha Z     1.07722     1.07722     1.07722
  Ewald     -35.21122   -35.21122   -35.21122    -0.00000     0.00000     0.00000
  Hartree     1.21537     1.21537     1.21537     0.00000     0.00000     0.00000
  E(xc)     -11.09199   -11.09199   -11.09199    -0.00000    -0.00000    -0.00000
  Local     -13.00224   -13.00224   -13.00224     0.00001     0.00001     0.00001
  n-local    38.03364    37.79278    39.01607     1.21948     0.81546     0.24673
  augment    -6.65439    -6.65439    -6.65439    -0.00001    -0.00001    -0.00001
  Kinetic    20.49296    17.39831    28.45257     5.61552     4.25681     1.89646
  Fock        0.00000     0.00000     0.00000     0.00000     0.00000     0.00000
  -------------------------------------------------------------------------------------
  Total      -3.27181    -3.27181    -3.27181     0.00000     0.00000     0.00000
  in kB    -167.74440  -167.74440  -167.74440     0.00000     0.00000     0.00000
  external pressure =     -167.74 kB  Pullay stress =        0.00 kB


 VOLUME and BASIS-vectors are now :
 -----------------------------------------------------------------------------
  energy-cutoff  :      240.00
  volume of cell :       31.25
      direct lattice vectors                 reciprocal lattice vectors
     2.500000000  2.500000000  0.000000000     0.200000000  0.200000000 -0.200000000
     0.000000000  2.500000000  2.500000000    -0.200000000  0.200000000  0.200000000
     2.500000000  0.000000000  2.500000000     0.200000000 -0.200000000  0.200000000

  length of vectors
     3.535533906  3.535533906  3.535533906     0.346410162  0.346410162  0.346410162


 FORCES acting on ions
    electron-ion (+dipol)            ewald-force                    non-local-force                 convergence-correction
 -----------------------------------------------------------------------------------------------
   0.783E-15 -.840E-16 0.118E-15   0.106E-15 -.272E-15 0.112E-15   0.283E-26 0.808E-27 0.808E-27   -.122E-15 0.245E-16 0.108E-16
 -----------------------------------------------------------------------------------------------
   0.783E-15 -.840E-16 0.118E-15   0.106E-15 -.272E-15 0.112E-15   0.283E-26 0.808E-27 0.808E-27   -.122E-15 0.245E-16 0.108E-16
 
 
 POSITION                                       TOTAL-FORCE (eV/Angst)
 -----------------------------------------------------------------------------------
      0.00000      0.00000      0.00000        -0.000000     -0.000000      0.000000
 -----------------------------------------------------------------------------------
    total drift:                                0.000000     -0.000000      0.000000


--------------------------------------------------------------------------------------------------------



  FREE ENERGIE OF THE ION-ELECTRON SYSTEM (eV)
  ---------------------------------------------------
  free  energy   TOTEN  =        -3.75580637 eV

  energy  without entropy=       -3.75470457  energy(sigma->0) =       -3.75525547
 


--------------------------------------------------------------------------------------------------------


    POTLOK:  cpu time    0.0052: real time    0.0052


--------------------------------------------------------------------------------------------------------


 writing wavefunctions
     LOOP+:  cpu time    1.0134: real time    1.0347
    4ORBIT:  cpu time    0.0000: real time    0.0000
 


 total charge     
 
# of ion       s       p       d       tot
------------------------------------------
    1        0.912   0.519   0.000   1.431
 

 total amount of memory used by VASP MPI-rank0    31490. kBytes
=======================================================================

   base      :      30000. kBytes
   nonl-proj :        710. kBytes
   fftplans  :        161. kBytes
   grid      :        432. kBytes
   one-center:          3. kBytes
   wavefun   :        184. kBytes
 
  
  
 General timing and accounting informations for this job:
 ========================================================
  
                  Total CPU time used (sec):        2.396
                            User time (sec):        2.024
                          System time (sec):        0.372
                         Elapsed time (sec):        2.805
  
                   Maximum memory used (kb):       57620.
                   Average memory used (kb):           0.
  
                          Minor page faults:        14895
                          Major page faults:            0
                 Voluntary context switches:          933
