 vasp.5.4.4.18Apr17-6-g9f103f2a35 (build Mar 30 2023 15:39:25) complex          
  
 executed on             LinuxIFC date 2023.04.21  14:30:20
 running on   12 total cores
 distrk:  each k-point on   12 cores,    1 groups
 distr:  one band on NCORES_PER_BAND=   4 cores,    3 groups


--------------------------------------------------------------------------------------------------------


 INCAR:
 POTCAR:    PAW_PBE B 06Sep2000                   
 POTCAR:    PAW_PBE C 08Apr2002                   
 POTCAR:    PAW_PBE B 06Sep2000                   
   SHA256 =  a32ced30f5ae56fd4d10b4325ff17eb3e4e38ee0f4288bc219fb012fddfa6e97 B/
   COPYR  = (c) Copyright 06Sep2000 Georg Kresse                                
   COPYR  = This file is part of the software VASP. Any use, copying, and all ot
   COPYR  = If you do not have a valid VASP license, you may not use, copy or di
   VRHFIN =B: s2p1                                                              
   LEXCH  = PE                                                                  
   EATOM  =    71.1703 eV,    5.2309 Ry                                         
                                                                                
   TITEL  = PAW_PBE B 06Sep2000                                                 
   LULTRA =        F    use ultrasoft PP ?                                      
   IUNSCR =        1    unscreen: 0-lin 1-nonlin 2-no                           
   RPACOR =    1.200    partial core radius                                     
   POMASS =   10.811; ZVAL   =    3.000    mass and valenz                      
   RCORE  =    1.700    outmost cutoff radius                                   
   RWIGS  =    1.710; RWIGS  =    0.905    wigner-seitz radius (au A)           
   ENMAX  =  318.614; ENMIN  =  238.960 eV                                      
   ICORE  =        2    local potential                                         
   LCOR   =        T    correct aug charges                                     
   LPAW   =        T    paw PP                                                  
   EAUG   =  535.514                                                            
   DEXC   =    0.000                                                            
   RMAX   =    1.732    core radius for proj-oper                               
   RAUG   =    1.300    factor for augmentation sphere                          
   RDEP   =    1.757    radius for radial grids                                 
   RDEPT  =    1.436    core radius for aug-charge                              
                                                                                
   Atomic configuration                                                         
    4 entries                                                                   
     n  l   j            E        occ.                                          
     1  0  0.50      -180.5896   2.0000                                         
     2  0  0.50        -9.4431   2.0000                                         
     2  1  0.50        -3.6068   1.0000                                         
     3  2  1.50        -4.0817   0.0000                                         
   Description                                                                  
     l       E           TYP  RCUT    TYP  RCUT                                 
     0     -9.4430752     23  1.500                                             
     0      0.8675899     23  1.500                                             
     1     -3.6067955     23  1.700                                             
     1      6.1086146     23  1.700                                             
     2     -4.0817478      7  1.700                                             
  local pseudopotential read in
  partial core-charges read in
  partial kinetic energy density read in
  atomic valenz-charges read in
  non local Contribution for L=           0  read in
    real space projection operators read in
  non local Contribution for L=           0  read in
    real space projection operators read in
  non local Contribution for L=           1  read in
    real space projection operators read in
  non local Contribution for L=           1  read in
    real space projection operators read in
    PAW grid and wavefunctions read in
 
   number of l-projection  operators is LMAX  =           4
   number of lm-projection operators is LMMAX =           8
 
 POTCAR:    PAW_PBE C 08Apr2002                   
   SHA256 =  253f7b50bb8d59471dbedb8285d89021f4a42ed1a2c5d38a03a736e69125dd95 C/
   COPYR  = (c) Copyright 08Apr2002 Georg Kresse                                
   COPYR  = This file is part of the software VASP. Any use, copying, and all ot
   COPYR  = If you do not have a valid VASP license, you may not use, copy or di
   VRHFIN =C: s2p2                                                              
   LEXCH  = PE                                                                  
   EATOM  =   147.1560 eV,   10.8157 Ry                                         
                                                                                
   TITEL  = PAW_PBE C 08Apr2002                                                 
   LULTRA =        F    use ultrasoft PP ?                                      
   IUNSCR =        1    unscreen: 0-lin 1-nonlin 2-no                           
   RPACOR =    1.200    partial core radius                                     
   POMASS =   12.011; ZVAL   =    4.000    mass and valenz                      
   RCORE  =    1.500    outmost cutoff radius                                   
   RWIGS  =    1.630; RWIGS  =    0.863    wigner-seitz radius (au A)           
   ENMAX  =  400.000; ENMIN  =  300.000 eV                                      
   ICORE  =        2    local potential                                         
   LCOR   =        T    correct aug charges                                     
   LPAW   =        T    paw PP                                                  
   EAUG   =  644.873                                                            
   DEXC   =    0.000                                                            
   RMAX   =    1.529    core radius for proj-oper                               
   RAUG   =    1.300    factor for augmentation sphere                          
   RDEP   =    1.501    radius for radial grids                                 
   RDEPT  =    1.300    core radius for aug-charge                              
                                                                                
   Atomic configuration                                                         
    4 entries                                                                   
     n  l   j            E        occ.                                          
     1  0  0.50      -273.3789   2.0000                                         
     2  0  0.50       -13.7508   2.0000                                         
     2  1  0.50        -5.2854   2.0000                                         
     3  2  1.50        -5.4423   0.0000                                         
   Description                                                                  
     l       E           TYP  RCUT    TYP  RCUT                                 
     0    -13.7508458     23  1.200                                             
     0     -8.2022199     23  1.200                                             
     1     -5.2854383     23  1.500                                             
     1     34.0145650     23  1.500                                             
     2     -5.4423304      7  1.500                                             
  local pseudopotential read in
  partial core-charges read in
  partial kinetic energy density read in
  atomic valenz-charges read in
  non local Contribution for L=           0  read in
    real space projection operators read in
  non local Contribution for L=           0  read in
    real space projection operators read in
  non local Contribution for L=           1  read in
    real space projection operators read in
  non local Contribution for L=           1  read in
    real space projection operators read in
    PAW grid and wavefunctions read in
 
   number of l-projection  operators is LMAX  =           4
   number of lm-projection operators is LMMAX =           8
 

 ----------------------------------------------------------------------------- 
|                                                                             |
|  ADVICE TO THIS USER RUNNING 'VASP/VAMP'   (HEAR YOUR MASTER'S VOICE ...):  |
|                                                                             |
|      You have a (more or less) 'small supercell' and for smaller cells      |
|      it is recommended  to use the reciprocal-space projection scheme!      |
|      The real space optimization is not  efficient for small cells and it   |
|      is also less accurate ...                                              |
|      Therefore set LREAL=.FALSE. in the  INCAR file                         |
|                                                                             |
 ----------------------------------------------------------------------------- 

 Optimization of the real space projectors (new method)

 maximal supplied QI-value         = 22.11
 optimisation between [QCUT,QGAM] = [ 10.17, 20.34] = [ 28.97,115.86] Ry 
 Optimized for a Real-space Cutoff    0.97 Angstroem

   l    n(q)    QCUT    max X(q) W(low)/X(q) W(high)/X(q)  e(spline) 
   0      6    10.171    53.033    0.41E-02    0.27E-02    0.14E-06
   0      6    10.171    34.740    0.40E-02    0.27E-02    0.13E-06
   1      5    10.171    30.949    0.15E-02    0.29E-02    0.67E-07
   1      5    10.171    19.518    0.14E-02    0.26E-02    0.62E-07
 Optimization of the real space projectors (new method)

 maximal supplied QI-value         = 25.13
 optimisation between [QCUT,QGAM] = [ 10.05, 20.36] = [ 28.30,116.06] Ry 
 Optimized for a Real-space Cutoff    0.97 Angstroem

   l    n(q)    QCUT    max X(q) W(low)/X(q) W(high)/X(q)  e(spline) 
   0      6    10.053   115.676    0.33E-02    0.26E-02    0.57E-07
   0      6    10.053    87.132    0.32E-02    0.26E-02    0.56E-07
   1      5    10.053     4.429    0.47E-02    0.40E-02    0.65E-07
   1      5    10.053     2.733    0.35E-02    0.29E-02    0.67E-07
  PAW_PBE B 06Sep2000                   :
 energy of atom  1       EATOM=  -71.1703
 kinetic energy error for atom=    0.0020 (will be added to EATOM!!)
  PAW_PBE C 08Apr2002                   :
 energy of atom  2       EATOM= -147.1560
 kinetic energy error for atom=    0.0288 (will be added to EATOM!!)
 
 
 POSCAR: BC3 with lattice parameter 5.126A, C-C l
  positions in cartesian coordinates
  No initial velocities read in
 exchange correlation table for  LEXCH =        8
   RHO(1)=    0.500       N(1)  =     2000
   RHO(2)=  100.500       N(2)  =     4000
 


--------------------------------------------------------------------------------------------------------


 ion  position               nearest neighbor table
   1  0.333  0.333  0.000-
   2  0.667  0.667  0.000-
   3  0.158  0.158  0.000-
   4  0.683  0.158  0.000-
   5  0.158  0.683  0.000-
   6  0.842  0.842  0.000-
   7  0.317  0.842  0.000-
   8  0.842  0.317  0.000-
 
  LATTYP: Found a base centered orthorhombic cell.
 ALAT       =    26.6244440000
 B/A-ratio  =     1.7319984598
 C/A-ratio  =     3.0804774740
  
  Lattice vectors:
  
 A1 = ( -13.3122220000, -23.0567480000,   0.0000000000)
 A2 = ( -13.3122220000,  23.0567480000,   0.0000000000)
 A3 = (   0.0000000000,   0.0000000000, -82.0160000000)


Analysis of symmetry for initial positions (statically):
=====================================================================
 Subroutine PRICEL returns:
 Original cell was already a primitive cell.
 

 Routine SETGRP: Setting up the symmetry group for a 
 base centered orthorhombic supercell.


 Subroutine GETGRP returns: Found  8 space group operations
 (whereof  8 operations were pure point group operations)
 out of a pool of  8 trial point group operations.


The static configuration has the point symmetry D_2h.


Analysis of symmetry for dynamics (positions and initial velocities):
=====================================================================
 Subroutine PRICEL returns:
 Original cell was already a primitive cell.
 

 Routine SETGRP: Setting up the symmetry group for a 
 base centered orthorhombic supercell.


 Subroutine GETGRP returns: Found  8 space group operations
 (whereof  8 operations were pure point group operations)
 out of a pool of  8 trial point group operations.


The dynamic configuration has the point symmetry D_2h.


 Subroutine INISYM returns: Found  8 space group operations
 (whereof  8 operations are pure point group operations),
 and found     1 'primitive' translations

 
 
 KPOINTS: K-points for BC3                        

Automatic generation of k-mesh.
Space group operators:
 irot       det(A)        alpha          n_x          n_y          n_z        tau_x        tau_y        tau_z
    1     1.000000     0.000000     1.000000     0.000000     0.000000     0.000000     0.000000     0.000000
    2    -1.000000     0.000000     1.000000     0.000000     0.000000     0.000000     0.000000     0.000000
    3     1.000000   179.999999     0.000000     0.000000     1.000000     0.000000     0.000000     0.000000
    4    -1.000000   179.999999     0.000000     0.000000     1.000000     0.000000     0.000000     0.000000
    5     1.000000   180.000000     0.000000     1.000000     0.000000     0.000000     0.000000     0.000000
    6    -1.000000   180.000000     0.000000     1.000000     0.000000     0.000000     0.000000     0.000000
    7     1.000000   180.000000     1.000000     0.000000     0.000000     0.000000     0.000000     0.000000
    8    -1.000000   180.000000     1.000000     0.000000     0.000000     0.000000     0.000000     0.000000
 
 Subroutine IBZKPT returns following result:
 ===========================================
 
 Found      7 irreducible k-points:
 
 Following reciprocal coordinates:
            Coordinates               Weight
  0.000000  0.000000  0.000000      1.000000
  0.250000  0.000000  0.000000      4.000000
  0.500000  0.000000  0.000000      2.000000
  0.000000  0.250000  0.000000      2.000000
  0.500000  0.250000  0.000000      2.000000
 -0.250000  0.250000  0.000000      4.000000
  0.000000  0.500000  0.000000      1.000000
 
 Following cartesian coordinates:
            Coordinates               Weight
  0.000000  0.000000  0.000000      1.000000
  0.048132 -0.027790  0.000000      4.000000
  0.096265 -0.055580  0.000000      2.000000
  0.000000  0.055580  0.000000      2.000000
  0.096265  0.000000  0.000000      2.000000
 -0.048132  0.083370  0.000000      4.000000
  0.000000  0.111161  0.000000      1.000000
 


--------------------------------------------------------------------------------------------------------




 Dimension of arrays:
   k-points           NKPTS =      7   k-points in BZ     NKDIM =      7   number of bands    NBANDS=     21
   number of dos      NEDOS =    301   number of ions     NIONS =      8
   non local maximal  LDIM  =      4   non local SUM 2l+1 LMDIM =      8
   total plane-waves  NPLWV = ******
   max r-space proj   IRMAX =    671   max aug-charges    IRDMAX=    759
   dimension x,y,z NGX =   140 NGY =  140 NGZ =  420
   dimension x,y,z NGXF=   168 NGYF=  168 NGZF=  512
   support grid    NGXF=   168 NGYF=  168 NGZF=  512
   ions per type =               2   6
   NGX,Y,Z   is equivalent  to a cutoff of   8.74,  8.74,  8.51 a.u.
   NGXF,Y,Z  is equivalent  to a cutoff of  10.49, 10.49, 10.38 a.u.

 SYSTEM =  BC3 Practice                            
 POSCAR =  BC3 with lattice parameter 5.126A, C-C l

 Startparameter for this run:
   NWRITE =      2    write-flag & timer
   PREC   = low       normal or accurate (medium, high low for compatibility)
   ISTART =      0    job   : 0-new  1-cont  2-samecut
   ICHARG =      2    charge: 1-file 2-atom 10-const
   ISPIN  =      1    spin polarized calculation?
   LNONCOLLINEAR =      F non collinear calculations
   LSORBIT =      F    spin-orbit coupling
   INIWAV =      1    electr: 0-lowe 1-rand  2-diag
   LASPH  =      F    aspherical Exc in radial PAW
   METAGGA=      F    non-selfconsistent MetaGGA calc.

 Electronic Relaxation 1
   ENCUT  =  400.0 eV  29.40 Ry    5.42 a.u.  43.42 43.42133.75*2*pi/ulx,y,z
   ENINI  =  400.0     initial cutoff
   ENAUG  =  644.9 eV  augmentation charge cutoff
   NELM   =    200;   NELMIN=  2; NELMDL= -5     # of ELM steps 
   EDIFF  = 0.1E-02   stopping-criterion for ELM
   LREAL  =      T    real-space projection
   NLSPLINE    = F    spline interpolate recip. space projectors
   LCOMPAT=      F    compatible to vasp.4.4
   GGA_COMPAT  = T    GGA compatible to vasp.4.4-vasp.4.6
   LMAXPAW     = -100 max onsite density
   LMAXMIX     =    2 max onsite mixed and CHGCAR
   VOSKOWN=      0    Vosko Wilk Nusair interpolation
   ROPT   =   -0.01000  -0.01000
 Ionic relaxation
   EDIFFG = -.1E-02   stopping-criterion for IOM
   NSW    =     40    number of steps for IOM
   NBLOCK =      1;   KBLOCK =     40    inner block; outer block 
   IBRION =      2    ionic relax: 0-MD 1-quasi-New 2-CG
   NFREE  =      1    steps in history (QN), initial steepest desc. (CG)
   ISIF   =      3    stress and relaxation
   IWAVPR =     11    prediction:  0-non 1-charg 2-wave 3-comb
   ISYM   =      2    0-nonsym 1-usesym 2-fastsym
   LCORR  =      T    Harris-Foulkes like correction to forces

   POTIM  = 0.1000    time-step for ionic-motion
   TEIN   =    0.0    initial temperature
   TEBEG  =    0.0;   TEEND  =   0.0 temperature during run
   SMASS  =  -3.00    Nose mass-parameter (am)
   estimated Nose-frequenzy (Omega)   =  0.10E-29 period in steps =****** mass=  -0.162E-25a.u.
   SCALEE = 1.0000    scale energy and forces
   NPACO  =    256;   APACO  = 16.0  distance and # of slots for P.C.
   PSTRESS=    0.0 pullay stress

  Mass of Ions in am
   POMASS =  10.81 12.01
  Ionic Valenz
   ZVAL   =   3.00  4.00
  Atomic Wigner-Seitz radii
   RWIGS  =  -1.00 -1.00
  virtual crystal weights 
   VCA    =   1.00  1.00
   NELECT =      30.0000    total number of electrons
   NUPDOWN=      -1.0000    fix difference up-down

 DOS related values:
   EMIN   =  10.00;   EMAX   =-10.00  energy-range for DOS
   EFERMI =   0.00
   ISMEAR =     0;   SIGMA  =   0.10  broadening in eV -4-tet -1-fermi 0-gaus

 Electronic relaxation 2 (details)
   IALGO  =     38    algorithm
   LDIAG  =      T    sub-space diagonalisation (order eigenvalues)
   LSUBROT=      F    optimize rotation matrix (better conditioning)
   TURBO    =      0    0=normal 1=particle mesh
   IRESTART =      0    0=no restart 2=restart with 2 vectors
   NREBOOT  =      0    no. of reboots
   NMIN     =      0    reboot dimension
   EREF     =   0.00    reference energy to select bands
   IMIX   =      4    mixing-type and parameters
     AMIX     =   0.40;   BMIX     =  1.00
     AMIX_MAG =   1.60;   BMIX_MAG =  1.00
     AMIN     =   0.10
     WC   =   100.;   INIMIX=   1;  MIXPRE=   1;  MAXMIX= -45

 Intra band minimization:
   WEIMIN = 0.0010     energy-eigenvalue tresh-hold
   EBREAK =  0.12E-05  absolut break condition
   DEPER  =   0.30     relativ break condition  

   TIME   =   0.40     timestep for ELM

  volume/ion in A,a.u.               =    6293.43     42470.14
  Fermi-wavevector in a.u.,A,eV,Ry     =   0.137760  0.260328  0.258209  0.018978
  Thomas-Fermi vector in A             =   0.791435
 
 Write flags
   LWAVE        =      T    write WAVECAR
   LDOWNSAMPLE  =      F    k-point downsampling of WAVECAR
   LCHARG       =      T    write CHGCAR
   LVTOT        =      F    write LOCPOT, total local potential
   LVHAR        =      F    write LOCPOT, Hartree potential only
   LELF         =      F    write electronic localiz. function (ELF)
   LORBIT       =      0    0 simple, 1 ext, 2 COOP (PROOUT), +10 PAW based schemes


 Dipole corrections
   LMONO  =      F    monopole corrections only (constant potential shift)
   LDIPOL =      F    correct potential (dipole corrections)
   IDIPOL =      0    1-x, 2-y, 3-z, 4-all directions 
   EPSILON=  1.0000000 bulk dielectric constant

 Exchange correlation treatment:
   GGA     =    --    GGA type
   LEXCH   =     8    internal setting for exchange type
   VOSKOWN=      0    Vosko Wilk Nusair interpolation
   LHFCALC =     F    Hartree Fock is set to
   LHFONE  =     F    Hartree Fock one center treatment
   AEXX    =    0.0000 exact exchange contribution

 Linear response parameters
   LEPSILON=     F    determine dielectric tensor
   LRPA    =     F    only Hartree local field effects (RPA)
   LNABLA  =     F    use nabla operator in PAW spheres
   LVEL    =     F    velocity operator in full k-point grid
   LINTERFAST=   F  fast interpolation
   KINTER  =     0    interpolate to denser k-point grid
   CSHIFT  =0.1000    complex shift for real part using Kramers Kronig
   OMEGAMAX=  -1.0    maximum frequency
   DEG_THRESHOLD= 0.2000000E-02 threshold for treating states as degnerate
   RTIME   =   -0.100 relaxation time in fs
  (WPLASMAI=    0.000 imaginary part of plasma frequency in eV, 0.658/RTIME)
   DFIELD  = 0.0000000 0.0000000 0.0000000 field for delta impulse in time
 
 Orbital magnetization related:
   ORBITALMAG=     F  switch on orbital magnetization
   LCHIMAG   =     F  perturbation theory with respect to B field
   DQ        =  0.001000  dq finite difference perturbation B field
   LLRAUG    =     F  two centre corrections for induced B field


 ----------------------------------------------------------------------------- 
|                                                                             |
|           W    W    AA    RRRRR   N    N  II  N    N   GGGG   !!!           |
|           W    W   A  A   R    R  NN   N  II  NN   N  G    G  !!!           |
|           W    W  A    A  R    R  N N  N  II  N N  N  G       !!!           |
|           W WW W  AAAAAA  RRRRR   N  N N  II  N  N N  G  GGG   !            |
|           WW  WW  A    A  R   R   N   NN  II  N   NN  G    G                |
|           W    W  A    A  R    R  N    N  II  N    N   GGGG   !!!           |
|                                                                             |
|      One of the lattice vectors is very long (>50 A), but AMIN is rather    |
|      large. This can spoil convergence since charge sloshing might occur    |
|      along the long lattice vector. If problems with convergence are        |
|      observed, try to decrease AMIN to a smaller values (e.g. 0.01).        |
|      Note: this warning only applies if the selfconsistency cycle is used.  |
|                                                                             |
 ----------------------------------------------------------------------------- 



--------------------------------------------------------------------------------------------------------


 conjugate gradient relaxation of ions
 charge density and potential will be updated during run
 non-spin polarized calculation
 Variant of blocked Davidson
 Davidson routine will perform the subspace rotation
 perform sub-space diagonalisation
    after iterative eigenvector-optimisation
 modified Broyden-mixing scheme, WC =      100.0
 initial mixing is a Kerker type mixing with AMIX =  0.4000 and BMIX =      1.0000
 Hartree-type preconditioning will be used
 using additional bands            6
 real space projection scheme for non local part
 use partial core corrections
 calculate Harris-corrections to forces 
   (improved forces if not selfconsistent)
 use gradient corrections 
 use of overlap-Matrix (Vanderbilt PP)
 Gauss-broadening in eV      SIGMA  =   0.10


--------------------------------------------------------------------------------------------------------


  energy-cutoff  :      400.00
  volume of cell :    50347.42
      direct lattice vectors                 reciprocal lattice vectors
    26.624444000  0.000000000  0.000000000     0.037559470 -0.021685625  0.000000000
    13.312222000 23.056748000  0.000000000     0.000000000  0.043371251  0.000000000
     0.000000000  0.000000000 82.016000000     0.000000000  0.000000000  0.012192743

  length of vectors
    26.624444000 26.623840499 82.016000000     0.043370268  0.043371251  0.012192743


 
 k-points in units of 2pi/SCALE and weight: K-points for BC3                        
   0.00000000  0.00000000  0.00000000       0.062
   0.04813246 -0.02779013  0.00000000       0.250
   0.09626492 -0.05558026  0.00000000       0.125
   0.00000000  0.05558026  0.00000000       0.125
   0.09626492  0.00000000  0.00000000       0.125
  -0.04813246  0.08337039  0.00000000       0.250
   0.00000000  0.11116052  0.00000000       0.062
 
 k-points in reciprocal lattice and weights: K-points for BC3                        
   0.00000000  0.00000000  0.00000000       0.062
   0.25000000  0.00000000  0.00000000       0.250
   0.50000000  0.00000000  0.00000000       0.125
   0.00000000  0.25000000  0.00000000       0.125
   0.50000000  0.25000000  0.00000000       0.125
  -0.25000000  0.25000000  0.00000000       0.250
   0.00000000  0.50000000  0.00000000       0.062
 
 position of ions in fractional coordinates (direct lattice) 
   0.33337039  0.33325923  0.00000000
   0.66662961  0.66674077  0.00000000
   0.15824301  0.15829257  0.00000000
   0.68346442  0.15829257  0.00000000
   0.15829257  0.68341485  0.00000000
   0.84175699  0.84170743  0.00000000
   0.31653558  0.84170743  0.00000000
   0.84170743  0.31658515  0.00000000
 
 position of ions in cartesian coordinates  (Angst):
  13.31222200  7.68387400  0.00000000
  26.62444400 15.37287400  0.00000000
   6.32035800  3.64971200  0.00000000
  20.30408600  3.64971200  0.00000000
  13.31222200 15.75732400  0.00000000
  33.61630800 19.40703600  0.00000000
  19.63258000 19.40703600  0.00000000
  26.62444400  7.29942400  0.00000000
 


--------------------------------------------------------------------------------------------------------


 k-point  1 :   0.0000 0.0000 0.0000  plane waves:  914839
 k-point  2 :   0.2500 0.0000 0.0000  plane waves:  914575
 k-point  3 :   0.5000 0.0000 0.0000  plane waves:  914576
 k-point  4 :   0.0000 0.2500 0.0000  plane waves:  914575
 k-point  5 :   0.5000 0.2500 0.0000  plane waves:  914573
 k-point  6 :  -0.2500 0.2500 0.0000  plane waves:  914577
 k-point  7 :   0.0000 0.5000 0.0000  plane waves:  914576

 maximum and minimum number of plane-waves per node :    228796   228576

 maximum number of plane-waves:    914839
 maximum index in each direction: 
   IXMAX=   43   IYMAX=   43   IZMAX=  133
   IXMIN=  -43   IYMIN=  -43   IZMIN= -133


 real space projection operators:
  total allocation   :        298.75 KBytes
  max/ min on nodes  :         76.12         71.00


 parallel 3D FFT for wavefunctions:
    minimum data exchange during FFTs selected (reduces bandwidth)
 parallel 3D FFT for charge:
    minimum data exchange during FFTs selected (reduces bandwidth)


 total amount of memory used by VASP MPI-rank0   469237. kBytes
=======================================================================

   base      :      30000. kBytes
   nonlr-proj:        171. kBytes
   fftplans  :     109766. kBytes
   grid      :     150023. kBytes
   one-center:          6. kBytes
   wavefun   :     179271. kBytes
 
     INWAV:  cpu time    0.0000: real time    0.0000
 Broyden mixing: mesh for mixing (old mesh)
   NGX = 87   NGY = 87   NGZ =267
  (NGX  =168   NGY  =168   NGZ  =512)
  gives a total of ****** points

 initial charge density was supplied:
 charge density of overlapping atoms calculated
 number of electron      30.0000000 magnetization 
 keeping initial charge density in first step


--------------------------------------------------------------------------------------------------------


 Maximum index for non-local projection operator          153
 Maximum index for augmentation-charges           45 (set IRDMAX)


--------------------------------------------------------------------------------------------------------


 First call to EWALD:  gamma=   0.048
 Maximum number of real-space cells 4x 4x 2
 Maximum number of reciprocal cells 2x 2x 6

    FEWALD:  cpu time    0.0073: real time    0.0073


--------------------------------------- Iteration      1(   1)  ---------------------------------------


    POTLOK:  cpu time    1.2970: real time    1.2980
    SETDIJ:  cpu time    0.0067: real time    0.0067
     EDDAV:  cpu time   79.7448: real time   79.7451
       DOS:  cpu time    0.0052: real time    0.0052
    --------------------------------------------
      LOOP:  cpu time   81.0536: real time   81.0550

 eigenvalue-minimisations  :   420
 total energy-change (2. order) : 0.1306156E+03  (-0.3222277E+03)
 number of electron      30.0000000 magnetization 
 augmentation part       30.0000000 magnetization 

 Free energy of the ion-electron system (eV)
  ---------------------------------------------------
  alpha Z        PSCENC =         0.10075004
  Ewald energy   TEWEN  =       558.30175961
  -Hartree energ DENC   =     -1382.33775543
  -exchange      EXHF   =         0.00000000
  -V(xc)+E(xc)   XCENC  =        73.24055123
  PAW double counting   =       738.13200929     -739.83780425
  entropy T*S    EENTRO =        -0.16143353
  eigenvalues    EBANDS =      -141.92239372
  atomic energy  EATOM  =      1025.09994095
  Solvation  Ediel_sol  =         0.00000000
  ---------------------------------------------------
  free energy    TOTEN  =       130.61562419 eV

  energy without entropy =      130.77705771  energy(sigma->0) =      130.69634095


--------------------------------------------------------------------------------------------------------




--------------------------------------- Iteration      1(   2)  ---------------------------------------


     EDDAV:  cpu time   78.6066: real time   78.6086
       DOS:  cpu time    0.0052: real time    0.0052
    --------------------------------------------
      LOOP:  cpu time   78.6118: real time   78.6138

 eigenvalue-minimisations  :   516
 total energy-change (2. order) :-0.7595509E+02  (-0.7527819E+02)
 number of electron      30.0000000 magnetization 
 augmentation part       30.0000000 magnetization 

 Free energy of the ion-electron system (eV)
  ---------------------------------------------------
  alpha Z        PSCENC =         0.10075004
  Ewald energy   TEWEN  =       558.30175961
  -Hartree energ DENC   =     -1382.33775543
  -exchange      EXHF   =         0.00000000
  -V(xc)+E(xc)   XCENC  =        73.24055123
  PAW double counting   =       738.13200929     -739.83780425
  entropy T*S    EENTRO =        -0.10602064
  eigenvalues    EBANDS =      -217.93289630
  atomic energy  EATOM  =      1025.09994095
  Solvation  Ediel_sol  =         0.00000000
  ---------------------------------------------------
  free energy    TOTEN  =        54.66053449 eV

  energy without entropy =       54.76655513  energy(sigma->0) =       54.71354481


--------------------------------------------------------------------------------------------------------




--------------------------------------- Iteration      1(   3)  ---------------------------------------


     EDDAV:  cpu time   68.6298: real time   68.6319
       DOS:  cpu time    0.0055: real time    0.0055
    --------------------------------------------
      LOOP:  cpu time   68.6353: real time   68.6373

 eigenvalue-minimisations  :   435
 total energy-change (2. order) :-0.4095608E+02  (-0.4060348E+02)
 number of electron      30.0000000 magnetization 
 augmentation part       30.0000000 magnetization 

 Free energy of the ion-electron system (eV)
  ---------------------------------------------------
  alpha Z        PSCENC =         0.10075004
  Ewald energy   TEWEN  =       558.30175961
  -Hartree energ DENC   =     -1382.33775543
  -exchange      EXHF   =         0.00000000
  -V(xc)+E(xc)   XCENC  =        73.24055123
  PAW double counting   =       738.13200929     -739.83780425
  entropy T*S    EENTRO =        -0.08858547
  eigenvalues    EBANDS =      -258.90640659
  atomic energy  EATOM  =      1025.09994095
  Solvation  Ediel_sol  =         0.00000000
  ---------------------------------------------------
  free energy    TOTEN  =        13.70445937 eV

  energy without entropy =       13.79304485  energy(sigma->0) =       13.74875211


--------------------------------------------------------------------------------------------------------




--------------------------------------- Iteration      1(   4)  ---------------------------------------


     EDDAV:  cpu time   51.3705: real time   51.3719
       DOS:  cpu time    0.0063: real time    0.0063
    --------------------------------------------
      LOOP:  cpu time   51.3768: real time   51.3782

 eigenvalue-minimisations  :   294
 total energy-change (2. order) :-0.1621425E+02  (-0.1474828E+02)
 number of electron      30.0000000 magnetization 
 augmentation part       30.0000000 magnetization 

 Free energy of the ion-electron system (eV)
  ---------------------------------------------------
  alpha Z        PSCENC =         0.10075004
  Ewald energy   TEWEN  =       558.30175961
  -Hartree energ DENC   =     -1382.33775543
  -exchange      EXHF   =         0.00000000
  -V(xc)+E(xc)   XCENC  =        73.24055123
  PAW double counting   =       738.13200929     -739.83780425
  entropy T*S    EENTRO =        -0.01732346
  eigenvalues    EBANDS =      -275.19191911
  atomic energy  EATOM  =      1025.09994095
  Solvation  Ediel_sol  =         0.00000000
  ---------------------------------------------------
  free energy    TOTEN  =        -2.50979114 eV

  energy without entropy =       -2.49246768  energy(sigma->0) =       -2.50112941


--------------------------------------------------------------------------------------------------------




--------------------------------------- Iteration      1(   5)  ---------------------------------------


     EDDAV:  cpu time   79.8817: real time   79.8820
       DOS:  cpu time    0.0062: real time    0.0062
    CHARGE:  cpu time    7.6249: real time    7.6249
    MIXING:  cpu time    0.0450: real time    0.0451
    --------------------------------------------
      LOOP:  cpu time   87.5578: real time   87.5582

 eigenvalue-minimisations  :   516
 total energy-change (2. order) :-0.1226486E+01  (-0.8787403E+00)
 number of electron      30.0000055 magnetization 
 augmentation part       -0.2561662 magnetization 

 Broyden mixing:
  rms(total) = 0.45917E+00    rms(broyden)= 0.45900E+00
  rms(prec ) = 0.47582E+00
  weight for this iteration     100.00

 Free energy of the ion-electron system (eV)
  ---------------------------------------------------
  alpha Z        PSCENC =         0.10075004
  Ewald energy   TEWEN  =       558.30175961
  -Hartree energ DENC   =     -1382.33775543
  -exchange      EXHF   =         0.00000000
  -V(xc)+E(xc)   XCENC  =        73.24055123
  PAW double counting   =       738.13200929     -739.83780425
  entropy T*S    EENTRO =        -0.56400440
  eigenvalues    EBANDS =      -275.87172433
  atomic energy  EATOM  =      1025.09994095
  Solvation  Ediel_sol  =         0.00000000
  ---------------------------------------------------
  free energy    TOTEN  =        -3.73627730 eV

  energy without entropy =       -3.17227290  energy(sigma->0) =       -3.45427510


--------------------------------------------------------------------------------------------------------




--------------------------------------- Iteration      1(   6)  ---------------------------------------


    POTLOK:  cpu time    1.1943: real time    1.1955
    SETDIJ:  cpu time    0.0030: real time    0.0030
     EDDAV:  cpu time   57.0118: real time   57.0123
       DOS:  cpu time    0.0108: real time    0.0108
    CHARGE:  cpu time    8.5713: real time    8.5713
    MIXING:  cpu time    0.0634: real time    0.0634
    --------------------------------------------
      LOOP:  cpu time   66.8546: real time   66.8563

 eigenvalue-minimisations  :   351
 total energy-change (2. order) : 0.3451728E+01  (-0.3467880E+00)
 number of electron      30.0000128 magnetization 
 augmentation part       -0.2741148 magnetization 

 Broyden mixing:
  rms(total) = 0.51821E+00    rms(broyden)= 0.51796E+00
  rms(prec ) = 0.53644E+00
  weight for this iteration     100.00

 eigenvalues of (default mixing * dielectric matrix)
  average eigenvalue GAMMA=   0.3956
  0.3956

 Free energy of the ion-electron system (eV)
  ---------------------------------------------------
  alpha Z        PSCENC =         0.10075004
  Ewald energy   TEWEN  =       558.30175961
  -Hartree energ DENC   =     -1392.07075515
  -exchange      EXHF   =         0.00000000
  -V(xc)+E(xc)   XCENC  =        73.85241172
  PAW double counting   =       767.61030508     -769.33550138
  entropy T*S    EENTRO =        -0.68701503
  eigenvalues    EBANDS =      -263.15644538
  atomic energy  EATOM  =      1025.09994095
  Solvation  Ediel_sol  =         0.00000000
  ---------------------------------------------------
  free energy    TOTEN  =        -0.28454956 eV

  energy without entropy =        0.40246547  energy(sigma->0) =        0.05895796


--------------------------------------------------------------------------------------------------------




--------------------------------------- Iteration      1(   7)  ---------------------------------------


    POTLOK:  cpu time    1.1559: real time    1.1575
    SETDIJ:  cpu time    0.0029: real time    0.0029
     EDDAV:  cpu time   85.0518: real time   85.0522
       DOS:  cpu time    0.0129: real time    0.0129
    CHARGE:  cpu time    6.2268: real time    6.2268
    MIXING:  cpu time    0.0745: real time    0.0745
    --------------------------------------------
      LOOP:  cpu time   92.5247: real time   92.5266

 eigenvalue-minimisations  :   579
 total energy-change (2. order) :-0.6662290E+01  (-0.4551042E+01)
 number of electron      30.0000040 magnetization 
 augmentation part       -0.3015188 magnetization 

 Broyden mixing:
  rms(total) = 0.25496E+01    rms(broyden)= 0.25487E+01
  rms(prec ) = 0.26146E+01
  weight for this iteration     100.00

 eigenvalues of (default mixing * dielectric matrix)
  average eigenvalue GAMMA=   0.6324
  1.2061  0.0588

 Free energy of the ion-electron system (eV)
  ---------------------------------------------------
  alpha Z        PSCENC =         0.10075004
  Ewald energy   TEWEN  =       558.30175961
  -Hartree energ DENC   =     -1394.12031795
  -exchange      EXHF   =         0.00000000
  -V(xc)+E(xc)   XCENC  =        73.95348430
  PAW double counting   =       775.44126590     -777.16069795
  entropy T*S    EENTRO =        -0.04587894
  eigenvalues    EBANDS =      -268.51714581
  atomic energy  EATOM  =      1025.09994095
  Solvation  Ediel_sol  =         0.00000000
  ---------------------------------------------------
  free energy    TOTEN  =        -6.94683986 eV

  energy without entropy =       -6.90096092  energy(sigma->0) =       -6.92390039


--------------------------------------------------------------------------------------------------------




--------------------------------------- Iteration      1(   8)  ---------------------------------------


    POTLOK:  cpu time    1.1754: real time    1.1765
    SETDIJ:  cpu time    0.0027: real time    0.0027
     EDDAV:  cpu time   77.3339: real time   77.3342
       DOS:  cpu time    0.0105: real time    0.0105
    CHARGE:  cpu time    7.7730: real time    7.7730
    MIXING:  cpu time    0.0766: real time    0.0766
    --------------------------------------------
      LOOP:  cpu time   86.3720: real time   86.3734

 eigenvalue-minimisations  :   498
 total energy-change (2. order) :-0.1296229E+02  (-0.1645805E+02)
 number of electron      29.9999746 magnetization 
 augmentation part       -0.4635062 magnetization 

 Broyden mixing:
  rms(total) = 0.27347E+01    rms(broyden)= 0.27340E+01
  rms(prec ) = 0.28195E+01
  weight for this iteration     100.00

 eigenvalues of (default mixing * dielectric matrix)
  average eigenvalue GAMMA=   0.2691
  0.3735  0.3735  0.0601

 Free energy of the ion-electron system (eV)
  ---------------------------------------------------
  alpha Z        PSCENC =         0.10075004
  Ewald energy   TEWEN  =       558.30175961
  -Hartree energ DENC   =     -1396.83849938
  -exchange      EXHF   =         0.00000000
  -V(xc)+E(xc)   XCENC  =        74.10400183
  PAW double counting   =       789.89813783     -791.59717927
  entropy T*S    EENTRO =        -0.21720316
  eigenvalues    EBANDS =      -278.76083970
  atomic energy  EATOM  =      1025.09994095
  Solvation  Ediel_sol  =         0.00000000
  ---------------------------------------------------
  free energy    TOTEN  =       -19.90913126 eV

  energy without entropy =      -19.69192809  energy(sigma->0) =      -19.80052967


--------------------------------------------------------------------------------------------------------




--------------------------------------- Iteration      1(   9)  ---------------------------------------


    POTLOK:  cpu time    1.1562: real time    1.1572
    SETDIJ:  cpu time    0.0025: real time    0.0025
     EDDAV:  cpu time   70.2855: real time   70.2854
       DOS:  cpu time    0.0124: real time    0.0124
    CHARGE:  cpu time    7.7629: real time    7.7629
    MIXING:  cpu time    0.0858: real time    0.0858
    --------------------------------------------
      LOOP:  cpu time   79.3054: real time   79.3062

 eigenvalue-minimisations  :   393
 total energy-change (2. order) : 0.1891892E+02  (-0.5741378E+01)
 number of electron      30.0000124 magnetization 
 augmentation part       -0.2596359 magnetization 

 Broyden mixing:
  rms(total) = 0.13804E+01    rms(broyden)= 0.13796E+01
  rms(prec ) = 0.14173E+01
  weight for this iteration     100.00

 eigenvalues of (default mixing * dielectric matrix)
  average eigenvalue GAMMA=   0.2487
  0.3809  0.3809  0.1796  0.0535

 Free energy of the ion-electron system (eV)
  ---------------------------------------------------
  alpha Z        PSCENC =         0.10075004
  Ewald energy   TEWEN  =       558.30175961
  -Hartree energ DENC   =     -1386.78050094
  -exchange      EXHF   =         0.00000000
  -V(xc)+E(xc)   XCENC  =        73.52706887
  PAW double counting   =       759.71796301     -761.39809040
  entropy T*S    EENTRO =        -0.01522843
  eigenvalues    EBANDS =      -269.54387556
  atomic energy  EATOM  =      1025.09994095
  Solvation  Ediel_sol  =         0.00000000
  ---------------------------------------------------
  free energy    TOTEN  =        -0.99021286 eV

  energy without entropy =       -0.97498443  energy(sigma->0) =       -0.98259865


--------------------------------------------------------------------------------------------------------




--------------------------------------- Iteration      1(  10)  ---------------------------------------


    POTLOK:  cpu time    1.1568: real time    1.1579
    SETDIJ:  cpu time    0.0029: real time    0.0029
     EDDAV:  cpu time   85.7265: real time   85.7269
       DOS:  cpu time    0.0172: real time    0.0172
    CHARGE:  cpu time    7.7868: real time    7.7868
    MIXING:  cpu time    0.0972: real time    0.0972
    --------------------------------------------
      LOOP:  cpu time   94.7874: real time   94.7889

 eigenvalue-minimisations  :   495
 total energy-change (2. order) : 0.2355837E+00  (-0.2997858E-01)
 number of electron      30.0000135 magnetization 
 augmentation part       -0.2592788 magnetization 

 Broyden mixing:
  rms(total) = 0.10674E+01    rms(broyden)= 0.10674E+01
  rms(prec ) = 0.10974E+01
  weight for this iteration     100.00

 eigenvalues of (default mixing * dielectric matrix)
  average eigenvalue GAMMA=   0.3225
  0.4703  0.4703  0.3084  0.3084  0.0553

 Free energy of the ion-electron system (eV)
  ---------------------------------------------------
  alpha Z        PSCENC =         0.10075004
  Ewald energy   TEWEN  =       558.30175961
  -Hartree energ DENC   =     -1386.66312475
  -exchange      EXHF   =         0.00000000
  -V(xc)+E(xc)   XCENC  =        73.50062007
  PAW double counting   =       760.38323573     -762.05954291
  entropy T*S    EENTRO =        -0.17109944
  eigenvalues    EBANDS =      -269.24716849
  atomic energy  EATOM  =      1025.09994095
  Solvation  Ediel_sol  =         0.00000000
  ---------------------------------------------------
  free energy    TOTEN  =        -0.75462919 eV

  energy without entropy =       -0.58352975  energy(sigma->0) =       -0.66907947


--------------------------------------------------------------------------------------------------------




--------------------------------------- Iteration      1(  11)  ---------------------------------------


    POTLOK:  cpu time    1.1573: real time    1.1584
    SETDIJ:  cpu time    0.0023: real time    0.0023
     EDDAV:  cpu time   76.4152: real time   76.4150
       DOS:  cpu time    0.0130: real time    0.0130
    CHARGE:  cpu time    6.9461: real time    6.9461
    MIXING:  cpu time    0.1135: real time    0.1135
    --------------------------------------------
      LOOP:  cpu time   84.6474: real time   84.6483

 eigenvalue-minimisations  :   447
 total energy-change (2. order) :-0.4553301E+00  (-0.3567893E+00)
 number of electron      30.0000162 magnetization 
 augmentation part       -0.2583934 magnetization 

 Broyden mixing:
  rms(total) = 0.52068E+00    rms(broyden)= 0.52034E+00
  rms(prec ) = 0.53679E+00
  weight for this iteration     100.00

 eigenvalues of (default mixing * dielectric matrix)
  average eigenvalue GAMMA=   0.3143
  0.5028  0.5028  0.3283  0.3283  0.0552  0.1684

 Free energy of the ion-electron system (eV)
  ---------------------------------------------------
  alpha Z        PSCENC =         0.10075004
  Ewald energy   TEWEN  =       558.30175961
  -Hartree energ DENC   =     -1386.21924482
  -exchange      EXHF   =         0.00000000
  -V(xc)+E(xc)   XCENC  =        73.47050000
  PAW double counting   =       758.68665210     -760.36010857
  entropy T*S    EENTRO =        -0.26695286
  eigenvalues    EBANDS =      -270.02325572
  atomic energy  EATOM  =      1025.09994095
  Solvation  Ediel_sol  =         0.00000000
  ---------------------------------------------------
  free energy    TOTEN  =        -1.20995926 eV

  energy without entropy =       -0.94300640  energy(sigma->0) =       -1.07648283


--------------------------------------------------------------------------------------------------------




--------------------------------------- Iteration      1(  12)  ---------------------------------------


    POTLOK:  cpu time    1.1447: real time    1.1459
    SETDIJ:  cpu time    0.0029: real time    0.0029
     EDDAV:  cpu time   72.4672: real time   72.4675
       DOS:  cpu time    0.0200: real time    0.0200
    CHARGE:  cpu time    6.8800: real time    6.8801
    MIXING:  cpu time    0.1281: real time    0.1281
    --------------------------------------------
      LOOP:  cpu time   80.6430: real time   80.6444

 eigenvalue-minimisations  :   489
 total energy-change (2. order) :-0.3158903E+00  (-0.2309623E+00)
 number of electron      30.0000174 magnetization 
 augmentation part       -0.2614803 magnetization 

 Broyden mixing:
  rms(total) = 0.59585E+00    rms(broyden)= 0.59543E+00
  rms(prec ) = 0.61183E+00
  weight for this iteration     100.00

 eigenvalues of (default mixing * dielectric matrix)
  average eigenvalue GAMMA=   0.2847
  0.5062  0.5062  0.3263  0.3263  0.2194  0.0552  0.0531

 Free energy of the ion-electron system (eV)
  ---------------------------------------------------
  alpha Z        PSCENC =         0.10075004
  Ewald energy   TEWEN  =       558.30175961
  -Hartree energ DENC   =     -1386.31730410
  -exchange      EXHF   =         0.00000000
  -V(xc)+E(xc)   XCENC  =        73.46741573
  PAW double counting   =       758.91305154     -760.58495473
  entropy T*S    EENTRO =        -0.30208356
  eigenvalues    EBANDS =      -270.20442499
  atomic energy  EATOM  =      1025.09994095
  Solvation  Ediel_sol  =         0.00000000
  ---------------------------------------------------
  free energy    TOTEN  =        -1.52584952 eV

  energy without entropy =       -1.22376595  energy(sigma->0) =       -1.37480773


--------------------------------------------------------------------------------------------------------




--------------------------------------- Iteration      1(  13)  ---------------------------------------


    POTLOK:  cpu time    1.1456: real time    1.1466
    SETDIJ:  cpu time    0.0028: real time    0.0028
     EDDAV:  cpu time   75.4390: real time   75.4390
       DOS:  cpu time    0.0225: real time    0.0225
    CHARGE:  cpu time    6.9037: real time    6.9037
    MIXING:  cpu time    0.1433: real time    0.1433
    --------------------------------------------
      LOOP:  cpu time   83.6569: real time   83.6579

 eigenvalue-minimisations  :   507
 total energy-change (2. order) :-0.3819462E+00  (-0.2713308E+00)
 number of electron      30.0000195 magnetization 
 augmentation part       -0.2566494 magnetization 

 Broyden mixing:
  rms(total) = 0.11614E+01    rms(broyden)= 0.11612E+01
  rms(prec ) = 0.11922E+01
  weight for this iteration     100.00

 eigenvalues of (default mixing * dielectric matrix)
  average eigenvalue GAMMA=   0.3453
  0.7578  0.7578  0.3377  0.3377  0.3043  0.0552  0.1229  0.0892

 Free energy of the ion-electron system (eV)
  ---------------------------------------------------
  alpha Z        PSCENC =         0.10075004
  Ewald energy   TEWEN  =       558.30175961
  -Hartree energ DENC   =     -1386.32219718
  -exchange      EXHF   =         0.00000000
  -V(xc)+E(xc)   XCENC  =        73.47140144
  PAW double counting   =       758.95292335     -760.62458772
  entropy T*S    EENTRO =        -0.25872507
  eigenvalues    EBANDS =      -270.62906112
  atomic energy  EATOM  =      1025.09994095
  Solvation  Ediel_sol  =         0.00000000
  ---------------------------------------------------
  free energy    TOTEN  =        -1.90779571 eV

  energy without entropy =       -1.64907064  energy(sigma->0) =       -1.77843318


--------------------------------------------------------------------------------------------------------




--------------------------------------- Iteration      1(  14)  ---------------------------------------


    POTLOK:  cpu time    1.1491: real time    1.1503
    SETDIJ:  cpu time    0.0024: real time    0.0024
     EDDAV:  cpu time   67.1164: real time   67.1165
       DOS:  cpu time    0.0225: real time    0.0225
    CHARGE:  cpu time    6.8612: real time    6.8612
    MIXING:  cpu time    0.1598: real time    0.1598
    --------------------------------------------
      LOOP:  cpu time   75.3114: real time   75.3127

 eigenvalue-minimisations  :   444
 total energy-change (2. order) :-0.1271199E+01  (-0.2935055E+00)
 number of electron      30.0000168 magnetization 
 augmentation part       -0.2486081 magnetization 

 Broyden mixing:
  rms(total) = 0.15066E+01    rms(broyden)= 0.15065E+01
  rms(prec ) = 0.15467E+01
  weight for this iteration     100.00

 eigenvalues of (default mixing * dielectric matrix)
  average eigenvalue GAMMA=   0.4814
  1.2589  0.8891  0.8891  0.3998  0.3277  0.3277  0.0552  0.1043  0.0811

 Free energy of the ion-electron system (eV)
  ---------------------------------------------------
  alpha Z        PSCENC =         0.10075004
  Ewald energy   TEWEN  =       558.30175961
  -Hartree energ DENC   =     -1385.18056687
  -exchange      EXHF   =         0.00000000
  -V(xc)+E(xc)   XCENC  =        73.42223187
  PAW double counting   =       754.79572608     -756.46052500
  entropy T*S    EENTRO =        -0.22817210
  eigenvalues    EBANDS =      -273.03013915
  atomic energy  EATOM  =      1025.09994095
  Solvation  Ediel_sol  =         0.00000000
  ---------------------------------------------------
  free energy    TOTEN  =        -3.17899457 eV

  energy without entropy =       -2.95082247  energy(sigma->0) =       -3.06490852


--------------------------------------------------------------------------------------------------------




--------------------------------------- Iteration      1(  15)  ---------------------------------------


    POTLOK:  cpu time    1.1491: real time    1.1502
    SETDIJ:  cpu time    0.0023: real time    0.0023
     EDDAV:  cpu time   74.7871: real time   74.7871
       DOS:  cpu time    0.0231: real time    0.0231
    CHARGE:  cpu time    6.8810: real time    6.8810
    MIXING:  cpu time    0.1752: real time    0.1752
    --------------------------------------------
      LOOP:  cpu time   83.0179: real time   83.0190

 eigenvalue-minimisations  :   507
 total energy-change (2. order) :-0.5680465E+00  (-0.1605228E+00)
 number of electron      30.0000132 magnetization 
 augmentation part       -0.2514173 magnetization 

 Broyden mixing:
  rms(total) = 0.15531E+01    rms(broyden)= 0.15530E+01
  rms(prec ) = 0.15949E+01
  weight for this iteration     100.00

 eigenvalues of (default mixing * dielectric matrix)
  average eigenvalue GAMMA=   0.5826
  1.5662  1.5662  0.7078  0.7078  0.3854  0.3245  0.3245  0.0552  0.1072  0.0810

 Free energy of the ion-electron system (eV)
  ---------------------------------------------------
  alpha Z        PSCENC =         0.10075004
  Ewald energy   TEWEN  =       558.30175961
  -Hartree energ DENC   =     -1387.07947909
  -exchange      EXHF   =         0.00000000
  -V(xc)+E(xc)   XCENC  =        73.54048423
  PAW double counting   =       760.60570852     -762.27561456
  entropy T*S    EENTRO =        -0.29771697
  eigenvalues    EBANDS =      -271.74287376
  atomic energy  EATOM  =      1025.09994095
  Solvation  Ediel_sol  =         0.00000000
  ---------------------------------------------------
  free energy    TOTEN  =        -3.74704104 eV

  energy without entropy =       -3.44932407  energy(sigma->0) =       -3.59818255


--------------------------------------------------------------------------------------------------------




--------------------------------------- Iteration      1(  16)  ---------------------------------------


    POTLOK:  cpu time    1.1528: real time    1.1539
    SETDIJ:  cpu time    0.0030: real time    0.0030
     EDDAV:  cpu time   73.4097: real time   73.4100
       DOS:  cpu time    0.0223: real time    0.0223
    CHARGE:  cpu time    6.3494: real time    6.3494
    MIXING:  cpu time    0.1936: real time    0.1936
    --------------------------------------------
      LOOP:  cpu time   81.1307: real time   81.1321

 eigenvalue-minimisations  :   501
 total energy-change (2. order) : 0.8265792E-02  (-0.6786210E-01)
 number of electron      30.0000102 magnetization 
 augmentation part       -0.2476854 magnetization 

 Broyden mixing:
  rms(total) = 0.15572E+01    rms(broyden)= 0.15571E+01
  rms(prec ) = 0.15987E+01
  weight for this iteration     100.00

 eigenvalues of (default mixing * dielectric matrix)
  average eigenvalue GAMMA=   0.5480
  1.5632  1.5632  0.7115  0.7115  0.3247  0.3247  0.3834  0.0810  0.0552  0.1069
  0.2032

 Free energy of the ion-electron system (eV)
  ---------------------------------------------------
  alpha Z        PSCENC =         0.10075004
  Ewald energy   TEWEN  =       558.30175961
  -Hartree energ DENC   =     -1386.32075626
  -exchange      EXHF   =         0.00000000
  -V(xc)+E(xc)   XCENC  =        73.47037620
  PAW double counting   =       762.66546431     -764.32632642
  entropy T*S    EENTRO =        -0.39209647
  eigenvalues    EBANDS =      -272.33788720
  atomic energy  EATOM  =      1025.09994095
  Solvation  Ediel_sol  =         0.00000000
  ---------------------------------------------------
  free energy    TOTEN  =        -3.73877525 eV

  energy without entropy =       -3.34667877  energy(sigma->0) =       -3.54272701


--------------------------------------------------------------------------------------------------------




--------------------------------------- Iteration      1(  17)  ---------------------------------------


    POTLOK:  cpu time    1.1396: real time    1.1409
    SETDIJ:  cpu time    0.0024: real time    0.0024
     EDDAV:  cpu time   72.6615: real time   72.6615
       DOS:  cpu time    0.0219: real time    0.0219
    CHARGE:  cpu time    6.3440: real time    6.3440
    MIXING:  cpu time    0.2123: real time    0.2123
    --------------------------------------------
      LOOP:  cpu time   80.3816: real time   80.3829

 eigenvalue-minimisations  :   492
 total energy-change (2. order) : 0.1199693E+01  (-0.2855292E-01)
 number of electron      30.0000103 magnetization 
 augmentation part       -0.2519330 magnetization 

 Broyden mixing:
  rms(total) = 0.15039E+01    rms(broyden)= 0.15039E+01
  rms(prec ) = 0.15446E+01
  weight for this iteration     100.00

 eigenvalues of (default mixing * dielectric matrix)
  average eigenvalue GAMMA=   0.6066
  1.9787  1.1273  0.8078  0.8078  0.6370  0.6370  0.3880  0.3261  0.3261  0.0552
  0.0810  0.1071

 Free energy of the ion-electron system (eV)
  ---------------------------------------------------
  alpha Z        PSCENC =         0.10075004
  Ewald energy   TEWEN  =       558.30175961
  -Hartree energ DENC   =     -1386.31482954
  -exchange      EXHF   =         0.00000000
  -V(xc)+E(xc)   XCENC  =        73.46118611
  PAW double counting   =       764.91747869     -766.58228790
  entropy T*S    EENTRO =        -0.45609198
  eigenvalues    EBANDS =      -271.06698850
  atomic energy  EATOM  =      1025.09994095
  Solvation  Ediel_sol  =         0.00000000
  ---------------------------------------------------
  free energy    TOTEN  =        -2.53908253 eV

  energy without entropy =       -2.08299055  energy(sigma->0) =       -2.31103654


--------------------------------------------------------------------------------------------------------




--------------------------------------- Iteration      1(  18)  ---------------------------------------


    POTLOK:  cpu time    1.1376: real time    1.1385
    SETDIJ:  cpu time    0.0024: real time    0.0024
     EDDAV:  cpu time   80.4636: real time   80.4637
       DOS:  cpu time    0.0223: real time    0.0223
    CHARGE:  cpu time    6.3541: real time    6.3542
    MIXING:  cpu time    0.2307: real time    0.2307
    --------------------------------------------
      LOOP:  cpu time   88.2105: real time   88.2117

 eigenvalue-minimisations  :   552
 total energy-change (2. order) : 0.3612473E+00  (-0.1506728E-01)
 number of electron      30.0000098 magnetization 
 augmentation part       -0.2532165 magnetization 

 Broyden mixing:
  rms(total) = 0.14396E+01    rms(broyden)= 0.14395E+01
  rms(prec ) = 0.14787E+01
  weight for this iteration     100.00

 eigenvalues of (default mixing * dielectric matrix)
  average eigenvalue GAMMA=   0.5712
  2.1485  1.0644  0.7949  0.7949  0.6271  0.6271  0.3883  0.3259  0.3259  0.0810
  0.0552  0.1071  0.0853

 Free energy of the ion-electron system (eV)
  ---------------------------------------------------
  alpha Z        PSCENC =         0.10075004
  Ewald energy   TEWEN  =       558.30175961
  -Hartree energ DENC   =     -1386.50580764
  -exchange      EXHF   =         0.00000000
  -V(xc)+E(xc)   XCENC  =        73.46559232
  PAW double counting   =       765.97802161     -767.64309209
  entropy T*S    EENTRO =        -0.50679387
  eigenvalues    EBANDS =      -270.46820613
  atomic energy  EATOM  =      1025.09994095
  Solvation  Ediel_sol  =         0.00000000
  ---------------------------------------------------
  free energy    TOTEN  =        -2.17783520 eV

  energy without entropy =       -1.67104134  energy(sigma->0) =       -1.92443827


--------------------------------------------------------------------------------------------------------




--------------------------------------- Iteration      1(  19)  ---------------------------------------


    POTLOK:  cpu time    1.1387: real time    1.1400
    SETDIJ:  cpu time    0.0019: real time    0.0019
     EDDAV:  cpu time   74.5698: real time   74.5698
       DOS:  cpu time    0.0228: real time    0.0228
    CHARGE:  cpu time    6.4947: real time    6.4946
    MIXING:  cpu time    0.2477: real time    0.2477
    --------------------------------------------
      LOOP:  cpu time   82.4756: real time   82.4769

 eigenvalue-minimisations  :   501
 total energy-change (2. order) : 0.2216872E+00  (-0.1034777E-01)
 number of electron      30.0000089 magnetization 
 augmentation part       -0.2537355 magnetization 

 Broyden mixing:
  rms(total) = 0.12327E+01    rms(broyden)= 0.12327E+01
  rms(prec ) = 0.12666E+01
  weight for this iteration     100.00

 eigenvalues of (default mixing * dielectric matrix)
  average eigenvalue GAMMA=   0.6249
  2.0962  0.8824  0.8824  1.0519  0.7419  0.7533  0.7533  0.3258  0.3258  0.3892
  0.3037  0.0552  0.1070  0.0810

 Free energy of the ion-electron system (eV)
  ---------------------------------------------------
  alpha Z        PSCENC =         0.10075004
  Ewald energy   TEWEN  =       558.30175961
  -Hartree energ DENC   =     -1386.36502529
  -exchange      EXHF   =         0.00000000
  -V(xc)+E(xc)   XCENC  =        73.45335887
  PAW double counting   =       766.02767981     -767.69319066
  entropy T*S    EENTRO =        -0.61068386
  eigenvalues    EBANDS =      -270.27073750
  atomic energy  EATOM  =      1025.09994095
  Solvation  Ediel_sol  =         0.00000000
  ---------------------------------------------------
  free energy    TOTEN  =        -1.95614803 eV

  energy without entropy =       -1.34546417  energy(sigma->0) =       -1.65080610


--------------------------------------------------------------------------------------------------------




--------------------------------------- Iteration      1(  20)  ---------------------------------------


    POTLOK:  cpu time    1.1377: real time    1.1388
    SETDIJ:  cpu time    0.0021: real time    0.0021
     EDDAV:  cpu time   83.8823: real time   83.8824
       DOS:  cpu time    0.0229: real time    0.0229
    CHARGE:  cpu time    6.3835: real time    6.3835
    MIXING:  cpu time    0.2772: real time    0.2772
    --------------------------------------------
      LOOP:  cpu time   91.7056: real time   91.7069

 eigenvalue-minimisations  :   570
 total energy-change (2. order) :-0.3086218E+00  (-0.1987812E-01)
 number of electron      30.0000087 magnetization 
 augmentation part       -0.2519969 magnetization 

 Broyden mixing:
  rms(total) = 0.14520E+01    rms(broyden)= 0.14520E+01
  rms(prec ) = 0.14913E+01
  weight for this iteration     100.00

 eigenvalues of (default mixing * dielectric matrix)
  average eigenvalue GAMMA=   0.5939
  1.8710  1.2594  0.7848  0.7848  0.6603  0.6603  0.6715  0.6715  0.3259  0.3259
  0.3862  0.0552  0.0810  0.1070  0.2631

 Free energy of the ion-electron system (eV)
  ---------------------------------------------------
  alpha Z        PSCENC =         0.10075004
  Ewald energy   TEWEN  =       558.30175961
  -Hartree energ DENC   =     -1386.38543609
  -exchange      EXHF   =         0.00000000
  -V(xc)+E(xc)   XCENC  =        73.45249911
  PAW double counting   =       766.12238142     -767.78866098
  entropy T*S    EENTRO =        -0.53400680
  eigenvalues    EBANDS =      -270.63399704
  atomic energy  EATOM  =      1025.09994095
  Solvation  Ediel_sol  =         0.00000000
  ---------------------------------------------------
  free energy    TOTEN  =        -2.26476978 eV

  energy without entropy =       -1.73076298  energy(sigma->0) =       -1.99776638


--------------------------------------------------------------------------------------------------------




--------------------------------------- Iteration      1(  21)  ---------------------------------------


    POTLOK:  cpu time    1.1414: real time    1.1425
    SETDIJ:  cpu time    0.0027: real time    0.0027
     EDDAV:  cpu time   75.5790: real time   75.5791
       DOS:  cpu time    0.0170: real time    0.0170
    CHARGE:  cpu time    6.3260: real time    6.3261
    MIXING:  cpu time    0.3069: real time    0.3069
    --------------------------------------------
      LOOP:  cpu time   83.3730: real time   83.3742

 eigenvalue-minimisations  :   483
 total energy-change (2. order) :-0.1134504E-01  (-0.1838638E-01)
 number of electron      30.0000075 magnetization 
 augmentation part       -0.2524946 magnetization 

 Broyden mixing:
  rms(total) = 0.14599E+01    rms(broyden)= 0.14599E+01
  rms(prec ) = 0.14992E+01
  weight for this iteration     100.00

 eigenvalues of (default mixing * dielectric matrix)
  average eigenvalue GAMMA=   0.7191
  2.2469  1.7072  1.3947  0.9426  0.9426  0.7506  0.7506  0.6149  0.6149  0.3258
  0.3258  0.3823  0.0552  0.0810  0.1070  0.2632

 Free energy of the ion-electron system (eV)
  ---------------------------------------------------
  alpha Z        PSCENC =         0.10075004
  Ewald energy   TEWEN  =       558.30175961
  -Hartree energ DENC   =     -1386.32282311
  -exchange      EXHF   =         0.00000000
  -V(xc)+E(xc)   XCENC  =        73.45354007
  PAW double counting   =       765.66433377     -767.32914702
  entropy T*S    EENTRO =        -0.54695387
  eigenvalues    EBANDS =      -270.69751526
  atomic energy  EATOM  =      1025.09994095
  Solvation  Ediel_sol  =         0.00000000
  ---------------------------------------------------
  free energy    TOTEN  =        -2.27611482 eV

  energy without entropy =       -1.72916095  energy(sigma->0) =       -2.00263789


--------------------------------------------------------------------------------------------------------




--------------------------------------- Iteration      1(  22)  ---------------------------------------


    POTLOK:  cpu time    1.1570: real time    1.1586
    SETDIJ:  cpu time    0.0021: real time    0.0021
     EDDAV:  cpu time   82.8691: real time   82.8692
       DOS:  cpu time    0.0212: real time    0.0212
    CHARGE:  cpu time    6.5866: real time    6.5866
    MIXING:  cpu time    0.3318: real time    0.3318
    --------------------------------------------
      LOOP:  cpu time   90.9678: real time   90.9695

 eigenvalue-minimisations  :   552
 total energy-change (2. order) :-0.5979407E+00  (-0.4177556E-01)
 number of electron      30.0000052 magnetization 
 augmentation part       -0.2523809 magnetization 

 Broyden mixing:
  rms(total) = 0.15564E+01    rms(broyden)= 0.15563E+01
  rms(prec ) = 0.15978E+01
  weight for this iteration     100.00

 eigenvalues of (default mixing * dielectric matrix)
  average eigenvalue GAMMA=   0.6772
  2.2984  1.3482  0.9241  0.9241  0.9000  0.9000  0.7525  0.7525  0.5848  0.5848
  0.3257  0.3257  0.3813  0.0552  0.0810  0.1070  0.2662

 Free energy of the ion-electron system (eV)
  ---------------------------------------------------
  alpha Z        PSCENC =         0.10075004
  Ewald energy   TEWEN  =       558.30175961
  -Hartree energ DENC   =     -1387.13742005
  -exchange      EXHF   =         0.00000000
  -V(xc)+E(xc)   XCENC  =        73.51943075
  PAW double counting   =       768.74124089     -770.41291780
  entropy T*S    EENTRO =        -0.52819856
  eigenvalues    EBANDS =      -270.55864132
  atomic energy  EATOM  =      1025.09994095
  Solvation  Ediel_sol  =         0.00000000
  ---------------------------------------------------
  free energy    TOTEN  =        -2.87405549 eV

  energy without entropy =       -2.34585693  energy(sigma->0) =       -2.60995621


--------------------------------------------------------------------------------------------------------




--------------------------------------- Iteration      1(  23)  ---------------------------------------


    POTLOK:  cpu time    1.1548: real time    1.1559
    SETDIJ:  cpu time    0.0024: real time    0.0024
     EDDAV:  cpu time   70.5437: real time   70.5437
       DOS:  cpu time    0.0212: real time    0.0212
    CHARGE:  cpu time    6.5603: real time    6.5603
    MIXING:  cpu time    0.3627: real time    0.3628
    --------------------------------------------
      LOOP:  cpu time   78.6451: real time   78.6463

 eigenvalue-minimisations  :   456
 total energy-change (2. order) : 0.5336430E+00  (-0.2214151E-01)
 number of electron      30.0000043 magnetization 
 augmentation part       -0.2537791 magnetization 

 Broyden mixing:
  rms(total) = 0.15323E+01    rms(broyden)= 0.15323E+01
  rms(prec ) = 0.15731E+01
  weight for this iteration     100.00

 eigenvalues of (default mixing * dielectric matrix)
  average eigenvalue GAMMA=   0.6700
  2.2357  1.3827  1.0897  1.0897  0.9142  0.9142  0.7594  0.7594  0.5998  0.5998
  0.3257  0.3257  0.3819  0.0810  0.0552  0.2658  0.1070  0.1727

 Free energy of the ion-electron system (eV)
  ---------------------------------------------------
  alpha Z        PSCENC =         0.10075004
  Ewald energy   TEWEN  =       558.30175961
  -Hartree energ DENC   =     -1387.05815127
  -exchange      EXHF   =         0.00000000
  -V(xc)+E(xc)   XCENC  =        73.51612433
  PAW double counting   =       768.31163639     -769.98071885
  entropy T*S    EENTRO =        -0.55843454
  eigenvalues    EBANDS =      -270.07331913
  atomic energy  EATOM  =      1025.09994095
  Solvation  Ediel_sol  =         0.00000000
  ---------------------------------------------------
  free energy    TOTEN  =        -2.34041249 eV

  energy without entropy =       -1.78197795  energy(sigma->0) =       -2.06119522


--------------------------------------------------------------------------------------------------------




--------------------------------------- Iteration      1(  24)  ---------------------------------------


    POTLOK:  cpu time    1.1542: real time    1.1552
    SETDIJ:  cpu time    0.0028: real time    0.0028
     EDDAV:  cpu time   85.5767: real time   85.5768
       DOS:  cpu time    0.0222: real time    0.0222
    CHARGE:  cpu time    6.5963: real time    6.5964
    MIXING:  cpu time    0.3912: real time    0.3912
    --------------------------------------------
      LOOP:  cpu time   93.7434: real time   93.7446

 eigenvalue-minimisations  :   585
 total energy-change (2. order) :-0.2045546E-01  (-0.1570231E-01)
 number of electron      30.0000032 magnetization 
 augmentation part       -0.2534681 magnetization 

 Broyden mixing:
  rms(total) = 0.15538E+01    rms(broyden)= 0.15538E+01
  rms(prec ) = 0.15949E+01
  weight for this iteration     100.00

 eigenvalues of (default mixing * dielectric matrix)
  average eigenvalue GAMMA=   0.6994
  2.2296  1.2177  1.2177  1.4001  0.8954  0.8954  0.9330  0.9330  0.6960  0.3257
  0.3257  0.4644  0.4644  0.3948  0.3948  0.0552  0.0810  0.1070  0.2578

 Free energy of the ion-electron system (eV)
  ---------------------------------------------------
  alpha Z        PSCENC =         0.10075004
  Ewald energy   TEWEN  =       558.30175961
  -Hartree energ DENC   =     -1387.05802423
  -exchange      EXHF   =         0.00000000
  -V(xc)+E(xc)   XCENC  =        73.52042832
  PAW double counting   =       768.33596457     -770.00520630
  entropy T*S    EENTRO =        -0.59388533
  eigenvalues    EBANDS =      -270.06259558
  atomic energy  EATOM  =      1025.09994095
  Solvation  Ediel_sol  =         0.00000000
  ---------------------------------------------------
  free energy    TOTEN  =        -2.36086795 eV

  energy without entropy =       -1.76698262  energy(sigma->0) =       -2.06392529


--------------------------------------------------------------------------------------------------------




--------------------------------------- Iteration      1(  25)  ---------------------------------------


    POTLOK:  cpu time    1.1551: real time    1.1560
    SETDIJ:  cpu time    0.0021: real time    0.0021
     EDDAV:  cpu time   62.7901: real time   62.7902
       DOS:  cpu time    0.0231: real time    0.0231
    CHARGE:  cpu time    6.4059: real time    6.4058
    MIXING:  cpu time    0.4217: real time    0.4217
    --------------------------------------------
      LOOP:  cpu time   70.7979: real time   70.7990

 eigenvalue-minimisations  :   411
 total energy-change (2. order) :-0.8087991E+00  (-0.3244904E-01)
 number of electron      30.0000017 magnetization 
 augmentation part       -0.2491510 magnetization 

 Broyden mixing:
  rms(total) = 0.15755E+01    rms(broyden)= 0.15755E+01
  rms(prec ) = 0.16165E+01
  weight for this iteration     100.00

 eigenvalues of (default mixing * dielectric matrix)
  average eigenvalue GAMMA=   0.7932
  2.3971  1.9248  1.9248  1.2177  1.2177  0.9867  0.9867  0.8332  0.8332  0.6407
  0.6407  0.3823  0.3257  0.3257  0.3603  0.3603  0.0810  0.0552  0.1070  0.2624

 Free energy of the ion-electron system (eV)
  ---------------------------------------------------
  alpha Z        PSCENC =         0.10075004
  Ewald energy   TEWEN  =       558.30175961
  -Hartree energ DENC   =     -1386.26421377
  -exchange      EXHF   =         0.00000000
  -V(xc)+E(xc)   XCENC  =        73.48550107
  PAW double counting   =       764.08047170     -765.74551889
  entropy T*S    EENTRO =        -0.61835502
  eigenvalues    EBANDS =      -271.61000276
  atomic energy  EATOM  =      1025.09994095
  Solvation  Ediel_sol  =         0.00000000
  ---------------------------------------------------
  free energy    TOTEN  =        -3.16966707 eV

  energy without entropy =       -2.55131205  energy(sigma->0) =       -2.86048956


--------------------------------------------------------------------------------------------------------




--------------------------------------- Iteration      1(  26)  ---------------------------------------


    POTLOK:  cpu time    1.1646: real time    1.1660
    SETDIJ:  cpu time    0.0019: real time    0.0019
     EDDAV:  cpu time   94.7976: real time   94.7977
       DOS:  cpu time    0.0150: real time    0.0150
    CHARGE:  cpu time    6.4400: real time    6.4400
    MIXING:  cpu time    0.4461: real time    0.4460
    --------------------------------------------
      LOOP:  cpu time  102.8651: real time  102.8666

 eigenvalue-minimisations  :   585
 total energy-change (2. order) :-0.1706455E+00  (-0.1987147E-01)
 number of electron      30.0000002 magnetization 
 augmentation part       -0.2491260 magnetization 

 Broyden mixing:
  rms(total) = 0.15965E+01    rms(broyden)= 0.15965E+01
  rms(prec ) = 0.16378E+01
  weight for this iteration     100.00

 eigenvalues of (default mixing * dielectric matrix)
  average eigenvalue GAMMA=   0.9061
  2.9609  3.3850  2.5221  1.1725  1.1725  1.0405  1.0405  0.7325  0.7325  0.8005
  0.5578  0.5578  0.3257  0.3257  0.3834  0.4062  0.4062  0.0552  0.0810  0.1070
  0.2623

 Free energy of the ion-electron system (eV)
  ---------------------------------------------------
  alpha Z        PSCENC =         0.10075004
  Ewald energy   TEWEN  =       558.30175961
  -Hartree energ DENC   =     -1386.46197617
  -exchange      EXHF   =         0.00000000
  -V(xc)+E(xc)   XCENC  =        73.50371368
  PAW double counting   =       764.76322117     -766.43044352
  entropy T*S    EENTRO =        -0.61890603
  eigenvalues    EBANDS =      -271.59837233
  atomic energy  EATOM  =      1025.09994095
  Solvation  Ediel_sol  =         0.00000000
  ---------------------------------------------------
  free energy    TOTEN  =        -3.34031262 eV

  energy without entropy =       -2.72140658  energy(sigma->0) =       -3.03085960


--------------------------------------------------------------------------------------------------------




--------------------------------------- Iteration      1(  27)  ---------------------------------------


    POTLOK:  cpu time    1.1653: real time    1.1663
    SETDIJ:  cpu time    0.0018: real time    0.0018
     EDDAV:  cpu time   72.4538: real time   72.4537
       DOS:  cpu time    0.0130: real time    0.0130
    CHARGE:  cpu time    6.4551: real time    6.4552
    MIXING:  cpu time    0.4741: real time    0.4741
    --------------------------------------------
      LOOP:  cpu time   80.5632: real time   80.5642

 eigenvalue-minimisations  :   423
 total energy-change (2. order) : 0.1440145E+00  (-0.8746066E-02)
 number of electron      29.9999986 magnetization 
 augmentation part       -0.2507227 magnetization 

 Broyden mixing:
  rms(total) = 0.16082E+01    rms(broyden)= 0.16082E+01
  rms(prec ) = 0.16492E+01
  weight for this iteration     100.00

 eigenvalues of (default mixing * dielectric matrix)
  average eigenvalue GAMMA=   0.9849
  5.1734  3.0206  2.3454  1.2052  1.2052  1.0405  1.0405  0.7367  0.7367  0.7384
  0.7384  0.6645  0.6645  0.3830  0.3257  0.3257  0.4086  0.4086  0.0810  0.0552
  0.1070  0.2622

 Free energy of the ion-electron system (eV)
  ---------------------------------------------------
  alpha Z        PSCENC =         0.10075004
  Ewald energy   TEWEN  =       558.30175961
  -Hartree energ DENC   =     -1387.11085520
  -exchange      EXHF   =         0.00000000
  -V(xc)+E(xc)   XCENC  =        73.53399724
  PAW double counting   =       767.08054886     -768.74686672
  entropy T*S    EENTRO =        -0.61316032
  eigenvalues    EBANDS =      -270.84241263
  atomic energy  EATOM  =      1025.09994095
  Solvation  Ediel_sol  =         0.00000000
  ---------------------------------------------------
  free energy    TOTEN  =        -3.19629817 eV

  energy without entropy =       -2.58313785  energy(sigma->0) =       -2.88971801


--------------------------------------------------------------------------------------------------------




--------------------------------------- Iteration      1(  28)  ---------------------------------------


    POTLOK:  cpu time    1.1665: real time    1.1675
    SETDIJ:  cpu time    0.0021: real time    0.0021
     EDDAV:  cpu time   90.9566: real time   90.9566
       DOS:  cpu time    0.0094: real time    0.0094
    CHARGE:  cpu time    6.3382: real time    6.3382
    MIXING:  cpu time    0.5087: real time    0.5087
    --------------------------------------------
      LOOP:  cpu time   98.9814: real time   98.9824

 eigenvalue-minimisations  :   576
 total energy-change (2. order) :-0.1068773E+00  (-0.5931609E-02)
 number of electron      29.9999986 magnetization 
 augmentation part       -0.2505025 magnetization 

 Broyden mixing:
  rms(total) = 0.16151E+01    rms(broyden)= 0.16151E+01
  rms(prec ) = 0.16562E+01
  weight for this iteration     100.00

 eigenvalues of (default mixing * dielectric matrix)
  average eigenvalue GAMMA=   1.0014
  5.7403  3.0596  2.4456  1.1840  1.1840  1.0536  1.0536  0.7163  0.7163  0.8020
  0.8020  0.6462  0.6462  0.6339  0.3257  0.3257  0.3830  0.4049  0.4049  0.0552
  0.0810  0.1070  0.2622

 Free energy of the ion-electron system (eV)
  ---------------------------------------------------
  alpha Z        PSCENC =         0.10075004
  Ewald energy   TEWEN  =       558.30175961
  -Hartree energ DENC   =     -1387.22913960
  -exchange      EXHF   =         0.00000000
  -V(xc)+E(xc)   XCENC  =        73.54098905
  PAW double counting   =       767.09026845     -768.75520131
  entropy T*S    EENTRO =        -0.62738732
  eigenvalues    EBANDS =      -270.82515534
  atomic energy  EATOM  =      1025.09994095
  Solvation  Ediel_sol  =         0.00000000
  ---------------------------------------------------
  free energy    TOTEN  =        -3.30317546 eV

  energy without entropy =       -2.67578814  energy(sigma->0) =       -2.98948180


[...]


--------------------------------------------------------------------------------------------------------




--------------------------------------- Iteration      1( 126)  ---------------------------------------


    POTLOK:  cpu time    0.8586: real time    0.8599
    SETDIJ:  cpu time    0.0014: real time    0.0014
     EDDAV:  cpu time   55.7774: real time   55.7775
       DOS:  cpu time    0.0212: real time    0.0212
    CHARGE:  cpu time    5.8366: real time    5.8366
    MIXING:  cpu time    0.9135: real time    0.9135
    --------------------------------------------
      LOOP:  cpu time   63.4088: real time   63.4102

 eigenvalue-minimisations  :   519
 total energy-change (2. order) :-0.1607133E+00  (-0.5662300E-01)
 number of electron      30.0000172 magnetization 
 augmentation part       -0.2460700 magnetization 

 Broyden mixing:
  rms(total) = 0.10788E+01    rms(broyden)= 0.10788E+01
  rms(prec ) = 0.11074E+01
  weight for this iteration     100.00

 eigenvalues of (default mixing * dielectric matrix)
  average eigenvalue GAMMA=   1.2893
  6.5126  4.1076  3.7324  3.7324  3.6079  2.8395  2.8395  2.6229  2.0515  2.0515
  1.6738  1.6738  1.6571  1.6571  1.0631  1.0631  1.0347  1.0347  0.7531  0.7531
  0.7235  0.6698  0.6698  0.5882  0.5882  0.5974  0.1895  0.1895  0.5097  0.3714
  0.3714  0.2210  0.2210  0.2612  0.0887  0.0465  0.0465  0.0313  0.0050  0.0048
  0.0048

 Free energy of the ion-electron system (eV)
  ---------------------------------------------------
  alpha Z        PSCENC =         0.10075004
  Ewald energy   TEWEN  =       558.30175961
  -Hartree energ DENC   =     -1385.40843458
  -exchange      EXHF   =         0.00000000
  -V(xc)+E(xc)   XCENC  =        73.44258956
  PAW double counting   =       762.49291405     -764.15389344
  entropy T*S    EENTRO =        -0.50697169
  eigenvalues    EBANDS =      -272.34277322
  atomic energy  EATOM  =      1025.09994095
  Solvation  Ediel_sol  =         0.00000000
  ---------------------------------------------------
  free energy    TOTEN  =        -2.97411874 eV

  energy without entropy =       -2.46714704  energy(sigma->0) =       -2.72063289


--------------------------------------------------------------------------------------------------------




--------------------------------------- Iteration      1( 127)  ---------------------------------------


    POTLOK:  cpu time    0.8597: real time    0.8608
    SETDIJ:  cpu time    0.0015: real time    0.0015
     EDDAV:  cpu time   57.1724: real time   57.1726
       DOS:  cpu time    0.0207: real time    0.0207
    CHARGE:  cpu time    5.8420: real time    5.8420
    MIXING:  cpu time    0.9576: real time    0.9576
    --------------------------------------------
      LOOP:  cpu time   64.8539: real time   64.8552

 eigenvalue-minimisations  :   531
 total energy-change (2. order) : 0.3811929E+00  (-0.1908943E-01)
 number of electron      30.0000162 magnetization 
 augmentation part       -0.2497492 magnetization 

 Broyden mixing:
  rms(total) = 0.10303E+01    rms(broyden)= 0.10303E+01
  rms(prec ) = 0.10580E+01
  weight for this iteration     100.00

 eigenvalues of (default mixing * dielectric matrix)
  average eigenvalue GAMMA=   1.2944
  6.1895  4.7286  4.7286  3.2158  3.2158  2.8386  2.8386  2.7708  2.0926  2.0926
  1.7677  1.7677  1.6906  1.6906  1.0594  1.0594  0.5315  1.0082  1.0082  0.7533
  0.7533  0.6747  0.6747  0.5901  0.5901  0.7279  0.2128  0.5986  0.5189  0.4962
  0.3298  0.3298  0.1947  0.1947  0.2057  0.0875  0.0431  0.0431  0.0314  0.0118
  0.0049  0.0017

 Free energy of the ion-electron system (eV)
  ---------------------------------------------------
  alpha Z        PSCENC =         0.10075004
  Ewald energy   TEWEN  =       558.30175961
  -Hartree energ DENC   =     -1385.74064844
  -exchange      EXHF   =         0.00000000
  -V(xc)+E(xc)   XCENC  =        73.43064052
  PAW double counting   =       762.39508039     -764.05506672
  entropy T*S    EENTRO =        -0.54493343
  eigenvalues    EBANDS =      -271.58044879
  atomic energy  EATOM  =      1025.09994095
  Solvation  Ediel_sol  =         0.00000000
  ---------------------------------------------------
  free energy    TOTEN  =        -2.59292588 eV

  energy without entropy =       -2.04799246  energy(sigma->0) =       -2.32045917


--------------------------------------------------------------------------------------------------------




--------------------------------------- Iteration      1( 128)  ---------------------------------------


    POTLOK:  cpu time    0.8568: real time    0.8579
    SETDIJ:  cpu time    0.0015: real time    0.0015
     EDDAV:  cpu time   44.1577: real time   44.1579
       DOS:  cpu time    0.0210: real time    0.0210
    CHARGE:  cpu time    5.8225: real time    5.8225
    MIXING:  cpu time    1.0042: real time    1.0042
    --------------------------------------------
      LOOP:  cpu time   51.8636: real time   51.8649

 eigenvalue-minimisations  :   387
 total energy-change (2. order) : 0.5653347E+00  (-0.1387619E-01)
 number of electron      30.0000161 magnetization 
 augmentation part       -0.2515142 magnetization 

 Broyden mixing:
  rms(total) = 0.46094E+00    rms(broyden)= 0.46045E+00
  rms(prec ) = 0.47431E+00
  weight for this iteration     100.00

 eigenvalues of (default mixing * dielectric matrix)
  average eigenvalue GAMMA=   1.2965
  6.1846  4.8320  4.8320  3.3772  2.8739  2.8739  2.9329  2.9329  1.9867  1.9867
  1.9699  1.9699  1.7851  1.7851  1.0882  1.0882  0.4357  1.0079  1.0079  0.8819
  0.8819  0.1871  0.6766  0.6766  0.6805  0.6805  0.5776  0.5776  0.5217  0.4576
  0.4576  0.4170  0.3277  0.3277  0.1216  0.1216  0.0659  0.0659  0.0475  0.0292
  0.0067  0.0097  0.0035

 Free energy of the ion-electron system (eV)
  ---------------------------------------------------
  alpha Z        PSCENC =         0.10075004
  Ewald energy   TEWEN  =       558.30175961
  -Hartree energ DENC   =     -1385.82273694
  -exchange      EXHF   =         0.00000000
  -V(xc)+E(xc)   XCENC  =        73.38762588
  PAW double counting   =       761.51219512     -763.16954802
  entropy T*S    EENTRO =        -0.72761440
  eigenvalues    EBANDS =      -270.70996340
  atomic energy  EATOM  =      1025.09994095
  Solvation  Ediel_sol  =         0.00000000
  ---------------------------------------------------
  free energy    TOTEN  =        -2.02759117 eV

  energy without entropy =       -1.29997677  energy(sigma->0) =       -1.66378397


--------------------------------------------------------------------------------------------------------




--------------------------------------- Iteration      1( 129)  ---------------------------------------


    POTLOK:  cpu time    0.8472: real time    0.8474
    SETDIJ:  cpu time    0.0015: real time    0.0015
     EDDAV:  cpu time   48.5770: real time   48.5773
       DOS:  cpu time    0.0210: real time    0.0210
    CHARGE:  cpu time    5.8067: real time    5.8067
    MIXING:  cpu time    1.0528: real time    1.0529
    --------------------------------------------
      LOOP:  cpu time   56.3062: real time   56.3067

 eigenvalue-minimisations  :   438
 total energy-change (2. order) : 0.6400099E-02  (-0.5445886E-03)
 number of electron      30.0000163 magnetization 
 augmentation part       -0.2514597 magnetization 

 Broyden mixing:
  rms(total) = 0.45998E+00    rms(broyden)= 0.45995E+00
  rms(prec ) = 0.47390E+00
  weight for this iteration     100.00

 eigenvalues of (default mixing * dielectric matrix)
  average eigenvalue GAMMA=   1.3324
  7.0376  4.9183  4.0757  4.0757  3.2751  3.1274  2.5848  2.5848  2.0941  2.0941
  2.0905  2.0905  1.8739  1.8739  1.0366  1.0366  0.4300  1.0816  1.0816  0.9953
  0.9953  0.4081  0.4081  0.7090  0.7090  0.7625  0.7625  0.5745  0.5745  0.5784
  0.5292  0.5292  0.3698  0.3698  0.3820  0.1373  0.1373  0.1065  0.0290  0.0399
  0.0399  0.0028  0.0035  0.0101

 Free energy of the ion-electron system (eV)
  ---------------------------------------------------
  alpha Z        PSCENC =         0.10075004
  Ewald energy   TEWEN  =       558.30175961
  -Hartree energ DENC   =     -1385.37637015
  -exchange      EXHF   =         0.00000000
  -V(xc)+E(xc)   XCENC  =        73.33059427
  PAW double counting   =       759.88559046     -761.53823750
  entropy T*S    EENTRO =        -0.72800920
  eigenvalues    EBANDS =      -271.09720955
  atomic energy  EATOM  =      1025.09994095
  Solvation  Ediel_sol  =         0.00000000
  ---------------------------------------------------
  free energy    TOTEN  =        -2.02119108 eV

  energy without entropy =       -1.29318188  energy(sigma->0) =       -1.65718648


--------------------------------------------------------------------------------------------------------




--------------------------------------- Iteration      1( 130)  ---------------------------------------


    POTLOK:  cpu time    0.8525: real time    0.8537
    SETDIJ:  cpu time    0.0012: real time    0.0012
     EDDAV:  cpu time   50.0383: real time   50.0384
       DOS:  cpu time    0.0204: real time    0.0204
    CHARGE:  cpu time    5.8453: real time    5.8454
    MIXING:  cpu time    0.9410: real time    0.9410
    --------------------------------------------
      LOOP:  cpu time   57.6987: real time   57.7001

 eigenvalue-minimisations  :   453
 total energy-change (2. order) :-0.5620950E-02  (-0.4078104E-03)
 number of electron      30.0000158 magnetization 
 augmentation part       -0.2514425 magnetization 

 Broyden mixing:
  rms(total) = 0.45457E+00    rms(broyden)= 0.45457E+00
  rms(prec ) = 0.46856E+00
  weight for this iteration     100.00

 eigenvalues of (default mixing * dielectric matrix)
  average eigenvalue GAMMA=   1.1989
  7.1393  1.6154  1.9480  1.9480  3.4349  2.5384  2.5384  2.9289  2.9289  2.4510
  2.2219  2.2219  0.5833  0.5833  1.1967  1.1967  0.9523  0.9523  0.8043  0.8043
  0.5170  0.5170  0.8592  0.6870  0.6870  0.5678  0.5678  0.4397  0.4397  0.5909
  0.4494  0.3276  0.0838  0.0838  0.0613  0.0482  0.0144  0.0107  0.0107  0.0033

 Free energy of the ion-electron system (eV)
  ---------------------------------------------------
  alpha Z        PSCENC =         0.10075004
  Ewald energy   TEWEN  =       558.30175961
  -Hartree energ DENC   =     -1385.19426189
  -exchange      EXHF   =         0.00000000
  -V(xc)+E(xc)   XCENC  =        73.31123384
  PAW double counting   =       759.12686443     -760.77812674
  entropy T*S    EENTRO =        -0.72682858
  eigenvalues    EBANDS =      -271.26814366
  atomic energy  EATOM  =      1025.09994095
  Solvation  Ediel_sol  =         0.00000000
  ---------------------------------------------------
  free energy    TOTEN  =        -2.02681203 eV

  energy without entropy =       -1.29998344  energy(sigma->0) =       -1.66339773


--------------------------------------------------------------------------------------------------------




--------------------------------------- Iteration      1( 131)  ---------------------------------------


    POTLOK:  cpu time    0.8532: real time    0.8534
    SETDIJ:  cpu time    0.0014: real time    0.0014
     EDDAV:  cpu time   48.9611: real time   48.9611
       DOS:  cpu time    0.0210: real time    0.0210
    CHARGE:  cpu time    5.8736: real time    5.8736
    MIXING:  cpu time    0.9066: real time    0.9066
    --------------------------------------------
      LOOP:  cpu time   56.6168: real time   56.6171

 eigenvalue-minimisations  :   441
 total energy-change (2. order) : 0.1903668E+00  (-0.9622055E-03)
 number of electron      30.0000155 magnetization 
 augmentation part       -0.2527781 magnetization 

 Broyden mixing:
  rms(total) = 0.45503E+00    rms(broyden)= 0.45502E+00
  rms(prec ) = 0.46896E+00
  weight for this iteration     100.00

 eigenvalues of (default mixing * dielectric matrix)
  average eigenvalue GAMMA=   1.2039
  7.6393  3.4400  2.9438  2.9119  2.7554  2.4621  2.4621  1.7937  1.7937  2.2271
  2.2271  0.9020  1.4292  1.3041  1.3041  0.6719  0.6719  0.2869  0.5361  0.5361
  0.9784  0.9784  0.5952  0.5952  0.7799  0.7799  0.8009  0.7420  0.5679  0.5679
  0.4536  0.4046  0.2400  0.2400  0.2212  0.0463  0.0247  0.0247  0.0100  0.0100
  0.0008

 Free energy of the ion-electron system (eV)
  ---------------------------------------------------
  alpha Z        PSCENC =         0.10075004
  Ewald energy   TEWEN  =       558.30175961
  -Hartree energ DENC   =     -1385.39532848
  -exchange      EXHF   =         0.00000000
  -V(xc)+E(xc)   XCENC  =        73.30713790
  PAW double counting   =       759.38380577     -761.03384833
  entropy T*S    EENTRO =        -0.72695499
  eigenvalues    EBANDS =      -270.87370769
  atomic energy  EATOM  =      1025.09994095
  Solvation  Ediel_sol  =         0.00000000
  ---------------------------------------------------
  free energy    TOTEN  =        -1.83644522 eV

  energy without entropy =       -1.10949023  energy(sigma->0) =       -1.47296773


--------------------------------------------------------------------------------------------------------




--------------------------------------- Iteration      1( 132)  ---------------------------------------


    POTLOK:  cpu time    0.8543: real time    0.8554
    SETDIJ:  cpu time    0.0015: real time    0.0015
     EDDAV:  cpu time   54.1919: real time   54.1921
       DOS:  cpu time    0.0213: real time    0.0213
    CHARGE:  cpu time    5.7413: real time    5.7413
    MIXING:  cpu time    0.9580: real time    0.9580
    --------------------------------------------
      LOOP:  cpu time   61.7683: real time   61.7696

 eigenvalue-minimisations  :   498
 total energy-change (2. order) :-0.2827162E-01  (-0.3163082E-03)
 number of electron      30.0000154 magnetization 
 augmentation part       -0.2523072 magnetization 

 Broyden mixing:
  rms(total) = 0.45915E+00    rms(broyden)= 0.45914E+00
  rms(prec ) = 0.47316E+00
  weight for this iteration     100.00

 eigenvalues of (default mixing * dielectric matrix)
  average eigenvalue GAMMA=   1.2206
  7.6054  3.3981  3.3981  2.8980  2.8980  2.3874  2.3874  2.3639  2.3639  1.7905
  1.7905  1.0845  0.6582  0.6582  1.4366  1.4366  0.3546  1.2508  1.0213  1.0213
  0.5563  0.5563  0.8112  0.8112  0.8932  0.5522  0.5522  0.7481  0.6604  0.5700
  0.5700  0.3274  0.3274  0.1619  0.0460  0.0185  0.0185  0.0079  0.0079  0.0049
  0.4052  0.4560

 Free energy of the ion-electron system (eV)
  ---------------------------------------------------
  alpha Z        PSCENC =         0.10075004
  Ewald energy   TEWEN  =       558.30175961
  -Hartree energ DENC   =     -1385.29928879
  -exchange      EXHF   =         0.00000000
  -V(xc)+E(xc)   XCENC  =        73.30240886
  PAW double counting   =       759.48464616     -761.13472511
  entropy T*S    EENTRO =        -0.72678946
  eigenvalues    EBANDS =      -270.99341910
  atomic energy  EATOM  =      1025.09994095
  Solvation  Ediel_sol  =         0.00000000
  ---------------------------------------------------
  free energy    TOTEN  =        -1.86471684 eV

  energy without entropy =       -1.13792738  energy(sigma->0) =       -1.50132211


--------------------------------------------------------------------------------------------------------




--------------------------------------- Iteration      1( 133)  ---------------------------------------


    POTLOK:  cpu time    0.8525: real time    0.8537
    SETDIJ:  cpu time    0.0015: real time    0.0015
     EDDAV:  cpu time   54.8808: real time   54.8814
       DOS:  cpu time    0.0211: real time    0.0211
    CHARGE:  cpu time    5.7841: real time    5.7841
    MIXING:  cpu time    1.0055: real time    1.0056
    --------------------------------------------
      LOOP:  cpu time   62.5456: real time   62.5475

 eigenvalue-minimisations  :   507
 total energy-change (2. order) : 0.7497554E-01  (-0.3172280E-02)
 number of electron      30.0000149 magnetization 
 augmentation part       -0.2531386 magnetization 

 Broyden mixing:
  rms(total) = 0.45232E+00    rms(broyden)= 0.45230E+00
  rms(prec ) = 0.46621E+00
  weight for this iteration     100.00

 eigenvalues of (default mixing * dielectric matrix)
  average eigenvalue GAMMA=   1.3056
  6.6245  5.5928  3.3998  3.3998  2.9084  2.9084  2.3767  2.3767  2.5902  1.7392
  1.7392  2.1123  2.1123  1.6011  0.6633  0.6633  1.0517  1.0517  0.6229  0.6229
  0.9863  0.8969  0.8969  0.7936  0.7936  0.5848  0.5848  0.7539  0.5542  0.5542
  0.5936  0.5936  0.3373  0.3373  0.4301  0.1533  0.0289  0.0289  0.0359  0.0123
  0.0161  0.0161  0.0002

 Free energy of the ion-electron system (eV)
  ---------------------------------------------------
  alpha Z        PSCENC =         0.10075004
  Ewald energy   TEWEN  =       558.30175961
  -Hartree energ DENC   =     -1385.25619757
  -exchange      EXHF   =         0.00000000
  -V(xc)+E(xc)   XCENC  =        73.29129660
  PAW double counting   =       759.66703447     -761.31643904
  entropy T*S    EENTRO =        -0.72375995
  eigenvalues    EBANDS =      -270.95412640
  atomic energy  EATOM  =      1025.09994095
  Solvation  Ediel_sol  =         0.00000000
  ---------------------------------------------------
  free energy    TOTEN  =        -1.78974130 eV

  energy without entropy =       -1.06598135  energy(sigma->0) =       -1.42786132


--------------------------------------------------------------------------------------------------------




--------------------------------------- Iteration      1( 134)  ---------------------------------------


    POTLOK:  cpu time    0.8581: real time    0.8591
    SETDIJ:  cpu time    0.0015: real time    0.0015
     EDDAV:  cpu time   46.4937: real time   46.4938
       DOS:  cpu time    0.0192: real time    0.0192
    CHARGE:  cpu time    5.8297: real time    5.8297
    MIXING:  cpu time    1.0428: real time    1.0428
    --------------------------------------------
      LOOP:  cpu time   54.2449: real time   54.2460

 eigenvalue-minimisations  :   414
 total energy-change (2. order) : 0.1350602E+00  (-0.2058555E-02)
 number of electron      30.0000148 magnetization 
 augmentation part       -0.2538543 magnetization 

 Broyden mixing:
  rms(total) = 0.44161E+00    rms(broyden)= 0.44160E+00
  rms(prec ) = 0.45531E+00
  weight for this iteration     100.00

 eigenvalues of (default mixing * dielectric matrix)
  average eigenvalue GAMMA=   1.2607
  6.8693  3.6671  3.5973  3.5973  3.0113  2.7250  2.7250  2.3211  2.3211  2.2567
  2.2567  1.6549  1.6549  0.6868  0.6868  1.5850  0.8975  0.8975  0.6137  0.6137
  1.0097  1.0097  0.8868  0.8868  0.9042  0.6086  0.6086  0.2487  0.2487  0.1204
  0.1204  0.1379  0.0125  0.0138  0.0138  0.0005  0.0190  0.7531  0.5713  0.5713
  0.6337  0.5865  0.4702  0.3946

 Free energy of the ion-electron system (eV)
  ---------------------------------------------------
  alpha Z        PSCENC =         0.10075004
  Ewald energy   TEWEN  =       558.30175961
  -Hartree energ DENC   =     -1385.52416168
  -exchange      EXHF   =         0.00000000
  -V(xc)+E(xc)   XCENC  =        73.29830129
  PAW double counting   =       760.44533260     -762.09594774
  entropy T*S    EENTRO =        -0.72586794
  eigenvalues    EBANDS =      -270.55478826
  atomic energy  EATOM  =      1025.09994095
  Solvation  Ediel_sol  =         0.00000000
  ---------------------------------------------------
  free energy    TOTEN  =        -1.65468114 eV

  energy without entropy =       -0.92881320  energy(sigma->0) =       -1.29174717


--------------------------------------------------------------------------------------------------------




--------------------------------------- Iteration      1( 135)  ---------------------------------------


    POTLOK:  cpu time    0.8548: real time    0.8550
    SETDIJ:  cpu time    0.0027: real time    0.0027
     EDDAV:  cpu time   53.1510: real time   53.1511
       DOS:  cpu time    0.0213: real time    0.0213
