 vasp.5.4.4.18Apr17-6-g9f103f2a35 (build Mar 30 2023 15:39:25) complex          
  
 executed on             LinuxIFC date 2023.04.22  20:20:18
 running on   12 total cores
 distrk:  each k-point on   12 cores,    1 groups
 distr:  one band on NCORES_PER_BAND=   4 cores,    3 groups


--------------------------------------------------------------------------------------------------------


 INCAR:
 POTCAR:    PAW_PBE B 06Sep2000                   
 POTCAR:    PAW_PBE C 08Apr2002                   
 POTCAR:    PAW_PBE B 06Sep2000                   
   SHA256 =  a32ced30f5ae56fd4d10b4325ff17eb3e4e38ee0f4288bc219fb012fddfa6e97 B/
   COPYR  = (c) Copyright 06Sep2000 Georg Kresse                                
   COPYR  = This file is part of the software VASP. Any use, copying, and all ot
   COPYR  = If you do not have a valid VASP license, you may not use, copy or di
   VRHFIN =B: s2p1                                                              
   LEXCH  = PE                                                                  
   EATOM  =    71.1703 eV,    5.2309 Ry                                         
                                                                                
   TITEL  = PAW_PBE B 06Sep2000                                                 
   LULTRA =        F    use ultrasoft PP ?                                      
   IUNSCR =        1    unscreen: 0-lin 1-nonlin 2-no                           
   RPACOR =    1.200    partial core radius                                     
   POMASS =   10.811; ZVAL   =    3.000    mass and valenz                      
   RCORE  =    1.700    outmost cutoff radius                                   
   RWIGS  =    1.710; RWIGS  =    0.905    wigner-seitz radius (au A)           
   ENMAX  =  318.614; ENMIN  =  238.960 eV                                      
   ICORE  =        2    local potential                                         
   LCOR   =        T    correct aug charges                                     
   LPAW   =        T    paw PP                                                  
   EAUG   =  535.514                                                            
   DEXC   =    0.000                                                            
   RMAX   =    1.732    core radius for proj-oper                               
   RAUG   =    1.300    factor for augmentation sphere                          
   RDEP   =    1.757    radius for radial grids                                 
   RDEPT  =    1.436    core radius for aug-charge                              
                                                                                
   Atomic configuration                                                         
    4 entries                                                                   
     n  l   j            E        occ.                                          
     1  0  0.50      -180.5896   2.0000                                         
     2  0  0.50        -9.4431   2.0000                                         
     2  1  0.50        -3.6068   1.0000                                         
     3  2  1.50        -4.0817   0.0000                                         
   Description                                                                  
     l       E           TYP  RCUT    TYP  RCUT                                 
     0     -9.4430752     23  1.500                                             
     0      0.8675899     23  1.500                                             
     1     -3.6067955     23  1.700                                             
     1      6.1086146     23  1.700                                             
     2     -4.0817478      7  1.700                                             
  local pseudopotential read in
  partial core-charges read in
  partial kinetic energy density read in
  atomic valenz-charges read in
  non local Contribution for L=           0  read in
    real space projection operators read in
  non local Contribution for L=           0  read in
    real space projection operators read in
  non local Contribution for L=           1  read in
    real space projection operators read in
  non local Contribution for L=           1  read in
    real space projection operators read in
    PAW grid and wavefunctions read in
 
   number of l-projection  operators is LMAX  =           4
   number of lm-projection operators is LMMAX =           8
 
 POTCAR:    PAW_PBE C 08Apr2002                   
   SHA256 =  253f7b50bb8d59471dbedb8285d89021f4a42ed1a2c5d38a03a736e69125dd95 C/
   COPYR  = (c) Copyright 08Apr2002 Georg Kresse                                
   COPYR  = This file is part of the software VASP. Any use, copying, and all ot
   COPYR  = If you do not have a valid VASP license, you may not use, copy or di
   VRHFIN =C: s2p2                                                              
   LEXCH  = PE                                                                  
   EATOM  =   147.1560 eV,   10.8157 Ry                                         
                                                                                
   TITEL  = PAW_PBE C 08Apr2002                                                 
   LULTRA =        F    use ultrasoft PP ?                                      
   IUNSCR =        1    unscreen: 0-lin 1-nonlin 2-no                           
   RPACOR =    1.200    partial core radius                                     
   POMASS =   12.011; ZVAL   =    4.000    mass and valenz                      
   RCORE  =    1.500    outmost cutoff radius                                   
   RWIGS  =    1.630; RWIGS  =    0.863    wigner-seitz radius (au A)           
   ENMAX  =  400.000; ENMIN  =  300.000 eV                                      
   ICORE  =        2    local potential                                         
   LCOR   =        T    correct aug charges                                     
   LPAW   =        T    paw PP                                                  
   EAUG   =  644.873                                                            
   DEXC   =    0.000                                                            
   RMAX   =    1.529    core radius for proj-oper                               
   RAUG   =    1.300    factor for augmentation sphere                          
   RDEP   =    1.501    radius for radial grids                                 
   RDEPT  =    1.300    core radius for aug-charge                              
                                                                                
   Atomic configuration                                                         
    4 entries                                                                   
     n  l   j            E        occ.                                          
     1  0  0.50      -273.3789   2.0000                                         
     2  0  0.50       -13.7508   2.0000                                         
     2  1  0.50        -5.2854   2.0000                                         
     3  2  1.50        -5.4423   0.0000                                         
   Description                                                                  
     l       E           TYP  RCUT    TYP  RCUT                                 
     0    -13.7508458     23  1.200                                             
     0     -8.2022199     23  1.200                                             
     1     -5.2854383     23  1.500                                             
     1     34.0145650     23  1.500                                             
     2     -5.4423304      7  1.500                                             
  local pseudopotential read in
  partial core-charges read in
  partial kinetic energy density read in
  atomic valenz-charges read in
  non local Contribution for L=           0  read in
    real space projection operators read in
  non local Contribution for L=           0  read in
    real space projection operators read in
  non local Contribution for L=           1  read in
    real space projection operators read in
  non local Contribution for L=           1  read in
    real space projection operators read in
    PAW grid and wavefunctions read in
 
   number of l-projection  operators is LMAX  =           4
   number of lm-projection operators is LMMAX =           8
 
  PAW_PBE B 06Sep2000                   :
 energy of atom  1       EATOM=  -71.1703
 kinetic energy error for atom=    0.0020 (will be added to EATOM!!)
  PAW_PBE C 08Apr2002                   :
 energy of atom  2       EATOM= -147.1560
 kinetic energy error for atom=    0.0288 (will be added to EATOM!!)
 
 
 POSCAR: BC3 with lattice parameter 5.126A, C-C l
  positions in cartesian coordinates
  No initial velocities read in
 exchange correlation table for  LEXCH =        8
   RHO(1)=    0.500       N(1)  =     2000
   RHO(2)=  100.500       N(2)  =     4000
 


--------------------------------------------------------------------------------------------------------


 ion  position               nearest neighbor table
   1  0.333  0.333  0.000-
   2  0.667  0.667  0.000-
   3  0.158  0.158  0.000-
   4  0.683  0.158  0.000-
   5  0.158  0.683  0.000-
   6  0.842  0.842  0.000-
   7  0.317  0.842  0.000-
   8  0.842  0.317  0.000-
 
  LATTYP: Found a base centered orthorhombic cell.
 ALAT       =    26.6244440000
 B/A-ratio  =     1.7319984598
 C/A-ratio  =     3.0804774740
  
  Lattice vectors:
  
 A1 = ( -13.3122220000, -23.0567480000,   0.0000000000)
 A2 = ( -13.3122220000,  23.0567480000,   0.0000000000)
 A3 = (   0.0000000000,   0.0000000000, -82.0160000000)


Analysis of symmetry for initial positions (statically):
=====================================================================
 Subroutine PRICEL returns:
 Original cell was already a primitive cell.
 

 Routine SETGRP: Setting up the symmetry group for a 
 base centered orthorhombic supercell.


 Subroutine GETGRP returns: Found  8 space group operations
 (whereof  8 operations were pure point group operations)
 out of a pool of  8 trial point group operations.


The static configuration has the point symmetry D_2h.


Analysis of symmetry for dynamics (positions and initial velocities):
=====================================================================
 Subroutine PRICEL returns:
 Original cell was already a primitive cell.
 

 Routine SETGRP: Setting up the symmetry group for a 
 base centered orthorhombic supercell.


 Subroutine GETGRP returns: Found  8 space group operations
 (whereof  8 operations were pure point group operations)
 out of a pool of  8 trial point group operations.


The dynamic configuration has the point symmetry D_2h.


 Subroutine INISYM returns: Found  8 space group operations
 (whereof  8 operations are pure point group operations),
 and found     1 'primitive' translations

 
 
 KPOINTS: K-points for BC3                        

Automatic generation of k-mesh.
Space group operators:
 irot       det(A)        alpha          n_x          n_y          n_z        tau_x        tau_y        tau_z
    1     1.000000     0.000000     1.000000     0.000000     0.000000     0.000000     0.000000     0.000000
    2    -1.000000     0.000000     1.000000     0.000000     0.000000     0.000000     0.000000     0.000000
    3     1.000000   179.999999     0.000000     0.000000     1.000000     0.000000     0.000000     0.000000
    4    -1.000000   179.999999     0.000000     0.000000     1.000000     0.000000     0.000000     0.000000
    5     1.000000   180.000000     0.000000     1.000000     0.000000     0.000000     0.000000     0.000000
    6    -1.000000   180.000000     0.000000     1.000000     0.000000     0.000000     0.000000     0.000000
    7     1.000000   180.000000     1.000000     0.000000     0.000000     0.000000     0.000000     0.000000
    8    -1.000000   180.000000     1.000000     0.000000     0.000000     0.000000     0.000000     0.000000
 
 Subroutine IBZKPT returns following result:
 ===========================================
 
 Found      7 irreducible k-points:
 
 Following reciprocal coordinates:
            Coordinates               Weight
  0.000000  0.000000  0.000000      1.000000
  0.250000  0.000000  0.000000      4.000000
  0.500000  0.000000  0.000000      2.000000
  0.000000  0.250000  0.000000      2.000000
  0.500000  0.250000  0.000000      2.000000
 -0.250000  0.250000  0.000000      4.000000
  0.000000  0.500000  0.000000      1.000000
 
 Following cartesian coordinates:
            Coordinates               Weight
  0.000000  0.000000  0.000000      1.000000
  0.048132 -0.027790  0.000000      4.000000
  0.096265 -0.055580  0.000000      2.000000
  0.000000  0.055580  0.000000      2.000000
  0.096265  0.000000  0.000000      2.000000
 -0.048132  0.083370  0.000000      4.000000
  0.000000  0.111161  0.000000      1.000000
 


--------------------------------------------------------------------------------------------------------




 Dimension of arrays:
   k-points           NKPTS =      7   k-points in BZ     NKDIM =      7   number of bands    NBANDS=     21
   number of dos      NEDOS =    301   number of ions     NIONS =      8
   non local maximal  LDIM  =      4   non local SUM 2l+1 LMDIM =      8
   total plane-waves  NPLWV = ******
   max r-space proj   IRMAX =      1   max aug-charges    IRDMAX=    759
   dimension x,y,z NGX =   140 NGY =  140 NGZ =  420
   dimension x,y,z NGXF=   168 NGYF=  168 NGZF=  512
   support grid    NGXF=   168 NGYF=  168 NGZF=  512
   ions per type =               2   6
   NGX,Y,Z   is equivalent  to a cutoff of   8.74,  8.74,  8.51 a.u.
   NGXF,Y,Z  is equivalent  to a cutoff of  10.49, 10.49, 10.38 a.u.

 SYSTEM =  BC3 Practice                            
 POSCAR =  BC3 with lattice parameter 5.126A, C-C l

 Startparameter for this run:
   NWRITE =      2    write-flag & timer
   PREC   = low       normal or accurate (medium, high low for compatibility)
   ISTART =      0    job   : 0-new  1-cont  2-samecut
   ICHARG =      2    charge: 1-file 2-atom 10-const
   ISPIN  =      1    spin polarized calculation?
   LNONCOLLINEAR =      F non collinear calculations
   LSORBIT =      F    spin-orbit coupling
   INIWAV =      1    electr: 0-lowe 1-rand  2-diag
   LASPH  =      F    aspherical Exc in radial PAW
   METAGGA=      F    non-selfconsistent MetaGGA calc.

 Electronic Relaxation 1
   ENCUT  =  400.0 eV  29.40 Ry    5.42 a.u.  43.42 43.42133.75*2*pi/ulx,y,z
   ENINI  =  400.0     initial cutoff
   ENAUG  =  644.9 eV  augmentation charge cutoff
   NELM   =    200;   NELMIN=  2; NELMDL= -5     # of ELM steps 
   EDIFF  = 0.1E-02   stopping-criterion for ELM
   LREAL  =      F    real-space projection
   NLSPLINE    = F    spline interpolate recip. space projectors
   LCOMPAT=      F    compatible to vasp.4.4
   GGA_COMPAT  = T    GGA compatible to vasp.4.4-vasp.4.6
   LMAXPAW     = -100 max onsite density
   LMAXMIX     =    2 max onsite mixed and CHGCAR
   VOSKOWN=      0    Vosko Wilk Nusair interpolation
   ROPT   =    0.00000   0.00000
 Ionic relaxation
   EDIFFG = -.1E-02   stopping-criterion for IOM
   NSW    =     40    number of steps for IOM
   NBLOCK =      1;   KBLOCK =     40    inner block; outer block 
   IBRION =      2    ionic relax: 0-MD 1-quasi-New 2-CG
   NFREE  =      1    steps in history (QN), initial steepest desc. (CG)
   ISIF   =      3    stress and relaxation
   IWAVPR =     11    prediction:  0-non 1-charg 2-wave 3-comb
   ISYM   =      2    0-nonsym 1-usesym 2-fastsym
   LCORR  =      T    Harris-Foulkes like correction to forces

   POTIM  = 0.5000    time-step for ionic-motion
   TEIN   =    0.0    initial temperature
   TEBEG  =    0.0;   TEEND  =   0.0 temperature during run
   SMASS  =  -3.00    Nose mass-parameter (am)
   estimated Nose-frequenzy (Omega)   =  0.10E-29 period in steps =****** mass=  -0.162E-25a.u.
   SCALEE = 1.0000    scale energy and forces
   NPACO  =    256;   APACO  = 16.0  distance and # of slots for P.C.
   PSTRESS=    0.0 pullay stress

  Mass of Ions in am
   POMASS =  10.81 12.01
  Ionic Valenz
   ZVAL   =   3.00  4.00
  Atomic Wigner-Seitz radii
   RWIGS  =  -1.00 -1.00
  virtual crystal weights 
   VCA    =   1.00  1.00
   NELECT =      30.0000    total number of electrons
   NUPDOWN=      -1.0000    fix difference up-down

 DOS related values:
   EMIN   =  10.00;   EMAX   =-10.00  energy-range for DOS
   EFERMI =   0.00
   ISMEAR =     0;   SIGMA  =   0.10  broadening in eV -4-tet -1-fermi 0-gaus

 Electronic relaxation 2 (details)
   IALGO  =     38    algorithm
   LDIAG  =      T    sub-space diagonalisation (order eigenvalues)
   LSUBROT=      F    optimize rotation matrix (better conditioning)
   TURBO    =      0    0=normal 1=particle mesh
   IRESTART =      0    0=no restart 2=restart with 2 vectors
   NREBOOT  =      0    no. of reboots
   NMIN     =      0    reboot dimension
   EREF     =   0.00    reference energy to select bands
   IMIX   =      4    mixing-type and parameters
     AMIX     =   0.40;   BMIX     =  1.00
     AMIX_MAG =   1.60;   BMIX_MAG =  1.00
     AMIN     =   0.10
     WC   =   100.;   INIMIX=   1;  MIXPRE=   1;  MAXMIX= -45

 Intra band minimization:
   WEIMIN = 0.0010     energy-eigenvalue tresh-hold
   EBREAK =  0.12E-05  absolut break condition
   DEPER  =   0.30     relativ break condition  

   TIME   =   0.40     timestep for ELM

  volume/ion in A,a.u.               =    6293.43     42470.14
  Fermi-wavevector in a.u.,A,eV,Ry     =   0.137760  0.260328  0.258209  0.018978
  Thomas-Fermi vector in A             =   0.791435
 
 Write flags
   LWAVE        =      T    write WAVECAR
   LDOWNSAMPLE  =      F    k-point downsampling of WAVECAR
   LCHARG       =      T    write CHGCAR
   LVTOT        =      F    write LOCPOT, total local potential
   LVHAR        =      F    write LOCPOT, Hartree potential only
   LELF         =      F    write electronic localiz. function (ELF)
   LORBIT       =      0    0 simple, 1 ext, 2 COOP (PROOUT), +10 PAW based schemes


 Dipole corrections
   LMONO  =      F    monopole corrections only (constant potential shift)
   LDIPOL =      F    correct potential (dipole corrections)
   IDIPOL =      0    1-x, 2-y, 3-z, 4-all directions 
   EPSILON=  1.0000000 bulk dielectric constant

 Exchange correlation treatment:
   GGA     =    --    GGA type
   LEXCH   =     8    internal setting for exchange type
   VOSKOWN=      0    Vosko Wilk Nusair interpolation
   LHFCALC =     F    Hartree Fock is set to
   LHFONE  =     F    Hartree Fock one center treatment
   AEXX    =    0.0000 exact exchange contribution

 Linear response parameters
   LEPSILON=     F    determine dielectric tensor
   LRPA    =     F    only Hartree local field effects (RPA)
   LNABLA  =     F    use nabla operator in PAW spheres
   LVEL    =     F    velocity operator in full k-point grid
   LINTERFAST=   F  fast interpolation
   KINTER  =     0    interpolate to denser k-point grid
   CSHIFT  =0.1000    complex shift for real part using Kramers Kronig
   OMEGAMAX=  -1.0    maximum frequency
   DEG_THRESHOLD= 0.2000000E-02 threshold for treating states as degnerate
   RTIME   =   -0.100 relaxation time in fs
  (WPLASMAI=    0.000 imaginary part of plasma frequency in eV, 0.658/RTIME)
   DFIELD  = 0.0000000 0.0000000 0.0000000 field for delta impulse in time
 
 Orbital magnetization related:
   ORBITALMAG=     F  switch on orbital magnetization
   LCHIMAG   =     F  perturbation theory with respect to B field
   DQ        =  0.001000  dq finite difference perturbation B field
   LLRAUG    =     F  two centre corrections for induced B field


 ----------------------------------------------------------------------------- 
|                                                                             |
|           W    W    AA    RRRRR   N    N  II  N    N   GGGG   !!!           |
|           W    W   A  A   R    R  NN   N  II  NN   N  G    G  !!!           |
|           W    W  A    A  R    R  N N  N  II  N N  N  G       !!!           |
|           W WW W  AAAAAA  RRRRR   N  N N  II  N  N N  G  GGG   !            |
|           WW  WW  A    A  R   R   N   NN  II  N   NN  G    G                |
|           W    W  A    A  R    R  N    N  II  N    N   GGGG   !!!           |
|                                                                             |
|      One of the lattice vectors is very long (>50 A), but AMIN is rather    |
|      large. This can spoil convergence since charge sloshing might occur    |
|      along the long lattice vector. If problems with convergence are        |
|      observed, try to decrease AMIN to a smaller values (e.g. 0.01).        |
|      Note: this warning only applies if the selfconsistency cycle is used.  |
|                                                                             |
 ----------------------------------------------------------------------------- 



--------------------------------------------------------------------------------------------------------


 conjugate gradient relaxation of ions
 charge density and potential will be updated during run
 non-spin polarized calculation
 Variant of blocked Davidson
 Davidson routine will perform the subspace rotation
 perform sub-space diagonalisation
    after iterative eigenvector-optimisation
 modified Broyden-mixing scheme, WC =      100.0
 initial mixing is a Kerker type mixing with AMIX =  0.4000 and BMIX =      1.0000
 Hartree-type preconditioning will be used
 using additional bands            6
 reciprocal scheme for non local part
 use partial core corrections
 calculate Harris-corrections to forces 
   (improved forces if not selfconsistent)
 use gradient corrections 
 use of overlap-Matrix (Vanderbilt PP)
 Gauss-broadening in eV      SIGMA  =   0.10


--------------------------------------------------------------------------------------------------------


  energy-cutoff  :      400.00
  volume of cell :    50347.42
      direct lattice vectors                 reciprocal lattice vectors
    26.624444000  0.000000000  0.000000000     0.037559470 -0.021685625  0.000000000
    13.312222000 23.056748000  0.000000000     0.000000000  0.043371251  0.000000000
     0.000000000  0.000000000 82.016000000     0.000000000  0.000000000  0.012192743

  length of vectors
    26.624444000 26.623840499 82.016000000     0.043370268  0.043371251  0.012192743


 
 k-points in units of 2pi/SCALE and weight: K-points for BC3                        
   0.00000000  0.00000000  0.00000000       0.062
   0.04813246 -0.02779013  0.00000000       0.250
   0.09626492 -0.05558026  0.00000000       0.125
   0.00000000  0.05558026  0.00000000       0.125
   0.09626492  0.00000000  0.00000000       0.125
  -0.04813246  0.08337039  0.00000000       0.250
   0.00000000  0.11116052  0.00000000       0.062
 
 k-points in reciprocal lattice and weights: K-points for BC3                        
   0.00000000  0.00000000  0.00000000       0.062
   0.25000000  0.00000000  0.00000000       0.250
   0.50000000  0.00000000  0.00000000       0.125
   0.00000000  0.25000000  0.00000000       0.125
   0.50000000  0.25000000  0.00000000       0.125
  -0.25000000  0.25000000  0.00000000       0.250
   0.00000000  0.50000000  0.00000000       0.062
 
 position of ions in fractional coordinates (direct lattice) 
   0.33337039  0.33325923  0.00000000
   0.66662961  0.66674077  0.00000000
   0.15824301  0.15829257  0.00000000
   0.68346442  0.15829257  0.00000000
   0.15829257  0.68341485  0.00000000
   0.84175699  0.84170743  0.00000000
   0.31653558  0.84170743  0.00000000
   0.84170743  0.31658515  0.00000000
 
 position of ions in cartesian coordinates  (Angst):
  13.31222200  7.68387400  0.00000000
  26.62444400 15.37287400  0.00000000
   6.32035800  3.64971200  0.00000000
  20.30408600  3.64971200  0.00000000
  13.31222200 15.75732400  0.00000000
  33.61630800 19.40703600  0.00000000
  19.63258000 19.40703600  0.00000000
  26.62444400  7.29942400  0.00000000
 


--------------------------------------------------------------------------------------------------------


 k-point  1 :   0.0000 0.0000 0.0000  plane waves:  914839
 k-point  2 :   0.2500 0.0000 0.0000  plane waves:  914575
 k-point  3 :   0.5000 0.0000 0.0000  plane waves:  914576
 k-point  4 :   0.0000 0.2500 0.0000  plane waves:  914575
 k-point  5 :   0.5000 0.2500 0.0000  plane waves:  914573
 k-point  6 :  -0.2500 0.2500 0.0000  plane waves:  914577
 k-point  7 :   0.0000 0.5000 0.0000  plane waves:  914576

 maximum and minimum number of plane-waves per node :    228796   228576

 maximum number of plane-waves:    914839
 maximum index in each direction: 
   IXMAX=   43   IYMAX=   43   IZMAX=  133
   IXMIN=  -43   IYMIN=  -43   IZMIN= -133


 parallel 3D FFT for wavefunctions:
    minimum data exchange during FFTs selected (reduces bandwidth)
 parallel 3D FFT for charge:
    minimum data exchange during FFTs selected (reduces bandwidth)


 total amount of memory used by VASP MPI-rank0   703198. kBytes
=======================================================================

   base      :      30000. kBytes
   nonl-proj :     234132. kBytes
   fftplans  :     109766. kBytes
   grid      :     150023. kBytes
   one-center:          6. kBytes
   wavefun   :     179271. kBytes
 
     INWAV:  cpu time    0.0000: real time    0.0000
 Broyden mixing: mesh for mixing (old mesh)
   NGX = 87   NGY = 87   NGZ =267
  (NGX  =168   NGY  =168   NGZ  =512)
  gives a total of ****** points

 initial charge density was supplied:
 charge density of overlapping atoms calculated
 number of electron      30.0000000 magnetization 
 keeping initial charge density in first step


--------------------------------------------------------------------------------------------------------


 Maximum index for augmentation-charges           45 (set IRDMAX)


--------------------------------------------------------------------------------------------------------


 First call to EWALD:  gamma=   0.048
 Maximum number of real-space cells 4x 4x 2
 Maximum number of reciprocal cells 2x 2x 6

    FEWALD:  cpu time    0.0020: real time    0.0020


--------------------------------------- Iteration      1(   1)  ---------------------------------------


    POTLOK:  cpu time    1.9487: real time    1.9530
    SETDIJ:  cpu time    0.0021: real time    0.0021
     EDDAV:  cpu time  193.9289: real time  194.3019
       DOS:  cpu time    0.0020: real time    0.0020
    --------------------------------------------
      LOOP:  cpu time  195.8817: real time  196.2590

 eigenvalue-minimisations  :   420
 total energy-change (2. order) : 0.1306114E+03  (-0.3222317E+03)
 number of electron      30.0000000 magnetization 
 augmentation part       30.0000000 magnetization 

 Free energy of the ion-electron system (eV)
  ---------------------------------------------------
  alpha Z        PSCENC =         0.10075004
  Ewald energy   TEWEN  =       558.30175961
  -Hartree energ DENC   =     -1382.33775543
  -exchange      EXHF   =         0.00000000
  -V(xc)+E(xc)   XCENC  =        73.24055123
  PAW double counting   =       738.13200929     -739.83780425
  entropy T*S    EENTRO =        -0.16143789
  eigenvalues    EBANDS =      -141.92660026
  atomic energy  EATOM  =      1025.09994095
  Solvation  Ediel_sol  =         0.00000000
  ---------------------------------------------------
  free energy    TOTEN  =       130.61141328 eV

  energy without entropy =      130.77285117  energy(sigma->0) =      130.69213222


--------------------------------------------------------------------------------------------------------




--------------------------------------- Iteration      1(   2)  ---------------------------------------


     EDDAV:  cpu time  220.7218: real time  220.9795
       DOS:  cpu time    0.0019: real time    0.0019
    --------------------------------------------
      LOOP:  cpu time  220.7237: real time  220.9813

 eigenvalue-minimisations  :   516
 total energy-change (2. order) :-0.7596919E+02  (-0.7529230E+02)
 number of electron      30.0000000 magnetization 
 augmentation part       30.0000000 magnetization 

 Free energy of the ion-electron system (eV)
  ---------------------------------------------------
  alpha Z        PSCENC =         0.10075004
  Ewald energy   TEWEN  =       558.30175961
  -Hartree energ DENC   =     -1382.33775543
  -exchange      EXHF   =         0.00000000
  -V(xc)+E(xc)   XCENC  =        73.24055123
  PAW double counting   =       738.13200929     -739.83780425
  entropy T*S    EENTRO =        -0.10600210
  eigenvalues    EBANDS =      -217.95122170
  atomic energy  EATOM  =      1025.09994095
  Solvation  Ediel_sol  =         0.00000000
  ---------------------------------------------------
  free energy    TOTEN  =        54.64222764 eV

  energy without entropy =       54.74822974  energy(sigma->0) =       54.69522869


--------------------------------------------------------------------------------------------------------




--------------------------------------- Iteration      1(   3)  ---------------------------------------


     EDDAV:  cpu time  181.6086: real time  181.6967
       DOS:  cpu time    0.0014: real time    0.0014
    --------------------------------------------
      LOOP:  cpu time  181.6100: real time  181.6981

 eigenvalue-minimisations  :   435
 total energy-change (2. order) :-0.4095279E+02  (-0.4059997E+02)
 number of electron      30.0000000 magnetization 
 augmentation part       30.0000000 magnetization 

 Free energy of the ion-electron system (eV)
  ---------------------------------------------------
  alpha Z        PSCENC =         0.10075004
  Ewald energy   TEWEN  =       558.30175961
  -Hartree energ DENC   =     -1382.33775543
  -exchange      EXHF   =         0.00000000
  -V(xc)+E(xc)   XCENC  =        73.24055123
  PAW double counting   =       738.13200929     -739.83780425
  entropy T*S    EENTRO =        -0.08861717
  eigenvalues    EBANDS =      -258.92139219
  atomic energy  EATOM  =      1025.09994095
  Solvation  Ediel_sol  =         0.00000000
  ---------------------------------------------------
  free energy    TOTEN  =        13.68944207 eV

  energy without entropy =       13.77805924  energy(sigma->0) =       13.73375065


--------------------------------------------------------------------------------------------------------




--------------------------------------- Iteration      1(   4)  ---------------------------------------


     EDDAV:  cpu time  132.5477: real time  132.6306
       DOS:  cpu time    0.0042: real time    0.0042
    --------------------------------------------
      LOOP:  cpu time  132.5519: real time  132.6348

 eigenvalue-minimisations  :   294
 total energy-change (2. order) :-0.1621915E+02  (-0.1475021E+02)
 number of electron      30.0000000 magnetization 
 augmentation part       30.0000000 magnetization 

 Free energy of the ion-electron system (eV)
  ---------------------------------------------------
  alpha Z        PSCENC =         0.10075004
  Ewald energy   TEWEN  =       558.30175961
  -Hartree energ DENC   =     -1382.33775543
  -exchange      EXHF   =         0.00000000
  -V(xc)+E(xc)   XCENC  =        73.24055123
  PAW double counting   =       738.13200929     -739.83780425
  entropy T*S    EENTRO =        -0.01720266
  eigenvalues    EBANDS =      -275.21195294
  atomic energy  EATOM  =      1025.09994095
  Solvation  Ediel_sol  =         0.00000000
  ---------------------------------------------------
  free energy    TOTEN  =        -2.52970417 eV

  energy without entropy =       -2.51250151  energy(sigma->0) =       -2.52110284


--------------------------------------------------------------------------------------------------------




--------------------------------------- Iteration      1(   5)  ---------------------------------------


     EDDAV:  cpu time  208.9624: real time  209.0700
       DOS:  cpu time    0.0034: real time    0.0034
    CHARGE:  cpu time   11.8764: real time   11.8883
    MIXING:  cpu time    0.0741: real time    0.0742
    --------------------------------------------
      LOOP:  cpu time  220.9164: real time  221.0359

 eigenvalue-minimisations  :   516
 total energy-change (2. order) :-0.1226821E+01  (-0.8792004E+00)
 number of electron      30.0000055 magnetization 
 augmentation part       -0.2563277 magnetization 

 Broyden mixing:
  rms(total) = 0.45943E+00    rms(broyden)= 0.45926E+00
  rms(prec ) = 0.47608E+00
  weight for this iteration     100.00

 Free energy of the ion-electron system (eV)
  ---------------------------------------------------
  alpha Z        PSCENC =         0.10075004
  Ewald energy   TEWEN  =       558.30175961
  -Hartree energ DENC   =     -1382.33775543
  -exchange      EXHF   =         0.00000000
  -V(xc)+E(xc)   XCENC  =        73.24055123
  PAW double counting   =       738.13200929     -739.83780425
  entropy T*S    EENTRO =        -0.56375641
  eigenvalues    EBANDS =      -275.89222035
  atomic energy  EATOM  =      1025.09994095
  Solvation  Ediel_sol  =         0.00000000
  ---------------------------------------------------
  free energy    TOTEN  =        -3.75652532 eV

  energy without entropy =       -3.19276891  energy(sigma->0) =       -3.47464712


--------------------------------------------------------------------------------------------------------




--------------------------------------- Iteration      1(   6)  ---------------------------------------


    POTLOK:  cpu time    1.8112: real time    1.8133
    SETDIJ:  cpu time    0.0027: real time    0.0027
     EDDAV:  cpu time  155.5087: real time  155.5924
       DOS:  cpu time    0.0007: real time    0.0007
    CHARGE:  cpu time   11.8582: real time   11.8625
    MIXING:  cpu time    0.1144: real time    0.1144
    --------------------------------------------
      LOOP:  cpu time  169.2958: real time  169.3859

 eigenvalue-minimisations  :   351
 total energy-change (2. order) : 0.3454021E+01  (-0.3472493E+00)
 number of electron      30.0000128 magnetization 
 augmentation part       -0.2742930 magnetization 

 Broyden mixing:
  rms(total) = 0.51929E+00    rms(broyden)= 0.51904E+00
  rms(prec ) = 0.53754E+00
  weight for this iteration     100.00

 eigenvalues of (default mixing * dielectric matrix)
  average eigenvalue GAMMA=   0.3947
  0.3947

 Free energy of the ion-electron system (eV)
  ---------------------------------------------------
  alpha Z        PSCENC =         0.10075004
  Ewald energy   TEWEN  =       558.30175961
  -Hartree energ DENC   =     -1392.09063557
  -exchange      EXHF   =         0.00000000
  -V(xc)+E(xc)   XCENC  =        73.85407770
  PAW double counting   =       765.27140378     -766.99687526
  entropy T*S    EENTRO =        -0.68673831
  eigenvalues    EBANDS =      -263.15618754
  atomic energy  EATOM  =      1025.09994095
  Solvation  Ediel_sol  =         0.00000000
  ---------------------------------------------------
  free energy    TOTEN  =        -0.30250460 eV

  energy without entropy =        0.38423371  energy(sigma->0) =        0.04086456


--------------------------------------------------------------------------------------------------------




--------------------------------------- Iteration      1(   7)  ---------------------------------------


    POTLOK:  cpu time    1.8089: real time    1.8106
    SETDIJ:  cpu time    0.0024: real time    0.0024
     EDDAV:  cpu time  233.1248: real time  233.2520
       DOS:  cpu time    0.0006: real time    0.0006
    CHARGE:  cpu time    9.7230: real time    9.7263
    MIXING:  cpu time    0.1363: real time    0.1364
    --------------------------------------------
      LOOP:  cpu time  244.7961: real time  244.9283

 eigenvalue-minimisations  :   579
 total energy-change (2. order) :-0.6668603E+01  (-0.4559324E+01)
 number of electron      30.0000040 magnetization 
 augmentation part       -0.3016681 magnetization 

 Broyden mixing:
  rms(total) = 0.25494E+01    rms(broyden)= 0.25485E+01
  rms(prec ) = 0.26143E+01
  weight for this iteration     100.00

 eigenvalues of (default mixing * dielectric matrix)
  average eigenvalue GAMMA=   0.6321
  1.2054  0.0588

 Free energy of the ion-electron system (eV)
  ---------------------------------------------------
  alpha Z        PSCENC =         0.10075004
  Ewald energy   TEWEN  =       558.30175961
  -Hartree energ DENC   =     -1394.13719200
  -exchange      EXHF   =         0.00000000
  -V(xc)+E(xc)   XCENC  =        73.95514397
  PAW double counting   =       772.48772249     -774.20745594
  entropy T*S    EENTRO =        -0.04641527
  eigenvalues    EBANDS =      -268.52536098
  atomic energy  EATOM  =      1025.09994095
  Solvation  Ediel_sol  =         0.00000000
  ---------------------------------------------------
  free energy    TOTEN  =        -6.97110715 eV

  energy without entropy =       -6.92469188  energy(sigma->0) =       -6.94789952


--------------------------------------------------------------------------------------------------------




--------------------------------------- Iteration      1(   8)  ---------------------------------------


    POTLOK:  cpu time    1.8004: real time    1.8097
    SETDIJ:  cpu time    0.0020: real time    0.0020
     EDDAV:  cpu time  205.0116: real time  205.1224
       DOS:  cpu time    0.0006: real time    0.0006
    CHARGE:  cpu time   11.8352: real time   11.8393
    MIXING:  cpu time    0.1618: real time    0.1619
    --------------------------------------------
      LOOP:  cpu time  218.8116: real time  218.9357

 eigenvalue-minimisations  :   498
 total energy-change (2. order) :-0.1294188E+02  (-0.1643558E+02)
 number of electron      29.9999745 magnetization 
 augmentation part       -0.4634898 magnetization 

 Broyden mixing:
  rms(total) = 0.27340E+01    rms(broyden)= 0.27334E+01
  rms(prec ) = 0.28188E+01
  weight for this iteration     100.00

 eigenvalues of (default mixing * dielectric matrix)
  average eigenvalue GAMMA=   0.2690
  0.3734  0.3734  0.0601

 Free energy of the ion-electron system (eV)
  ---------------------------------------------------
  alpha Z        PSCENC =         0.10075004
  Ewald energy   TEWEN  =       558.30175961
  -Hartree energ DENC   =     -1396.85427936
  -exchange      EXHF   =         0.00000000
  -V(xc)+E(xc)   XCENC  =        74.10562612
  PAW double counting   =       785.43918732     -787.13854079
  entropy T*S    EENTRO =        -0.21716932
  eigenvalues    EBANDS =      -278.75026288
  atomic energy  EATOM  =      1025.09994095
  Solvation  Ediel_sol  =         0.00000000
  ---------------------------------------------------
  free energy    TOTEN  =       -19.91298832 eV

  energy without entropy =      -19.69581899  energy(sigma->0) =      -19.80440365


--------------------------------------------------------------------------------------------------------




--------------------------------------- Iteration      1(   9)  ---------------------------------------


    POTLOK:  cpu time    1.8173: real time    1.8190
    SETDIJ:  cpu time    0.0020: real time    0.0020
     EDDAV:  cpu time  167.2428: real time  167.3421
       DOS:  cpu time    0.0006: real time    0.0006
    CHARGE:  cpu time   11.8586: real time   11.8627
    MIXING:  cpu time    0.1908: real time    0.1908
    --------------------------------------------
      LOOP:  cpu time  181.1121: real time  181.2173

 eigenvalue-minimisations  :   393
 total energy-change (2. order) : 0.1890552E+02  (-0.5724398E+01)
 number of electron      30.0000125 magnetization 
 augmentation part       -0.2598723 magnetization 

 Broyden mixing:
  rms(total) = 0.13818E+01    rms(broyden)= 0.13810E+01
  rms(prec ) = 0.14187E+01
  weight for this iteration     100.00

 eigenvalues of (default mixing * dielectric matrix)
  average eigenvalue GAMMA=   0.2477
  0.3799  0.3799  0.1774  0.0535

 Free energy of the ion-electron system (eV)
  ---------------------------------------------------
  alpha Z        PSCENC =         0.10075004
  Ewald energy   TEWEN  =       558.30175961
  -Hartree energ DENC   =     -1386.80455242
  -exchange      EXHF   =         0.00000000
  -V(xc)+E(xc)   XCENC  =        73.52894881
  PAW double counting   =       756.69609649     -758.37652734
  entropy T*S    EENTRO =        -0.01616054
  eigenvalues    EBANDS =      -269.53772781
  atomic energy  EATOM  =      1025.09994095
  Solvation  Ediel_sol  =         0.00000000
  ---------------------------------------------------
  free energy    TOTEN  =        -1.00747221 eV

  energy without entropy =       -0.99131167  energy(sigma->0) =       -0.99939194


--------------------------------------------------------------------------------------------------------




--------------------------------------- Iteration      1(  10)  ---------------------------------------


    POTLOK:  cpu time    1.8152: real time    1.8173
    SETDIJ:  cpu time    0.0020: real time    0.0020
     EDDAV:  cpu time  200.9360: real time  201.0670
       DOS:  cpu time    0.0007: real time    0.0007
    CHARGE:  cpu time   11.8372: real time   11.8414
    MIXING:  cpu time    0.2247: real time    0.2248
    --------------------------------------------
      LOOP:  cpu time  214.8157: real time  214.9531

 eigenvalue-minimisations  :   495
 total energy-change (2. order) : 0.2411974E+00  (-0.2753770E-01)
 number of electron      30.0000135 magnetization 
 augmentation part       -0.2595080 magnetization 

 Broyden mixing:
  rms(total) = 0.10781E+01    rms(broyden)= 0.10780E+01
  rms(prec ) = 0.11083E+01
  weight for this iteration     100.00

 eigenvalues of (default mixing * dielectric matrix)
  average eigenvalue GAMMA=   0.3215
  0.4677  0.4677  0.3084  0.3084  0.0553

 Free energy of the ion-electron system (eV)
  ---------------------------------------------------
  alpha Z        PSCENC =         0.10075004
  Ewald energy   TEWEN  =       558.30175961
  -Hartree energ DENC   =     -1386.69570608
  -exchange      EXHF   =         0.00000000
  -V(xc)+E(xc)   XCENC  =        73.50312549
  PAW double counting   =       757.15984678     -758.83649775
  entropy T*S    EENTRO =        -0.16877808
  eigenvalues    EBANDS =      -269.23071574
  atomic energy  EATOM  =      1025.09994095
  Solvation  Ediel_sol  =         0.00000000
  ---------------------------------------------------
  free energy    TOTEN  =        -0.76627479 eV

  energy without entropy =       -0.59749671  energy(sigma->0) =       -0.68188575


--------------------------------------------------------------------------------------------------------




--------------------------------------- Iteration      1(  11)  ---------------------------------------


    POTLOK:  cpu time    1.8168: real time    1.8189
    SETDIJ:  cpu time    0.0021: real time    0.0021
     EDDAV:  cpu time  184.5538: real time  184.6365
       DOS:  cpu time    0.0006: real time    0.0006
    CHARGE:  cpu time   11.8229: real time   11.8273
    MIXING:  cpu time    0.2580: real time    0.2580
    --------------------------------------------
      LOOP:  cpu time  198.4542: real time  198.5435

 eigenvalue-minimisations  :   444
 total energy-change (2. order) :-0.4477296E+00  (-0.3741409E+00)
 number of electron      30.0000163 magnetization 
 augmentation part       -0.2587709 magnetization 

 Broyden mixing:
  rms(total) = 0.51332E+00    rms(broyden)= 0.51295E+00
  rms(prec ) = 0.52922E+00
  weight for this iteration     100.00

 eigenvalues of (default mixing * dielectric matrix)
  average eigenvalue GAMMA=   0.3103
  0.4990  0.4990  0.3263  0.3263  0.0552  0.1563

 Free energy of the ion-electron system (eV)
  ---------------------------------------------------
  alpha Z        PSCENC =         0.10075004
  Ewald energy   TEWEN  =       558.30175961
  -Hartree energ DENC   =     -1386.26448237
  -exchange      EXHF   =         0.00000000
  -V(xc)+E(xc)   XCENC  =        73.47352066
  PAW double counting   =       755.31620117     -756.98980374
  entropy T*S    EENTRO =        -0.26814843
  eigenvalues    EBANDS =      -269.98374229
  atomic energy  EATOM  =      1025.09994095
  Solvation  Ediel_sol  =         0.00000000
  ---------------------------------------------------
  free energy    TOTEN  =        -1.21400441 eV

  energy without entropy =       -0.94585598  energy(sigma->0) =       -1.07993020


--------------------------------------------------------------------------------------------------------




--------------------------------------- Iteration      1(  12)  ---------------------------------------


    POTLOK:  cpu time    1.8208: real time    1.8225
    SETDIJ:  cpu time    0.0021: real time    0.0021
     EDDAV:  cpu time  199.9345: real time  200.0424
       DOS:  cpu time    0.0006: real time    0.0006
    CHARGE:  cpu time   11.8261: real time   11.8314
    MIXING:  cpu time    0.2964: real time    0.2965
    --------------------------------------------
      LOOP:  cpu time  213.8807: real time  213.9955

 eigenvalue-minimisations  :   492
 total energy-change (2. order) :-0.3343593E+00  (-0.2452747E+00)
 number of electron      30.0000173 magnetization 
 augmentation part       -0.2617696 magnetization 

 Broyden mixing:
  rms(total) = 0.61276E+00    rms(broyden)= 0.61234E+00
  rms(prec ) = 0.62913E+00
  weight for this iteration     100.00

 eigenvalues of (default mixing * dielectric matrix)
  average eigenvalue GAMMA=   0.2833
  0.5024  0.5024  0.3252  0.3252  0.2145  0.0552  0.0582

 Free energy of the ion-electron system (eV)
  ---------------------------------------------------
  alpha Z        PSCENC =         0.10075004
  Ewald energy   TEWEN  =       558.30175961
  -Hartree energ DENC   =     -1386.36032882
  -exchange      EXHF   =         0.00000000
  -V(xc)+E(xc)   XCENC  =        73.47014256
  PAW double counting   =       755.50327207     -757.17520851
  entropy T*S    EENTRO =        -0.29657611
  eigenvalues    EBANDS =      -270.19211545
  atomic energy  EATOM  =      1025.09994095
  Solvation  Ediel_sol  =         0.00000000
  ---------------------------------------------------
  free energy    TOTEN  =        -1.54836367 eV

  energy without entropy =       -1.25178756  energy(sigma->0) =       -1.40007561


--------------------------------------------------------------------------------------------------------




--------------------------------------- Iteration      1(  13)  ---------------------------------------


    POTLOK:  cpu time    1.8165: real time    1.8182
    SETDIJ:  cpu time    0.0020: real time    0.0020
     EDDAV:  cpu time  203.4332: real time  203.5455
       DOS:  cpu time    0.0006: real time    0.0006
    CHARGE:  cpu time   11.8228: real time   11.8270
    MIXING:  cpu time    0.3388: real time    0.3389
    --------------------------------------------
      LOOP:  cpu time  217.4140: real time  217.5323

 eigenvalue-minimisations  :   498
 total energy-change (2. order) :-0.4101394E+00  (-0.2749210E+00)
 number of electron      30.0000188 magnetization 
 augmentation part       -0.2565912 magnetization 

 Broyden mixing:
  rms(total) = 0.11768E+01    rms(broyden)= 0.11767E+01
  rms(prec ) = 0.12081E+01
  weight for this iteration     100.00

 eigenvalues of (default mixing * dielectric matrix)
  average eigenvalue GAMMA=   0.3444
  0.7695  0.7695  0.3341  0.3341  0.2803  0.0553  0.1050  0.1072

 Free energy of the ion-electron system (eV)
  ---------------------------------------------------
  alpha Z        PSCENC =         0.10075004
  Ewald energy   TEWEN  =       558.30175961
  -Hartree energ DENC   =     -1386.36031236
  -exchange      EXHF   =         0.00000000
  -V(xc)+E(xc)   XCENC  =        73.47404044
  PAW double counting   =       755.51282453     -757.18455447
  entropy T*S    EENTRO =        -0.24695675
  eigenvalues    EBANDS =      -270.65599500
  atomic energy  EATOM  =      1025.09994095
  Solvation  Ediel_sol  =         0.00000000
  ---------------------------------------------------
  free energy    TOTEN  =        -1.95850302 eV

  energy without entropy =       -1.71154627  energy(sigma->0) =       -1.83502465


--------------------------------------------------------------------------------------------------------




--------------------------------------- Iteration      1(  14)  ---------------------------------------


    POTLOK:  cpu time    1.8192: real time    1.8213
    SETDIJ:  cpu time    0.0020: real time    0.0020
     EDDAV:  cpu time  181.3634: real time  181.4510
       DOS:  cpu time    0.0007: real time    0.0007
    CHARGE:  cpu time   11.7962: real time   11.8001
    MIXING:  cpu time    0.3818: real time    0.3819
    --------------------------------------------
      LOOP:  cpu time  195.3633: real time  195.4569

 eigenvalue-minimisations  :   438
 total energy-change (2. order) :-0.1533846E+01  (-0.3028527E+00)
 number of electron      30.0000162 magnetization 
 augmentation part       -0.2471862 magnetization 

 Broyden mixing:
  rms(total) = 0.15243E+01    rms(broyden)= 0.15243E+01
  rms(prec ) = 0.15647E+01
  weight for this iteration     100.00

 eigenvalues of (default mixing * dielectric matrix)
  average eigenvalue GAMMA=   0.4655
  1.0506  0.9338  0.9338  0.3708  0.3259  0.3259  0.0553  0.0972  0.0958

 Free energy of the ion-electron system (eV)
  ---------------------------------------------------
  alpha Z        PSCENC =         0.10075004
  Ewald energy   TEWEN  =       558.30175961
  -Hartree energ DENC   =     -1384.74577706
  -exchange      EXHF   =         0.00000000
  -V(xc)+E(xc)   XCENC  =        73.39849896
  PAW double counting   =       749.89156815     -751.55509913
  entropy T*S    EENTRO =        -0.21975140
  eigenvalues    EBANDS =      -273.76423943
  atomic energy  EATOM  =      1025.09994095
  Solvation  Ediel_sol  =         0.00000000
  ---------------------------------------------------
  free energy    TOTEN  =        -3.49234933 eV

  energy without entropy =       -3.27259793  energy(sigma->0) =       -3.38247363


--------------------------------------------------------------------------------------------------------




--------------------------------------- Iteration      1(  15)  ---------------------------------------


    POTLOK:  cpu time    1.8099: real time    1.8287
    SETDIJ:  cpu time    0.0019: real time    0.0019
     EDDAV:  cpu time  205.6561: real time  205.7546
       DOS:  cpu time    0.0006: real time    0.0006
    CHARGE:  cpu time   11.8236: real time   11.8280
    MIXING:  cpu time    0.4340: real time    0.4341
    --------------------------------------------
      LOOP:  cpu time  219.7261: real time  219.8480

 eigenvalue-minimisations  :   504
 total energy-change (2. order) :-0.8623552E+00  (-0.1668375E+00)
 number of electron      30.0000135 magnetization 
 augmentation part       -0.2489475 magnetization 

 Broyden mixing:
  rms(total) = 0.15672E+01    rms(broyden)= 0.15671E+01
  rms(prec ) = 0.16092E+01
  weight for this iteration     100.00

 eigenvalues of (default mixing * dielectric matrix)
  average eigenvalue GAMMA=   0.5766
  1.4872  1.4872  0.7754  0.7754  0.3224  0.3224  0.3464  0.0553  0.0970  0.0977

 Free energy of the ion-electron system (eV)
  ---------------------------------------------------
  alpha Z        PSCENC =         0.10075004
  Ewald energy   TEWEN  =       558.30175961
  -Hartree energ DENC   =     -1386.52138797
  -exchange      EXHF   =         0.00000000
  -V(xc)+E(xc)   XCENC  =        73.51632327
  PAW double counting   =       753.74230002     -755.41237295
  entropy T*S    EENTRO =        -0.30002458
  eigenvalues    EBANDS =      -272.88199291
  atomic energy  EATOM  =      1025.09994095
  Solvation  Ediel_sol  =         0.00000000
  ---------------------------------------------------
  free energy    TOTEN  =        -4.35470453 eV

  energy without entropy =       -4.05467996  energy(sigma->0) =       -4.20469225


--------------------------------------------------------------------------------------------------------




--------------------------------------- Iteration      1(  16)  ---------------------------------------


    POTLOK:  cpu time    1.8244: real time    1.8262
    SETDIJ:  cpu time    0.0019: real time    0.0019
     EDDAV:  cpu time  203.3916: real time  203.5040
       DOS:  cpu time    0.0006: real time    0.0006
    CHARGE:  cpu time   11.8277: real time   11.8318
    MIXING:  cpu time    0.4794: real time    0.4796
    --------------------------------------------
      LOOP:  cpu time  217.5256: real time  217.6443

 eigenvalue-minimisations  :   501
 total energy-change (2. order) :-0.7762467E-01  (-0.7022003E-01)
 number of electron      30.0000101 magnetization 
 augmentation part       -0.2450001 magnetization 

 Broyden mixing:
  rms(total) = 0.15705E+01    rms(broyden)= 0.15704E+01
  rms(prec ) = 0.16123E+01
  weight for this iteration     100.00

 eigenvalues of (default mixing * dielectric matrix)
  average eigenvalue GAMMA=   0.5687
  1.5173  1.5173  0.7956  0.7956  0.3234  0.3234  0.3544  0.3793  0.0553  0.0970
  0.0976

 Free energy of the ion-electron system (eV)
  ---------------------------------------------------
  alpha Z        PSCENC =         0.10075004
  Ewald energy   TEWEN  =       558.30175961
  -Hartree energ DENC   =     -1385.61146653
  -exchange      EXHF   =         0.00000000
  -V(xc)+E(xc)   XCENC  =        73.44189019
  PAW double counting   =       755.35737169     -757.02008061
  entropy T*S    EENTRO =        -0.41334923
  eigenvalues    EBANDS =      -273.68914532
  atomic energy  EATOM  =      1025.09994095
  Solvation  Ediel_sol  =         0.00000000
  ---------------------------------------------------
  free energy    TOTEN  =        -4.43232921 eV

  energy without entropy =       -4.01897998  energy(sigma->0) =       -4.22565459


--------------------------------------------------------------------------------------------------------




--------------------------------------- Iteration      1(  17)  ---------------------------------------


    POTLOK:  cpu time    1.8237: real time    1.8253
    SETDIJ:  cpu time    0.0030: real time    0.0030
     EDDAV:  cpu time  198.9564: real time  199.0446
       DOS:  cpu time    0.0006: real time    0.0006
    CHARGE:  cpu time   11.8431: real time   11.8471
    MIXING:  cpu time    0.5393: real time    0.5395
    --------------------------------------------
      LOOP:  cpu time  213.1662: real time  213.2602

 eigenvalue-minimisations  :   483
 total energy-change (2. order) : 0.1421809E+01  (-0.3681930E-01)
 number of electron      30.0000102 magnetization 
 augmentation part       -0.2506213 magnetization 

 Broyden mixing:
  rms(total) = 0.15314E+01    rms(broyden)= 0.15314E+01
  rms(prec ) = 0.15727E+01
  weight for this iteration     100.00

 eigenvalues of (default mixing * dielectric matrix)
  average eigenvalue GAMMA=   0.6326
  1.9805  1.2297  0.8367  0.8367  0.7312  0.7312  0.3239  0.3239  0.3471  0.0553
  0.0970  0.0976

 Free energy of the ion-electron system (eV)
  ---------------------------------------------------
  alpha Z        PSCENC =         0.10075004
  Ewald energy   TEWEN  =       558.30175961
  -Hartree energ DENC   =     -1386.24368114
  -exchange      EXHF   =         0.00000000
  -V(xc)+E(xc)   XCENC  =        73.46647916
  PAW double counting   =       759.65841963     -761.32512789
  entropy T*S    EENTRO =        -0.46765298
  eigenvalues    EBANDS =      -271.60140763
  atomic energy  EATOM  =      1025.09994095
  Solvation  Ediel_sol  =         0.00000000
  ---------------------------------------------------
  free energy    TOTEN  =        -3.01052026 eV

  energy without entropy =       -2.54286728  energy(sigma->0) =       -2.77669377


--------------------------------------------------------------------------------------------------------




--------------------------------------- Iteration      1(  18)  ---------------------------------------


    POTLOK:  cpu time    1.8232: real time    1.8250
    SETDIJ:  cpu time    0.0020: real time    0.0020
     EDDAV:  cpu time  223.6413: real time  223.7599
       DOS:  cpu time    0.0007: real time    0.0007
    CHARGE:  cpu time   11.8118: real time   11.8155
    MIXING:  cpu time    0.6020: real time    0.6022
    --------------------------------------------
      LOOP:  cpu time  237.8810: real time  238.0052

 eigenvalue-minimisations  :   558
 total energy-change (2. order) : 0.2793394E+00  (-0.1987158E-01)
 number of electron      30.0000094 magnetization 
 augmentation part       -0.2515545 magnetization 

 Broyden mixing:
  rms(total) = 0.15312E+01    rms(broyden)= 0.15312E+01
  rms(prec ) = 0.15726E+01
  weight for this iteration     100.00

 eigenvalues of (default mixing * dielectric matrix)
  average eigenvalue GAMMA=   0.6187
  2.1294  1.1792  0.8543  0.8543  0.7743  0.7743  0.3235  0.3235  0.3480  0.0970
  0.0553  0.0976  0.2326

 Free energy of the ion-electron system (eV)
  ---------------------------------------------------
  alpha Z        PSCENC =         0.10075004
  Ewald energy   TEWEN  =       558.30175961
  -Hartree energ DENC   =     -1386.45084353
  -exchange      EXHF   =         0.00000000
  -V(xc)+E(xc)   XCENC  =        73.47186758
  PAW double counting   =       760.43729104     -762.10323809
  entropy T*S    EENTRO =        -0.48816700
  eigenvalues    EBANDS =      -271.10054150
  atomic energy  EATOM  =      1025.09994095
  Solvation  Ediel_sol  =         0.00000000
  ---------------------------------------------------
  free energy    TOTEN  =        -2.73118090 eV

  energy without entropy =       -2.24301390  energy(sigma->0) =       -2.48709740


--------------------------------------------------------------------------------------------------------




--------------------------------------- Iteration      1(  19)  ---------------------------------------


    POTLOK:  cpu time    1.8251: real time    1.8273
    SETDIJ:  cpu time    0.0020: real time    0.0020
     EDDAV:  cpu time  223.7753: real time  223.8675
       DOS:  cpu time    0.0006: real time    0.0006
    CHARGE:  cpu time   11.8128: real time   11.8166
    MIXING:  cpu time    0.6705: real time    0.6708
    --------------------------------------------
      LOOP:  cpu time  238.0864: real time  238.1848

 eigenvalue-minimisations  :   555
 total energy-change (2. order) :-0.3659342E+00  (-0.2734630E-01)
 number of electron      30.0000074 magnetization 
 augmentation part       -0.2516739 magnetization 

 Broyden mixing:
  rms(total) = 0.15334E+01    rms(broyden)= 0.15333E+01
  rms(prec ) = 0.15748E+01
  weight for this iteration     100.00

 eigenvalues of (default mixing * dielectric matrix)
  average eigenvalue GAMMA=   0.7075
  2.3518  1.1699  0.9321  0.9321  0.9974  0.8999  0.8999  0.3237  0.3237  0.4793
  0.3455  0.0553  0.0970  0.0976

 Free energy of the ion-electron system (eV)
  ---------------------------------------------------
  alpha Z        PSCENC =         0.10075004
  Ewald energy   TEWEN  =       558.30175961
  -Hartree energ DENC   =     -1386.79103480
  -exchange      EXHF   =         0.00000000
  -V(xc)+E(xc)   XCENC  =        73.51083470
  PAW double counting   =       763.30131068     -764.97425772
  entropy T*S    EENTRO =        -0.54365847
  eigenvalues    EBANDS =      -271.10276011
  atomic energy  EATOM  =      1025.09994095
  Solvation  Ediel_sol  =         0.00000000
  ---------------------------------------------------
  free energy    TOTEN  =        -3.09711514 eV

  energy without entropy =       -2.55345667  energy(sigma->0) =       -2.82528590


--------------------------------------------------------------------------------------------------------




--------------------------------------- Iteration      1(  20)  ---------------------------------------


    POTLOK:  cpu time    1.8248: real time    1.8266
    SETDIJ:  cpu time    0.0024: real time    0.0024
     EDDAV:  cpu time  221.5295: real time  221.6280
       DOS:  cpu time    0.0006: real time    0.0006
    CHARGE:  cpu time   11.8213: real time   11.8248
    MIXING:  cpu time    0.7294: real time    0.7295
    --------------------------------------------
      LOOP:  cpu time  235.9080: real time  236.0120

 eigenvalue-minimisations  :   549
 total energy-change (2. order) :-0.5603141E+00  (-0.4732864E-01)
 number of electron      30.0000064 magnetization 
 augmentation part       -0.2492837 magnetization 

 Broyden mixing:
  rms(total) = 0.15566E+01    rms(broyden)= 0.15566E+01
  rms(prec ) = 0.15985E+01
  weight for this iteration     100.00

 eigenvalues of (default mixing * dielectric matrix)
  average eigenvalue GAMMA=   0.6995
  1.9226  1.0482  1.0482  1.2916  0.8691  0.8691  0.7498  0.7498  0.7011  0.3237
  0.3237  0.3461  0.0553  0.0970  0.0976

 Free energy of the ion-electron system (eV)
  ---------------------------------------------------
  alpha Z        PSCENC =         0.10075004
  Ewald energy   TEWEN  =       558.30175961
  -Hartree energ DENC   =     -1386.92998719
  -exchange      EXHF   =         0.00000000
  -V(xc)+E(xc)   XCENC  =        73.53495170
  PAW double counting   =       764.41200150     -766.08845157
  entropy T*S    EENTRO =        -0.58032861
  eigenvalues    EBANDS =      -271.50806567
  atomic energy  EATOM  =      1025.09994095
  Solvation  Ediel_sol  =         0.00000000
  ---------------------------------------------------
  free energy    TOTEN  =        -3.65742924 eV

  energy without entropy =       -3.07710063  energy(sigma->0) =       -3.36726494


--------------------------------------------------------------------------------------------------------




--------------------------------------- Iteration      1(  21)  ---------------------------------------


    POTLOK:  cpu time    1.8237: real time    1.8255
    SETDIJ:  cpu time    0.0019: real time    0.0019
     EDDAV:  cpu time  181.4223: real time  181.4936
       DOS:  cpu time    0.0006: real time    0.0006
    CHARGE:  cpu time   11.8316: real time   11.8352
    MIXING:  cpu time    0.8086: real time    0.8089
    --------------------------------------------
      LOOP:  cpu time  195.8888: real time  195.9658

 eigenvalue-minimisations  :   441
 total energy-change (2. order) : 0.1204190E+01  (-0.1501283E-01)
 number of electron      30.0000065 magnetization 
 augmentation part       -0.2534841 magnetization 

 Broyden mixing:
  rms(total) = 0.15358E+01    rms(broyden)= 0.15358E+01
  rms(prec ) = 0.15772E+01
  weight for this iteration     100.00

 eigenvalues of (default mixing * dielectric matrix)
  average eigenvalue GAMMA=   0.8457
  1.8473  1.8473  1.6331  1.6331  0.9517  0.9517  1.1244  1.1244  0.5877  0.5877
  0.3237  0.3237  0.3462  0.0553  0.0970  0.0976

 Free energy of the ion-electron system (eV)
  ---------------------------------------------------
  alpha Z        PSCENC =         0.10075004
  Ewald energy   TEWEN  =       558.30175961
  -Hartree energ DENC   =     -1386.86205807
  -exchange      EXHF   =         0.00000000
  -V(xc)+E(xc)   XCENC  =        73.49426767
  PAW double counting   =       762.96110474     -764.62886575
  entropy T*S    EENTRO =        -0.59397603
  eigenvalues    EBANDS =      -270.32616227
  atomic energy  EATOM  =      1025.09994095
  Solvation  Ediel_sol  =         0.00000000
  ---------------------------------------------------
  free energy    TOTEN  =        -2.45323913 eV

  energy without entropy =       -1.85926310  energy(sigma->0) =       -2.15625111


--------------------------------------------------------------------------------------------------------




--------------------------------------- Iteration      1(  22)  ---------------------------------------


    POTLOK:  cpu time    1.8262: real time    1.8278
    SETDIJ:  cpu time    0.0020: real time    0.0020
     EDDAV:  cpu time  163.4770: real time  163.5402
       DOS:  cpu time    0.0006: real time    0.0006
    CHARGE:  cpu time   11.8664: real time   11.8702
    MIXING:  cpu time    0.8674: real time    0.8677
    --------------------------------------------
      LOOP:  cpu time  178.0396: real time  178.1085

 eigenvalue-minimisations  :   402
 total energy-change (2. order) : 0.1036963E+01  (-0.4055159E-02)
 number of electron      30.0000037 magnetization 
 augmentation part       -0.2564393 magnetization 

 Broyden mixing:
  rms(total) = 0.11800E+01    rms(broyden)= 0.11799E+01
  rms(prec ) = 0.12113E+01
  weight for this iteration     100.00

 eigenvalues of (default mixing * dielectric matrix)
  average eigenvalue GAMMA=   0.8470
  1.9185  1.9185  1.9520  1.9520  1.2759  0.9552  0.9552  0.9763  0.5960  0.5960
  0.3237  0.3237  0.3462  0.0553  0.0970  0.0976  0.0604

 Free energy of the ion-electron system (eV)
  ---------------------------------------------------
  alpha Z        PSCENC =         0.10075004
  Ewald energy   TEWEN  =       558.30175961
  -Hartree energ DENC   =     -1386.61475203
  -exchange      EXHF   =         0.00000000
  -V(xc)+E(xc)   XCENC  =        73.43851389
  PAW double counting   =       760.16126679     -761.82013136
  entropy T*S    EENTRO =        -0.70246770
  eigenvalues    EBANDS =      -269.38115583
  atomic energy  EATOM  =      1025.09994095
  Solvation  Ediel_sol  =         0.00000000
  ---------------------------------------------------
  free energy    TOTEN  =        -1.41627565 eV

  energy without entropy =       -0.71380794  energy(sigma->0) =       -1.06504179


--------------------------------------------------------------------------------------------------------




--------------------------------------- Iteration      1(  23)  ---------------------------------------


    POTLOK:  cpu time    1.8253: real time    1.8269
    SETDIJ:  cpu time    0.0025: real time    0.0025
     EDDAV:  cpu time  217.6031: real time  217.7255
       DOS:  cpu time    0.0006: real time    0.0006
    CHARGE:  cpu time   11.8768: real time   11.8808
    MIXING:  cpu time    0.9560: real time    0.9562
    --------------------------------------------
      LOOP:  cpu time  232.2644: real time  232.3926

 eigenvalue-minimisations  :   570
 total energy-change (2. order) : 0.1608019E-01  (-0.1532028E-02)
 number of electron      30.0000032 magnetization 
 augmentation part       -0.2559707 magnetization 

 Broyden mixing:
  rms(total) = 0.11666E+01    rms(broyden)= 0.11666E+01
  rms(prec ) = 0.11975E+01
  weight for this iteration     100.00

 eigenvalues of (default mixing * dielectric matrix)
  average eigenvalue GAMMA=   0.8180
  1.9394  1.9394  1.8213  1.8213  1.5258  0.9564  0.9564  1.0032  0.5911  0.5911
  0.3237  0.3237  0.3462  0.0553  0.0970  0.0976  0.2002  0.1346

 Free energy of the ion-electron system (eV)
  ---------------------------------------------------
  alpha Z        PSCENC =         0.10075004
  Ewald energy   TEWEN  =       558.30175961
  -Hartree energ DENC   =     -1386.61057214
  -exchange      EXHF   =         0.00000000
  -V(xc)+E(xc)   XCENC  =        73.43986157
  PAW double counting   =       760.20107474     -761.86007364
  entropy T*S    EENTRO =        -0.70445005
  eigenvalues    EBANDS =      -269.36848653
  atomic energy  EATOM  =      1025.09994095
  Solvation  Ediel_sol  =         0.00000000
  ---------------------------------------------------
  free energy    TOTEN  =        -1.40019546 eV

  energy without entropy =       -0.69574540  energy(sigma->0) =       -1.04797043


--------------------------------------------------------------------------------------------------------




--------------------------------------- Iteration      1(  24)  ---------------------------------------


    POTLOK:  cpu time    1.8263: real time    1.8278
    SETDIJ:  cpu time    0.0021: real time    0.0021
     EDDAV:  cpu time  188.6945: real time  188.7605
       DOS:  cpu time    0.0006: real time    0.0006
    CHARGE:  cpu time   11.8410: real time   11.8471
    MIXING:  cpu time    1.0201: real time    1.0204
    --------------------------------------------
      LOOP:  cpu time  203.3845: real time  203.4585

 eigenvalue-minimisations  :   480
 total energy-change (2. order) :-0.7200252E-01  (-0.1320421E-02)
 number of electron      30.0000033 magnetization 
 augmentation part       -0.2558251 magnetization 

 Broyden mixing:
  rms(total) = 0.11433E+01    rms(broyden)= 0.11433E+01
  rms(prec ) = 0.11738E+01
  weight for this iteration     100.00

 eigenvalues of (default mixing * dielectric matrix)
  average eigenvalue GAMMA=   0.8578
  2.5045  2.0169  2.0169  1.5944  1.5944  0.9643  0.9643  1.0012  0.4834  0.5793
  0.5793  0.3462  0.3237  0.3237  0.0970  0.0553  0.0976  0.3784  0.3784

 Free energy of the ion-electron system (eV)
  ---------------------------------------------------
  alpha Z        PSCENC =         0.10075004
  Ewald energy   TEWEN  =       558.30175961
  -Hartree energ DENC   =     -1386.52092816
  -exchange      EXHF   =         0.00000000
  -V(xc)+E(xc)   XCENC  =        73.44459860
  PAW double counting   =       761.15227590     -762.81216357
  entropy T*S    EENTRO =        -0.70966340
  eigenvalues    EBANDS =      -269.52876794
  atomic energy  EATOM  =      1025.09994095
  Solvation  Ediel_sol  =         0.00000000
  ---------------------------------------------------
  free energy    TOTEN  =        -1.47219797 eV

  energy without entropy =       -0.76253457  energy(sigma->0) =       -1.11736627


--------------------------------------------------------------------------------------------------------




--------------------------------------- Iteration      1(  25)  ---------------------------------------


    POTLOK:  cpu time    1.8275: real time    1.8294
    SETDIJ:  cpu time    0.0019: real time    0.0019
     EDDAV:  cpu time  180.3440: real time  180.4086
       DOS:  cpu time    0.0006: real time    0.0006
    CHARGE:  cpu time   11.8476: real time   11.8511
    MIXING:  cpu time    1.1172: real time    1.1175
    --------------------------------------------
      LOOP:  cpu time  195.1389: real time  195.2092

 eigenvalue-minimisations  :   450
 total energy-change (2. order) : 0.4506981E+00  (-0.1943964E-01)
 number of electron      30.0000016 magnetization 
 augmentation part       -0.2573324 magnetization 

 Broyden mixing:
  rms(total) = 0.71869E+00    rms(broyden)= 0.71845E+00
  rms(prec ) = 0.73521E+00
  weight for this iteration     100.00

 eigenvalues of (default mixing * dielectric matrix)
  average eigenvalue GAMMA=   0.8509
  2.7805  2.0810  2.0810  1.6303  1.6303  0.9680  0.9680  0.9771  0.3237  0.3237
  0.5195  0.5195  0.3462  0.4736  0.4736  0.0553  0.0976  0.0970  0.3356  0.3356

 Free energy of the ion-electron system (eV)
  ---------------------------------------------------
  alpha Z        PSCENC =         0.10075004
  Ewald energy   TEWEN  =       558.30175961
  -Hartree energ DENC   =     -1386.50142503
  -exchange      EXHF   =         0.00000000
  -V(xc)+E(xc)   XCENC  =        73.41818751
  PAW double counting   =       759.55760374     -761.21311303
  entropy T*S    EENTRO =        -0.67757106
  eigenvalues    EBANDS =      -269.10763259
  atomic energy  EATOM  =      1025.09994095
  Solvation  Ediel_sol  =         0.00000000
  ---------------------------------------------------
  free energy    TOTEN  =        -1.02149987 eV

  energy without entropy =       -0.34392881  energy(sigma->0) =       -0.68271434


--------------------------------------------------------------------------------------------------------




--------------------------------------- Iteration      1(  26)  ---------------------------------------


    POTLOK:  cpu time    1.8253: real time    1.8271
    SETDIJ:  cpu time    0.0027: real time    0.0027
     EDDAV:  cpu time  179.9547: real time  180.0522
       DOS:  cpu time    0.0006: real time    0.0006
    CHARGE:  cpu time   11.8708: real time   11.8744
    MIXING:  cpu time    1.1824: real time    1.1827
    --------------------------------------------
      LOOP:  cpu time  194.8365: real time  194.9397

 eigenvalue-minimisations  :   453
 total energy-change (2. order) :-0.2988445E+00  (-0.1973873E-01)
 number of electron      30.0000026 magnetization 
 augmentation part       -0.2561585 magnetization 

 Broyden mixing:
  rms(total) = 0.10146E+01    rms(broyden)= 0.10145E+01
  rms(prec ) = 0.10411E+01
  weight for this iteration     100.00

 eigenvalues of (default mixing * dielectric matrix)
  average eigenvalue GAMMA=   0.9010
  2.2807  2.2807  2.3643  2.3643  1.6679  0.9734  0.9734  0.5955  0.5955  0.9089
  0.6198  0.6198  0.6718  0.3237  0.3237  0.5496  0.3462  0.0553  0.0970  0.0976
  0.2118

 Free energy of the ion-electron system (eV)
  ---------------------------------------------------
  alpha Z        PSCENC =         0.10075004
  Ewald energy   TEWEN  =       558.30175961
  -Hartree energ DENC   =     -1386.57110250
  -exchange      EXHF   =         0.00000000
  -V(xc)+E(xc)   XCENC  =        73.44686411
  PAW double counting   =       760.95111977     -762.60977435
  entropy T*S    EENTRO =        -0.71812388
  eigenvalues    EBANDS =      -269.32177813
  atomic energy  EATOM  =      1025.09994095
  Solvation  Ediel_sol  =         0.00000000
  ---------------------------------------------------
  free energy    TOTEN  =        -1.32034439 eV

  energy without entropy =       -0.60222051  energy(sigma->0) =       -0.96128245


--------------------------------------------------------------------------------------------------------




--------------------------------------- Iteration      1(  27)  ---------------------------------------


    POTLOK:  cpu time    1.8257: real time    1.8274
    SETDIJ:  cpu time    0.0019: real time    0.0019
     EDDAV:  cpu time  182.5183: real time  182.5898
       DOS:  cpu time    0.0006: real time    0.0006
    CHARGE:  cpu time   11.8448: real time   11.8484
    MIXING:  cpu time    1.2903: real time    1.2907
    --------------------------------------------
      LOOP:  cpu time  197.4817: real time  197.5589

 eigenvalue-minimisations  :   456
 total energy-change (2. order) : 0.4858552E+00  (-0.1703023E+00)
 number of electron      29.9999975 magnetization 
 augmentation part       -0.2589457 magnetization 

 Broyden mixing:
  rms(total) = 0.59759E+00    rms(broyden)= 0.59698E+00
  rms(prec ) = 0.60760E+00
  weight for this iteration     100.00

 eigenvalues of (default mixing * dielectric matrix)
  average eigenvalue GAMMA=   0.8623
  2.3064  2.3064  2.2184  2.0325  2.0325  0.9725  0.9725  0.9327  0.6152  0.6152
  0.6352  0.6352  0.6024  0.6024  0.3237  0.3237  0.3462  0.0970  0.0553  0.0976
  0.0332  0.2141

 Free energy of the ion-electron system (eV)
  ---------------------------------------------------
  alpha Z        PSCENC =         0.10075004
  Ewald energy   TEWEN  =       558.30175961
  -Hartree energ DENC   =     -1386.51815673
  -exchange      EXHF   =         0.00000000
  -V(xc)+E(xc)   XCENC  =        73.40132114
  PAW double counting   =       758.47621698     -760.12815469
  entropy T*S    EENTRO =        -0.59644797
  eigenvalues    EBANDS =      -268.97171850
  atomic energy  EATOM  =      1025.09994095
  Solvation  Ediel_sol  =         0.00000000
  ---------------------------------------------------
  free energy    TOTEN  =        -0.83448918 eV

  energy without entropy =       -0.23804121  energy(sigma->0) =       -0.53626520


--------------------------------------------------------------------------------------------------------




--------------------------------------- Iteration      1(  28)  ---------------------------------------


    POTLOK:  cpu time    1.8245: real time    1.8264
    SETDIJ:  cpu time    0.0020: real time    0.0020
     EDDAV:  cpu time  173.8482: real time  173.9183
       DOS:  cpu time    0.0006: real time    0.0006
    CHARGE:  cpu time   11.9139: real time   11.9180
    MIXING:  cpu time    1.3578: real time    1.3594
    --------------------------------------------
      LOOP:  cpu time  188.9470: real time  189.0248

 eigenvalue-minimisations  :   432
 total energy-change (2. order) :-0.1918515E+00  (-0.1241883E+00)
 number of electron      29.9999975 magnetization 
 augmentation part       -0.2580916 magnetization 

 Broyden mixing:
  rms(total) = 0.57350E+00    rms(broyden)= 0.57349E+00
  rms(prec ) = 0.58427E+00
  weight for this iteration     100.00

 eigenvalues of (default mixing * dielectric matrix)
  average eigenvalue GAMMA=   0.8301
  2.3001  2.3001  2.1253  2.1253  2.0531  0.9720  0.9720  0.9393  0.6131  0.6131
  0.6350  0.6350  0.6005  0.6005  0.3237  0.3237  0.3462  0.0970  0.0553  0.0976
  0.2169  0.0732  0.0732

 Free energy of the ion-electron system (eV)
  ---------------------------------------------------
  alpha Z        PSCENC =         0.10075004
  Ewald energy   TEWEN  =       558.30175961
  -Hartree energ DENC   =     -1386.09079852
  -exchange      EXHF   =         0.00000000
  -V(xc)+E(xc)   XCENC  =        73.38839432
  PAW double counting   =       757.03006138     -758.67741630
  entropy T*S    EENTRO =        -0.66949258
  eigenvalues    EBANDS =      -269.50953956
  atomic energy  EATOM  =      1025.09994095
  Solvation  Ediel_sol  =         0.00000000
  ---------------------------------------------------
  free energy    TOTEN  =        -1.02634067 eV

  energy without entropy =       -0.35684809  energy(sigma->0) =       -0.69159438


--------------------------------------------------------------------------------------------------------




--------------------------------------- Iteration      1(  29)  ---------------------------------------


    POTLOK:  cpu time    1.8333: real time    1.8350
    SETDIJ:  cpu time    0.0019: real time    0.0019
     EDDAV:  cpu time  213.7211: real time  213.8153
       DOS:  cpu time    0.0006: real time    0.0006
    CHARGE:  cpu time   11.9070: real time   11.9108
    MIXING:  cpu time    1.4759: real time    1.4762
    --------------------------------------------
      LOOP:  cpu time  228.9398: real time  229.0399

 eigenvalue-minimisations  :   549
 total energy-change (2. order) : 0.4577579E-01  (-0.1783844E-01)
 number of electron      29.9999967 magnetization 
 augmentation part       -0.2578435 magnetization 

 Broyden mixing:
  rms(total) = 0.61968E+00    rms(broyden)= 0.61961E+00
  rms(prec ) = 0.63111E+00
  weight for this iteration     100.00

 eigenvalues of (default mixing * dielectric matrix)
  average eigenvalue GAMMA=   0.8183
  2.3718  2.3718  2.2537  2.2537  1.3381  1.1382  0.9678  0.9678  0.6456  0.6456
  0.7025  0.5906  0.5906  0.4610  0.3237  0.3237  0.3462  0.2421  0.0970  0.0553
  0.0976  0.3096  0.3096  0.2363

 Free energy of the ion-electron system (eV)
  ---------------------------------------------------
  alpha Z        PSCENC =         0.10075004
  Ewald energy   TEWEN  =       558.30175961
  -Hartree energ DENC   =     -1386.01314169
  -exchange      EXHF   =         0.00000000
  -V(xc)+E(xc)   XCENC  =        73.37568177
  PAW double counting   =       756.53856621     -758.18245377
  entropy T*S    EENTRO =        -0.62571586
  eigenvalues    EBANDS =      -269.57595212
  atomic energy  EATOM  =      1025.09994095
  Solvation  Ediel_sol  =         0.00000000
  ---------------------------------------------------
  free energy    TOTEN  =        -0.98056488 eV

  energy without entropy =       -0.35484901  energy(sigma->0) =       -0.66770694


--------------------------------------------------------------------------------------------------------




--------------------------------------- Iteration      1(  30)  ---------------------------------------


    POTLOK:  cpu time    1.8325: real time    1.8342
[...]
  atomic energy  EATOM  =      1025.09994095
  Solvation  Ediel_sol  =         0.00000000
  ---------------------------------------------------
  free energy    TOTEN  =         4.87928217 eV

  energy without entropy =        5.48299575  energy(sigma->0) =        5.18113896


--------------------------------------------------------------------------------------------------------




--------------------------------------- Iteration      5(  38)  ---------------------------------------


    POTLOK:  cpu time    1.8047: real time    1.8060
    SETDIJ:  cpu time    0.0036: real time    0.0036
     EDDAV:  cpu time  213.5415: real time  213.5844
       DOS:  cpu time    0.0006: real time    0.0006
    CHARGE:  cpu time   11.8605: real time   11.8705
    MIXING:  cpu time    3.0293: real time    3.0297
    --------------------------------------------
      LOOP:  cpu time  230.2402: real time  230.2948

 eigenvalue-minimisations  :   513
 total energy-change (2. order) :-0.2335514E+00  (-0.2520027E-01)
 number of electron      29.9999416 magnetization 
 augmentation part       -0.5030542 magnetization 

 Broyden mixing:
  rms(total) = 0.12083E+01    rms(broyden)= 0.12083E+01
  rms(prec ) = 0.12247E+01
  weight for this iteration     100.00

 eigenvalues of (default mixing * dielectric matrix)
  average eigenvalue GAMMA=   0.9360
  4.0120  4.0120  2.1679  2.1679  1.9027  1.9027  1.9033  1.1023  1.1023  1.1575
  1.1575  0.8009  0.8009  0.4444  0.4444  0.6471  0.6471  0.7228  0.7228  0.6661
  0.6661  0.5779  0.5779  0.3345  0.3345  0.5023  0.5023  0.4642  0.4642  0.1588
  0.4490  0.3258  0.3258  0.1424  0.0596  0.2079  0.0553

 Free energy of the ion-electron system (eV)
  ---------------------------------------------------
  alpha Z        PSCENC =         0.03819773
  Ewald energy   TEWEN  =       494.01857944
  -Hartree energ DENC   =     -1313.93722185
  -exchange      EXHF   =         0.00000000
  -V(xc)+E(xc)   XCENC  =        73.16288500
  PAW double counting   =       623.00747181     -623.76317977
  entropy T*S    EENTRO =        -0.62278296
  eigenvalues    EBANDS =      -272.35815957
  atomic energy  EATOM  =      1025.09994095
  Solvation  Ediel_sol  =         0.00000000
  ---------------------------------------------------
  free energy    TOTEN  =         4.64573077 eV

  energy without entropy =        5.26851373  energy(sigma->0) =        4.95712225


--------------------------------------------------------------------------------------------------------




--------------------------------------- Iteration      5(  39)  ---------------------------------------


    POTLOK:  cpu time    1.8048: real time    1.8061
    SETDIJ:  cpu time    0.0025: real time    0.0025
     EDDAV:  cpu time  200.4690: real time  200.5464
       DOS:  cpu time    0.0006: real time    0.0006
    CHARGE:  cpu time   11.8700: real time   11.8748
    MIXING:  cpu time    3.2295: real time    3.2301
    --------------------------------------------
      LOOP:  cpu time  217.3763: real time  217.4606

 eigenvalue-minimisations  :   471
 total energy-change (2. order) : 0.7535600E+00  (-0.1975574E-01)
 number of electron      29.9999359 magnetization 
 augmentation part       -0.4894781 magnetization 

 Broyden mixing:
  rms(total) = 0.11836E+01    rms(broyden)= 0.11836E+01
  rms(prec ) = 0.11991E+01
  weight for this iteration     100.00

 eigenvalues of (default mixing * dielectric matrix)
  average eigenvalue GAMMA=   0.9490
  4.4787  4.4787  2.2946  2.2946  2.1462  1.6240  1.6240  1.1025  1.1025  1.1791
  1.1791  0.8032  0.8032  0.4444  0.4444  0.6471  0.6471  0.7248  0.7248  0.6453
  0.6453  0.5817  0.5817  0.3345  0.3345  0.5263  0.5263  0.5307  0.4610  0.4610
  0.1424  0.3258  0.3258  0.4142  0.1588  0.0596  0.0553  0.2079

 Free energy of the ion-electron system (eV)
  ---------------------------------------------------
  alpha Z        PSCENC =         0.03819773
  Ewald energy   TEWEN  =       494.01857944
  -Hartree energ DENC   =     -1313.47936353
  -exchange      EXHF   =         0.00000000
  -V(xc)+E(xc)   XCENC  =        73.10042411
  PAW double counting   =       621.74457114     -622.50026372
  entropy T*S    EENTRO =        -0.61594173
  eigenvalues    EBANDS =      -272.00685365
  atomic energy  EATOM  =      1025.09994095
  Solvation  Ediel_sol  =         0.00000000
  ---------------------------------------------------
  free energy    TOTEN  =         5.39929074 eV

  energy without entropy =        6.01523247  energy(sigma->0) =        5.70726160


--------------------------------------------------------------------------------------------------------




--------------------------------------- Iteration      5(  40)  ---------------------------------------


    POTLOK:  cpu time    1.8051: real time    1.8067
    SETDIJ:  cpu time    0.0021: real time    0.0021
     EDDAV:  cpu time  190.2036: real time  190.2756
       DOS:  cpu time    0.0006: real time    0.0006
    CHARGE:  cpu time   11.8812: real time   11.8893
    MIXING:  cpu time    3.3115: real time    3.3122
    --------------------------------------------
      LOOP:  cpu time  207.2042: real time  207.2866

 eigenvalue-minimisations  :   435
 total energy-change (2. order) : 0.6590891E+00  (-0.1041092E-01)
 number of electron      29.9999331 magnetization 
 augmentation part       -0.4906570 magnetization 

 Broyden mixing:
  rms(total) = 0.10855E+01    rms(broyden)= 0.10854E+01
  rms(prec ) = 0.10997E+01
  weight for this iteration     100.00

 eigenvalues of (default mixing * dielectric matrix)
  average eigenvalue GAMMA=   0.9889
  4.7114  4.7114  2.5660  2.3844  2.3844  1.5790  1.5790  1.3853  1.3853  1.1019
  1.1019  0.8035  0.8035  0.4444  0.4444  0.6471  0.6471  0.8112  0.8112  0.7238
  0.7238  0.6641  0.6641  0.5775  0.5775  0.3345  0.3345  0.5136  0.5136  0.4630
  0.4630  0.4346  0.3258  0.3258  0.1424  0.1588  0.0596  0.2079  0.0553

 Free energy of the ion-electron system (eV)
  ---------------------------------------------------
  alpha Z        PSCENC =         0.03819773
  Ewald energy   TEWEN  =       494.01857944
  -Hartree energ DENC   =     -1312.53158734
  -exchange      EXHF   =         0.00000000
  -V(xc)+E(xc)   XCENC  =        73.01723525
  PAW double counting   =       618.98443996     -619.73444197
  entropy T*S    EENTRO =        -0.65469600
  eigenvalues    EBANDS =      -272.17928814
  atomic energy  EATOM  =      1025.09994095
  Solvation  Ediel_sol  =         0.00000000
  ---------------------------------------------------
  free energy    TOTEN  =         6.05837987 eV

  energy without entropy =        6.71307587  energy(sigma->0) =        6.38572787


--------------------------------------------------------------------------------------------------------




--------------------------------------- Iteration      5(  41)  ---------------------------------------


    POTLOK:  cpu time    1.8051: real time    1.8068
    SETDIJ:  cpu time    0.0028: real time    0.0028
     EDDAV:  cpu time  216.1929: real time  216.2678
       DOS:  cpu time    0.0006: real time    0.0006
    CHARGE:  cpu time   11.8744: real time   11.8787
    MIXING:  cpu time    3.5272: real time    3.5280
    --------------------------------------------
      LOOP:  cpu time  233.4030: real time  233.4846

 eigenvalue-minimisations  :   507
 total energy-change (2. order) : 0.1598731E+00  (-0.8762750E-02)
 number of electron      29.9999268 magnetization 
 augmentation part       -0.4825229 magnetization 

 Broyden mixing:
  rms(total) = 0.10120E+01    rms(broyden)= 0.10119E+01
  rms(prec ) = 0.10251E+01
  weight for this iteration     100.00

 eigenvalues of (default mixing * dielectric matrix)
  average eigenvalue GAMMA=   1.0028
  5.0740  5.0740  2.4549  2.4549  2.2196  1.4835  1.4835  1.5754  1.5754  1.1018
  1.1018  0.8029  0.8029  0.4444  0.4444  0.9025  0.9025  0.6471  0.6471  0.8001
  0.6632  0.6632  0.7384  0.5777  0.5777  0.3345  0.3345  0.1588  0.5341  0.5341
  0.5361  0.4625  0.4625  0.1424  0.3258  0.3258  0.4237  0.0596  0.2079  0.0553

 Free energy of the ion-electron system (eV)
  ---------------------------------------------------
  alpha Z        PSCENC =         0.03819773
  Ewald energy   TEWEN  =       494.01857944
  -Hartree energ DENC   =     -1311.98458958
  -exchange      EXHF   =         0.00000000
  -V(xc)+E(xc)   XCENC  =        72.94351314
  PAW double counting   =       617.13956185     -617.88490944
  entropy T*S    EENTRO =        -0.65473530
  eigenvalues    EBANDS =      -272.49730580
  atomic energy  EATOM  =      1025.09994095
  Solvation  Ediel_sol  =         0.00000000
  ---------------------------------------------------
  free energy    TOTEN  =         6.21825298 eV

  energy without entropy =        6.87298828  energy(sigma->0) =        6.54562063


--------------------------------------------------------------------------------------------------------




--------------------------------------- Iteration      5(  42)  ---------------------------------------


    POTLOK:  cpu time    1.8070: real time    1.8085
    SETDIJ:  cpu time    0.0021: real time    0.0021
     EDDAV:  cpu time  200.9319: real time  201.0051
       DOS:  cpu time    0.0006: real time    0.0006
    CHARGE:  cpu time   11.8746: real time   11.8772
    MIXING:  cpu time    3.6122: real time    3.6127
    --------------------------------------------
      LOOP:  cpu time  218.2285: real time  218.3064

 eigenvalue-minimisations  :   456
 total energy-change (2. order) :-0.1283890E+00  (-0.7897034E-02)
 number of electron      29.9999340 magnetization 
 augmentation part       -0.4924222 magnetization 

 Broyden mixing:
  rms(total) = 0.10413E+01    rms(broyden)= 0.10413E+01
  rms(prec ) = 0.10552E+01
  weight for this iteration     100.00

 eigenvalues of (default mixing * dielectric matrix)
  average eigenvalue GAMMA=   1.0318
  5.5147  5.5147  2.5778  2.5778  2.2661  1.5889  1.5889  1.5494  1.5494  1.1017
  1.1017  0.8028  0.8028  1.0127  0.9531  0.9531  0.4444  0.4444  0.6471  0.6471
  0.6596  0.6596  0.7038  0.7038  0.5777  0.5777  0.3345  0.3345  0.1588  0.4632
  0.4632  0.5034  0.5034  0.4949  0.0596  0.1424  0.3258  0.3258  0.4109  0.2079
  0.0553

 Free energy of the ion-electron system (eV)
  ---------------------------------------------------
  alpha Z        PSCENC =         0.03819773
  Ewald energy   TEWEN  =       494.01857944
  -Hartree energ DENC   =     -1311.86378876
  -exchange      EXHF   =         0.00000000
  -V(xc)+E(xc)   XCENC  =        72.91044729
  PAW double counting   =       616.55776915     -617.29996991
  entropy T*S    EENTRO =        -0.67412877
  eigenvalues    EBANDS =      -272.69718317
  atomic energy  EATOM  =      1025.09994095
  Solvation  Ediel_sol  =         0.00000000
  ---------------------------------------------------
  free energy    TOTEN  =         6.08986395 eV

  energy without entropy =        6.76399273  energy(sigma->0) =        6.42692834


--------------------------------------------------------------------------------------------------------




--------------------------------------- Iteration      5(  43)  ---------------------------------------


    POTLOK:  cpu time    1.8092: real time    1.8108
    SETDIJ:  cpu time    0.0019: real time    0.0019
     EDDAV:  cpu time  213.4304: real time  213.4887
       DOS:  cpu time    0.0007: real time    0.0007
    CHARGE:  cpu time   11.8712: real time   11.8730
    MIXING:  cpu time    3.8360: real time    3.8366
    --------------------------------------------
      LOOP:  cpu time  230.9494: real time  231.0116

 eigenvalue-minimisations  :   489
 total energy-change (2. order) :-0.1338463E+00  (-0.2395933E-02)
 number of electron      29.9999363 magnetization 
 augmentation part       -0.4937199 magnetization 

 Broyden mixing:
  rms(total) = 0.10869E+01    rms(broyden)= 0.10869E+01
  rms(prec ) = 0.11015E+01
  weight for this iteration     100.00

 eigenvalues of (default mixing * dielectric matrix)
  average eigenvalue GAMMA=   1.0942
  6.1935  6.1935  2.6769  2.6769  2.3806  2.3806  1.7260  1.7260  1.1017  1.1017
  1.1078  1.1078  1.1181  1.1181  0.8030  0.8030  0.4444  0.4444  0.6471  0.6471
  0.6597  0.6597  0.7385  0.7212  0.7212  0.5778  0.5778  0.3345  0.3345  0.1588
  0.5423  0.5325  0.5325  0.4625  0.4625  0.1424  0.3258  0.3258  0.4243  0.0596
  0.2079  0.0553

 Free energy of the ion-electron system (eV)
  ---------------------------------------------------
  alpha Z        PSCENC =         0.03819773
  Ewald energy   TEWEN  =       494.01857944
  -Hartree energ DENC   =     -1311.90138366
  -exchange      EXHF   =         0.00000000
  -V(xc)+E(xc)   XCENC  =        72.89838423
  PAW double counting   =       616.46160158     -617.20310916
  entropy T*S    EENTRO =        -0.66789206
  eigenvalues    EBANDS =      -272.78830141
  atomic energy  EATOM  =      1025.09994095
  Solvation  Ediel_sol  =         0.00000000
  ---------------------------------------------------
  free energy    TOTEN  =         5.95601764 eV

  energy without entropy =        6.62390970  energy(sigma->0) =        6.28996367


--------------------------------------------------------------------------------------------------------




--------------------------------------- Iteration      5(  44)  ---------------------------------------


    POTLOK:  cpu time    1.8079: real time    1.8099
    SETDIJ:  cpu time    0.0019: real time    0.0019
     EDDAV:  cpu time  202.2536: real time  202.3310
       DOS:  cpu time    0.0006: real time    0.0006
    CHARGE:  cpu time   11.8854: real time   11.8938
    MIXING:  cpu time    3.9173: real time    3.9179
    --------------------------------------------
      LOOP:  cpu time  219.8668: real time  219.9552

 eigenvalue-minimisations  :   453
 total energy-change (2. order) : 0.4099527E-02  (-0.6081868E-02)
 number of electron      29.9999382 magnetization 
 augmentation part       -0.5049578 magnetization 

 Broyden mixing:
  rms(total) = 0.10961E+01    rms(broyden)= 0.10960E+01
  rms(prec ) = 0.11112E+01
  weight for this iteration     100.00

 eigenvalues of (default mixing * dielectric matrix)
  average eigenvalue GAMMA=   1.0690
  6.1300  6.1300  2.6488  2.6488  2.3835  2.3835  1.6974  1.6974  1.1017  1.1017
  1.1816  1.1816  1.0475  1.0475  0.8030  0.8030  0.4444  0.4444  0.6471  0.6471
  0.2731  0.6603  0.6603  0.7215  0.7215  0.7210  0.5778  0.5778  0.3345  0.3345
  0.1588  0.5295  0.5295  0.5328  0.4625  0.4625  0.4231  0.3258  0.3258  0.1424
  0.0596  0.0553  0.2079

 Free energy of the ion-electron system (eV)
  ---------------------------------------------------
  alpha Z        PSCENC =         0.03819773
  Ewald energy   TEWEN  =       494.01857944
  -Hartree energ DENC   =     -1311.97799295
  -exchange      EXHF   =         0.00000000
  -V(xc)+E(xc)   XCENC  =        72.90233758
  PAW double counting   =       616.56246953     -617.30349227
  entropy T*S    EENTRO =        -0.68199236
  eigenvalues    EBANDS =      -272.69793048
  atomic energy  EATOM  =      1025.09994095
  Solvation  Ediel_sol  =         0.00000000
  ---------------------------------------------------
  free energy    TOTEN  =         5.96011717 eV

  energy without entropy =        6.64210952  energy(sigma->0) =        6.30111334


--------------------------------------------------------------------------------------------------------




--------------------------------------- Iteration      5(  45)  ---------------------------------------


    POTLOK:  cpu time    1.8071: real time    1.8084
    SETDIJ:  cpu time    0.0024: real time    0.0024
     EDDAV:  cpu time  196.6163: real time  196.7090
       DOS:  cpu time    0.0006: real time    0.0006
    CHARGE:  cpu time   11.8774: real time   11.8797
    MIXING:  cpu time    4.1583: real time    4.1591
    --------------------------------------------
      LOOP:  cpu time  214.4620: real time  214.5591

 eigenvalue-minimisations  :   435
 total energy-change (2. order) :-0.4637287E-01  (-0.5291671E-02)
 number of electron      29.9999378 magnetization 
 augmentation part       -0.5070244 magnetization 

 Broyden mixing:
  rms(total) = 0.11069E+01    rms(broyden)= 0.11069E+01
  rms(prec ) = 0.11224E+01
  weight for this iteration     100.00

 eigenvalues of (default mixing * dielectric matrix)
  average eigenvalue GAMMA=   1.0650
  6.2424  6.2424  2.6535  2.6535  2.4701  2.4701  1.6805  1.6805  1.1017  1.1017
  1.1526  1.1526  1.0418  1.0418  0.8030  0.8030  0.4444  0.4444  0.6471  0.6471
  0.4593  0.4593  0.6605  0.6605  0.7073  0.7073  0.5778  0.5778  0.6977  0.1588
  0.3345  0.3345  0.5289  0.5289  0.5303  0.4625  0.4625  0.1424  0.3258  0.3258
  0.4226  0.0596  0.2078  0.0553

 Free energy of the ion-electron system (eV)
  ---------------------------------------------------
  alpha Z        PSCENC =         0.03819773
  Ewald energy   TEWEN  =       494.01857944
  -Hartree energ DENC   =     -1312.02564097
  -exchange      EXHF   =         0.00000000
  -V(xc)+E(xc)   XCENC  =        72.89346179
  PAW double counting   =       616.55411555     -617.29502021
  entropy T*S    EENTRO =        -0.68199600
  eigenvalues    EBANDS =      -272.68789397
  atomic energy  EATOM  =      1025.09994095
  Solvation  Ediel_sol  =         0.00000000
  ---------------------------------------------------
  free energy    TOTEN  =         5.91374430 eV

  energy without entropy =        6.59574030  energy(sigma->0) =        6.25474230


--------------------------------------------------------------------------------------------------------




--------------------------------------- Iteration      5(  46)  ---------------------------------------


    POTLOK:  cpu time    1.8060: real time    1.8081
    SETDIJ:  cpu time    0.0027: real time    0.0027
     EDDAV:  cpu time  224.0470: real time  224.1288
       DOS:  cpu time    0.0006: real time    0.0006
    CHARGE:  cpu time   11.8830: real time   11.8853
    MIXING:  cpu time    3.8602: real time    3.8609
    --------------------------------------------
      LOOP:  cpu time  241.5995: real time  241.6865

 eigenvalue-minimisations  :   510
 total energy-change (2. order) : 0.5233055E-04  (-0.2558981E-02)
 number of electron      29.9999363 magnetization 
 augmentation part       -0.5083829 magnetization 

 Broyden mixing:
  rms(total) = 0.11110E+01    rms(broyden)= 0.11110E+01
  rms(prec ) = 0.11266E+01
  weight for this iteration     100.00

 eigenvalues of (default mixing * dielectric matrix)
  average eigenvalue GAMMA=   1.1258
  5.6525  5.6525  2.8872  2.5067  2.5067  2.1377  1.7952  1.7952  1.9463  0.9343
  1.3716  1.3716  0.9932  0.9932  1.1183  1.0501  1.0501  0.6048  0.6048  0.3012
  0.3012  0.7398  0.7398  0.6878  0.6878  0.6584  0.6584  0.3514  0.3514  0.5385
  0.5054  0.5054  0.2964  0.2555  0.2555  0.0437  0.0152  0.0614  0.0614  0.0456

 Free energy of the ion-electron system (eV)
  ---------------------------------------------------
  alpha Z        PSCENC =         0.03819773
  Ewald energy   TEWEN  =       494.01857944
  -Hartree energ DENC   =     -1312.02426734
  -exchange      EXHF   =         0.00000000
  -V(xc)+E(xc)   XCENC  =        72.88945640
  PAW double counting   =       616.56874854     -617.30967496
  entropy T*S    EENTRO =        -0.68240635
  eigenvalues    EBANDS =      -272.68477778
  atomic energy  EATOM  =      1025.09994095
  Solvation  Ediel_sol  =         0.00000000
  ---------------------------------------------------
  free energy    TOTEN  =         5.91379663 eV

  energy without entropy =        6.59620297  energy(sigma->0) =        6.25499980


--------------------------------------------------------------------------------------------------------




--------------------------------------- Iteration      5(  47)  ---------------------------------------


    POTLOK:  cpu time    1.8078: real time    1.8092
    SETDIJ:  cpu time    0.0020: real time    0.0020
