   8   8   0   0
  0.5796174E+02  0.5174000E-09  0.5174160E-09  0.2000000E-08  0.5000000E-15
  1.000000000000000E-004
  CAR 
 BC3 DOS                                 
      5.88140183    -22.21617756  301     -3.86041814      1.00000000
    -22.216  0.0000E+00  0.0000E+00
    -22.123  0.0000E+00  0.0000E+00
    -22.029  0.0000E+00  0.0000E+00
    -21.935  0.0000E+00  0.0000E+00
    -21.842  0.0000E+00  0.0000E+00
    -21.748  0.0000E+00  0.0000E+00
    -21.654  0.0000E+00  0.0000E+00
    -21.561  0.0000E+00  0.0000E+00
    -21.467  0.0000E+00  0.0000E+00
    -21.373  0.1976E-15  0.1850E-16
    -21.280  0.4167E-13  0.3922E-14
    -21.186  0.5509E-11  0.5199E-12
    -21.092  0.4746E-09  0.4497E-10
    -20.999  0.2670E-07  0.2545E-08
    -20.905  0.9822E-06  0.9453E-07
    -20.811  0.2369E-04  0.2313E-05
    -20.718  0.3759E-03  0.3752E-04
    -20.624  0.3938E-02  0.4064E-03
    -20.530  0.2742E-01  0.2975E-02
    -20.437  0.1281E+00  0.1497E-01
    -20.343  0.4081E+00  0.5320E-01
    -20.249  0.9121E+00  0.1386E+00
    -20.156  0.1504E+01  0.2795E+00
    -20.062  0.1983E+01  0.4652E+00
    -19.968  0.2328E+01  0.6833E+00
    -19.875  0.2653E+01  0.9318E+00
    -19.781  0.2960E+01  0.1209E+01
    -19.687  0.3014E+01  0.1491E+01
    -19.594  0.2563E+01  0.1731E+01
    -19.500  0.1689E+01  0.1890E+01
    -19.406  0.8184E+00  0.1966E+01
    -19.313  0.2811E+00  0.1993E+01
    -19.219  0.6691E-01  0.1999E+01
    -19.125  0.1087E-01  0.2000E+01
    -19.032  0.1192E-02  0.2000E+01
    -18.938  0.8770E-04  0.2000E+01
    -18.844  0.4303E-05  0.2000E+01
    -18.751  0.1610E-06  0.2000E+01
    -18.657  0.7619E-06  0.2000E+01
    -18.563  0.1812E-04  0.2000E+01
    -18.470  0.2857E-03  0.2000E+01
    -18.376  0.2991E-02  0.2000E+01
    -18.283  0.2095E-01  0.2002E+01
    -18.189  0.9940E-01  0.2012E+01
    -18.095  0.3250E+00  0.2042E+01
    -18.002  0.7531E+00  0.2113E+01
    -17.908  0.1291E+01  0.2233E+01
    -17.814  0.1744E+01  0.2397E+01
    -17.721  0.1999E+01  0.2584E+01
    -17.627  0.2047E+01  0.2776E+01
    -17.533  0.1897E+01  0.2953E+01
    -17.440  0.1645E+01  0.3107E+01
    -17.346  0.1498E+01  0.3248E+01
    -17.252  0.1567E+01  0.3395E+01
    -17.159  0.1769E+01  0.3560E+01
    -17.065  0.1988E+01  0.3746E+01
    -16.971  0.2240E+01  0.3956E+01
    -16.878  0.2652E+01  0.4205E+01
    -16.784  0.3152E+01  0.4500E+01
    -16.690  0.3374E+01  0.4816E+01
    -16.597  0.3149E+01  0.5111E+01
    -16.503  0.2741E+01  0.5367E+01
    -16.409  0.2391E+01  0.5591E+01
    -16.316  0.1981E+01  0.5777E+01
    -16.222  0.1361E+01  0.5904E+01
    -16.128  0.6971E+00  0.5970E+01
    -16.035  0.2510E+00  0.5993E+01
    -15.941  0.6165E-01  0.5999E+01
    -15.847  0.1017E-01  0.6000E+01
    -15.754  0.1116E-02  0.6000E+01
    -15.660  0.8104E-04  0.6000E+01
    -15.566  0.3874E-05  0.6000E+01
    -15.473  0.1216E-06  0.6000E+01
    -15.379  0.8550E-08  0.6000E+01
    -15.285  0.2608E-06  0.6000E+01
    -15.192  0.7374E-05  0.6000E+01
    -15.098  0.1374E-03  0.6000E+01
    -15.004  0.1695E-02  0.6000E+01
    -14.911  0.1392E-01  0.6001E+01
    -14.817  0.7672E-01  0.6009E+01
    -14.723  0.2872E+00  0.6036E+01
    -14.630  0.7434E+00  0.6105E+01
    -14.536  0.1373E+01  0.6234E+01
    -14.443  0.1914E+01  0.6413E+01
    -14.349  0.2235E+01  0.6622E+01
    -14.255  0.2512E+01  0.6858E+01
    -14.162  0.2909E+01  0.7130E+01
    -14.068  0.3239E+01  0.7433E+01
    -13.974  0.3162E+01  0.7730E+01
    -13.881  0.2626E+01  0.7976E+01
    -13.787  0.1936E+01  0.8157E+01
    -13.693  0.1404E+01  0.8288E+01
    -13.600  0.1130E+01  0.8394E+01
    -13.506  0.1064E+01  0.8494E+01
    -13.412  0.1080E+01  0.8595E+01
    -13.319  0.1081E+01  0.8696E+01
    -13.225  0.1105E+01  0.8800E+01
    -13.131  0.1258E+01  0.8918E+01
    -13.038  0.1566E+01  0.9064E+01
    -12.944  0.1919E+01  0.9244E+01
    -12.850  0.2133E+01  0.9444E+01
    -12.757  0.2071E+01  0.9638E+01
    -12.663  0.1771E+01  0.9804E+01
    -12.569  0.1427E+01  0.9937E+01
    -12.476  0.1215E+01  0.1005E+02
    -12.382  0.1161E+01  0.1016E+02
    -12.288  0.1154E+01  0.1027E+02
    -12.195  0.1076E+01  0.1037E+02
    -12.101  0.9173E+00  0.1045E+02
    -12.007  0.7658E+00  0.1053E+02
    -11.914  0.6908E+00  0.1059E+02
    -11.820  0.7235E+00  0.1066E+02
    -11.726  0.8640E+00  0.1074E+02
    -11.633  0.1033E+01  0.1084E+02
    -11.539  0.1116E+01  0.1094E+02
    -11.445  0.1104E+01  0.1104E+02
    -11.352  0.1092E+01  0.1115E+02
    -11.258  0.1135E+01  0.1125E+02
    -11.164  0.1204E+01  0.1137E+02
    -11.071  0.1277E+01  0.1149E+02
    -10.977  0.1364E+01  0.1161E+02
    -10.883  0.1466E+01  0.1175E+02
    -10.790  0.1586E+01  0.1190E+02
    -10.696  0.1724E+01  0.1206E+02
    -10.603  0.1804E+01  0.1223E+02
    -10.509  0.1760E+01  0.1239E+02
    -10.415  0.1705E+01  0.1255E+02
    -10.322  0.1808E+01  0.1272E+02
    -10.228  0.2050E+01  0.1292E+02
    -10.134  0.2244E+01  0.1313E+02
    -10.041  0.2250E+01  0.1334E+02
     -9.947  0.2137E+01  0.1354E+02
     -9.853  0.2073E+01  0.1373E+02
     -9.760  0.2123E+01  0.1393E+02
     -9.666  0.2226E+01  0.1414E+02
     -9.572  0.2324E+01  0.1436E+02
     -9.479  0.2404E+01  0.1458E+02
     -9.385  0.2432E+01  0.1481E+02
     -9.291  0.2364E+01  0.1503E+02
     -9.198  0.2263E+01  0.1524E+02
     -9.104  0.2306E+01  0.1546E+02
     -9.010  0.2558E+01  0.1570E+02
     -8.917  0.2827E+01  0.1596E+02
     -8.823  0.2868E+01  0.1623E+02
     -8.729  0.2633E+01  0.1648E+02
     -8.636  0.2321E+01  0.1669E+02
     -8.542  0.2221E+01  0.1690E+02
     -8.448  0.2444E+01  0.1713E+02
     -8.355  0.2869E+01  0.1740E+02
     -8.261  0.3307E+01  0.1771E+02
     -8.167  0.3596E+01  0.1805E+02
     -8.074  0.3632E+01  0.1839E+02
     -7.980  0.3354E+01  0.1870E+02
     -7.886  0.2767E+01  0.1896E+02
     -7.793  0.2077E+01  0.1916E+02
     -7.699  0.1604E+01  0.1931E+02
     -7.605  0.1463E+01  0.1944E+02
     -7.512  0.1501E+01  0.1958E+02
     -7.418  0.1513E+01  0.1972E+02
     -7.324  0.1443E+01  0.1986E+02
     -7.231  0.1419E+01  0.1999E+02
     -7.137  0.1638E+01  0.2015E+02
     -7.043  0.2234E+01  0.2036E+02
     -6.950  0.3232E+01  0.2066E+02
     -6.856  0.4506E+01  0.2108E+02
     -6.763  0.5637E+01  0.2161E+02
     -6.669  0.6015E+01  0.2217E+02
     -6.575  0.5452E+01  0.2268E+02
     -6.482  0.4431E+01  0.2310E+02
     -6.388  0.3503E+01  0.2343E+02
     -6.294  0.2847E+01  0.2369E+02
     -6.201  0.2435E+01  0.2392E+02
     -6.107  0.2228E+01  0.2413E+02
     -6.013  0.2167E+01  0.2433E+02
     -5.920  0.2154E+01  0.2453E+02
     -5.826  0.2163E+01  0.2474E+02
     -5.732  0.2264E+01  0.2495E+02
     -5.639  0.2474E+01  0.2518E+02
     -5.545  0.2721E+01  0.2543E+02
     -5.451  0.3012E+01  0.2572E+02
     -5.358  0.3462E+01  0.2604E+02
     -5.264  0.4128E+01  0.2643E+02
     -5.170  0.4891E+01  0.2689E+02
     -5.077  0.5432E+01  0.2739E+02
     -4.983  0.5437E+01  0.2790E+02
     -4.889  0.4860E+01  0.2836E+02
     -4.796  0.3878E+01  0.2872E+02
     -4.702  0.2791E+01  0.2898E+02
     -4.608  0.1934E+01  0.2916E+02
     -4.515  0.1474E+01  0.2930E+02
     -4.421  0.1368E+01  0.2943E+02
     -4.327  0.1482E+01  0.2957E+02
     -4.234  0.1587E+01  0.2972E+02
     -4.140  0.1421E+01  0.2985E+02
     -4.046  0.9550E+00  0.2994E+02
     -3.953  0.4592E+00  0.2998E+02
     -3.859  0.1820E+00  0.3000E+02
     -3.765  0.1788E+00  0.3002E+02
     -3.672  0.4379E+00  0.3006E+02
     -3.578  0.9037E+00  0.3014E+02
     -3.484  0.1380E+01  0.3027E+02
     -3.391  0.1653E+01  0.3043E+02
     -3.297  0.1739E+01  0.3059E+02
     -3.203  0.1833E+01  0.3076E+02
     -3.110  0.1993E+01  0.3095E+02
     -3.016  0.2038E+01  0.3114E+02
     -2.923  0.1843E+01  0.3131E+02
     -2.829  0.1527E+01  0.3145E+02
     -2.735  0.1273E+01  0.3157E+02
     -2.642  0.1142E+01  0.3168E+02
     -2.548  0.1078E+01  0.3178E+02
     -2.454  0.9608E+00  0.3187E+02
     -2.361  0.7185E+00  0.3194E+02
     -2.267  0.4146E+00  0.3198E+02
     -2.173  0.1750E+00  0.3199E+02
     -2.080  0.5209E-01  0.3200E+02
     -1.986  0.1068E-01  0.3200E+02
     -1.892  0.1481E-02  0.3200E+02
     -1.799  0.1375E-03  0.3200E+02
     -1.705  0.8944E-05  0.3200E+02
     -1.611  0.1114E-04  0.3200E+02
     -1.518  0.1594E-03  0.3200E+02
     -1.424  0.1556E-02  0.3200E+02
     -1.330  0.1012E-01  0.3200E+02
     -1.237  0.4421E-01  0.3201E+02
     -1.143  0.1321E+00  0.3202E+02
     -1.049  0.2793E+00  0.3204E+02
     -0.956  0.4510E+00  0.3209E+02
     -0.862  0.6482E+00  0.3215E+02
     -0.768  0.9894E+00  0.3224E+02
     -0.675  0.1599E+01  0.3239E+02
     -0.581  0.2345E+01  0.3261E+02
     -0.487  0.2807E+01  0.3287E+02
     -0.394  0.2715E+01  0.3313E+02
     -0.300  0.2265E+01  0.3334E+02
     -0.206  0.1861E+01  0.3351E+02
     -0.113  0.1742E+01  0.3368E+02
     -0.019  0.1894E+01  0.3385E+02
      0.075  0.2129E+01  0.3405E+02
      0.168  0.2269E+01  0.3426E+02
      0.262  0.2313E+01  0.3448E+02
      0.356  0.2342E+01  0.3470E+02
      0.449  0.2333E+01  0.3492E+02
      0.543  0.2224E+01  0.3513E+02
      0.637  0.2081E+01  0.3532E+02
      0.730  0.2050E+01  0.3551E+02
      0.824  0.2179E+01  0.3572E+02
      0.917  0.2407E+01  0.3594E+02
      1.011  0.2699E+01  0.3620E+02
      1.105  0.3087E+01  0.3649E+02
      1.198  0.3548E+01  0.3682E+02
      1.292  0.3909E+01  0.3718E+02
      1.386  0.4008E+01  0.3756E+02
      1.479  0.3903E+01  0.3793E+02
      1.573  0.3773E+01  0.3828E+02
      1.667  0.3702E+01  0.3863E+02
      1.760  0.3697E+01  0.3897E+02
      1.854  0.3756E+01  0.3932E+02
      1.948  0.3828E+01  0.3968E+02
      2.041  0.3808E+01  0.4004E+02
      2.135  0.3673E+01  0.4038E+02
      2.229  0.3568E+01  0.4072E+02
      2.322  0.3668E+01  0.4106E+02
      2.416  0.3992E+01  0.4143E+02
      2.510  0.4378E+01  0.4184E+02
      2.603  0.4604E+01  0.4228E+02
      2.697  0.4647E+01  0.4271E+02
      2.791  0.4724E+01  0.4315E+02
      2.884  0.4940E+01  0.4362E+02
      2.978  0.5086E+01  0.4409E+02
      3.072  0.4975E+01  0.4456E+02
      3.165  0.4739E+01  0.4500E+02
      3.259  0.4627E+01  0.4544E+02
      3.353  0.4687E+01  0.4587E+02
      3.446  0.4769E+01  0.4632E+02
      3.540  0.4711E+01  0.4676E+02
      3.634  0.4367E+01  0.4717E+02
      3.727  0.3636E+01  0.4751E+02
      3.821  0.2603E+01  0.4776E+02
      3.915  0.1542E+01  0.4790E+02
      4.008  0.7264E+00  0.4797E+02
      4.102  0.2603E+00  0.4799E+02
      4.196  0.6807E-01  0.4800E+02
      4.289  0.1256E-01  0.4800E+02
      4.383  0.1598E-02  0.4800E+02
      4.477  0.1379E-03  0.4800E+02
      4.570  0.7994E-05  0.4800E+02
      4.664  0.3089E-06  0.4800E+02
      4.757  0.7915E-08  0.4800E+02
      4.851  0.1339E-09  0.4800E+02
      4.945  0.1491E-11  0.4800E+02
      5.038  0.1087E-13  0.4800E+02
      5.132  0.4939E-16  0.4800E+02
      5.226  0.0000E+00  0.4800E+02
      5.319  0.0000E+00  0.4800E+02
      5.413  0.0000E+00  0.4800E+02
      5.507  0.0000E+00  0.4800E+02
      5.600  0.0000E+00  0.4800E+02
      5.694  0.0000E+00  0.4800E+02
      5.788  0.0000E+00  0.4800E+02
      5.881  0.0000E+00  0.4800E+02
