    8    8    1    1
  0.4330982E+02  0.5164732E-09  0.5164732E-09  0.1500000E-08  0.5000000E-15
  1.000000000000000E-004
  CAR 
 BC3                                     
     30     43     24
 
  0.0000000E+00  0.0000000E+00  0.0000000E+00  0.6944444E-02
    1      -19.519520   1.000000
    2      -15.590248   1.000000
    3      -15.588050   1.000000
    4      -13.849666   1.000000
    5      -13.849141   1.000000
    6      -12.334047   1.000000
    7      -12.130160   1.000000
    8       -8.626127   1.000000
    9       -7.898896   1.000000
   10       -6.591789   1.000000
   11       -6.589737   1.000000
   12       -4.297806   1.000000
   13       -4.296134   1.000000
   14       -3.911348   0.985238
   15       -3.910617   0.984848
   16       -2.623030   0.000000
   17       -0.659347   0.000000
   18       -0.659071   0.000000
   19        0.837646   0.000000
   20        1.037014   0.000000
   21        1.816270   0.000000
   22        2.251727   0.000000
   23        4.193807   0.000000
   24        4.276568   0.000000
 
  0.8333333E-01  0.6938894E-17  0.0000000E+00  0.2777778E-01
    1      -19.486300   1.000000
    2      -15.760695   1.000000
    3      -15.658352   1.000000
    4      -13.903760   1.000000
    5      -13.719421   1.000000
    6      -12.194656   1.000000
    7      -11.924910   1.000000
    8       -8.582165   1.000000
    9       -7.971745   1.000000
   10       -6.700811   1.000000
   11       -6.608365   1.000000
   12       -4.430093   1.000000
   13       -4.323108   1.000000
   14       -4.064039   0.999993
   15       -3.990271   0.999504
   16       -2.800921   0.000000
   17       -0.595989   0.000000
   18       -0.364284   0.000000
   19        0.889218   0.000000
   20        1.146780   0.000000
   21        1.877809   0.000000
   22        2.303719   0.000000
   23        4.245255   0.000000
   24        4.357500   0.000000
 
  0.1666667E+00 -0.4163336E-16  0.0000000E+00  0.2777778E-01
    1      -19.387704   1.000000
    2      -16.169171   1.000000
    3      -15.814099   1.000000
    4      -14.041031   1.000000
    5      -13.382950   1.000000
    6      -11.831873   1.000000
    7      -11.389556   1.000000
    8       -8.450686   1.000000
    9       -8.212952   1.000000
   10       -7.012507   1.000000
   11       -6.610303   1.000000
   12       -4.810530   1.000000
   13       -4.499681   1.000000
   14       -4.390225   1.000000
   15       -4.211126   1.000000
   16       -3.094717   0.000000
   17       -0.423646   0.000000
   18        0.233914   0.000000
   19        1.043601   0.000000
   20        1.479126   0.000000
   21        2.075415   0.000000
   22        2.459518   0.000000
   23        4.399557   0.000000
   24        4.574941   0.000000
 
  0.2500000E+00 -0.2775558E-16  0.0000000E+00  0.2777778E-01
    1      -19.227859   1.000000
    2      -16.657812   1.000000
    3      -15.981706   1.000000
    4      -14.198053   1.000000
    5      -12.925230   1.000000
    6      -11.351326   1.000000
    7      -10.645927   1.000000
    8       -8.628661   1.000000
    9       -8.233371   1.000000
   10       -7.474526   1.000000
   11       -6.526529   1.000000
   12       -5.349947   1.000000
   13       -5.158648   1.000000
   14       -4.532301   1.000000
   15       -4.475357   1.000000
   16       -3.319423   0.000000
   17       -0.186281   0.000000
   18        0.805419   0.000000
   19        1.300105   0.000000
   20        1.979058   0.000000
   21        2.485857   0.000000
   22        2.718778   0.000000
   23        4.655807   0.000000
   24        4.914372   0.000000
 
  0.3333333E+00  0.2775558E-16  0.0000000E+00  0.2777778E-01
    1      -19.017935   1.000000
    2      -17.134522   1.000000
    3      -16.118780   1.000000
    4      -14.329109   1.000000
    5      -12.414102   1.000000
    6      -10.811800   1.000000
    7       -9.791649   1.000000
    8       -9.150110   1.000000
    9       -8.017674   1.000000
   10       -7.933952   1.000000
   11       -6.346291   1.000000
   12       -5.972092   1.000000
   13       -5.938882   1.000000
   14       -4.904738   1.000000
   15       -4.554267   1.000000
   16       -3.468368   0.000022
   17        0.055697   0.000000
   18        1.240967   0.000000
   19        1.658088   0.000000
   20        2.465765   0.000000
   21        3.081189   0.000000
   22        3.210942   0.000000
   23        4.094444   0.000000
   24        4.949861   0.000000
 
  0.4166667E+00 -0.2775558E-16  0.0000000E+00  0.2777778E-01
    1      -18.793016   1.000000
    2      -17.529056   1.000000
    3      -16.206275   1.000000
    4      -14.413304   1.000000
    5      -11.939222   1.000000
    6      -10.269802   1.000000
    7       -9.649883   1.000000
    8       -8.985227   1.000000
    9       -8.459652   1.000000
   10       -7.563899   1.000000
   11       -6.876330   1.000000
   12       -6.501129   1.000000
   13       -6.098667   1.000000
   14       -5.275319   1.000000
   15       -4.608650   1.000000
   16       -3.554906   0.002089
   17        0.237976   0.000000
   18        1.527211   0.000000
   19        2.116998   0.000000
   20        2.957345   0.000000
   21        3.336136   0.000000
   22        3.547245   0.000000
   23        3.924532   0.000000
   24        4.436466   0.000000
 
  0.5000000E+00 -0.5551115E-16  0.0000000E+00  0.1388889E-01
    1      -18.672515   1.000000
    2      -17.707449   1.000000
    3      -16.236182   1.000000
    4      -14.442139   1.000000
    5      -11.711514   1.000000
    6       -9.951451   1.000000
    7       -9.888971   1.000000
    8       -9.019576   1.000000
    9       -7.848536   1.000000
   10       -7.774330   1.000000
   11       -7.255606   1.000000
   12       -6.876153   1.000000
   13       -5.913194   1.000000
   14       -5.502904   1.000000
   15       -4.627911   1.000000
   16       -3.583557   0.006962
   17        0.306027   0.000000
   18        1.630132   0.000000
   19        2.657969   0.000000
   20        2.695755   0.000000
   21        3.482413   0.000000
   22        3.533105   0.000000
   23        4.106499   0.000000
   24        4.123492   0.000000
 
  0.8333333E-01  0.8333333E-01  0.0000000E+00  0.1388889E-01
    1      -19.420358   1.000000
    2      -16.020249   1.000000
    3      -15.805578   1.000000
    4      -13.929642   1.000000
    5      -13.560072   1.000000
    6      -11.914237   1.000000
    7      -11.575624   1.000000
    8       -8.494408   1.000000
    9       -8.135658   1.000000
   10       -6.867360   1.000000
   11       -6.655757   1.000000
   12       -4.651495   1.000000
   13       -4.420985   1.000000
   14       -4.350191   1.000000
   15       -4.148774   1.000000
   16       -2.995896   0.000000
   17       -0.526347   0.000000
   18        0.112588   0.000000
   19        0.992221   0.000000
   20        1.362354   0.000000
   21        2.006116   0.000000
   22        2.407640   0.000000
   23        4.348168   0.000000
   24        4.522644   0.000000
 
  0.1666667E+00  0.8333333E-01  0.0000000E+00  0.2777778E-01
    1      -19.290931   1.000000
    2      -16.430815   1.000000
    3      -16.015822   1.000000
    4      -13.992156   1.000000
    5      -13.252890   1.000000
    6      -11.437783   1.000000
    7      -10.974570   1.000000
    8       -8.497405   1.000000
    9       -8.319972   1.000000
   10       -7.165801   1.000000
   11       -6.670570   1.000000
   12       -5.069592   1.000000
   13       -4.878646   1.000000
   14       -4.597558   1.000000
   15       -4.438975   1.000000
   16       -3.137543   0.000000
   17       -0.414980   0.000000
   18        0.761641   0.000000
   19        1.197736   0.000000
   20        1.765800   0.000000
   21        2.294694   0.000000
   22        2.615236   0.000000
   23        4.553589   0.000000
   24        4.809998   0.000000
 
  0.2500000E+00  0.8333333E-01  0.0000000E+00  0.2777778E-01
    1      -19.104900   1.000000
    2      -16.897027   1.000000
    3      -16.194303   1.000000
    4      -14.099536   1.000000
    5      -12.802367   1.000000
    6      -10.899033   1.000000
    7      -10.194846   1.000000
    8       -9.012293   1.000000
    9       -8.061319   1.000000
   10       -7.605701   1.000000
   11       -6.558465   1.000000
   12       -5.623640   1.000000
   13       -5.595606   1.000000
   14       -4.805794   1.000000
   15       -4.752527   1.000000
   16       -3.207606   0.000000
   17       -0.258725   0.000000
   18        1.319933   0.000000
   19        1.505099   0.000000
   20        2.256882   0.000000
   21        2.845377   0.000000
   22        2.926188   0.000000
   23        4.548340   0.000000
   24        4.858159   0.000000
 
  0.3333333E+00  0.8333333E-01  0.0000000E+00  0.2777778E-01
    1      -18.881797   1.000000
    2      -17.331027   1.000000
    3      -16.318956   1.000000
    4      -14.191930   1.000000
    5      -12.306384   1.000000
    6      -10.350036   1.000000
    7       -9.591100   1.000000
    8       -9.305726   1.000000
    9       -8.107164   1.000000
   10       -7.724630   1.000000
   11       -6.443729   1.000000
   12       -6.340410   1.000000
   13       -6.199879   1.000000
   14       -5.195699   1.000000
   15       -4.862269   1.000000
   16       -3.247721   0.000000
   17       -0.100943   0.000000
   18        1.712765   0.000000
   19        1.913712   0.000000
   20        2.739815   0.000000
   21        3.340104   0.000000
   22        3.631697   0.000000
   23        3.742346   0.000000
   24        4.672816   0.000000
 
  0.4166667E+00  0.8333333E-01  0.0000000E+00  0.2777778E-01
    1      -18.688152   1.000000
    2      -17.635708   1.000000
    3      -16.382672   1.000000
    4      -14.242606   1.000000
    5      -11.914673   1.000000
    6      -10.045961   1.000000
    7       -9.845773   1.000000
    8       -8.745488   1.000000
    9       -8.214258   1.000000
   10       -7.348902   1.000000
   11       -7.340528   1.000000
   12       -6.713465   1.000000
   13       -6.092110   1.000000
   14       -5.538296   1.000000
   15       -4.919047   1.000000
   16       -3.268400   0.000000
   17       -0.001222   0.000000
   18        1.924770   0.000000
   19        2.422828   0.000000
   20        3.033372   0.000000
   21        3.260693   0.000000
   22        3.823888   0.000000
   23        3.857400   0.000000
   24        4.476797   0.000000
 
  0.5000000E+00  0.8333333E-01  0.0000000E+00  0.2777778E-01
    1      -18.688182   1.000000
    2      -17.635684   1.000000
    3      -16.382690   1.000000
    4      -14.242490   1.000000
    5      -11.914421   1.000000
    6      -10.045956   1.000000
    7       -9.846961   1.000000
    8       -8.744809   1.000000
    9       -8.214516   1.000000
   10       -7.348437   1.000000
   11       -7.340639   1.000000
   12       -6.713338   1.000000
   13       -6.091781   1.000000
   14       -5.538660   1.000000
   15       -4.919177   1.000000
   16       -3.268137   0.000000
   17       -0.001268   0.000000
   18        1.924636   0.000000
   19        2.422660   0.000000
   20        3.033571   0.000000
   21        3.260546   0.000000
   22        3.824015   0.000000
   23        3.857234   0.000000
   24        4.476986   0.000000
 
 -0.4166667E+00  0.8333333E-01  0.0000000E+00  0.2777778E-01
    1      -18.881852   1.000000
    2      -17.331005   1.000000
    3      -16.318989   1.000000
    4      -14.191572   1.000000
    5      -12.305990   1.000000
    6      -10.350878   1.000000
    7       -9.592384   1.000000
    8       -9.305905   1.000000
    9       -8.105883   1.000000
   10       -7.724745   1.000000
   11       -6.443331   1.000000
   12       -6.339949   1.000000
   13       -6.199725   1.000000
   14       -5.196174   1.000000
   15       -4.862635   1.000000
   16       -3.246957   0.000000
   17       -0.101103   0.000000
   18        1.712413   0.000000
   19        1.913575   0.000000
   20        2.739682   0.000000
   21        3.339969   0.000000
   22        3.631445   0.000000
   23        3.742576   0.000000
   24        4.673024   0.000000
 
 -0.3333333E+00  0.8333333E-01  0.0000000E+00  0.2777778E-01
    1      -19.104950   1.000000
    2      -16.897103   1.000000
    3      -16.194262   1.000000
    4      -14.098903   1.000000
    5      -12.802178   1.000000
    6      -10.899876   1.000000
    7      -10.195242   1.000000
    8       -9.013419   1.000000
    9       -8.061406   1.000000
   10       -7.604369   1.000000
   11       -6.558022   1.000000
   12       -5.623531   1.000000
   13       -5.595259   1.000000
   14       -4.806206   1.000000
   15       -4.753026   1.000000
   16       -3.206448   0.000000
   17       -0.258991   0.000000
   18        1.319512   0.000000
   19        1.504992   0.000000
   20        2.256755   0.000000
   21        2.845117   0.000000
   22        2.926083   0.000000
   23        4.548605   0.000000
   24        4.858037   0.000000
 
 -0.2500000E+00  0.8333333E-01  0.0000000E+00  0.2777778E-01
    1      -19.290970   1.000000
    2      -16.431214   1.000000
    3      -16.015444   1.000000
    4      -13.991192   1.000000
    5      -13.253129   1.000000
    6      -11.438400   1.000000
    7      -10.974985   1.000000
    8       -8.498369   1.000000
    9       -8.320037   1.000000
   10       -7.165029   1.000000
   11       -6.669868   1.000000
   12       -5.069735   1.000000
   13       -4.878549   1.000000
   14       -4.597850   1.000000
   15       -4.439122   1.000000
   16       -3.136249   0.000000
   17       -0.415393   0.000000
   18        0.761266   0.000000
   19        1.197661   0.000000
   20        1.765614   0.000000
   21        2.294519   0.000000
   22        2.615162   0.000000
   23        4.553512   0.000000
   24        4.809986   0.000000
 
 -0.1666667E+00  0.8333333E-01  0.0000000E+00  0.2777778E-01
    1      -19.420383   1.000000
    2      -16.021459   1.000000
    3      -15.804314   1.000000
    4      -13.928518   1.000000
    5      -13.560727   1.000000
    6      -11.914539   1.000000
    7      -11.576044   1.000000
    8       -8.494449   1.000000
    9       -8.136234   1.000000
   10       -6.868089   1.000000
   11       -6.654134   1.000000
   12       -4.652462   1.000000
   13       -4.420275   1.000000
   14       -4.350557   1.000000
   15       -4.148437   1.000000
   16       -2.994900   0.000000
   17       -0.526769   0.000000
   18        0.112335   0.000000
   19        0.992176   0.000000
   20        1.362179   0.000000
   21        2.006030   0.000000
   22        2.407596   0.000000
   23        4.348153   0.000000
   24        4.533702   0.000000
 
 -0.8333333E-01  0.8333333E-01  0.0000000E+00  0.1388889E-01
    1      -19.486309   1.000000
    2      -15.762225   1.000000
    3      -15.656749   1.000000
    4      -13.903238   1.000000
    5      -13.719810   1.000000
    6      -12.194720   1.000000
    7      -11.925118   1.000000
    8       -8.582179   1.000000
    9       -7.971911   1.000000
   10       -6.702278   1.000000
   11       -6.606620   1.000000
   12       -4.431401   1.000000
   13       -4.321831   1.000000
   14       -4.064677   0.999993
   15       -3.989637   0.999488
   16       -2.800555   0.000000
   17       -0.596230   0.000000
   18       -0.364326   0.000000
   19        0.889203   0.000000
   20        1.146715   0.000000
   21        1.877783   0.000000
   22        2.303705   0.000000
   23        4.245262   0.000000
   24        4.385586   0.000000
 
  0.1666667E+00  0.1666667E+00  0.0000000E+00  0.1388889E-01
    1      -19.134624   1.000000
    2      -16.740396   1.000000
    3      -16.324225   1.000000
    4      -13.824527   1.000000
    5      -13.133543   1.000000
    6      -10.820988   1.000000
    7      -10.409187   1.000000
    8       -8.995828   1.000000
    9       -8.104027   1.000000
   10       -7.251989   1.000000
   11       -6.811996   1.000000
   12       -5.430552   1.000000
   13       -5.384222   1.000000
   14       -5.001650   1.000000
   15       -4.810028   1.000000
   16       -3.008655   0.000000
   17       -0.484019   0.000000
   18        1.454203   0.000000
   19        1.476555   0.000000
   20        2.138252   0.000000
   21        2.693192   0.000000
   22        2.874610   0.000000
   23        4.808905   0.000000
   24        5.109523   0.000000
 
  0.2500000E+00  0.1666667E+00  0.0000000E+00  0.2777778E-01
    1      -18.930952   1.000000
    2      -17.108021   1.000000
    3      -16.556342   1.000000
    4      -13.772095   1.000000
    5      -12.807165   1.000000
    6      -10.216307   1.000000
    7       -9.699494   1.000000
    8       -9.548814   1.000000
    9       -7.806921   1.000000
   10       -7.531538   1.000000
   11       -6.762748   1.000000
   12       -6.129879   1.000000
   13       -5.856670   1.000000
   14       -5.276788   1.000000
   15       -5.243486   1.000000
   16       -2.852545   0.000000
   17       -0.524713   0.000000
   18        1.812377   0.000000
   19        2.075628   0.000000
   20        2.587408   0.000000
   21        3.237324   0.000000
   22        3.300483   0.000000
   23        4.249196   0.000000
   24        4.855782   0.000000
 
  0.3333333E+00  0.1666667E+00  0.0000000E+00  0.2777778E-01
    1      -18.716455   1.000000
    2      -17.452294   1.000000
    3      -16.682622   1.000000
    4      -13.792759   1.000000
    5      -12.384767   1.000000
    6      -10.212727   1.000000
    7       -9.602377   1.000000
    8       -8.826373   1.000000
    9       -7.935283   1.000000
   10       -7.441370   1.000000
   11       -6.953631   1.000000
   12       -6.524868   1.000000
   13       -6.387074   1.000000
   14       -5.661376   1.000000
   15       -5.406644   1.000000
   16       -2.746749   0.000000
   17       -0.530158   0.000000
   18        2.271579   0.000000
   19        2.437674   0.000000
   20        3.096294   0.000000
   21        3.490773   0.000000
   22        3.703576   0.000000
   23        3.981511   0.000000
   24        4.492949   0.000000
 
  0.4166667E+00  0.1666667E+00  0.0000000E+00  0.2777778E-01
    1      -18.604705   1.000000
    2      -17.611783   1.000000
    3      -16.722702   1.000000
    4      -13.805873   1.000000
    5      -12.160120   1.000000
    6      -10.462753   1.000000
    7       -9.337543   1.000000
    8       -8.362558   1.000000
    9       -7.859330   1.000000
   10       -7.724190   1.000000
   11       -7.143054   1.000000
   12       -6.746582   1.000000
   13       -6.339782   1.000000
   14       -5.911782   1.000000
   15       -5.446965   1.000000
   16       -2.710754   0.000000
   17       -0.526882   0.000000
   18        2.562885   0.000000
   19        2.814808   0.000000
   20        2.848084   0.000000
   21        3.618994   0.000000
   22        3.680978   0.000000
   23        4.265055   0.000000
   24        4.278527   0.000000
 
  0.5000000E+00  0.1666667E+00  0.0000000E+00  0.2777778E-01
    1      -18.716544   1.000000
    2      -17.452299   1.000000
    3      -16.682557   1.000000
    4      -13.792215   1.000000
    5      -12.384556   1.000000
    6      -10.213555   1.000000
    7       -9.603811   1.000000
    8       -8.826955   1.000000
    9       -7.933937   1.000000
   10       -7.441610   1.000000
   11       -6.952838   1.000000
   12       -6.524014   1.000000
   13       -6.386798   1.000000
   14       -5.662195   1.000000
   15       -5.406870   1.000000
   16       -2.745852   0.000000
   17       -0.530612   0.000000
   18        2.271276   0.000000
   19        2.437315   0.000000
   20        3.096017   0.000000
   21        3.491198   0.000000
   22        3.703278   0.000000
   23        3.981220   0.000000
   24        4.494398   0.000000
 
 -0.4166667E+00  0.1666667E+00  0.0000000E+00  0.2777778E-01
    1      -18.931057   1.000000
    2      -17.108251   1.000000
    3      -16.556047   1.000000
    4      -13.770871   1.000000
    5      -12.807381   1.000000
    6      -10.217552   1.000000
    7       -9.700532   1.000000
    8       -9.549976   1.000000
    9       -7.807131   1.000000
   10       -7.529847   1.000000
   11       -6.761821   1.000000
   12       -6.129271   1.000000
   13       -5.856510   1.000000
   14       -5.277101   1.000000
   15       -5.244142   1.000000
   16       -2.850960   0.000000
   17       -0.525479   0.000000
   18        1.812135   0.000000
   19        2.075063   0.000000
   20        2.587143   0.000000
   21        3.237085   0.000000
   22        3.299929   0.000000
   23        4.249684   0.000000
   24        4.855214   0.000000
 
 -0.3333333E+00  0.1666667E+00  0.0000000E+00  0.2777778E-01
    1      -19.134714   1.000000
    2      -16.741168   1.000000
    3      -16.323369   1.000000
    4      -13.822670   1.000000
    5      -13.134402   1.000000
    6      -10.821916   1.000000
    7      -10.410143   1.000000
    8       -8.997190   1.000000
    9       -8.104188   1.000000
   10       -7.251302   1.000000
   11       -6.810206   1.000000
   12       -5.430481   1.000000
   13       -5.384725   1.000000
   14       -5.001461   1.000000
   15       -4.810134   1.000000
   16       -3.006765   0.000000
   17       -0.484850   0.000000
   18        1.454023   0.000000
   19        1.475963   0.000000
   20        2.137936   0.000000
   21        2.692700   0.000000
   22        2.874433   0.000000
   23        4.808705   0.000000
   24        5.093304   0.000000
 
 -0.2500000E+00  0.1666667E+00  0.0000000E+00  0.2777778E-01
    1      -19.290994   1.000000
    2      -16.432042   1.000000
    3      -16.014424   1.000000
    4      -13.990708   1.000000
    5      -13.253593   1.000000
    6      -11.438296   1.000000
    7      -10.975513   1.000000
    8       -8.498451   1.000000
    9       -8.320079   1.000000
   10       -7.166315   1.000000
   11       -6.668200   1.000000
   12       -5.070745   1.000000
   13       -4.879224   1.000000
   14       -4.596700   1.000000
   15       -4.438428   1.000000
   16       -3.135891   0.000000
   17       -0.415644   0.000000
   18        0.761107   0.000000
   19        1.197617   0.000000
   20        1.765454   0.000000
   21        2.294393   0.000000
   22        2.615119   0.000000
   23        4.553464   0.000000
   24        4.812868   0.000000
 
 -0.1666667E+00  0.1666667E+00  0.0000000E+00  0.1388889E-01
    1      -19.387737   1.000000
    2      -16.170490   1.000000
    3      -15.812547   1.000000
    4      -14.040305   1.000000
    5      -13.383385   1.000000
    6      -11.832004   1.000000
    7      -11.390220   1.000000
    8       -8.450741   1.000000
    9       -8.213402   1.000000
   10       -7.013797   1.000000
   11       -6.608147   1.000000
   12       -4.811864   1.000000
   13       -4.500539   1.000000
   14       -4.388922   1.000000
   15       -4.210278   1.000000
   16       -3.093860   0.000000
   17       -0.424023   0.000000
   18        0.233564   0.000000
   19        1.043542   0.000000
   20        1.478890   0.000000
   21        2.075287   0.000000
   22        2.459461   0.000000
   23        4.399493   0.000000
   24        4.573566   0.000000
 
  0.2500000E+00  0.2500000E+00  0.0000000E+00  0.1388889E-01
    1      -18.729392   1.000000
    2      -17.299990   1.000000
    3      -16.882760   1.000000
    4      -13.444661   1.000000
    5      -12.745749   1.000000
    6      -10.269195   1.000000
    7       -9.374676   1.000000
    8       -9.092816   1.000000
    9       -7.478312   1.000000
   10       -7.464014   1.000000
   11       -6.995201   1.000000
   12       -6.716837   1.000000
   13       -6.099629   1.000000
   14       -5.755328   1.000000
   15       -5.754369   1.000000
   16       -2.465029   0.000000
   17       -0.816967   0.000000
   18        2.221231   0.000000
   19        2.759652   0.000000
   20        2.997987   0.000000
   21        3.651723   0.000000
   22        3.821100   0.000000
   23        4.037825   0.000000
   24        4.061572   0.000000
 
  0.3333333E+00  0.2500000E+00  0.0000000E+00  0.2777778E-01
    1      -18.566148   1.000000
    2      -17.464720   1.000000
    3      -17.050434   1.000000
    4      -13.305445   1.000000
    5      -12.557166   1.000000
    6      -10.702745   1.000000
    7       -8.861571   1.000000
    8       -8.375990   1.000000
    9       -7.706461   1.000000
   10       -7.470745   1.000000
   11       -7.114343   1.000000
   12       -6.763394   1.000000
   13       -6.478719   1.000000
   14       -6.211802   1.000000
   15       -5.946224   1.000000
   16       -2.178465   0.000000
   17       -1.044247   0.000000
   18        2.730724   0.000000
   19        3.115650   0.000000
   20        3.340586   0.000000
   21        3.528204   0.000000
   22        3.949594   0.000000
   23        4.088032   0.000000
   24        4.169798   0.000000
 
  0.4166667E+00  0.2500000E+00  0.0000000E+00  0.2777778E-01
    1      -18.566213   1.000000
    2      -17.464882   1.000000
    3      -17.050197   1.000000
    4      -13.304675   1.000000
    5      -12.557614   1.000000
    6      -10.703126   1.000000
    7       -8.862631   1.000000
    8       -8.376901   1.000000
    9       -7.705536   1.000000
   10       -7.469909   1.000000
   11       -7.114640   1.000000
   12       -6.762323   1.000000
   13       -6.478460   1.000000
   14       -6.212565   1.000000
   15       -5.946243   1.000000
   16       -2.177534   0.000000
   17       -1.044989   0.000000
   18        2.730228   0.000000
   19        3.115437   0.000000
   20        3.341172   0.000000
   21        3.527772   0.000000
   22        3.949465   0.000000
   23        4.088245   0.000000
   24        4.169306   0.000000
 
  0.5000000E+00  0.2500000E+00  0.0000000E+00  0.2777778E-01
    1      -18.729527   1.000000
    2      -17.300582   1.000000
    3      -16.881995   1.000000
    4      -13.442583   1.000000
    5      -12.747088   1.000000
    6      -10.270109   1.000000
    7       -9.376172   1.000000
    8       -9.094068   1.000000
    9       -7.478648   1.000000
   10       -7.462810   1.000000
   11       -6.993778   1.000000
   12       -6.715933   1.000000
   13       -6.099792   1.000000
   14       -5.755824   1.000000
   15       -5.754036   1.000000
   16       -2.463145   0.000000
   17       -0.818302   0.000000
   18        2.220827   0.000000
   19        2.759114   0.000000
   20        2.997560   0.000000
   21        3.651321   0.000000
   22        3.820259   0.000000
   23        4.037995   0.000000
   24        4.061697   0.000000
 
 -0.4166667E+00  0.2500000E+00  0.0000000E+00  0.2777778E-01
    1      -18.931090   1.000000
    2      -17.108896   1.000000
    3      -16.555230   1.000000
    4      -13.770089   1.000000
    5      -12.808306   1.000000
    6      -10.217401   1.000000
    7       -9.700917   1.000000
    8       -9.550052   1.000000
    9       -7.807199   1.000000
   10       -7.530990   1.000000
   11       -6.760325   1.000000
   12       -6.130052   1.000000
   13       -5.857370   1.000000
   14       -5.276067   1.000000
   15       -5.243271   1.000000
   16       -2.850490   0.000000
   17       -0.525921   0.000000
   18        1.812064   0.000000
   19        2.074973   0.000000
   20        2.587008   0.000000
   21        3.237014   0.000000
   22        3.299637   0.000000
   23        4.248564   0.000000
   24        4.856565   0.000000
 
 -0.3333333E+00  0.2500000E+00  0.0000000E+00  0.2777778E-01
    1      -19.105008   1.000000
    2      -16.898046   1.000000
    3      -16.192946   1.000000
    4      -14.098113   1.000000
    5      -12.803073   1.000000
    6      -10.899809   1.000000
    7      -10.196186   1.000000
    8       -9.013351   1.000000
    9       -8.061514   1.000000
   10       -7.605763   1.000000
   11       -6.555901   1.000000
   12       -5.624619   1.000000
   13       -5.596421   1.000000
   14       -4.804946   1.000000
   15       -4.751592   1.000000
   16       -3.205779   0.000000
   17       -0.259561   0.000000
   18        1.319235   0.000000
   19        1.504877   0.000000
   20        2.256534   0.000000
   21        2.844670   0.000000
   22        2.925969   0.000000
   23        4.547461   0.000000
   24        4.857926   0.000000
 
 -0.2500000E+00  0.2500000E+00  0.0000000E+00  0.1388889E-01
    1      -19.227929   1.000000
    2      -16.658925   1.000000
    3      -15.980181   1.000000
    4      -14.197178   1.000000
    5      -12.925822   1.000000
    6      -11.351601   1.000000
    7      -10.646986   1.000000
    8       -8.629156   1.000000
    9       -8.233494   1.000000
   10       -7.475538   1.000000
   11       -6.524143   1.000000
   12       -5.351132   1.000000
   13       -5.159754   1.000000
   14       -4.531159   1.000000
   15       -4.474009   1.000000
   16       -3.318312   0.000000
   17       -0.186838   0.000000
   18        0.804887   0.000000
   19        1.299974   0.000000
   20        1.978732   0.000000
   21        2.485426   0.000000
   22        2.718648   0.000000
   23        4.655678   0.000000
   24        4.897530   0.000000
 
  0.3333333E+00  0.3333333E+00  0.0000000E+00  0.1388889E-01
    1      -18.502161   1.000000
    2      -17.330753   1.000000
    3      -17.329703   1.000000
    4      -12.861344   1.000000
    5      -12.858630   1.000000
    6      -10.911011   1.000000
    7       -8.194197   1.000000
    8       -8.193167   1.000000
    9       -8.060239   1.000000
   10       -7.537386   1.000000
   11       -6.915883   1.000000
   12       -6.683630   1.000000
   13       -6.683013   1.000000
   14       -6.364678   1.000000
   15       -6.363976   1.000000
   16       -1.602325   0.000000
   17       -1.600128   0.000000
   18        3.276821   0.000000
   19        3.277330   0.000000
   20        3.317443   0.000000