       N       E                     dE             d eps       ncg     rms          rms(c)
DAV:   1     0.171387799239E+03    0.17139E+03   -0.98561E+03  2064   0.824E+02
DAV:   2    -0.399385465613E+02   -0.21133E+03   -0.19399E+03  3516   0.167E+02
DAV:   3    -0.657000844412E+02   -0.25762E+02   -0.25522E+02  2352   0.724E+01
DAV:   4    -0.662841650007E+02   -0.58408E+00   -0.58336E+00  2712   0.133E+01
DAV:   5    -0.663004436317E+02   -0.16279E-01   -0.16270E-01  2700   0.203E+00
DAV:   6    -0.663011801824E+02   -0.73655E-03   -0.73653E-03  3192   0.434E-01
DAV:   7    -0.663011917082E+02   -0.11526E-04   -0.11525E-04  2904   0.418E-02
DAV:   8    -0.663011920135E+02   -0.30530E-06   -0.30552E-06  2820   0.558E-03
   1 F= -.66301192E+02 E0= -.66301102E+02  d E =-.179944E-03
