 vasp.5.4.4.18Apr17-6-g9f103f2a35 (build Mar 30 2023 15:39:25) complex          
  
 executed on             LinuxIFC date 2023.06.30  15:58:21
 running on   12 total cores
 distrk:  each k-point on   12 cores,    1 groups
 distr:  one band on NCORES_PER_BAND=   1 cores,   12 groups


--------------------------------------------------------------------------------------------------------


 INCAR:
 POTCAR:    PAW_PBE B 06Sep2000                   
 POTCAR:    PAW_PBE C 08Apr2002                   

 ----------------------------------------------------------------------------- 
|                                                                             |
|           W    W    AA    RRRRR   N    N  II  N    N   GGGG   !!!           |
|           W    W   A  A   R    R  NN   N  II  NN   N  G    G  !!!           |
|           W    W  A    A  R    R  N N  N  II  N N  N  G       !!!           |
|           W WW W  AAAAAA  RRRRR   N  N N  II  N  N N  G  GGG   !            |
|           WW  WW  A    A  R   R   N   NN  II  N   NN  G    G                |
|           W    W  A    A  R    R  N    N  II  N    N   GGGG   !!!           |
|                                                                             |
|      For optimal performance we recommend to set                            |
|        NCORE= 4 - approx SQRT( number of cores)                             |
|      NCORE specifies how many cores store one orbital (NPAR=cpu/NCORE).     |
|      This setting can  greatly improve the performance of VASP for DFT.     |
|      The default,   NCORE=1            might be grossly inefficient         |
|      on modern multi-core architectures or massively parallel machines.     |
|      Do your own testing !!!!                                               |
|      Unfortunately you need to use the default for GW and RPA calculations. |
|      (for HF NCORE is supported but not extensively tested yet)             |
|                                                                             |
 ----------------------------------------------------------------------------- 

 POTCAR:    PAW_PBE B 06Sep2000                   
   SHA256 =  a32ced30f5ae56fd4d10b4325ff17eb3e4e38ee0f4288bc219fb012fddfa6e97 B/
   COPYR  = (c) Copyright 06Sep2000 Georg Kresse                                
   COPYR  = This file is part of the software VASP. Any use, copying, and all ot
   COPYR  = If you do not have a valid VASP license, you may not use, copy or di
   VRHFIN =B: s2p1                                                              
   LEXCH  = PE                                                                  
   EATOM  =    71.1703 eV,    5.2309 Ry                                         
                                                                                
   TITEL  = PAW_PBE B 06Sep2000                                                 
   LULTRA =        F    use ultrasoft PP ?                                      
   IUNSCR =        1    unscreen: 0-lin 1-nonlin 2-no                           
   RPACOR =    1.200    partial core radius                                     
   POMASS =   10.811; ZVAL   =    3.000    mass and valenz                      
   RCORE  =    1.700    outmost cutoff radius                                   
   RWIGS  =    1.710; RWIGS  =    0.905    wigner-seitz radius (au A)           
   ENMAX  =  318.614; ENMIN  =  238.960 eV                                      
   ICORE  =        2    local potential                                         
   LCOR   =        T    correct aug charges                                     
   LPAW   =        T    paw PP                                                  
   EAUG   =  535.514                                                            
   DEXC   =    0.000                                                            
   RMAX   =    1.732    core radius for proj-oper                               
   RAUG   =    1.300    factor for augmentation sphere                          
   RDEP   =    1.757    radius for radial grids                                 
   RDEPT  =    1.436    core radius for aug-charge                              
                                                                                
   Atomic configuration                                                         
    4 entries                                                                   
     n  l   j            E        occ.                                          
     1  0  0.50      -180.5896   2.0000                                         
     2  0  0.50        -9.4431   2.0000                                         
     2  1  0.50        -3.6068   1.0000                                         
     3  2  1.50        -4.0817   0.0000                                         
   Description                                                                  
     l       E           TYP  RCUT    TYP  RCUT                                 
     0     -9.4430752     23  1.500                                             
     0      0.8675899     23  1.500                                             
     1     -3.6067955     23  1.700                                             
     1      6.1086146     23  1.700                                             
     2     -4.0817478      7  1.700                                             
  local pseudopotential read in
  partial core-charges read in
  partial kinetic energy density read in
  atomic valenz-charges read in
  non local Contribution for L=           0  read in
    real space projection operators read in
  non local Contribution for L=           0  read in
    real space projection operators read in
  non local Contribution for L=           1  read in
    real space projection operators read in
  non local Contribution for L=           1  read in
    real space projection operators read in
    PAW grid and wavefunctions read in
 
   number of l-projection  operators is LMAX  =           4
   number of lm-projection operators is LMMAX =           8
 
 POTCAR:    PAW_PBE C 08Apr2002                   
   SHA256 =  253f7b50bb8d59471dbedb8285d89021f4a42ed1a2c5d38a03a736e69125dd95 C/
   COPYR  = (c) Copyright 08Apr2002 Georg Kresse                                
   COPYR  = This file is part of the software VASP. Any use, copying, and all ot
   COPYR  = If you do not have a valid VASP license, you may not use, copy or di
   VRHFIN =C: s2p2                                                              
   LEXCH  = PE                                                                  
   EATOM  =   147.1560 eV,   10.8157 Ry                                         
                                                                                
   TITEL  = PAW_PBE C 08Apr2002                                                 
   LULTRA =        F    use ultrasoft PP ?                                      
   IUNSCR =        1    unscreen: 0-lin 1-nonlin 2-no                           
   RPACOR =    1.200    partial core radius                                     
   POMASS =   12.011; ZVAL   =    4.000    mass and valenz                      
   RCORE  =    1.500    outmost cutoff radius                                   
   RWIGS  =    1.630; RWIGS  =    0.863    wigner-seitz radius (au A)           
   ENMAX  =  400.000; ENMIN  =  300.000 eV                                      
   ICORE  =        2    local potential                                         
   LCOR   =        T    correct aug charges                                     
   LPAW   =        T    paw PP                                                  
   EAUG   =  644.873                                                            
   DEXC   =    0.000                                                            
   RMAX   =    1.529    core radius for proj-oper                               
   RAUG   =    1.300    factor for augmentation sphere                          
   RDEP   =    1.501    radius for radial grids                                 
   RDEPT  =    1.300    core radius for aug-charge                              
                                                                                
   Atomic configuration                                                         
    4 entries                                                                   
     n  l   j            E        occ.                                          
     1  0  0.50      -273.3789   2.0000                                         
     2  0  0.50       -13.7508   2.0000                                         
     2  1  0.50        -5.2854   2.0000                                         
     3  2  1.50        -5.4423   0.0000                                         
   Description                                                                  
     l       E           TYP  RCUT    TYP  RCUT                                 
     0    -13.7508458     23  1.200                                             
     0     -8.2022199     23  1.200                                             
     1     -5.2854383     23  1.500                                             
     1     34.0145650     23  1.500                                             
     2     -5.4423304      7  1.500                                             
  local pseudopotential read in
  partial core-charges read in
  partial kinetic energy density read in
  atomic valenz-charges read in
  non local Contribution for L=           0  read in
    real space projection operators read in
  non local Contribution for L=           0  read in
    real space projection operators read in
  non local Contribution for L=           1  read in
    real space projection operators read in
  non local Contribution for L=           1  read in
    real space projection operators read in
    PAW grid and wavefunctions read in
 
   number of l-projection  operators is LMAX  =           4
   number of lm-projection operators is LMMAX =           8
 
  PAW_PBE B 06Sep2000                   :
 energy of atom  1       EATOM=  -71.1703
 kinetic energy error for atom=    0.0015 (will be added to EATOM!!)
  PAW_PBE C 08Apr2002                   :
 energy of atom  2       EATOM= -147.1560
 kinetic energy error for atom=    0.0116 (will be added to EATOM!!)
 
 
 POSCAR: BC3                                     
  positions in direct lattice
  No initial velocities read in
 exchange correlation table for  LEXCH =        8
   RHO(1)=    0.500       N(1)  =     2000
   RHO(2)=  100.500       N(2)  =     4000
 


--------------------------------------------------------------------------------------------------------


 ion  position               nearest neighbor table
   1  0.333  0.667  0.250-   3 1.49   7 1.49   5 1.49
   2  0.667  0.333  0.250-   4 1.49   8 1.49   6 1.49
   3  0.167  0.333  0.250-   1 1.49   6 1.49   4 1.49
   4  0.333  0.167  0.250-   2 1.49   5 1.49   3 1.49
   5  0.167  0.833  0.250-   4 1.49   8 1.49   1 1.49
   6  0.833  0.167  0.250-   3 1.49   7 1.49   2 1.49
   7  0.667  0.833  0.250-   1 1.49   6 1.49   8 1.49
   8  0.833  0.667  0.250-   2 1.49   5 1.49   7 1.49
 
  LATTYP: Found a base centered orthorhombic cell.
 ALAT       =     5.1640000000
 B/A-ratio  =     1.7323780015
 C/A-ratio  =     2.9047250194
  
  Lattice vectors:
  
 A1 = (   4.4730000000,   2.5820000000,   0.0000000000)
 A2 = (  -4.4730000000,   2.5820000000,   0.0000000000)
 A3 = (   0.0000000000,   0.0000000000,  15.0000000000)


Analysis of symmetry for initial positions (statically):
=====================================================================
 Subroutine PRICEL returns:
 Original cell was already a primitive cell.
 

 Routine SETGRP: Setting up the symmetry group for a 
 base centered orthorhombic supercell.


 Subroutine GETGRP returns: Found  8 space group operations
 (whereof  4 operations were pure point group operations)
 out of a pool of  8 trial point group operations.


The static configuration has the point symmetry C_2v.
 The point group associated with its full space group is D_2h.


Analysis of symmetry for dynamics (positions and initial velocities):
=====================================================================
 Subroutine PRICEL returns:
 Original cell was already a primitive cell.
 

 Routine SETGRP: Setting up the symmetry group for a 
 base centered orthorhombic supercell.


 Subroutine GETGRP returns: Found  8 space group operations
 (whereof  4 operations were pure point group operations)
 out of a pool of  8 trial point group operations.


The dynamic configuration has the point symmetry C_2v.
 The point group associated with its full space group is D_2h.


 Subroutine INISYM returns: Found  8 space group operations
 (whereof  4 operations are pure point group operations),
 and found     1 'primitive' translations

 
 
 KPOINTS: K-points for BC3                        

Automatic generation of k-mesh.
Space group operators:
 irot       det(A)        alpha          n_x          n_y          n_z        tau_x        tau_y        tau_z
    1     1.000000     0.000000     1.000000     0.000000     0.000000     0.000000     0.000000     0.000000
    2     1.000000   180.000000     0.000000     0.000000     1.000000     0.000000     0.000000     0.000000
    3    -1.000000   180.000000     1.000000     0.000000     0.000000     0.000000     0.000000     0.000000
    4    -1.000000   179.999999     0.000000     1.000000     0.000000     0.000000     0.000000     0.000000
    5    -1.000000     0.000000     1.000000     0.000000     0.000000     0.000000     0.000000     0.500000
    6    -1.000000   180.000000     0.000000     0.000000     1.000000     0.000000     0.000000     0.500000
    7     1.000000   180.000000     1.000000     0.000000     0.000000     0.000000     0.000000     0.500000
    8     1.000000   179.999999     0.000000     1.000000     0.000000     0.000000     0.000000     0.500000
 
 Subroutine IBZKPT returns following result:
 ===========================================
 
 Found     43 irreducible k-points:
 
 Following reciprocal coordinates:
            Coordinates               Weight
  0.000000  0.000000  0.000000      1.000000
  0.083333  0.000000  0.000000      4.000000
  0.166667 -0.000000  0.000000      4.000000
  0.250000 -0.000000  0.000000      4.000000
  0.333333  0.000000  0.000000      4.000000
  0.416667 -0.000000  0.000000      4.000000
  0.500000 -0.000000  0.000000      2.000000
  0.083333  0.083333  0.000000      2.000000
  0.166667  0.083333  0.000000      4.000000
  0.250000  0.083333  0.000000      4.000000
  0.333333  0.083333  0.000000      4.000000
  0.416667  0.083333  0.000000      4.000000
  0.500000  0.083333  0.000000      4.000000
 -0.416667  0.083333  0.000000      4.000000
 -0.333333  0.083333  0.000000      4.000000
 -0.250000  0.083333  0.000000      4.000000
 -0.166667  0.083333  0.000000      4.000000
 -0.083333  0.083333  0.000000      2.000000
  0.166667  0.166667  0.000000      2.000000
  0.250000  0.166667  0.000000      4.000000
  0.333333  0.166667  0.000000      4.000000
  0.416667  0.166667  0.000000      4.000000
  0.500000  0.166667  0.000000      4.000000
 -0.416667  0.166667  0.000000      4.000000
 -0.333333  0.166667  0.000000      4.000000
 -0.250000  0.166667  0.000000      4.000000
 -0.166667  0.166667  0.000000      2.000000
  0.250000  0.250000  0.000000      2.000000
  0.333333  0.250000  0.000000      4.000000
  0.416667  0.250000  0.000000      4.000000
  0.500000  0.250000  0.000000      4.000000
 -0.416667  0.250000  0.000000      4.000000
 -0.333333  0.250000  0.000000      4.000000
 -0.250000  0.250000  0.000000      2.000000
  0.333333  0.333333  0.000000      2.000000
  0.416667  0.333333  0.000000      4.000000
  0.500000  0.333333  0.000000      4.000000
 -0.416667  0.333333  0.000000      4.000000
 -0.333333  0.333333  0.000000      2.000000
  0.416667  0.416667  0.000000      2.000000
  0.500000  0.416667  0.000000      4.000000
 -0.416667  0.416667  0.000000      2.000000
  0.500000  0.500000  0.000000      1.000000
 
 Following cartesian coordinates:
            Coordinates               Weight
  0.000000  0.000000  0.000000      1.000000
  0.009315  0.016137  0.000000      4.000000
  0.018630  0.032275  0.000000      4.000000
  0.027945  0.048412  0.000000      4.000000
  0.037261  0.064549  0.000000      4.000000
  0.046576  0.080687  0.000000      4.000000
  0.055891  0.096824  0.000000      2.000000
  0.000000  0.032275  0.000000      2.000000
  0.009315  0.048412  0.000000      4.000000
  0.018630  0.064549  0.000000      4.000000
  0.027945  0.080687  0.000000      4.000000
  0.037261  0.096824  0.000000      4.000000
  0.046576  0.112962  0.000000      4.000000
 -0.055891 -0.064549  0.000000      4.000000
 -0.046576 -0.048412  0.000000      4.000000
 -0.037261 -0.032275  0.000000      4.000000
 -0.027945 -0.016137  0.000000      4.000000
 -0.018630  0.000000  0.000000      2.000000
  0.000000  0.064549  0.000000      2.000000
  0.009315  0.080687  0.000000      4.000000
  0.018630  0.096824  0.000000      4.000000
  0.027945  0.112962  0.000000      4.000000
  0.037261  0.129099  0.000000      4.000000
 -0.065206 -0.048412  0.000000      4.000000
 -0.055891 -0.032275  0.000000      4.000000
 -0.046576 -0.016137  0.000000      4.000000
 -0.037261  0.000000  0.000000      2.000000
  0.000000  0.096824  0.000000      2.000000
  0.009315  0.112962  0.000000      4.000000
  0.018630  0.129099  0.000000      4.000000
  0.027945  0.145236  0.000000      4.000000
 -0.074521 -0.032275  0.000000      4.000000
 -0.065206 -0.016137  0.000000      4.000000
 -0.055891  0.000000  0.000000      2.000000
  0.000000  0.129099  0.000000      2.000000
  0.009315  0.145236  0.000000      4.000000
  0.018630  0.161374  0.000000      4.000000
 -0.083836 -0.016137  0.000000      4.000000
 -0.074521  0.000000  0.000000      2.000000
  0.000000  0.161374  0.000000      2.000000
  0.009315  0.177511  0.000000      4.000000
 -0.093152  0.000000  0.000000      2.000000
  0.000000  0.193648  0.000000      1.000000
 


--------------------------------------------------------------------------------------------------------




 Dimension of arrays:
   k-points           NKPTS =     43   k-points in BZ     NKDIM =     43   number of bands    NBANDS=     24
   number of dos      NEDOS =   1000   number of ions     NIONS =      8
   non local maximal  LDIM  =      4   non local SUM 2l+1 LMDIM =      8
   total plane-waves  NPLWV = 139968
   max r-space proj   IRMAX =      1   max aug-charges    IRDMAX=   6498
   dimension x,y,z NGX =    36 NGY =   36 NGZ =  108
   dimension x,y,z NGXF=    72 NGYF=   72 NGZF=  216
   support grid    NGXF=    72 NGYF=   72 NGZF=  216
   ions per type =               2   6
   NGX,Y,Z   is equivalent  to a cutoff of  11.59, 11.59, 11.97 a.u.
   NGXF,Y,Z  is equivalent  to a cutoff of  23.18, 23.18, 23.94 a.u.

 SYSTEM =  BC3                                     
 POSCAR =  BC3                                     

 Startparameter for this run:
   NWRITE =      2    write-flag & timer
   PREC   = accura    normal or accurate (medium, high low for compatibility)
   ISTART =      0    job   : 0-new  1-cont  2-samecut
   ICHARG =     11    charge: 1-file 2-atom 10-const
   ISPIN  =      1    spin polarized calculation?
   LNONCOLLINEAR =      F non collinear calculations
   LSORBIT =      F    spin-orbit coupling
   INIWAV =      1    electr: 0-lowe 1-rand  2-diag
   LASPH  =      F    aspherical Exc in radial PAW
   METAGGA=      F    non-selfconsistent MetaGGA calc.

 Electronic Relaxation 1
   ENCUT  =  450.0 eV  33.07 Ry    5.75 a.u.   8.93  8.93 25.95*2*pi/ulx,y,z
   ENINI  =  450.0     initial cutoff
   ENAUG  =  644.9 eV  augmentation charge cutoff
   NELM   =     60;   NELMIN=  2; NELMDL=  0     # of ELM steps 
   EDIFF  = 0.1E-05   stopping-criterion for ELM
   LREAL  =      F    real-space projection
   NLSPLINE    = F    spline interpolate recip. space projectors
   LCOMPAT=      F    compatible to vasp.4.4
   GGA_COMPAT  = T    GGA compatible to vasp.4.4-vasp.4.6
   LMAXPAW     = -100 max onsite density
   LMAXMIX     =    2 max onsite mixed and CHGCAR
   VOSKOWN=      0    Vosko Wilk Nusair interpolation
   ROPT   =    0.00000   0.00000
 Ionic relaxation
   EDIFFG = -.1E-02   stopping-criterion for IOM
   NSW    =      0    number of steps for IOM
   NBLOCK =      1;   KBLOCK =      1    inner block; outer block 
   IBRION =     -1    ionic relax: 0-MD 1-quasi-New 2-CG
   NFREE  =      0    steps in history (QN), initial steepest desc. (CG)
   ISIF   =      2    stress and relaxation
   IWAVPR =     10    prediction:  0-non 1-charg 2-wave 3-comb
   ISYM   =      2    0-nonsym 1-usesym 2-fastsym
   LCORR  =      T    Harris-Foulkes like correction to forces

   POTIM  = 0.5000    time-step for ionic-motion
   TEIN   =    0.0    initial temperature
   TEBEG  =    0.0;   TEEND  =   0.0 temperature during run
   SMASS  =  -3.00    Nose mass-parameter (am)
   estimated Nose-frequenzy (Omega)   =  0.10E-29 period in steps =****** mass=  -0.610E-27a.u.
   SCALEE = 1.0000    scale energy and forces
   NPACO  =    256;   APACO  = 16.0  distance and # of slots for P.C.
   PSTRESS=    0.0 pullay stress

  Mass of Ions in am
   POMASS =  10.81 12.01
  Ionic Valenz
   ZVAL   =   3.00  4.00
  Atomic Wigner-Seitz radii
   RWIGS  =  -1.00 -1.00
  virtual crystal weights 
   VCA    =   1.00  1.00
   NELECT =      30.0000    total number of electrons
   NUPDOWN=      -1.0000    fix difference up-down

 DOS related values:
   EMIN   =  10.00;   EMAX   =-10.00  energy-range for DOS
   EFERMI =   0.00
   ISMEAR =     0;   SIGMA  =   0.10  broadening in eV -4-tet -1-fermi 0-gaus

 Electronic relaxation 2 (details)
   IALGO  =     38    algorithm
   LDIAG  =      T    sub-space diagonalisation (order eigenvalues)
   LSUBROT=      F    optimize rotation matrix (better conditioning)
   TURBO    =      0    0=normal 1=particle mesh
   IRESTART =      0    0=no restart 2=restart with 2 vectors
   NREBOOT  =      0    no. of reboots
   NMIN     =      0    reboot dimension
   EREF     =   0.00    reference energy to select bands
   IMIX   =      4    mixing-type and parameters
     AMIX     =   0.40;   BMIX     =  1.00
     AMIX_MAG =   1.60;   BMIX_MAG =  1.00
     AMIN     =   0.10
     WC   =   100.;   INIMIX=   1;  MIXPRE=   1;  MAXMIX= -45

 Intra band minimization:
   WEIMIN = 0.0000     energy-eigenvalue tresh-hold
   EBREAK =  0.10E-07  absolut break condition
   DEPER  =   0.30     relativ break condition  

   TIME   =   0.40     timestep for ELM

  volume/ion in A,a.u.               =      43.31       292.27
  Fermi-wavevector in a.u.,A,eV,Ry     =   0.724252  1.368638  7.136816  0.524541
  Thomas-Fermi vector in A             =   1.814675
 
 Write flags
   LWAVE        =      T    write WAVECAR
   LDOWNSAMPLE  =      F    k-point downsampling of WAVECAR
   LCHARG       =      T    write CHGCAR
   LVTOT        =      F    write LOCPOT, total local potential
   LVHAR        =      F    write LOCPOT, Hartree potential only
   LELF         =      F    write electronic localiz. function (ELF)
   LORBIT       =     11    0 simple, 1 ext, 2 COOP (PROOUT), +10 PAW based schemes


 Dipole corrections
   LMONO  =      F    monopole corrections only (constant potential shift)
   LDIPOL =      F    correct potential (dipole corrections)
   IDIPOL =      0    1-x, 2-y, 3-z, 4-all directions 
   EPSILON=  1.0000000 bulk dielectric constant

 Exchange correlation treatment:
   GGA     =    --    GGA type
   LEXCH   =     8    internal setting for exchange type
   VOSKOWN=      0    Vosko Wilk Nusair interpolation
   LHFCALC =     F    Hartree Fock is set to
   LHFONE  =     F    Hartree Fock one center treatment
   AEXX    =    0.0000 exact exchange contribution

 Linear response parameters
   LEPSILON=     F    determine dielectric tensor
   LRPA    =     F    only Hartree local field effects (RPA)
   LNABLA  =     F    use nabla operator in PAW spheres
   LVEL    =     F    velocity operator in full k-point grid
   LINTERFAST=   F  fast interpolation
   KINTER  =     0    interpolate to denser k-point grid
   CSHIFT  =0.1000    complex shift for real part using Kramers Kronig
   OMEGAMAX=  -1.0    maximum frequency
   DEG_THRESHOLD= 0.2000000E-02 threshold for treating states as degnerate
   RTIME   =   -0.100 relaxation time in fs
  (WPLASMAI=    0.000 imaginary part of plasma frequency in eV, 0.658/RTIME)
   DFIELD  = 0.0000000 0.0000000 0.0000000 field for delta impulse in time
 
 Orbital magnetization related:
   ORBITALMAG=     F  switch on orbital magnetization
   LCHIMAG   =     F  perturbation theory with respect to B field
   DQ        =  0.001000  dq finite difference perturbation B field
   LLRAUG    =     F  two centre corrections for induced B field



--------------------------------------------------------------------------------------------------------


 Static calculation
 charge density and potential remain constant during run
 non-spin polarized calculation
 Variant of blocked Davidson
 Davidson routine will perform the subspace rotation
 perform sub-space diagonalisation
    after iterative eigenvector-optimisation
 no mixing
 using additional bands            9
 reciprocal scheme for non local part
 use partial core corrections
 calculate Harris-corrections to forces 
   (improved forces if not selfconsistent)
 use gradient corrections 
 WARNING: stress and forces are not correct
  (second derivative of E(xc) not defined)
 use of overlap-Matrix (Vanderbilt PP)
 Gauss-broadening in eV      SIGMA  =   0.10


--------------------------------------------------------------------------------------------------------


  energy-cutoff  :      450.00
  volume of cell :      346.48
      direct lattice vectors                 reciprocal lattice vectors
     4.473000000  2.582000000  0.000000000     0.111781802  0.193648335  0.000000000
    -4.473000000  2.582000000  0.000000000    -0.111781802  0.193648335  0.000000000
     0.000000000  0.000000000 15.000000000     0.000000000  0.000000000  0.066666667

  length of vectors
     5.164731648  5.164731648 15.000000000     0.223595279  0.223595279  0.066666667


 
 k-points in units of 2pi/SCALE and weight: K-points for BC3                        
   0.00000000  0.00000000  0.00000000       0.007
   0.00931515  0.01613736  0.00000000       0.028
   0.01863030  0.03227472  0.00000000       0.028
   0.02794545  0.04841208  0.00000000       0.028
   0.03726060  0.06454944  0.00000000       0.028
   0.04657575  0.08068681  0.00000000       0.028
   0.05589090  0.09682417  0.00000000       0.014
   0.00000000  0.03227472  0.00000000       0.014
   0.00931515  0.04841208  0.00000000       0.028
   0.01863030  0.06454944  0.00000000       0.028
   0.02794545  0.08068681  0.00000000       0.028
   0.03726060  0.09682417  0.00000000       0.028
   0.04657575  0.11296153  0.00000000       0.028
  -0.05589090 -0.06454944  0.00000000       0.028
  -0.04657575 -0.04841208  0.00000000       0.028
  -0.03726060 -0.03227472  0.00000000       0.028
  -0.02794545 -0.01613736  0.00000000       0.028
  -0.01863030  0.00000000  0.00000000       0.014
   0.00000000  0.06454944  0.00000000       0.014
   0.00931515  0.08068681  0.00000000       0.028
   0.01863030  0.09682417  0.00000000       0.028
   0.02794545  0.11296153  0.00000000       0.028
   0.03726060  0.12909889  0.00000000       0.028
  -0.06520605 -0.04841208  0.00000000       0.028
  -0.05589090 -0.03227472  0.00000000       0.028
  -0.04657575 -0.01613736  0.00000000       0.028
  -0.03726060  0.00000000  0.00000000       0.014
   0.00000000  0.09682417  0.00000000       0.014
   0.00931515  0.11296153  0.00000000       0.028
   0.01863030  0.12909889  0.00000000       0.028
   0.02794545  0.14523625  0.00000000       0.028
  -0.07452120 -0.03227472  0.00000000       0.028
  -0.06520605 -0.01613736  0.00000000       0.028
  -0.05589090  0.00000000  0.00000000       0.014
   0.00000000  0.12909889  0.00000000       0.014
   0.00931515  0.14523625  0.00000000       0.028
   0.01863030  0.16137361  0.00000000       0.028
  -0.08383635 -0.01613736  0.00000000       0.028
  -0.07452120  0.00000000  0.00000000       0.014
   0.00000000  0.16137361  0.00000000       0.014
   0.00931515  0.17751097  0.00000000       0.028
  -0.09315150  0.00000000  0.00000000       0.014
   0.00000000  0.19364833  0.00000000       0.007
 
 k-points in reciprocal lattice and weights: K-points for BC3                        
   0.00000000  0.00000000  0.00000000       0.007
   0.08333333  0.00000000  0.00000000       0.028
   0.16666667 -0.00000000  0.00000000       0.028
   0.25000000 -0.00000000  0.00000000       0.028
   0.33333333  0.00000000  0.00000000       0.028
   0.41666667 -0.00000000  0.00000000       0.028
   0.50000000 -0.00000000  0.00000000       0.014
   0.08333333  0.08333333  0.00000000       0.014
   0.16666667  0.08333333  0.00000000       0.028
   0.25000000  0.08333333  0.00000000       0.028
   0.33333333  0.08333333  0.00000000       0.028
   0.41666667  0.08333333  0.00000000       0.028
   0.50000000  0.08333333  0.00000000       0.028
  -0.41666667  0.08333333  0.00000000       0.028
  -0.33333333  0.08333333  0.00000000       0.028
  -0.25000000  0.08333333  0.00000000       0.028
  -0.16666667  0.08333333  0.00000000       0.028
  -0.08333333  0.08333333  0.00000000       0.014
   0.16666667  0.16666667  0.00000000       0.014
   0.25000000  0.16666667  0.00000000       0.028
   0.33333333  0.16666667  0.00000000       0.028
   0.41666667  0.16666667  0.00000000       0.028
   0.50000000  0.16666667  0.00000000       0.028
  -0.41666667  0.16666667  0.00000000       0.028
  -0.33333333  0.16666667  0.00000000       0.028
  -0.25000000  0.16666667  0.00000000       0.028
  -0.16666667  0.16666667  0.00000000       0.014
   0.25000000  0.25000000  0.00000000       0.014
   0.33333333  0.25000000  0.00000000       0.028
   0.41666667  0.25000000  0.00000000       0.028
   0.50000000  0.25000000  0.00000000       0.028
  -0.41666667  0.25000000  0.00000000       0.028
  -0.33333333  0.25000000  0.00000000       0.028
  -0.25000000  0.25000000  0.00000000       0.014
   0.33333333  0.33333333  0.00000000       0.014
   0.41666667  0.33333333  0.00000000       0.028
   0.50000000  0.33333333  0.00000000       0.028
  -0.41666667  0.33333333  0.00000000       0.028
  -0.33333333  0.33333333  0.00000000       0.014
   0.41666667  0.41666667  0.00000000       0.014
   0.50000000  0.41666667  0.00000000       0.028
  -0.41666667  0.41666667  0.00000000       0.014
   0.50000000  0.50000000  0.00000000       0.007
 
 position of ions in fractional coordinates (direct lattice) 
   0.33333300  0.66666600  0.25000000
   0.66666600  0.33333300  0.25000000
   0.16666600  0.33333300  0.25000000
   0.33333300  0.16666600  0.25000000
   0.16666600  0.83333300  0.25000000
   0.83333300  0.16666600  0.25000000
   0.66666600  0.83333300  0.25000000
   0.83333300  0.66666600  0.25000000
 
 position of ions in cartesian coordinates  (Angst):
  -1.49099851  2.58199742  3.75000000
   1.49099851  2.58199742  3.75000000
  -0.74550149  1.29099742  3.75000000
   0.74550149  1.29099742  3.75000000
  -2.98200149  2.58199742  3.75000000
   2.98200149  2.58199742  3.75000000
  -0.74550149  3.87299742  3.75000000
   0.74550149  3.87299742  3.75000000
 


--------------------------------------------------------------------------------------------------------


 k-point  1 :   0.0000 0.0000 0.0000  plane waves:    7497
 k-point  2 :   0.0833 0.0000 0.0000  plane waves:    7488
 k-point  3 :   0.1667-0.0000 0.0000  plane waves:    7499
 k-point  4 :   0.2500-0.0000 0.0000  plane waves:    7495
 k-point  5 :   0.3333 0.0000 0.0000  plane waves:    7522
 k-point  6 :   0.4167-0.0000 0.0000  plane waves:    7518
 k-point  7 :   0.5000-0.0000 0.0000  plane waves:    7508
 k-point  8 :   0.0833 0.0833 0.0000  plane waves:    7497
 k-point  9 :   0.1667 0.0833 0.0000  plane waves:    7488
 k-point 10 :   0.2500 0.0833 0.0000  plane waves:    7501
 k-point 11 :   0.3333 0.0833 0.0000  plane waves:    7501
 k-point 12 :   0.4167 0.0833 0.0000  plane waves:    7514
 k-point 13 :   0.5000 0.0833 0.0000  plane waves:    7514
 k-point 14 :  -0.4167 0.0833 0.0000  plane waves:    7501
 k-point 15 :  -0.3333 0.0833 0.0000  plane waves:    7497
 k-point 16 :  -0.2500 0.0833 0.0000  plane waves:    7486
 k-point 17 :  -0.1667 0.0833 0.0000  plane waves:    7497
 k-point 18 :  -0.0833 0.0833 0.0000  plane waves:    7487
 k-point 19 :   0.1667 0.1667 0.0000  plane waves:    7511
 k-point 20 :   0.2500 0.1667 0.0000  plane waves:    7510
 k-point 21 :   0.3333 0.1667 0.0000  plane waves:    7520
 k-point 22 :   0.4167 0.1667 0.0000  plane waves:    7529
 k-point 23 :   0.5000 0.1667 0.0000  plane waves:    7520
 k-point 24 :  -0.4167 0.1667 0.0000  plane waves:    7512
 k-point 25 :  -0.3333 0.1667 0.0000  plane waves:    7509
 k-point 26 :  -0.2500 0.1667 0.0000  plane waves:    7486
 k-point 27 :  -0.1667 0.1667 0.0000  plane waves:    7499
 k-point 28 :   0.2500 0.2500 0.0000  plane waves:    7509
 k-point 29 :   0.3333 0.2500 0.0000  plane waves:    7527
 k-point 30 :   0.4167 0.2500 0.0000  plane waves:    7527
 k-point 31 :   0.5000 0.2500 0.0000  plane waves:    7509
 k-point 32 :  -0.4167 0.2500 0.0000  plane waves:    7510
 k-point 33 :  -0.3333 0.2500 0.0000  plane waves:    7494
 k-point 34 :  -0.2500 0.2500 0.0000  plane waves:    7495
 k-point 35 :   0.3333 0.3333 0.0000  plane waves:    7545
 k-point 36 :   0.4167 0.3333 0.0000  plane waves:    7527
 k-point 37 :   0.5000 0.3333 0.0000  plane waves:    7520
 k-point 38 :  -0.4167 0.3333 0.0000  plane waves:    7501
 k-point 39 :  -0.3333 0.3333 0.0000  plane waves:    7522
 k-point 40 :   0.4167 0.4167 0.0000  plane waves:    7529
 k-point 41 :   0.5000 0.4167 0.0000  plane waves:    7514
 k-point 42 :  -0.4167 0.4167 0.0000  plane waves:    7516
 k-point 43 :   0.5000 0.5000 0.0000  plane waves:    7504

 maximum and minimum number of plane-waves per node :      7545     7486

 maximum number of plane-waves:      7545
 maximum index in each direction: 
   IXMAX=    9   IYMAX=    8   IZMAX=   25
   IXMIN=   -9   IYMIN=   -9   IZMIN=  -25


 serial   3D FFT for wavefunctions
 parallel 3D FFT for charge:
    minimum data exchange during FFTs selected (reduces bandwidth)


 total amount of memory used by VASP MPI-rank0    97625. kBytes
=======================================================================

   base      :      30000. kBytes
   nonl-proj :      42510. kBytes
   fftplans  :       3727. kBytes
   grid      :      10879. kBytes
   one-center:         24. kBytes
   wavefun   :      10485. kBytes
 
     INWAV:  cpu time    0.0000: real time    0.0000
 initial charge density was supplied:
 number of electron      30.0000011 magnetization 
 keeping initial charge density in first step


--------------------------------------------------------------------------------------------------------


 Maximum index for augmentation-charges          409 (set IRDMAX)


--------------------------------------------------------------------------------------------------------


 First call to EWALD:  gamma=   0.252
 Maximum number of real-space cells 4x 4x 2
 Maximum number of reciprocal cells 2x 2x 5

    FEWALD:  cpu time    0.0020: real time    0.0021


--------------------------------------- Iteration      1(   1)  ---------------------------------------


    POTLOK:  cpu time    0.0647: real time    0.0652
    SETDIJ:  cpu time    0.0020: real time    0.0020
     EDDAV:  cpu time    2.4744: real time    2.4746
       DOS:  cpu time    0.0008: real time    0.0008
    --------------------------------------------
      LOOP:  cpu time    2.5419: real time    2.5425

 eigenvalue-minimisations  :  2064
 total energy-change (2. order) : 0.1713878E+03  (-0.9856124E+03)
 number of electron      30.0000011 magnetization 
 augmentation part       30.0000011 magnetization 

 Free energy of the ion-electron system (eV)
  ---------------------------------------------------
  alpha Z        PSCENC =        14.64016667
  Ewald energy   TEWEN  =      2593.16580357
  -Hartree energ DENC   =     -3487.10816652
  -exchange      EXHF   =         0.00000000
  -V(xc)+E(xc)   XCENC  =        95.64232799
  PAW double counting   =      2872.31455798    -2874.83944341
  entropy T*S    EENTRO =        -0.01500100
  eigenvalues    EBANDS =       -67.61634557
  atomic energy  EATOM  =      1025.20389953
  Solvation  Ediel_sol  =         0.00000000
  ---------------------------------------------------
  free energy    TOTEN  =       171.38779924 eV

  energy without entropy =      171.40280024  energy(sigma->0) =      171.39529974


--------------------------------------------------------------------------------------------------------




--------------------------------------- Iteration      1(   2)  ---------------------------------------


     EDDAV:  cpu time    3.7020: real time    3.7021
       DOS:  cpu time    0.0007: real time    0.0007
    --------------------------------------------
      LOOP:  cpu time    3.7027: real time    3.7029

 eigenvalue-minimisations  :  3516
 total energy-change (2. order) :-0.2113263E+03  (-0.1939917E+03)
 number of electron      30.0000011 magnetization 
 augmentation part       30.0000011 magnetization 

 Free energy of the ion-electron system (eV)
  ---------------------------------------------------
  alpha Z        PSCENC =        14.64016667
  Ewald energy   TEWEN  =      2593.16580357
  -Hartree energ DENC   =     -3487.10816652
  -exchange      EXHF   =         0.00000000
  -V(xc)+E(xc)   XCENC  =        95.64232799
  PAW double counting   =      2872.31455798    -2874.83944341
  entropy T*S    EENTRO =        -0.00367581
  eigenvalues    EBANDS =      -278.95401656
  atomic energy  EATOM  =      1025.20389953
  Solvation  Ediel_sol  =         0.00000000
  ---------------------------------------------------
  free energy    TOTEN  =       -39.93854656 eV

  energy without entropy =      -39.93487075  energy(sigma->0) =      -39.93670866


--------------------------------------------------------------------------------------------------------




--------------------------------------- Iteration      1(   3)  ---------------------------------------


     EDDAV:  cpu time    2.7010: real time    2.7013
       DOS:  cpu time    0.0007: real time    0.0007
    --------------------------------------------
      LOOP:  cpu time    2.7017: real time    2.7020

 eigenvalue-minimisations  :  2352
 total energy-change (2. order) :-0.2576154E+02  (-0.2552193E+02)
 number of electron      30.0000011 magnetization 
 augmentation part       30.0000011 magnetization 

 Free energy of the ion-electron system (eV)
  ---------------------------------------------------
  alpha Z        PSCENC =        14.64016667
  Ewald energy   TEWEN  =      2593.16580357
  -Hartree energ DENC   =     -3487.10816652
  -exchange      EXHF   =         0.00000000
  -V(xc)+E(xc)   XCENC  =        95.64232799
  PAW double counting   =      2872.31455798    -2874.83944341
  entropy T*S    EENTRO =        -0.00024015
  eigenvalues    EBANDS =      -304.71899010
  atomic energy  EATOM  =      1025.20389953
  Solvation  Ediel_sol  =         0.00000000
  ---------------------------------------------------
  free energy    TOTEN  =       -65.70008444 eV

  energy without entropy =      -65.69984429  energy(sigma->0) =      -65.69996436


--------------------------------------------------------------------------------------------------------




--------------------------------------- Iteration      1(   4)  ---------------------------------------


     EDDAV:  cpu time    3.0189: real time    3.0189
       DOS:  cpu time    0.0007: real time    0.0007
    --------------------------------------------
      LOOP:  cpu time    3.0196: real time    3.0197

 eigenvalue-minimisations  :  2712
 total energy-change (2. order) :-0.5840806E+00  (-0.5833641E+00)
 number of electron      30.0000011 magnetization 
 augmentation part       30.0000011 magnetization 

 Free energy of the ion-electron system (eV)
  ---------------------------------------------------
  alpha Z        PSCENC =        14.64016667
  Ewald energy   TEWEN  =      2593.16580357
  -Hartree energ DENC   =     -3487.10816652
  -exchange      EXHF   =         0.00000000
  -V(xc)+E(xc)   XCENC  =        95.64232799
  PAW double counting   =      2872.31455798    -2874.83944341
  entropy T*S    EENTRO =        -0.00018454
  eigenvalues    EBANDS =      -305.30312627
  atomic energy  EATOM  =      1025.20389953
  Solvation  Ediel_sol  =         0.00000000
  ---------------------------------------------------
  free energy    TOTEN  =       -66.28416500 eV

  energy without entropy =      -66.28398046  energy(sigma->0) =      -66.28407273


--------------------------------------------------------------------------------------------------------




--------------------------------------- Iteration      1(   5)  ---------------------------------------


     EDDAV:  cpu time    3.0051: real time    3.0051
       DOS:  cpu time    0.0008: real time    0.0007
    --------------------------------------------
      LOOP:  cpu time    3.0058: real time    3.0059

 eigenvalue-minimisations  :  2700
 total energy-change (2. order) :-0.1627863E-01  (-0.1626976E-01)
 number of electron      30.0000011 magnetization 
 augmentation part       30.0000011 magnetization 

 Free energy of the ion-electron system (eV)
  ---------------------------------------------------
  alpha Z        PSCENC =        14.64016667
  Ewald energy   TEWEN  =      2593.16580357
  -Hartree energ DENC   =     -3487.10816652
  -exchange      EXHF   =         0.00000000
  -V(xc)+E(xc)   XCENC  =        95.64232799
  PAW double counting   =      2872.31455798    -2874.83944341
  entropy T*S    EENTRO =        -0.00017995
  eigenvalues    EBANDS =      -305.31940949
  atomic energy  EATOM  =      1025.20389953
  Solvation  Ediel_sol  =         0.00000000
  ---------------------------------------------------
  free energy    TOTEN  =       -66.30044363 eV

  energy without entropy =      -66.30026369  energy(sigma->0) =      -66.30035366


--------------------------------------------------------------------------------------------------------




--------------------------------------- Iteration      1(   6)  ---------------------------------------


     EDDAV:  cpu time    3.4081: real time    3.4082
       DOS:  cpu time    0.0007: real time    0.0007
    --------------------------------------------
      LOOP:  cpu time    3.4088: real time    3.4089

 eigenvalue-minimisations  :  3192
 total energy-change (2. order) :-0.7365507E-03  (-0.7365350E-03)
 number of electron      30.0000011 magnetization 
 augmentation part       30.0000011 magnetization 

 Free energy of the ion-electron system (eV)
  ---------------------------------------------------
  alpha Z        PSCENC =        14.64016667
  Ewald energy   TEWEN  =      2593.16580357
  -Hartree energ DENC   =     -3487.10816652
  -exchange      EXHF   =         0.00000000
  -V(xc)+E(xc)   XCENC  =        95.64232799
  PAW double counting   =      2872.31455798    -2874.83944341
  entropy T*S    EENTRO =        -0.00017994
  eigenvalues    EBANDS =      -305.32014605
  atomic energy  EATOM  =      1025.20389953
  Solvation  Ediel_sol  =         0.00000000
  ---------------------------------------------------
  free energy    TOTEN  =       -66.30118018 eV

  energy without entropy =      -66.30100024  energy(sigma->0) =      -66.30109021


--------------------------------------------------------------------------------------------------------




--------------------------------------- Iteration      1(   7)  ---------------------------------------


     EDDAV:  cpu time    3.1676: real time    3.1676
       DOS:  cpu time    0.0007: real time    0.0007
    --------------------------------------------
      LOOP:  cpu time    3.1683: real time    3.1684

 eigenvalue-minimisations  :  2904
 total energy-change (2. order) :-0.1152582E-04  (-0.1152549E-04)
 number of electron      30.0000011 magnetization 
 augmentation part       30.0000011 magnetization 

 Free energy of the ion-electron system (eV)
  ---------------------------------------------------
  alpha Z        PSCENC =        14.64016667
  Ewald energy   TEWEN  =      2593.16580357
  -Hartree energ DENC   =     -3487.10816652
  -exchange      EXHF   =         0.00000000
  -V(xc)+E(xc)   XCENC  =        95.64232799
  PAW double counting   =      2872.31455798    -2874.83944341
  entropy T*S    EENTRO =        -0.00017994
  eigenvalues    EBANDS =      -305.32015757
  atomic energy  EATOM  =      1025.20389953
  Solvation  Ediel_sol  =         0.00000000
  ---------------------------------------------------
  free energy    TOTEN  =       -66.30119171 eV

  energy without entropy =      -66.30101176  energy(sigma->0) =      -66.30110174


--------------------------------------------------------------------------------------------------------




--------------------------------------- Iteration      1(   8)  ---------------------------------------


     EDDAV:  cpu time    3.1171: real time    3.1171
       DOS:  cpu time    0.0008: real time    0.0008
    --------------------------------------------
      LOOP:  cpu time    3.1179: real time    3.1179

 eigenvalue-minimisations  :  2820
 total energy-change (2. order) :-0.3053026E-06  (-0.3055169E-06)
 number of electron      30.0000011 magnetization 
 augmentation part       30.0000011 magnetization 

 Free energy of the ion-electron system (eV)
  ---------------------------------------------------
  alpha Z        PSCENC =        14.64016667
  Ewald energy   TEWEN  =      2593.16580357
  -Hartree energ DENC   =     -3487.10816652
  -exchange      EXHF   =         0.00000000
  -V(xc)+E(xc)   XCENC  =        95.64232799
  PAW double counting   =      2872.31455798    -2874.83944341
  entropy T*S    EENTRO =        -0.00017994
  eigenvalues    EBANDS =      -305.32015788
  atomic energy  EATOM  =      1025.20389953
  Solvation  Ediel_sol  =         0.00000000
  ---------------------------------------------------
  free energy    TOTEN  =       -66.30119201 eV

  energy without entropy =      -66.30101207  energy(sigma->0) =      -66.30110204


--------------------------------------------------------------------------------------------------------




 average (electrostatic) potential at core
  the test charge radii are     0.7672  0.6991
  (the norm of the test charge is              1.0000)
       1 -34.2442       2 -34.2442       3 -57.3025       4 -57.3025       5 -57.3027
       6 -57.3027       7 -57.3025       8 -57.3025
 
 
 
 E-fermi :  -3.7575     XC(G=0):  -2.8044     alpha+bet : -2.3762


 k-point     1 :       0.0000    0.0000    0.0000
  band No.  band energies     occupation 
      1     -19.5195      2.00000
      2     -15.5902      2.00000
      3     -15.5881      2.00000
      4     -13.8497      2.00000
      5     -13.8491      2.00000
      6     -12.3340      2.00000
      7     -12.1302      2.00000
      8      -8.6261      2.00000
      9      -7.8989      2.00000
     10      -6.5918      2.00000
     11      -6.5897      2.00000
     12      -4.2978      2.00000
     13      -4.2961      2.00000
     14      -3.9113      1.97048
     15      -3.9106      1.96970
     16      -2.6230      0.00000
     17      -0.6593      0.00000
     18      -0.6591      0.00000
     19       0.8376      0.00000
     20       1.0370      0.00000
     21       1.8163      0.00000
     22       2.2517      0.00000
     23       4.1938      0.00000
     24       4.2766      0.00000

 k-point     2 :       0.0833    0.0000    0.0000
  band No.  band energies     occupation 
      1     -19.4863      2.00000
      2     -15.7607      2.00000
      3     -15.6584      2.00000
      4     -13.9038      2.00000
      5     -13.7194      2.00000
      6     -12.1947      2.00000
      7     -11.9249      2.00000
      8      -8.5822      2.00000
      9      -7.9717      2.00000
     10      -6.7008      2.00000
     11      -6.6084      2.00000
     12      -4.4301      2.00000
     13      -4.3231      2.00000
     14      -4.0640      1.99999
     15      -3.9903      1.99901
     16      -2.8009      0.00000
     17      -0.5960      0.00000
     18      -0.3643      0.00000
     19       0.8892      0.00000
     20       1.1468      0.00000
     21       1.8778      0.00000
     22       2.3037      0.00000
     23       4.2453      0.00000
     24       4.3575      0.00000

 k-point     3 :       0.1667   -0.0000    0.0000
  band No.  band energies     occupation 
      1     -19.3877      2.00000
      2     -16.1692      2.00000
      3     -15.8141      2.00000
      4     -14.0410      2.00000
      5     -13.3830      2.00000
      6     -11.8319      2.00000
      7     -11.3896      2.00000
      8      -8.4507      2.00000
      9      -8.2130      2.00000
     10      -7.0125      2.00000
     11      -6.6103      2.00000
     12      -4.8105      2.00000
     13      -4.4997      2.00000
     14      -4.3902      2.00000
     15      -4.2111      2.00000
     16      -3.0947      0.00000
     17      -0.4236      0.00000
     18       0.2339      0.00000
     19       1.0436      0.00000
     20       1.4791      0.00000
     21       2.0754      0.00000
     22       2.4595      0.00000
     23       4.3996      0.00000
     24       4.5749      0.00000

 k-point     4 :       0.2500   -0.0000    0.0000
  band No.  band energies     occupation 
      1     -19.2279      2.00000
      2     -16.6578      2.00000
      3     -15.9817      2.00000
      4     -14.1981      2.00000
      5     -12.9252      2.00000
      6     -11.3513      2.00000
      7     -10.6459      2.00000
      8      -8.6287      2.00000
      9      -8.2334      2.00000
     10      -7.4745      2.00000
     11      -6.5265      2.00000
     12      -5.3499      2.00000
     13      -5.1586      2.00000
     14      -4.5323      2.00000
     15      -4.4754      2.00000
     16      -3.3194      0.00000
     17      -0.1863      0.00000
     18       0.8054      0.00000
     19       1.3001      0.00000
     20       1.9791      0.00000
     21       2.4859      0.00000
     22       2.7188      0.00000
     23       4.6558      0.00000
     24       4.9144      0.00000

 k-point     5 :       0.3333    0.0000    0.0000
  band No.  band energies     occupation 
      1     -19.0179      2.00000
      2     -17.1345      2.00000
      3     -16.1188      2.00000
      4     -14.3291      2.00000
      5     -12.4141      2.00000
      6     -10.8118      2.00000
      7      -9.7916      2.00000
      8      -9.1501      2.00000
      9      -8.0177      2.00000
     10      -7.9340      2.00000
     11      -6.3463      2.00000
     12      -5.9721      2.00000
     13      -5.9389      2.00000
     14      -4.9047      2.00000
     15      -4.5543      2.00000
     16      -3.4684      0.00004
     17       0.0557      0.00000
     18       1.2410      0.00000
     19       1.6581      0.00000
     20       2.4658      0.00000
     21       3.0812      0.00000
     22       3.2109      0.00000
     23       4.0944      0.00000
     24       4.9499      0.00000

 k-point     6 :       0.4167   -0.0000    0.0000
  band No.  band energies     occupation 
      1     -18.7930      2.00000
      2     -17.5291      2.00000
      3     -16.2063      2.00000
      4     -14.4133      2.00000
      5     -11.9392      2.00000
      6     -10.2698      2.00000
      7      -9.6499      2.00000
      8      -8.9852      2.00000
      9      -8.4597      2.00000
     10      -7.5639      2.00000
     11      -6.8763      2.00000
     12      -6.5011      2.00000
     13      -6.0987      2.00000
     14      -5.2753      2.00000
     15      -4.6086      2.00000
     16      -3.5549      0.00418
     17       0.2380      0.00000
     18       1.5272      0.00000
     19       2.1170      0.00000
     20       2.9573      0.00000
     21       3.3361      0.00000
     22       3.5472      0.00000
     23       3.9245      0.00000
     24       4.4365      0.00000

 k-point     7 :       0.5000   -0.0000    0.0000
  band No.  band energies     occupation 
      1     -18.6725      2.00000
      2     -17.7074      2.00000
      3     -16.2362      2.00000
      4     -14.4421      2.00000
      5     -11.7115      2.00000
      6      -9.9515      2.00000
      7      -9.8890      2.00000
      8      -9.0196      2.00000
      9      -7.8485      2.00000
     10      -7.7743      2.00000
     11      -7.2556      2.00000
     12      -6.8762      2.00000
     13      -5.9132      2.00000
     14      -5.5029      2.00000
     15      -4.6279      2.00000
     16      -3.5836      0.01392
     17       0.3060      0.00000
     18       1.6301      0.00000
     19       2.6580      0.00000
     20       2.6958      0.00000
     21       3.4824      0.00000
     22       3.5331      0.00000
     23       4.1065      0.00000
     24       4.1235      0.00000

 k-point     8 :       0.0833    0.0833    0.0000
  band No.  band energies     occupation 
      1     -19.4204      2.00000
      2     -16.0202      2.00000
      3     -15.8056      2.00000
      4     -13.9296      2.00000
      5     -13.5601      2.00000
      6     -11.9142      2.00000
      7     -11.5756      2.00000
      8      -8.4944      2.00000
      9      -8.1357      2.00000
     10      -6.8674      2.00000
     11      -6.6558      2.00000
     12      -4.6515      2.00000
     13      -4.4210      2.00000
     14      -4.3502      2.00000
     15      -4.1488      2.00000
     16      -2.9959      0.00000
     17      -0.5263      0.00000
     18       0.1126      0.00000
     19       0.9922      0.00000
     20       1.3624      0.00000
     21       2.0061      0.00000
     22       2.4076      0.00000
     23       4.3482      0.00000
     24       4.5226      0.00000

 k-point     9 :       0.1667    0.0833    0.0000
  band No.  band energies     occupation 
      1     -19.2909      2.00000
      2     -16.4308      2.00000
      3     -16.0158      2.00000
      4     -13.9922      2.00000
      5     -13.2529      2.00000
      6     -11.4378      2.00000
      7     -10.9746      2.00000
      8      -8.4974      2.00000
      9      -8.3200      2.00000
     10      -7.1658      2.00000
     11      -6.6706      2.00000
     12      -5.0696      2.00000
     13      -4.8786      2.00000
     14      -4.5976      2.00000
     15      -4.4390      2.00000
     16      -3.1375      0.00000
     17      -0.4150      0.00000
     18       0.7616      0.00000
     19       1.1977      0.00000
     20       1.7658      0.00000
     21       2.2947      0.00000
     22       2.6152      0.00000
     23       4.5536      0.00000
     24       4.8100      0.00000

 k-point    10 :       0.2500    0.0833    0.0000
  band No.  band energies     occupation 
      1     -19.1049      2.00000
      2     -16.8970      2.00000
      3     -16.1943      2.00000
      4     -14.0995      2.00000
      5     -12.8024      2.00000
      6     -10.8990      2.00000
      7     -10.1948      2.00000
      8      -9.0123      2.00000
      9      -8.0613      2.00000
     10      -7.6057      2.00000
     11      -6.5585      2.00000
     12      -5.6236      2.00000
     13      -5.5956      2.00000
     14      -4.8058      2.00000
     15      -4.7525      2.00000
     16      -3.2076      0.00000
     17      -0.2587      0.00000
     18       1.3199      0.00000
     19       1.5051      0.00000
     20       2.2569      0.00000
     21       2.8454      0.00000
     22       2.9262      0.00000
     23       4.5483      0.00000
     24       4.8582      0.00000

 k-point    11 :       0.3333    0.0833    0.0000
  band No.  band energies     occupation 
      1     -18.8818      2.00000
      2     -17.3310      2.00000
      3     -16.3190      2.00000
      4     -14.1919      2.00000
      5     -12.3064      2.00000
      6     -10.3500      2.00000
      7      -9.5911      2.00000
      8      -9.3057      2.00000
      9      -8.1072      2.00000
     10      -7.7246      2.00000
     11      -6.4437      2.00000
     12      -6.3404      2.00000
     13      -6.1999      2.00000
     14      -5.1957      2.00000
     15      -4.8623      2.00000
     16      -3.2477      0.00000
     17      -0.1009      0.00000
     18       1.7128      0.00000
     19       1.9137      0.00000
     20       2.7398      0.00000
     21       3.3401      0.00000
     22       3.6317      0.00000
     23       3.7423      0.00000
     24       4.6728      0.00000

 k-point    12 :       0.4167    0.0833    0.0000
  band No.  band energies     occupation 
      1     -18.6882      2.00000
      2     -17.6357      2.00000
      3     -16.3827      2.00000
      4     -14.2426      2.00000
      5     -11.9147      2.00000
      6     -10.0460      2.00000
      7      -9.8458      2.00000
      8      -8.7455      2.00000
      9      -8.2143      2.00000
     10      -7.3489      2.00000
     11      -7.3405      2.00000
     12      -6.7135      2.00000
     13      -6.0921      2.00000
     14      -5.5383      2.00000
     15      -4.9190      2.00000
     16      -3.2684      0.00000
     17      -0.0012      0.00000
     18       1.9248      0.00000
     19       2.4228      0.00000
     20       3.0334      0.00000
     21       3.2607      0.00000
     22       3.8239      0.00000
     23       3.8574      0.00000
     24       4.4768      0.00000

 k-point    13 :       0.5000    0.0833    0.0000
  band No.  band energies     occupation 
      1     -18.6882      2.00000
      2     -17.6357      2.00000
      3     -16.3827      2.00000
      4     -14.2425      2.00000
      5     -11.9144      2.00000
      6     -10.0460      2.00000
      7      -9.8470      2.00000
      8      -8.7448      2.00000
      9      -8.2145      2.00000
     10      -7.3484      2.00000
     11      -7.3406      2.00000
     12      -6.7133      2.00000
     13      -6.0918      2.00000
     14      -5.5387      2.00000
     15      -4.9192      2.00000
     16      -3.2681      0.00000
     17      -0.0013      0.00000
     18       1.9246      0.00000
     19       2.4227      0.00000
     20       3.0336      0.00000
     21       3.2605      0.00000
     22       3.8240      0.00000
     23       3.8572      0.00000
     24       4.4770      0.00000

 k-point    14 :      -0.4167    0.0833    0.0000
  band No.  band energies     occupation 
      1     -18.8819      2.00000
      2     -17.3310      2.00000
      3     -16.3190      2.00000
      4     -14.1916      2.00000
      5     -12.3060      2.00000
      6     -10.3509      2.00000
      7      -9.5924      2.00000
      8      -9.3059      2.00000
      9      -8.1059      2.00000
     10      -7.7247      2.00000
     11      -6.4433      2.00000
     12      -6.3399      2.00000
     13      -6.1997      2.00000
     14      -5.1962      2.00000
     15      -4.8626      2.00000
     16      -3.2470      0.00000
     17      -0.1011      0.00000
     18       1.7124      0.00000
     19       1.9136      0.00000
     20       2.7397      0.00000
     21       3.3400      0.00000
     22       3.6314      0.00000
     23       3.7426      0.00000
     24       4.6730      0.00000

 k-point    15 :      -0.3333    0.0833    0.0000
  band No.  band energies     occupation 
      1     -19.1050      2.00000
      2     -16.8971      2.00000
      3     -16.1943      2.00000
      4     -14.0989      2.00000
      5     -12.8022      2.00000
      6     -10.8999      2.00000
      7     -10.1952      2.00000
      8      -9.0134      2.00000
      9      -8.0614      2.00000
     10      -7.6044      2.00000
     11      -6.5580      2.00000
     12      -5.6235      2.00000
     13      -5.5953      2.00000
     14      -4.8062      2.00000
     15      -4.7530      2.00000
     16      -3.2064      0.00000
     17      -0.2590      0.00000
     18       1.3195      0.00000
     19       1.5050      0.00000
     20       2.2568      0.00000
     21       2.8451      0.00000
     22       2.9261      0.00000
     23       4.5486      0.00000
     24       4.8580      0.00000

 k-point    16 :      -0.2500    0.0833    0.0000
  band No.  band energies     occupation 
      1     -19.2910      2.00000
      2     -16.4312      2.00000
      3     -16.0154      2.00000
      4     -13.9912      2.00000
      5     -13.2531      2.00000
      6     -11.4384      2.00000
      7     -10.9750      2.00000
      8      -8.4984      2.00000
      9      -8.3200      2.00000
     10      -7.1650      2.00000
     11      -6.6699      2.00000
     12      -5.0697      2.00000
     13      -4.8785      2.00000
     14      -4.5979      2.00000
     15      -4.4391      2.00000
     16      -3.1362      0.00000
     17      -0.4154      0.00000
     18       0.7613      0.00000
     19       1.1977      0.00000
     20       1.7656      0.00000
     21       2.2945      0.00000
     22       2.6152      0.00000
     23       4.5535      0.00000
     24       4.8100      0.00000

 k-point    17 :      -0.1667    0.0833    0.0000
  band No.  band energies     occupation 
      1     -19.4204      2.00000
      2     -16.0215      2.00000
      3     -15.8043      2.00000
      4     -13.9285      2.00000
      5     -13.5607      2.00000
      6     -11.9145      2.00000
      7     -11.5760      2.00000
      8      -8.4944      2.00000
      9      -8.1362      2.00000
     10      -6.8681      2.00000
     11      -6.6541      2.00000
     12      -4.6525      2.00000
     13      -4.4203      2.00000
     14      -4.3506      2.00000
     15      -4.1484      2.00000
     16      -2.9949      0.00000
     17      -0.5268      0.00000
     18       0.1123      0.00000
     19       0.9922      0.00000
     20       1.3622      0.00000
     21       2.0060      0.00000
     22       2.4076      0.00000
     23       4.3482      0.00000
     24       4.5337      0.00000

 k-point    18 :      -0.0833    0.0833    0.0000
  band No.  band energies     occupation 
      1     -19.4863      2.00000
      2     -15.7622      2.00000
      3     -15.6567      2.00000
      4     -13.9032      2.00000
      5     -13.7198      2.00000
      6     -12.1947      2.00000
      7     -11.9251      2.00000
      8      -8.5822      2.00000
      9      -7.9719      2.00000
     10      -6.7023      2.00000
     11      -6.6066      2.00000
     12      -4.4314      2.00000
     13      -4.3218      2.00000
     14      -4.0647      1.99999
     15      -3.9896      1.99898
     16      -2.8006      0.00000
     17      -0.5962      0.00000
     18      -0.3643      0.00000
     19       0.8892      0.00000
     20       1.1467      0.00000
     21       1.8778      0.00000
     22       2.3037      0.00000
     23       4.2453      0.00000
     24       4.3856      0.00000

 k-point    19 :       0.1667    0.1667    0.0000
  band No.  band energies     occupation 
      1     -19.1346      2.00000
      2     -16.7404      2.00000
      3     -16.3242      2.00000
      4     -13.8245      2.00000
      5     -13.1335      2.00000
      6     -10.8210      2.00000
      7     -10.4092      2.00000
      8      -8.9958      2.00000
      9      -8.1040      2.00000
     10      -7.2520      2.00000
     11      -6.8120      2.00000
     12      -5.4306      2.00000
     13      -5.3842      2.00000
     14      -5.0016      2.00000
     15      -4.8100      2.00000
     16      -3.0087      0.00000
     17      -0.4840      0.00000
     18       1.4542      0.00000
     19       1.4766      0.00000
     20       2.1383      0.00000
     21       2.6932      0.00000
     22       2.8746      0.00000
     23       4.8089      0.00000
     24       5.1095      0.00000

 k-point    20 :       0.2500    0.1667    0.0000
  band No.  band energies     occupation 
      1     -18.9310      2.00000
      2     -17.1080      2.00000
      3     -16.5563      2.00000
      4     -13.7721      2.00000
      5     -12.8072      2.00000
      6     -10.2163      2.00000
      7      -9.6995      2.00000
      8      -9.5488      2.00000
      9      -7.8069      2.00000
     10      -7.5315      2.00000
     11      -6.7627      2.00000
     12      -6.1299      2.00000
     13      -5.8567      2.00000
     14      -5.2768      2.00000
     15      -5.2435      2.00000
     16      -2.8525      0.00000
     17      -0.5247      0.00000
     18       1.8124      0.00000
     19       2.0756      0.00000
     20       2.5874      0.00000
     21       3.2373      0.00000
     22       3.3005      0.00000
     23       4.2492      0.00000
     24       4.8558      0.00000

 k-point    21 :       0.3333    0.1667    0.0000
  band No.  band energies     occupation 
      1     -18.7165      2.00000
      2     -17.4523      2.00000
      3     -16.6826      2.00000
      4     -13.7928      2.00000
      5     -12.3848      2.00000
      6     -10.2127      2.00000
      7      -9.6024      2.00000
      8      -8.8264      2.00000
      9      -7.9353      2.00000
     10      -7.4414      2.00000
     11      -6.9536      2.00000
     12      -6.5249      2.00000
     13      -6.3871      2.00000
     14      -5.6614      2.00000
     15      -5.4066      2.00000
     16      -2.7467      0.00000
     17      -0.5302      0.00000
     18       2.2716      0.00000
     19       2.4377      0.00000
     20       3.0963      0.00000
     21       3.4908      0.00000
     22       3.7036      0.00000
     23       3.9815      0.00000
     24       4.4929      0.00000

 k-point    22 :       0.4167    0.1667    0.0000
  band No.  band energies     occupation 
      1     -18.6047      2.00000
      2     -17.6118      2.00000
      3     -16.7227      2.00000
      4     -13.8059      2.00000
      5     -12.1601      2.00000
      6     -10.4628      2.00000
      7      -9.3375      2.00000
      8      -8.3626      2.00000
      9      -7.8593      2.00000
     10      -7.7242      2.00000
     11      -7.1431      2.00000
     12      -6.7466      2.00000
     13      -6.3398      2.00000
     14      -5.9118      2.00000
     15      -5.4470      2.00000
     16      -2.7108      0.00000
     17      -0.5269      0.00000
     18       2.5629      0.00000
     19       2.8148      0.00000
     20       2.8481      0.00000
     21       3.6190      0.00000
     22       3.6810      0.00000
     23       4.2651      0.00000
     24       4.2785      0.00000

 k-point    23 :       0.5000    0.1667    0.0000
  band No.  band energies     occupation 
      1     -18.7165      2.00000
      2     -17.4523      2.00000
      3     -16.6826      2.00000
      4     -13.7922      2.00000
      5     -12.3846      2.00000
      6     -10.2136      2.00000
      7      -9.6038      2.00000
      8      -8.8270      2.00000
      9      -7.9339      2.00000
     10      -7.4416      2.00000
     11      -6.9528      2.00000
     12      -6.5240      2.00000
     13      -6.3868      2.00000
     14      -5.6622      2.00000
     15      -5.4069      2.00000
     16      -2.7459      0.00000
     17      -0.5306      0.00000
     18       2.2713      0.00000
     19       2.4373      0.00000
     20       3.0960      0.00000
     21       3.4912      0.00000
     22       3.7033      0.00000
     23       3.9812      0.00000
     24       4.4944      0.00000

 k-point    24 :      -0.4167    0.1667    0.0000
  band No.  band energies     occupation 
      1     -18.9311      2.00000
      2     -17.1083      2.00000
      3     -16.5560      2.00000
      4     -13.7709      2.00000
      5     -12.8074      2.00000
      6     -10.2176      2.00000
      7      -9.7005      2.00000
      8      -9.5500      2.00000
      9      -7.8071      2.00000
     10      -7.5298      2.00000
     11      -6.7618      2.00000
     12      -6.1293      2.00000
     13      -5.8565      2.00000
     14      -5.2771      2.00000
     15      -5.2441      2.00000
     16      -2.8510      0.00000
     17      -0.5255      0.00000
     18       1.8121      0.00000
     19       2.0751      0.00000
     20       2.5871      0.00000
     21       3.2371      0.00000
     22       3.2999      0.00000
     23       4.2497      0.00000
     24       4.8552      0.00000

 k-point    25 :      -0.3333    0.1667    0.0000
  band No.  band energies     occupation 
      1     -19.1347      2.00000
      2     -16.7412      2.00000
      3     -16.3234      2.00000
      4     -13.8227      2.00000
      5     -13.1344      2.00000
      6     -10.8219      2.00000
      7     -10.4101      2.00000
      8      -8.9972      2.00000
      9      -8.1042      2.00000
     10      -7.2513      2.00000
     11      -6.8102      2.00000
     12      -5.4305      2.00000
     13      -5.3847      2.00000
     14      -5.0015      2.00000
     15      -4.8101      2.00000
     16      -3.0068      0.00000
     17      -0.4848      0.00000
     18       1.4540      0.00000
     19       1.4760      0.00000
     20       2.1379      0.00000
     21       2.6927      0.00000
     22       2.8744      0.00000
     23       4.8087      0.00000
     24       5.0933      0.00000

 k-point    26 :      -0.2500    0.1667    0.0000
  band No.  band energies     occupation 
      1     -19.2910      2.00000
      2     -16.4320      2.00000
      3     -16.0144      2.00000
      4     -13.9907      2.00000
      5     -13.2536      2.00000
      6     -11.4383      2.00000
      7     -10.9755      2.00000
      8      -8.4985      2.00000
      9      -8.3201      2.00000
     10      -7.1663      2.00000
     11      -6.6682      2.00000
     12      -5.0707      2.00000
     13      -4.8792      2.00000
     14      -4.5967      2.00000
     15      -4.4384      2.00000
     16      -3.1359      0.00000
     17      -0.4156      0.00000
     18       0.7611      0.00000
     19       1.1976      0.00000
     20       1.7655      0.00000
     21       2.2944      0.00000
     22       2.6151      0.00000
     23       4.5535      0.00000
     24       4.8129      0.00000

 k-point    27 :      -0.1667    0.1667    0.0000
  band No.  band energies     occupation 
      1     -19.3877      2.00000
      2     -16.1705      2.00000
      3     -15.8125      2.00000
      4     -14.0403      2.00000
      5     -13.3834      2.00000
      6     -11.8320      2.00000
      7     -11.3902      2.00000
      8      -8.4507      2.00000
      9      -8.2134      2.00000
     10      -7.0138      2.00000
     11      -6.6081      2.00000
     12      -4.8119      2.00000
     13      -4.5005      2.00000
     14      -4.3889      2.00000
     15      -4.2103      2.00000
     16      -3.0939      0.00000
     17      -0.4240      0.00000
     18       0.2336      0.00000
     19       1.0435      0.00000
     20       1.4789      0.00000
     21       2.0753      0.00000
     22       2.4595      0.00000
     23       4.3995      0.00000
     24       4.5736      0.00000

 k-point    28 :       0.2500    0.2500    0.0000
  band No.  band energies     occupation 
      1     -18.7294      2.00000
      2     -17.3000      2.00000
      3     -16.8828      2.00000
      4     -13.4447      2.00000
      5     -12.7457      2.00000
      6     -10.2692      2.00000
      7      -9.3747      2.00000
      8      -9.0928      2.00000
      9      -7.4783      2.00000
     10      -7.4640      2.00000
     11      -6.9952      2.00000
     12      -6.7168      2.00000
     13      -6.0996      2.00000
     14      -5.7553      2.00000
     15      -5.7544      2.00000
     16      -2.4650      0.00000
     17      -0.8170      0.00000
     18       2.2212      0.00000
     19       2.7597      0.00000
     20       2.9980      0.00000
     21       3.6517      0.00000
     22       3.8211      0.00000
     23       4.0378      0.00000
     24       4.0616      0.00000

 k-point    29 :       0.3333    0.2500    0.0000
  band No.  band energies     occupation 
      1     -18.5661      2.00000
      2     -17.4647      2.00000
      3     -17.0504      2.00000
      4     -13.3054      2.00000
      5     -12.5572      2.00000
      6     -10.7027      2.00000
      7      -8.8616      2.00000
      8      -8.3760      2.00000
      9      -7.7065      2.00000
     10      -7.4707      2.00000
     11      -7.1143      2.00000
     12      -6.7634      2.00000
     13      -6.4787      2.00000
     14      -6.2118      2.00000
     15      -5.9462      2.00000
     16      -2.1785      0.00000
     17      -1.0442      0.00000
     18       2.7307      0.00000
     19       3.1156      0.00000
     20       3.3406      0.00000
     21       3.5282      0.00000
     22       3.9496      0.00000
     23       4.0880      0.00000
     24       4.1698      0.00000

 k-point    30 :       0.4167    0.2500    0.0000
  band No.  band energies     occupation 
      1     -18.5662      2.00000
      2     -17.4649      2.00000
      3     -17.0502      2.00000
      4     -13.3047      2.00000
      5     -12.5576      2.00000
      6     -10.7031      2.00000
      7      -8.8626      2.00000
      8      -8.3769      2.00000
      9      -7.7055      2.00000
     10      -7.4699      2.00000
     11      -7.1146      2.00000
     12      -6.7623      2.00000
     13      -6.4785      2.00000
     14      -6.2126      2.00000
     15      -5.9462      2.00000
     16      -2.1775      0.00000
     17      -1.0450      0.00000
     18       2.7302      0.00000
     19       3.1154      0.00000
     20       3.3412      0.00000
     21       3.5278      0.00000
     22       3.9495      0.00000
     23       4.0882      0.00000
     24       4.1693      0.00000

 k-point    31 :       0.5000    0.2500    0.0000
  band No.  band energies     occupation 
      1     -18.7295      2.00000
      2     -17.3006      2.00000
      3     -16.8820      2.00000
      4     -13.4426      2.00000
      5     -12.7471      2.00000
      6     -10.2701      2.00000
      7      -9.3762      2.00000
      8      -9.0941      2.00000
      9      -7.4786      2.00000
     10      -7.4628      2.00000
     11      -6.9938      2.00000
     12      -6.7159      2.00000
     13      -6.0998      2.00000
     14      -5.7558      2.00000
     15      -5.7540      2.00000
     16      -2.4631      0.00000
     17      -0.8183      0.00000
     18       2.2208      0.00000
     19       2.7591      0.00000
     20       2.9976      0.00000
     21       3.6513      0.00000
     22       3.8203      0.00000
     23       4.0380      0.00000
     24       4.0617      0.00000

 k-point    32 :      -0.4167    0.2500    0.0000
  band No.  band energies     occupation 
      1     -18.9311      2.00000
      2     -17.1089      2.00000
      3     -16.5552      2.00000
      4     -13.7701      2.00000
      5     -12.8083      2.00000
      6     -10.2174      2.00000
      7      -9.7009      2.00000
      8      -9.5501      2.00000
      9      -7.8072      2.00000
     10      -7.5310      2.00000
     11      -6.7603      2.00000
     12      -6.1301      2.00000
     13      -5.8574      2.00000
     14      -5.2761      2.00000
     15      -5.2433      2.00000
     16      -2.8505      0.00000
     17      -0.5259      0.00000
     18       1.8121      0.00000
     19       2.0750      0.00000
     20       2.5870      0.00000
     21       3.2370      0.00000
     22       3.2996      0.00000
     23       4.2486      0.00000
     24       4.8566      0.00000

 k-point    33 :      -0.3333    0.2500    0.0000
  band No.  band energies     occupation 
      1     -19.1050      2.00000
      2     -16.8980      2.00000
      3     -16.1929      2.00000
      4     -14.0981      2.00000
      5     -12.8031      2.00000
      6     -10.8998      2.00000
      7     -10.1962      2.00000
      8      -9.0134      2.00000
      9      -8.0615      2.00000
     10      -7.6058      2.00000
     11      -6.5559      2.00000
     12      -5.6246      2.00000
     13      -5.5964      2.00000
     14      -4.8049      2.00000
     15      -4.7516      2.00000
     16      -3.2058      0.00000
     17      -0.2596      0.00000
     18       1.3192      0.00000
     19       1.5049      0.00000
     20       2.2565      0.00000
     21       2.8447      0.00000
     22       2.9260      0.00000
     23       4.5475      0.00000
     24       4.8579      0.00000

 k-point    34 :      -0.2500    0.2500    0.0000
  band No.  band energies     occupation 
      1     -19.2279      2.00000
      2     -16.6589      2.00000
      3     -15.9802      2.00000
      4     -14.1972      2.00000
      5     -12.9258      2.00000
      6     -11.3516      2.00000
      7     -10.6470      2.00000
      8      -8.6292      2.00000
      9      -8.2335      2.00000
     10      -7.4755      2.00000
     11      -6.5241      2.00000
     12      -5.3511      2.00000
     13      -5.1598      2.00000
     14      -4.5312      2.00000
     15      -4.4740      2.00000
     16      -3.3183      0.00000
     17      -0.1868      0.00000
     18       0.8049      0.00000
     19       1.3000      0.00000
     20       1.9787      0.00000
     21       2.4854      0.00000
     22       2.7186      0.00000
     23       4.6557      0.00000
     24       4.8975      0.00000

 k-point    35 :       0.3333    0.3333    0.0000
  band No.  band energies     occupation 
      1     -18.5022      2.00000
      2     -17.3308      2.00000
      3     -17.3297      2.00000
      4     -12.8613      2.00000
      5     -12.8586      2.00000
      6     -10.9110      2.00000
      7      -8.1942      2.00000
      8      -8.1932      2.00000
      9      -8.0602      2.00000
     10      -7.5374      2.00000
     11      -6.9159      2.00000
     12      -6.6836      2.00000
     13      -6.6830      2.00000
     14      -6.3647      2.00000
     15      -6.3640      2.00000
     16      -1.6023      0.00000
     17      -1.6001      0.00000
     18       3.2768      0.00000
     19       3.2773      0.00000
     20       3.3174      0.00000
     21       3.4335      0.00000
     22       4.0291      0.00000
     23       4.0298      0.00000
     24       4.1274      0.00000

 k-point    36 :       0.4167    0.3333    0.0000
  band No.  band energies     occupation 
      1     -18.5662      2.00000
      2     -17.4656      2.00000
      3     -17.0494      2.00000
      4     -13.3033      2.00000
      5     -12.5592      2.00000
      6     -10.7030      2.00000
      7      -8.8631      2.00000
      8      -8.3773      2.00000
      9      -7.7061      2.00000
     10      -7.4699      2.00000
     11      -7.1147      2.00000
     12      -6.7618      2.00000
     13      -6.4792      2.00000
     14      -6.2117      2.00000
     15      -5.9454      2.00000
     16      -2.1765      0.00000
     17      -1.0460      0.00000
     18       2.7301      0.00000
     19       3.1153      0.00000
     20       3.3404      0.00000
     21       3.5276      0.00000
     22       3.9504      0.00000
     23       4.0874      0.00000
     24       4.1692      0.00000

 k-point    37 :       0.5000    0.3333    0.0000
  band No.  band energies     occupation 
      1     -18.7166      2.00000
      2     -17.4531      2.00000
      3     -16.6815      2.00000
      4     -13.7910      2.00000
      5     -12.3862      2.00000
      6     -10.2133      2.00000
      7      -9.6039      2.00000
      8      -8.8279      2.00000
      9      -7.9345      2.00000
     10      -7.4418      2.00000
     11      -6.9540      2.00000
     12      -6.5226      2.00000
     13      -6.3876      2.00000
     14      -5.6607      2.00000
     15      -5.4057      2.00000
     16      -2.7448      0.00000
     17      -0.5316      0.00000
     18       2.2711      0.00000
     19       2.4370      0.00000
     20       3.0958      0.00000
     21       3.4903      0.00000
     22       3.7031      0.00000
     23       3.9804      0.00000
     24       4.4929      0.00000

 k-point    38 :      -0.4167    0.3333    0.0000
  band No.  band energies     occupation 
      1     -18.8819      2.00000
      2     -17.3319      2.00000
      3     -16.3176      2.00000
      4     -14.1906      2.00000
      5     -12.3073      2.00000
      6     -10.3511      2.00000
      7      -9.5920      2.00000
      8      -9.3071      2.00000
      9      -8.1068      2.00000
     10      -7.7249      2.00000
     11      -6.4446      2.00000
     12      -6.3381      2.00000
     13      -6.2006      2.00000
     14      -5.1945      2.00000
     15      -4.8612      2.00000
     16      -3.2460      0.00000
     17      -0.1020      0.00000
     18       1.7119      0.00000
     19       1.9134      0.00000
     20       2.7394      0.00000
     21       3.3398      0.00000
     22       3.6306      0.00000
     23       3.7417      0.00000
     24       4.6724      0.00000

 k-point    39 :      -0.3333    0.3333    0.0000
  band No.  band energies     occupation 
      1     -19.0180      2.00000
      2     -17.1355      2.00000
      3     -16.1173      2.00000
      4     -14.3281      2.00000
      5     -12.4150      2.00000
      6     -10.8124      2.00000
      7      -9.7930      2.00000
      8      -9.1504      2.00000
      9      -8.0183      2.00000
     10      -7.9342      2.00000
     11      -6.3439      2.00000
     12      -5.9734      2.00000
     13      -5.9399      2.00000
     14      -4.9033      2.00000
     15      -4.5529      2.00000
     16      -3.4671      0.00004
     17       0.0549      0.00000
     18       1.2403      0.00000
     19       1.6579      0.00000
     20       2.4655      0.00000
     21       3.0810      0.00000
     22       3.2101      0.00000
     23       4.0935      0.00000
     24       4.9494      0.00000

 k-point    40 :       0.4167    0.4167    0.0000
  band No.  band energies     occupation 
      1     -18.6048      2.00000
      2     -17.6126      2.00000
      3     -16.7215      2.00000
      4     -13.8043      2.00000
      5     -12.1620      2.00000
      6     -10.4625      2.00000
      7      -9.3389      2.00000
      8      -8.3626      2.00000
      9      -7.8607      2.00000
     10      -7.7243      2.00000
     11      -7.1434      2.00000
     12      -6.7472      2.00000
     13      -6.3380      2.00000
     14      -5.9104      2.00000
     15      -5.4459      2.00000
     16      -2.7092      0.00000
     17      -0.5282      0.00000
     18       2.5624      0.00000
     19       2.8143      0.00000
     20       2.8476      0.00000
     21       3.6182      0.00000
     22       3.6806      0.00000
     23       4.2646      0.00000
     24       4.2780      0.00000

 k-point    41 :       0.5000    0.4167    0.0000
  band No.  band energies     occupation 
      1     -18.6883      2.00000
      2     -17.6365      2.00000
      3     -16.3813      2.00000
      4     -14.2413      2.00000
      5     -11.9162      2.00000
      6     -10.0458      2.00000
      7      -9.8476      2.00000
      8      -8.7455      2.00000
      9      -8.2153      2.00000
     10      -7.3499      2.00000
     11      -7.3409      2.00000
     12      -6.7141      2.00000
     13      -6.0898      2.00000
     14      -5.5368      2.00000
     15      -4.9179      2.00000
     16      -3.2668      0.00000
     17      -0.0023      0.00000
     18       1.9239      0.00000
     19       2.4223      0.00000
     20       3.0329      0.00000
     21       3.2601      0.00000
     22       3.8231      0.00000
     23       3.8569      0.00000
     24       4.4763      0.00000

 k-point    42 :      -0.4167    0.4167    0.0000
  band No.  band energies     occupation 
      1     -18.7932      2.00000
      2     -17.5299      2.00000
      3     -16.2048      2.00000
      4     -14.4123      2.00000
      5     -11.9405      2.00000
      6     -10.2708      2.00000
      7      -9.6497      2.00000
      8      -8.9865      2.00000
      9      -8.4600      2.00000
     10      -7.5642      2.00000
     11      -6.8777      2.00000
     12      -6.5019      2.00000
     13      -6.0964      2.00000
     14      -5.2736      2.00000
     15      -4.6072      2.00000
     16      -3.5536      0.00395
     17       0.2371      0.00000
     18       1.5263      0.00000
     19       2.1166      0.00000
     20       2.9569      0.00000
     21       3.3354      0.00000
     22       3.5469      0.00000
     23       3.9234      0.00000
     24       4.4362      0.00000

 k-point    43 :       0.5000    0.5000    0.0000
  band No.  band energies     occupation 
      1     -18.6726      2.00000
      2     -17.7083      2.00000
      3     -16.2347      2.00000
      4     -14.4411      2.00000
      5     -11.7132      2.00000
      6      -9.9531      2.00000
      7      -9.8885      2.00000
      8      -9.0194      2.00000
      9      -7.8503      2.00000
     10      -7.7752      2.00000
     11      -7.2560      2.00000
     12      -6.8768      2.00000
     13      -5.9110      2.00000
     14      -5.5010      2.00000
     15      -4.6264      2.00000
     16      -3.5823      0.01323
     17       0.3051      0.00000
     18       1.6292      0.00000
     19       2.6574      0.00000
     20       2.6953      0.00000
     21       3.4816      0.00000
     22       3.5326      0.00000
     23       4.1060      0.00000
     24       4.1230      0.00000


--------------------------------------------------------------------------------------------------------


 soft charge-density along one line, spin component           1
         0         1         2         3         4         5         6         7         8         9
 total charge-density along one line
 
 pseudopotential strength for first ion, spin component:           1
  6.729  10.266  -0.000  -0.000   0.000  -0.000  -0.000  -0.000
 10.266  15.658  -0.000  -0.000   0.000  -0.000  -0.000  -0.000
 -0.000  -0.000  -2.303   0.000  -0.000  -3.951   0.000  -0.000
 -0.000  -0.000   0.000  -2.305   0.000   0.000  -3.951   0.000
  0.000   0.000  -0.000   0.000  -2.303  -0.000   0.000  -3.951
 -0.000  -0.000  -3.951   0.000  -0.000  -6.580   0.000  -0.000
 -0.000  -0.000   0.000  -3.951   0.000   0.000  -6.574   0.000
 -0.000  -0.000  -0.000   0.000  -3.951  -0.000   0.000  -6.580
 total augmentation occupancy for first ion, spin component:           1
  2.000   0.000   0.000   0.000   0.000   0.000   0.000   0.000
  0.000   0.000   0.000   0.000   0.000   0.000   0.000   0.000
  0.000   0.000   0.333   0.000   0.000   0.000   0.000   0.000
  0.000   0.000   0.000   0.333   0.000   0.000   0.000   0.000
  0.000   0.000   0.000   0.000   0.333   0.000   0.000   0.000
  0.000   0.000   0.000   0.000   0.000   0.000   0.000   0.000
  0.000   0.000   0.000   0.000   0.000   0.000   0.000   0.000
  0.000   0.000   0.000   0.000   0.000   0.000   0.000   0.000


------------------------ aborting loop because EDIFF is reached ----------------------------------------


 


 total charge     
 
# of ion       s       p       d       tot
------------------------------------------
    1        0.797   1.476   0.000   2.273
    2        0.797   1.476   0.000   2.273
    3        0.873   1.700   0.000   2.573
    4        0.871   1.642   0.000   2.513
    5        0.872   1.671   0.000   2.543
    6        0.872   1.671   0.000   2.543
    7        0.871   1.642   0.000   2.513
    8        0.873   1.700   0.000   2.573
--------------------------------------------------
tot          6.826  12.979   0.000  19.805
 
    CHARGE:  cpu time    0.2357: real time    0.2357
    FORLOC:  cpu time    0.0063: real time    0.0063
    FORNL :  cpu time    0.4170: real time    0.4170
    STRESS:  cpu time    2.3627: real time    2.3627
    FORCOR:  cpu time    0.0638: real time    0.0638
    FORHAR:  cpu time    0.0162: real time    0.0162
    OFIELD:  cpu time    0.0003: real time    0.0003

  FORCE on cell =-STRESS in cart. coord.  units (eV):
  Direction    XX          YY          ZZ          XY          YZ          ZX
  --------------------------------------------------------------------------------------
  Alpha Z    14.64017    14.64017    14.64017
  Ewald    3499.83627  3499.92605 -4406.59780     0.00000    -0.00000    -0.00000
  Hartree  3440.02047  3440.04001 -3392.95223     0.00000    -0.00000     0.00000
  E(xc)    -107.13220  -107.13256  -110.94477     0.00000    -0.00000    -0.00000
  Local   -7257.53384 -7257.62608  7464.13615     0.00000     0.00000     0.00000
  n-local   -20.48224   -20.49131    -9.26726     0.29350     0.00000     0.00000
  augment    -1.65378    -1.65375    -1.71365    -0.00000    -0.00000     0.00000
  Kinetic   431.63831   431.69642   442.51064    -3.11944    -0.00001    -0.00000
  Fock        0.00000     0.00000     0.00000     0.00000     0.00000     0.00000
  -------------------------------------------------------------------------------------
  Total      -0.66685    -0.60105    -0.18875     0.00000     0.00000     0.00000
  in kB      -3.08363    -2.77936    -0.87280     0.00000     0.00000     0.00000
  external pressure =       -2.25 kB  Pullay stress =        0.00 kB


 VOLUME and BASIS-vectors are now :
 -----------------------------------------------------------------------------
  energy-cutoff  :      450.00
  volume of cell :      346.48
      direct lattice vectors                 reciprocal lattice vectors
     4.473000000  2.582000000  0.000000000     0.111781802  0.193648335  0.000000000
    -4.473000000  2.582000000  0.000000000    -0.111781802  0.193648335  0.000000000
     0.000000000  0.000000000 15.000000000     0.000000000  0.000000000  0.066666667

  length of vectors
     5.164731648  5.164731648 15.000000000     0.223595279  0.223595279  0.066666667


 FORCES acting on ions
    electron-ion (+dipol)            ewald-force                    non-local-force                 convergence-correction
 -----------------------------------------------------------------------------------------------
   0.298E-01 0.548E-04 0.601E-11   -.304E-01 -.129E-13 -.813E-19   -.266E-02 0.000E+00 0.265E-22   0.124E-05 -.125E-09 0.135E-11
   -.298E-01 0.548E-04 0.144E-11   0.304E-01 0.711E-14 -.516E-19   0.266E-02 0.000E+00 -.174E-22   -.124E-05 -.125E-09 0.136E-11
   0.102E+02 -.178E+02 -.833E-07   -.111E+02 0.193E+02 0.160E-17   0.306E+01 -.531E+01 0.265E-22   0.642E-05 -.812E-05 0.184E-11
   -.102E+02 -.178E+02 -.833E-07   0.111E+02 0.193E+02 0.184E-17   -.306E+01 -.531E+01 0.265E-22   -.642E-05 -.812E-05 0.168E-11
   -.205E+02 0.509E-03 0.267E-10   0.224E+02 -.142E-13 -.323E-18   -.613E+01 0.000E+00 -.629E-22   -.108E-04 0.130E-09 0.174E-11
   0.205E+02 0.509E-03 0.261E-10   -.224E+02 0.147E-13 -.386E-18   0.613E+01 0.000E+00 0.000E+00   0.108E-04 0.129E-09 0.208E-11
   0.102E+02 0.178E+02 0.834E-07   -.111E+02 -.193E+02 -.120E-17   0.306E+01 0.531E+01 -.265E-22   0.642E-05 0.812E-05 0.212E-11
   -.102E+02 0.178E+02 0.834E-07   0.111E+02 -.193E+02 -.140E-17   -.306E+01 0.531E+01 -.265E-22   -.642E-05 0.812E-05 0.184E-11
 -----------------------------------------------------------------------------------------------
   0.143E-12 0.347E-02 0.182E-09   -.142E-13 0.000E+00 -.578E-33   -.222E-14 0.266E-14 -.538E-22   -.304E-12 -.223E-10 0.140E-10
 
 
 POSITION                                       TOTAL-FORCE (eV/Angst)
 -----------------------------------------------------------------------------------
     -1.49100      2.58200      3.75000        -0.003322      0.000000     -0.000000
      1.49100      2.58200      3.75000         0.003322      0.000000     -0.000000
     -0.74550      1.29100      3.75000         2.157824     -3.734044     -0.000000
      0.74550      1.29100      3.75000        -2.157824     -3.734044     -0.000000
     -2.98200      2.58200      3.75000        -4.309140      0.000000      0.000000
      2.98200      2.58200      3.75000         4.309140      0.000000      0.000000
     -0.74550      3.87300      3.75000         2.157824      3.734044     -0.000000
      0.74550      3.87300      3.75000        -2.157824      3.734044     -0.000000
 -----------------------------------------------------------------------------------
    total drift:                               -0.000000      0.003468      0.000000


--------------------------------------------------------------------------------------------------------



  FREE ENERGIE OF THE ION-ELECTRON SYSTEM (eV)
  ---------------------------------------------------
  free  energy   TOTEN  =       -66.30119201 eV

  energy  without entropy=      -66.30101207  energy(sigma->0) =      -66.30110204
 


--------------------------------------------------------------------------------------------------------


    POTLOK:  cpu time    0.0619: real time    0.0619


--------------------------------------------------------------------------------------------------------


 writing wavefunctions
     LOOP+:  cpu time   29.4094: real time   30.1243
    4ORBIT:  cpu time    0.0000: real time    0.0000
 


 total charge     
 
# of ion       s       p       d       tot
------------------------------------------
    1        0.797   1.476   0.000   2.273
    2        0.797   1.476   0.000   2.273
    3        0.873   1.700   0.000   2.573
    4        0.871   1.642   0.000   2.513
    5        0.872   1.671   0.000   2.543
    6        0.872   1.671   0.000   2.543
    7        0.871   1.642   0.000   2.513
    8        0.873   1.700   0.000   2.573
--------------------------------------------------
tot          6.826  12.979   0.000  19.805
 

 total amount of memory used by VASP MPI-rank0    97625. kBytes
=======================================================================

   base      :      30000. kBytes
   nonl-proj :      42510. kBytes
   fftplans  :       3727. kBytes
   grid      :      10879. kBytes
   one-center:         24. kBytes
   wavefun   :      10485. kBytes
 
  
  
 General timing and accounting informations for this job:
 ========================================================
  
                  Total CPU time used (sec):       34.640
                            User time (sec):       33.368
                          System time (sec):        1.272
                         Elapsed time (sec):       36.081
  
                   Maximum memory used (kb):      186400.
                   Average memory used (kb):           0.
  
                          Minor page faults:        47916
                          Major page faults:            0
                 Voluntary context switches:         5271
