PROCAR lm decomposed
# of k-points:   43         # of bands:   24         # of ions:    8

 k-point     1 :    0.00000000 0.00000000 0.00000000     weight = 0.00694444

band     1 # energy  -19.51951973 # occ.  2.00000000
 
ion      s     py     pz     px    dxy    dyz    dz2    dxz  x2-y2    tot
    1  0.045  0.000  0.000  0.000  0.000  0.000  0.000  0.000  0.000  0.045
    2  0.045  0.000  0.000  0.000  0.000  0.000  0.000  0.000  0.000  0.045
    3  0.087  0.001  0.000  0.000  0.000  0.000  0.000  0.000  0.000  0.089
    4  0.087  0.001  0.000  0.000  0.000  0.000  0.000  0.000  0.000  0.089
    5  0.087  0.000  0.000  0.002  0.000  0.000  0.000  0.000  0.000  0.089
    6  0.087  0.000  0.000  0.002  0.000  0.000  0.000  0.000  0.000  0.089
    7  0.087  0.001  0.000  0.000  0.000  0.000  0.000  0.000  0.000  0.089
    8  0.087  0.001  0.000  0.000  0.000  0.000  0.000  0.000  0.000  0.089
tot    0.613  0.005  0.000  0.005  0.000  0.000  0.000  0.000  0.000  0.622
 
band     2 # energy  -15.59024834 # occ.  2.00000000
 
ion      s     py     pz     px    dxy    dyz    dz2    dxz  x2-y2    tot
    1  0.000  0.000  0.000  0.020  0.000  0.000  0.000  0.000  0.000  0.020
    2  0.000  0.000  0.000  0.020  0.000  0.000  0.000  0.000  0.000  0.020
    3  0.048  0.008  0.000  0.009  0.000  0.000  0.000  0.000  0.000  0.065
    4  0.048  0.008  0.000  0.009  0.000  0.000  0.000  0.000  0.000  0.065
    5  0.190  0.000  0.000  0.004  0.000  0.000  0.000  0.000  0.000  0.194
    6  0.190  0.000  0.000  0.004  0.000  0.000  0.000  0.000  0.000  0.194
    7  0.048  0.008  0.000  0.009  0.000  0.000  0.000  0.000  0.000  0.065
    8  0.048  0.008  0.000  0.009  0.000  0.000  0.000  0.000  0.000  0.065
tot    0.570  0.033  0.000  0.084  0.000  0.000  0.000  0.000  0.000  0.687
 
band     3 # energy  -15.58805031 # occ.  2.00000000
 
ion      s     py     pz     px    dxy    dyz    dz2    dxz  x2-y2    tot
    1  0.000  0.020  0.000  0.000  0.000  0.000  0.000  0.000  0.000  0.020
    2  0.000  0.020  0.000  0.000  0.000  0.000  0.000  0.000  0.000  0.020
    3  0.143  0.000  0.000  0.008  0.000  0.000  0.000  0.000  0.000  0.151
    4  0.143  0.000  0.000  0.008  0.000  0.000  0.000  0.000  0.000  0.151
    5  0.000  0.022  0.000  0.000  0.000  0.000  0.000  0.000  0.000  0.022
    6  0.000  0.022  0.000  0.000  0.000  0.000  0.000  0.000  0.000  0.022
    7  0.143  0.000  0.000  0.008  0.000  0.000  0.000  0.000  0.000  0.151
    8  0.143  0.000  0.000  0.008  0.000  0.000  0.000  0.000  0.000  0.151
tot    0.570  0.084  0.000  0.033  0.000  0.000  0.000  0.000  0.000  0.687
 
band     4 # energy  -13.84966647 # occ.  2.00000000
 
ion      s     py     pz     px    dxy    dyz    dz2    dxz  x2-y2    tot
    1  0.000  0.068  0.000  0.000  0.000  0.000  0.000  0.000  0.000  0.068
    2  0.000  0.068  0.000  0.000  0.000  0.000  0.000  0.000  0.000  0.068
    3  0.073  0.000  0.000  0.022  0.000  0.000  0.000  0.000  0.000  0.095
    4  0.073  0.000  0.000  0.022  0.000  0.000  0.000  0.000  0.000  0.095
    5  0.000  0.074  0.000  0.000  0.000  0.000  0.000  0.000  0.000  0.074
    6  0.000  0.074  0.000  0.000  0.000  0.000  0.000  0.000  0.000  0.074
    7  0.073  0.000  0.000  0.022  0.000  0.000  0.000  0.000  0.000  0.095
    8  0.073  0.000  0.000  0.022  0.000  0.000  0.000  0.000  0.000  0.095
tot    0.291  0.284  0.000  0.087  0.000  0.000  0.000  0.000  0.000  0.663
 
band     5 # energy  -13.84914068 # occ.  2.00000000
 
ion      s     py     pz     px    dxy    dyz    dz2    dxz  x2-y2    tot
    1  0.000  0.000  0.000  0.068  0.000  0.000  0.000  0.000  0.000  0.068
    2  0.000  0.000  0.000  0.068  0.000  0.000  0.000  0.000  0.000  0.068
    3  0.024  0.022  0.000  0.035  0.000  0.000  0.000  0.000  0.000  0.081
    4  0.024  0.022  0.000  0.035  0.000  0.000  0.000  0.000  0.000  0.081
    5  0.097  0.000  0.000  0.005  0.000  0.000  0.000  0.000  0.000  0.102
    6  0.097  0.000  0.000  0.005  0.000  0.000  0.000  0.000  0.000  0.102
    7  0.024  0.022  0.000  0.035  0.000  0.000  0.000  0.000  0.000  0.081
    8  0.024  0.022  0.000  0.035  0.000  0.000  0.000  0.000  0.000  0.081
tot    0.291  0.088  0.000  0.284  0.000  0.000  0.000  0.000  0.000  0.663
 
band     6 # energy  -12.33404736 # occ.  2.00000000
 
ion      s     py     pz     px    dxy    dyz    dz2    dxz  x2-y2    tot
    1  0.120  0.000  0.000  0.000  0.000  0.000  0.000  0.000  0.000  0.120
    2  0.120  0.000  0.000  0.000  0.000  0.000  0.000  0.000  0.000  0.120
    3  0.001  0.049  0.000  0.016  0.000  0.000  0.000  0.000  0.000  0.067
    4  0.001  0.049  0.000  0.016  0.000  0.000  0.000  0.000  0.000  0.067
    5  0.001  0.000  0.000  0.065  0.000  0.000  0.000  0.000  0.000  0.067
    6  0.001  0.000  0.000  0.065  0.000  0.000  0.000  0.000  0.000  0.067
    7  0.001  0.049  0.000  0.016  0.000  0.000  0.000  0.000  0.000  0.067
    8  0.001  0.049  0.000  0.016  0.000  0.000  0.000  0.000  0.000  0.067
tot    0.249  0.196  0.000  0.196  0.000  0.000  0.000  0.000  0.000  0.641
 
band     7 # energy  -12.13016001 # occ.  2.00000000
 
ion      s     py     pz     px    dxy    dyz    dz2    dxz  x2-y2    tot
    1  0.209  0.000  0.000  0.000  0.000  0.000  0.000  0.000  0.000  0.209
    2  0.209  0.000  0.000  0.000  0.000  0.000  0.000  0.000  0.000  0.209
    3  0.034  0.017  0.000  0.006  0.000  0.000  0.000  0.000  0.000  0.057
    4  0.034  0.017  0.000  0.006  0.000  0.000  0.000  0.000  0.000  0.057
    5  0.035  0.000  0.000  0.023  0.000  0.000  0.000  0.000  0.000  0.057
    6  0.035  0.000  0.000  0.023  0.000  0.000  0.000  0.000  0.000  0.057
    7  0.034  0.017  0.000  0.006  0.000  0.000  0.000  0.000  0.000  0.057
    8  0.034  0.017  0.000  0.006  0.000  0.000  0.000  0.000  0.000  0.057
tot    0.624  0.068  0.000  0.068  0.000  0.000  0.000  0.000  0.000  0.760
 
band     8 # energy   -8.62612746 # occ.  2.00000000
 
ion      s     py     pz     px    dxy    dyz    dz2    dxz  x2-y2    tot
    1  0.000  0.000  0.042  0.000  0.000  0.000  0.000  0.000  0.000  0.042
    2  0.000  0.000  0.042  0.000  0.000  0.000  0.000  0.000  0.000  0.042
    3  0.000  0.000  0.055  0.000  0.000  0.000  0.000  0.000  0.000  0.055
    4  0.000  0.000  0.055  0.000  0.000  0.000  0.000  0.000  0.000  0.055
    5  0.000  0.000  0.055  0.000  0.000  0.000  0.000  0.000  0.000  0.055
    6  0.000  0.000  0.055  0.000  0.000  0.000  0.000  0.000  0.000  0.055
    7  0.000  0.000  0.055  0.000  0.000  0.000  0.000  0.000  0.000  0.055
    8  0.000  0.000  0.055  0.000  0.000  0.000  0.000  0.000  0.000  0.055
tot    0.000  0.000  0.414  0.000  0.000  0.000  0.000  0.000  0.000  0.414
 
band     9 # energy   -7.89889608 # occ.  2.00000000
 
ion      s     py     pz     px    dxy    dyz    dz2    dxz  x2-y2    tot
    1  0.000  0.000  0.000  0.000  0.000  0.000  0.000  0.000  0.000  0.000
    2  0.000  0.000  0.000  0.000  0.000  0.000  0.000  0.000  0.000  0.000
    3  0.000  0.030  0.000  0.091  0.000  0.000  0.000  0.000  0.000  0.121
    4  0.000  0.030  0.000  0.091  0.000  0.000  0.000  0.000  0.000  0.121
    5  0.000  0.121  0.000  0.000  0.000  0.000  0.000  0.000  0.000  0.121
    6  0.000  0.121  0.000  0.000  0.000  0.000  0.000  0.000  0.000  0.121
    7  0.000  0.030  0.000  0.091  0.000  0.000  0.000  0.000  0.000  0.121
    8  0.000  0.030  0.000  0.091  0.000  0.000  0.000  0.000  0.000  0.121
tot    0.000  0.362  0.000  0.363  0.000  0.000  0.000  0.000  0.000  0.724
 
band    10 # energy   -6.59178943 # occ.  2.00000000
 
ion      s     py     pz     px    dxy    dyz    dz2    dxz  x2-y2    tot
    1  0.000  0.000  0.000  0.147  0.000  0.000  0.000  0.000  0.000  0.147
    2  0.000  0.000  0.000  0.147  0.000  0.000  0.000  0.000  0.000  0.147
    3  0.000  0.048  0.000  0.000  0.000  0.000  0.000  0.000  0.000  0.049
    4  0.000  0.048  0.000  0.000  0.000  0.000  0.000  0.000  0.000  0.049
    5  0.001  0.000  0.000  0.155  0.000  0.000  0.000  0.000  0.000  0.156
    6  0.001  0.000  0.000  0.155  0.000  0.000  0.000  0.000  0.000  0.156
    7  0.000  0.048  0.000  0.000  0.000  0.000  0.000  0.000  0.000  0.049
    8  0.000  0.048  0.000  0.000  0.000  0.000  0.000  0.000  0.000  0.049
tot    0.003  0.193  0.000  0.604  0.000  0.000  0.000  0.000  0.000  0.801
 
band    11 # energy   -6.58973696 # occ.  2.00000000
 
ion      s     py     pz     px    dxy    dyz    dz2    dxz  x2-y2    tot
    1  0.000  0.147  0.000  0.000  0.000  0.000  0.000  0.000  0.000  0.147
    2  0.000  0.147  0.000  0.000  0.000  0.000  0.000  0.000  0.000  0.147
    3  0.001  0.071  0.000  0.048  0.000  0.000  0.000  0.000  0.000  0.120
    4  0.001  0.071  0.000  0.048  0.000  0.000  0.000  0.000  0.000  0.120
    5  0.000  0.013  0.000  0.000  0.000  0.000  0.000  0.000  0.000  0.013
    6  0.000  0.013  0.000  0.000  0.000  0.000  0.000  0.000  0.000  0.013
    7  0.001  0.071  0.000  0.048  0.000  0.000  0.000  0.000  0.000  0.120
    8  0.001  0.071  0.000  0.048  0.000  0.000  0.000  0.000  0.000  0.120
tot    0.003  0.605  0.000  0.193  0.000  0.000  0.000  0.000  0.000  0.801
 
band    12 # energy   -4.29780647 # occ.  2.00000000
 
ion      s     py     pz     px    dxy    dyz    dz2    dxz  x2-y2    tot
    1  0.000  0.000  0.000  0.000  0.000  0.000  0.000  0.000  0.000  0.000
    2  0.000  0.000  0.000  0.000  0.000  0.000  0.000  0.000  0.000  0.000
    3  0.000  0.000  0.040  0.000  0.000  0.000  0.000  0.000  0.000  0.040
    4  0.000  0.000  0.040  0.000  0.000  0.000  0.000  0.000  0.000  0.040
    5  0.000  0.000  0.162  0.000  0.000  0.000  0.000  0.000  0.000  0.162
    6  0.000  0.000  0.162  0.000  0.000  0.000  0.000  0.000  0.000  0.162
    7  0.000  0.000  0.040  0.000  0.000  0.000  0.000  0.000  0.000  0.040
    8  0.000  0.000  0.040  0.000  0.000  0.000  0.000  0.000  0.000  0.040
tot    0.000  0.000  0.485  0.000  0.000  0.000  0.000  0.000  0.000  0.485
 
band    13 # energy   -4.29613366 # occ.  2.00000000
 
ion      s     py     pz     px    dxy    dyz    dz2    dxz  x2-y2    tot
    1  0.000  0.000  0.000  0.000  0.000  0.000  0.000  0.000  0.000  0.000
    2  0.000  0.000  0.000  0.000  0.000  0.000  0.000  0.000  0.000  0.000
    3  0.000  0.000  0.121  0.000  0.000  0.000  0.000  0.000  0.000  0.121
    4  0.000  0.000  0.121  0.000  0.000  0.000  0.000  0.000  0.000  0.121
    5  0.000  0.000  0.000  0.000  0.000  0.000  0.000  0.000  0.000  0.000
    6  0.000  0.000  0.000  0.000  0.000  0.000  0.000  0.000  0.000  0.000
    7  0.000  0.000  0.121  0.000  0.000  0.000  0.000  0.000  0.000  0.121
    8  0.000  0.000  0.121  0.000  0.000  0.000  0.000  0.000  0.000  0.121
tot    0.000  0.000  0.485  0.000  0.000  0.000  0.000  0.000  0.000  0.485
 
band    14 # energy   -3.91134790 # occ.  1.97047659
 
ion      s     py     pz     px    dxy    dyz    dz2    dxz  x2-y2    tot
    1  0.000  0.000  0.000  0.105  0.000  0.000  0.000  0.000  0.000  0.105
    2  0.000  0.000  0.000  0.105  0.000  0.000  0.000  0.000  0.000  0.105
    3  0.000  0.000  0.000  0.095  0.000  0.000  0.000  0.000  0.000  0.096
    4  0.000  0.000  0.000  0.095  0.000  0.000  0.000  0.000  0.000  0.096
    5  0.002  0.000  0.000  0.111  0.000  0.000  0.000  0.000  0.000  0.112
    6  0.002  0.000  0.000  0.111  0.000  0.000  0.000  0.000  0.000  0.112
    7  0.000  0.000  0.000  0.095  0.000  0.000  0.000  0.000  0.000  0.096
    8  0.000  0.000  0.000  0.095  0.000  0.000  0.000  0.000  0.000  0.096
tot    0.006  0.001  0.000  0.810  0.000  0.000  0.000  0.000  0.000  0.817
 
band    15 # energy   -3.91061716 # occ.  1.96969584
 
ion      s     py     pz     px    dxy    dyz    dz2    dxz  x2-y2    tot
    1  0.000  0.105  0.000  0.000  0.000  0.000  0.000  0.000  0.000  0.105
    2  0.000  0.105  0.000  0.000  0.000  0.000  0.000  0.000  0.000  0.105
    3  0.001  0.105  0.000  0.000  0.000  0.000  0.000  0.000  0.000  0.107
    4  0.001  0.105  0.000  0.000  0.000  0.000  0.000  0.000  0.000  0.107
    5  0.000  0.090  0.000  0.000  0.000  0.000  0.000  0.000  0.000  0.090
    6  0.000  0.090  0.000  0.000  0.000  0.000  0.000  0.000  0.000  0.090
    7  0.001  0.105  0.000  0.000  0.000  0.000  0.000  0.000  0.000  0.107
    8  0.001  0.105  0.000  0.000  0.000  0.000  0.000  0.000  0.000  0.107
tot    0.006  0.810  0.000  0.001  0.000  0.000  0.000  0.000  0.000  0.817
 
band    16 # energy   -2.62303024 # occ.  0.00000000
 
ion      s     py     pz     px    dxy    dyz    dz2    dxz  x2-y2    tot
    1  0.000  0.000  0.167  0.000  0.000  0.000  0.000  0.000  0.000  0.167
    2  0.000  0.000  0.167  0.000  0.000  0.000  0.000  0.000  0.000  0.167
    3  0.000  0.000  0.030  0.000  0.000  0.000  0.000  0.000  0.000  0.030
    4  0.000  0.000  0.030  0.000  0.000  0.000  0.000  0.000  0.000  0.030
    5  0.000  0.000  0.030  0.000  0.000  0.000  0.000  0.000  0.000  0.030
    6  0.000  0.000  0.030  0.000  0.000  0.000  0.000  0.000  0.000  0.030
    7  0.000  0.000  0.030  0.000  0.000  0.000  0.000  0.000  0.000  0.030
    8  0.000  0.000  0.030  0.000  0.000  0.000  0.000  0.000  0.000  0.030
tot    0.000  0.000  0.513  0.000  0.000  0.000  0.000  0.000  0.000  0.513
 
band    17 # energy   -0.65934652 # occ.  0.00000000
 
ion      s     py     pz     px    dxy    dyz    dz2    dxz  x2-y2    tot
    1  0.000  0.000  0.000  0.000  0.000  0.000  0.000  0.000  0.000  0.000
    2  0.000  0.000  0.000  0.000  0.000  0.000  0.000  0.000  0.000  0.000
    3  0.000  0.000  0.110  0.000  0.000  0.000  0.000  0.000  0.000  0.110
    4  0.000  0.000  0.110  0.000  0.000  0.000  0.000  0.000  0.000  0.110
    5  0.000  0.000  0.000  0.000  0.000  0.000  0.000  0.000  0.000  0.000
    6  0.000  0.000  0.000  0.000  0.000  0.000  0.000  0.000  0.000  0.000
    7  0.000  0.000  0.110  0.000  0.000  0.000  0.000  0.000  0.000  0.110
    8  0.000  0.000  0.110  0.000  0.000  0.000  0.000  0.000  0.000  0.110
tot    0.000  0.000  0.438  0.000  0.000  0.000  0.000  0.000  0.000  0.438
 
band    18 # energy   -0.65907088 # occ.  0.00000000
 
ion      s     py     pz     px    dxy    dyz    dz2    dxz  x2-y2    tot
    1  0.000  0.000  0.000  0.000  0.000  0.000  0.000  0.000  0.000  0.000
    2  0.000  0.000  0.000  0.000  0.000  0.000  0.000  0.000  0.000  0.000
    3  0.000  0.000  0.036  0.000  0.000  0.000  0.000  0.000  0.000  0.036
    4  0.000  0.000  0.036  0.000  0.000  0.000  0.000  0.000  0.000  0.036
    5  0.000  0.000  0.146  0.000  0.000  0.000  0.000  0.000  0.000  0.146
    6  0.000  0.000  0.146  0.000  0.000  0.000  0.000  0.000  0.000  0.146
    7  0.000  0.000  0.036  0.000  0.000  0.000  0.000  0.000  0.000  0.036
    8  0.000  0.000  0.036  0.000  0.000  0.000  0.000  0.000  0.000  0.036
tot    0.000  0.000  0.438  0.000  0.000  0.000  0.000  0.000  0.000  0.438
 
band    19 # energy    0.83764562 # occ.  0.00000000
 
ion      s     py     pz     px    dxy    dyz    dz2    dxz  x2-y2    tot
    1  0.001  0.000  0.000  0.000  0.000  0.000  0.000  0.000  0.000  0.001
    2  0.001  0.000  0.000  0.000  0.000  0.000  0.000  0.000  0.000  0.001
    3  0.003  0.000  0.000  0.000  0.000  0.000  0.000  0.000  0.000  0.003
    4  0.003  0.000  0.000  0.000  0.000  0.000  0.000  0.000  0.000  0.003
    5  0.003  0.000  0.000  0.000  0.000  0.000  0.000  0.000  0.000  0.003
    6  0.003  0.000  0.000  0.000  0.000  0.000  0.000  0.000  0.000  0.003
    7  0.003  0.000  0.000  0.000  0.000  0.000  0.000  0.000  0.000  0.003
    8  0.003  0.000  0.000  0.000  0.000  0.000  0.000  0.000  0.000  0.003
tot    0.020  0.001  0.000  0.001  0.000  0.000  0.000  0.000  0.000  0.021
 
band    20 # energy    1.03701384 # occ.  0.00000000
 
ion      s     py     pz     px    dxy    dyz    dz2    dxz  x2-y2    tot
    1  0.000  0.000  0.114  0.000  0.000  0.000  0.000  0.000  0.000  0.114
    2  0.000  0.000  0.114  0.000  0.000  0.000  0.000  0.000  0.000  0.114
    3  0.000  0.000  0.018  0.000  0.000  0.000  0.000  0.000  0.000  0.018
    4  0.000  0.000  0.018  0.000  0.000  0.000  0.000  0.000  0.000  0.018
    5  0.000  0.000  0.018  0.000  0.000  0.000  0.000  0.000  0.000  0.018
    6  0.000  0.000  0.018  0.000  0.000  0.000  0.000  0.000  0.000  0.018
    7  0.000  0.000  0.018  0.000  0.000  0.000  0.000  0.000  0.000  0.018
    8  0.000  0.000  0.018  0.000  0.000  0.000  0.000  0.000  0.000  0.018
tot    0.000  0.000  0.336  0.000  0.000  0.000  0.000  0.000  0.000  0.336
 
band    21 # energy    1.81626975 # occ.  0.00000000
 
ion      s     py     pz     px    dxy    dyz    dz2    dxz  x2-y2    tot
    1  0.000  0.000  0.038  0.000  0.000  0.000  0.000  0.000  0.000  0.038
    2  0.000  0.000  0.038  0.000  0.000  0.000  0.000  0.000  0.000  0.038
    3  0.000  0.000  0.000  0.000  0.000  0.000  0.000  0.000  0.000  0.000
    4  0.000  0.000  0.000  0.000  0.000  0.000  0.000  0.000  0.000  0.000
    5  0.000  0.000  0.000  0.000  0.000  0.000  0.000  0.000  0.000  0.000
    6  0.000  0.000  0.000  0.000  0.000  0.000  0.000  0.000  0.000  0.000
    7  0.000  0.000  0.000  0.000  0.000  0.000  0.000  0.000  0.000  0.000
    8  0.000  0.000  0.000  0.000  0.000  0.000  0.000  0.000  0.000  0.000
tot    0.000  0.000  0.078  0.000  0.000  0.000  0.000  0.000  0.000  0.078
 
band    22 # energy    2.25172696 # occ.  0.00000000
 
ion      s     py     pz     px    dxy    dyz    dz2    dxz  x2-y2    tot
    1  0.000  0.000  0.000  0.000  0.000  0.000  0.000  0.000  0.000  0.000
    2  0.000  0.000  0.000  0.000  0.000  0.000  0.000  0.000  0.000  0.000
    3  0.001  0.000  0.000  0.000  0.000  0.000  0.000  0.000  0.000  0.001
    4  0.001  0.000  0.000  0.000  0.000  0.000  0.000  0.000  0.000  0.001
    5  0.001  0.000  0.000  0.000  0.000  0.000  0.000  0.000  0.000  0.001
    6  0.001  0.000  0.000  0.000  0.000  0.000  0.000  0.000  0.000  0.001
    7  0.001  0.000  0.000  0.000  0.000  0.000  0.000  0.000  0.000  0.001
    8  0.001  0.000  0.000  0.000  0.000  0.000  0.000  0.000  0.000  0.001
tot    0.007  0.000  0.000  0.000  0.000  0.000  0.000  0.000  0.000  0.008
 
band    23 # energy    4.19380662 # occ.  0.00000000
 
ion      s     py     pz     px    dxy    dyz    dz2    dxz  x2-y2    tot
    1  0.000  0.000  0.009  0.000  0.000  0.000  0.000  0.000  0.000  0.009
    2  0.000  0.000  0.009  0.000  0.000  0.000  0.000  0.000  0.000  0.009
    3  0.000  0.000  0.003  0.000  0.000  0.000  0.000  0.000  0.000  0.003
    4  0.000  0.000  0.003  0.000  0.000  0.000  0.000  0.000  0.000  0.003
    5  0.000  0.000  0.003  0.000  0.000  0.000  0.000  0.000  0.000  0.003
    6  0.000  0.000  0.003  0.000  0.000  0.000  0.000  0.000  0.000  0.003
    7  0.000  0.000  0.003  0.000  0.000  0.000  0.000  0.000  0.000  0.003
    8  0.000  0.000  0.003  0.000  0.000  0.000  0.000  0.000  0.000  0.003
tot    0.000  0.000  0.038  0.000  0.000  0.000  0.000  0.000  0.000  0.038
 
band    24 # energy    4.27656769 # occ.  0.00000000
 
ion      s     py     pz     px    dxy    dyz    dz2    dxz  x2-y2    tot
    1  0.000  0.014  0.000  0.004  0.000  0.000  0.000  0.000  0.000  0.018
    2  0.000  0.014  0.000  0.004  0.000  0.000  0.000  0.000  0.000  0.018
    3  0.032  0.000  0.000  0.013  0.000  0.000  0.000  0.000  0.000  0.045
    4  0.115  0.005  0.000  0.002  0.000  0.000  0.000  0.000  0.000  0.122
    5  0.026  0.012  0.000  0.001  0.000  0.000  0.000  0.000  0.000  0.040
    6  0.026  0.012  0.000  0.002  0.000  0.000  0.000  0.000  0.000  0.040
    7  0.115  0.005  0.000  0.002  0.000  0.000  0.000  0.000  0.000  0.122
    8  0.032  0.000  0.000  0.013  0.000  0.000  0.000  0.000  0.000  0.045
tot    0.347  0.062  0.000  0.041  0.000  0.000  0.000  0.000  0.000  0.450
 

 k-point     2 :    0.08333333 0.00000000 0.00000000     weight = 0.02777778

band     1 # energy  -19.48630020 # occ.  2.00000000
 
ion      s     py     pz     px    dxy    dyz    dz2    dxz  x2-y2    tot
    1  0.044  0.000  0.000  0.000  0.000  0.000  0.000  0.000  0.000  0.045
    2  0.044  0.000  0.000  0.000  0.000  0.000  0.000  0.000  0.000  0.045
    3  0.087  0.001  0.000  0.000  0.000  0.000  0.000  0.000  0.000  0.089
    4  0.087  0.001  0.000  0.000  0.000  0.000  0.000  0.000  0.000  0.089
    5  0.087  0.000  0.000  0.002  0.000  0.000  0.000  0.000  0.000  0.089
    6  0.087  0.000  0.000  0.002  0.000  0.000  0.000  0.000  0.000  0.089
    7  0.087  0.001  0.000  0.000  0.000  0.000  0.000  0.000  0.000  0.089
    8  0.087  0.001  0.000  0.000  0.000  0.000  0.000  0.000  0.000  0.089
tot    0.612  0.006  0.000  0.005  0.000  0.000  0.000  0.000  0.000  0.623
 
band     2 # energy  -15.76069515 # occ.  2.00000000
 
ion      s     py     pz     px    dxy    dyz    dz2    dxz  x2-y2    tot
    1  0.005  0.015  0.000  0.005  0.000  0.000  0.000  0.000  0.000  0.026
    2  0.005  0.015  0.000  0.005  0.000  0.000  0.000  0.000  0.000  0.026
    3  0.048  0.003  0.000  0.014  0.000  0.000  0.000  0.000  0.000  0.066
    4  0.177  0.004  0.000  0.001  0.000  0.000  0.000  0.000  0.000  0.182
    5  0.050  0.016  0.000  0.001  0.000  0.000  0.000  0.000  0.000  0.068
    6  0.050  0.016  0.000  0.001  0.000  0.000  0.000  0.000  0.000  0.068
    7  0.177  0.004  0.000  0.001  0.000  0.000  0.000  0.000  0.000  0.182
    8  0.048  0.003  0.000  0.014  0.000  0.000  0.000  0.000  0.000  0.066
tot    0.559  0.078  0.000  0.045  0.000  0.000  0.000  0.000  0.000  0.682
 
band     3 # energy  -15.65835178 # occ.  2.00000000
 
ion      s     py     pz     px    dxy    dyz    dz2    dxz  x2-y2    tot
    1  0.000  0.006  0.000  0.017  0.000  0.000  0.000  0.000  0.000  0.023
    2  0.000  0.006  0.000  0.017  0.000  0.000  0.000  0.000  0.000  0.023
    3  0.141  0.006  0.000  0.001  0.000  0.000  0.000  0.000  0.000  0.149
    4  0.000  0.006  0.000  0.018  0.000  0.000  0.000  0.000  0.000  0.024
    5  0.139  0.005  0.000  0.003  0.000  0.000  0.000  0.000  0.000  0.147
    6  0.139  0.005  0.000  0.003  0.000  0.000  0.000  0.000  0.000  0.147
    7  0.000  0.006  0.000  0.018  0.000  0.000  0.000  0.000  0.000  0.024
    8  0.141  0.006  0.000  0.001  0.000  0.000  0.000  0.000  0.000  0.149
tot    0.560  0.047  0.000  0.078  0.000  0.000  0.000  0.000  0.000  0.685
 
band     4 # energy  -13.90376033 # occ.  2.00000000
 
ion      s     py     pz     px    dxy    dyz    dz2    dxz  x2-y2    tot
    1  0.023  0.040  0.000  0.013  0.000  0.000  0.000  0.000  0.000  0.077
    2  0.023  0.040  0.000  0.013  0.000  0.000  0.000  0.000  0.000  0.077
    3  0.021  0.004  0.000  0.049  0.000  0.000  0.000  0.000  0.000  0.074
    4  0.106  0.002  0.000  0.001  0.000  0.000  0.000  0.000  0.000  0.109
    5  0.020  0.049  0.000  0.005  0.000  0.000  0.000  0.000  0.000  0.074
    6  0.020  0.049  0.000  0.005  0.000  0.000  0.000  0.000  0.000  0.074
    7  0.106  0.002  0.000  0.001  0.000  0.000  0.000  0.000  0.000  0.109
    8  0.021  0.004  0.000  0.049  0.000  0.000  0.000  0.000  0.000  0.074
tot    0.341  0.193  0.000  0.136  0.000  0.000  0.000  0.000  0.000  0.670
 
band     5 # energy  -13.71942114 # occ.  2.00000000
 
ion      s     py     pz     px    dxy    dyz    dz2    dxz  x2-y2    tot
    1  0.000  0.016  0.000  0.049  0.000  0.000  0.000  0.000  0.000  0.065
    2  0.000  0.016  0.000  0.049  0.000  0.000  0.000  0.000  0.000  0.065
    3  0.075  0.015  0.000  0.008  0.000  0.000  0.000  0.000  0.000  0.098
    4  0.000  0.018  0.000  0.054  0.000  0.000  0.000  0.000  0.000  0.072
    5  0.075  0.019  0.000  0.004  0.000  0.000  0.000  0.000  0.000  0.098
    6  0.075  0.019  0.000  0.004  0.000  0.000  0.000  0.000  0.000  0.098
    7  0.000  0.018  0.000  0.054  0.000  0.000  0.000  0.000  0.000  0.072
    8  0.075  0.015  0.000  0.008  0.000  0.000  0.000  0.000  0.000  0.098
tot    0.300  0.137  0.000  0.229  0.000  0.000  0.000  0.000  0.000  0.666
 
band     6 # energy  -12.19465616 # occ.  2.00000000
 
ion      s     py     pz     px    dxy    dyz    dz2    dxz  x2-y2    tot
    1  0.116  0.002  0.000  0.001  0.000  0.000  0.000  0.000  0.000  0.118
    2  0.116  0.002  0.000  0.001  0.000  0.000  0.000  0.000  0.000  0.118
    3  0.002  0.048  0.000  0.016  0.000  0.000  0.000  0.000  0.000  0.066
    4  0.008  0.049  0.000  0.016  0.000  0.000  0.000  0.000  0.000  0.074
    5  0.002  0.001  0.000  0.063  0.000  0.000  0.000  0.000  0.000  0.066
    6  0.002  0.001  0.000  0.063  0.000  0.000  0.000  0.000  0.000  0.066
    7  0.008  0.049  0.000  0.016  0.000  0.000  0.000  0.000  0.000  0.074
    8  0.002  0.048  0.000  0.016  0.000  0.000  0.000  0.000  0.000  0.066
tot    0.255  0.200  0.000  0.192  0.000  0.000  0.000  0.000  0.000  0.647
 
band     7 # energy  -11.92491007 # occ.  2.00000000
 
ion      s     py     pz     px    dxy    dyz    dz2    dxz  x2-y2    tot
    1  0.184  0.009  0.000  0.003  0.000  0.000  0.000  0.000  0.000  0.196
    2  0.184  0.009  0.000  0.003  0.000  0.000  0.000  0.000  0.000  0.196
    3  0.036  0.019  0.000  0.008  0.000  0.000  0.000  0.000  0.000  0.063
    4  0.032  0.018  0.000  0.006  0.000  0.000  0.000  0.000  0.000  0.056
    5  0.036  0.006  0.000  0.021  0.000  0.000  0.000  0.000  0.000  0.063
    6  0.036  0.006  0.000  0.021  0.000  0.000  0.000  0.000  0.000  0.063
    7  0.032  0.018  0.000  0.006  0.000  0.000  0.000  0.000  0.000  0.056
    8  0.036  0.019  0.000  0.008  0.000  0.000  0.000  0.000  0.000  0.063
tot    0.576  0.104  0.000  0.076  0.000  0.000  0.000  0.000  0.000  0.755
 
band     8 # energy   -8.58216540 # occ.  2.00000000
 
ion      s     py     pz     px    dxy    dyz    dz2    dxz  x2-y2    tot
    1  0.000  0.000  0.042  0.000  0.000  0.000  0.000  0.000  0.000  0.042
    2  0.000  0.000  0.042  0.000  0.000  0.000  0.000  0.000  0.000  0.042
    3  0.000  0.000  0.055  0.000  0.000  0.000  0.000  0.000  0.000  0.055
    4  0.000  0.000  0.055  0.000  0.000  0.000  0.000  0.000  0.000  0.055
    5  0.000  0.000  0.055  0.000  0.000  0.000  0.000  0.000  0.000  0.055
    6  0.000  0.000  0.055  0.000  0.000  0.000  0.000  0.000  0.000  0.055
    7  0.000  0.000  0.055  0.000  0.000  0.000  0.000  0.000  0.000  0.055
    8  0.000  0.000  0.055  0.000  0.000  0.000  0.000  0.000  0.000  0.055
tot    0.000  0.000  0.414  0.000  0.000  0.000  0.000  0.000  0.000  0.414
 
band     9 # energy   -7.97174487 # occ.  2.00000000
 
ion      s     py     pz     px    dxy    dyz    dz2    dxz  x2-y2    tot
    1  0.000  0.000  0.000  0.000  0.000  0.000  0.000  0.000  0.000  0.001
    2  0.000  0.000  0.000  0.000  0.000  0.000  0.000  0.000  0.000  0.001
    3  0.001  0.036  0.000  0.085  0.000  0.000  0.000  0.000  0.000  0.122
    4  0.000  0.029  0.000  0.087  0.000  0.000  0.000  0.000  0.000  0.115
    5  0.001  0.121  0.000  0.000  0.000  0.000  0.000  0.000  0.000  0.122
    6  0.001  0.121  0.000  0.000  0.000  0.000  0.000  0.000  0.000  0.122
    7  0.000  0.029  0.000  0.087  0.000  0.000  0.000  0.000  0.000  0.115
    8  0.001  0.036  0.000  0.085  0.000  0.000  0.000  0.000  0.000  0.122
tot    0.005  0.371  0.000  0.346  0.000  0.000  0.000  0.000  0.000  0.721
 
band    10 # energy   -6.70081059 # occ.  2.00000000
 
ion      s     py     pz     px    dxy    dyz    dz2    dxz  x2-y2    tot
    1  0.003  0.107  0.000  0.037  0.000  0.000  0.000  0.000  0.000  0.147
    2  0.003  0.107  0.000  0.037  0.000  0.000  0.000  0.000  0.000  0.147
    3  0.000  0.014  0.000  0.033  0.000  0.000  0.000  0.000  0.000  0.047
    4  0.003  0.114  0.000  0.037  0.000  0.000  0.000  0.000  0.000  0.155
    5  0.000  0.010  0.000  0.039  0.000  0.000  0.000  0.000  0.000  0.049
    6  0.000  0.010  0.000  0.039  0.000  0.000  0.000  0.000  0.000  0.049
    7  0.003  0.114  0.000  0.037  0.000  0.000  0.000  0.000  0.000  0.155
    8  0.000  0.014  0.000  0.033  0.000  0.000  0.000  0.000  0.000  0.047
tot    0.012  0.490  0.000  0.294  0.000  0.000  0.000  0.000  0.000  0.796
 
band    11 # energy   -6.60836545 # occ.  2.00000000
 
ion      s     py     pz     px    dxy    dyz    dz2    dxz  x2-y2    tot
    1  0.000  0.038  0.000  0.109  0.000  0.000  0.000  0.000  0.000  0.146
    2  0.000  0.038  0.000  0.109  0.000  0.000  0.000  0.000  0.000  0.146
    3  0.001  0.097  0.000  0.020  0.000  0.000  0.000  0.000  0.000  0.119
    4  0.000  0.004  0.000  0.014  0.000  0.000  0.000  0.000  0.000  0.018
    5  0.001  0.001  0.000  0.114  0.000  0.000  0.000  0.000  0.000  0.116
    6  0.001  0.001  0.000  0.114  0.000  0.000  0.000  0.000  0.000  0.116
    7  0.000  0.004  0.000  0.014  0.000  0.000  0.000  0.000  0.000  0.018
    8  0.001  0.097  0.000  0.020  0.000  0.000  0.000  0.000  0.000  0.119
tot    0.005  0.281  0.000  0.512  0.000  0.000  0.000  0.000  0.000  0.799
 
band    12 # energy   -4.43009273 # occ.  2.00000000
 
ion      s     py     pz     px    dxy    dyz    dz2    dxz  x2-y2    tot
    1  0.000  0.000  0.003  0.000  0.000  0.000  0.000  0.000  0.000  0.003
    2  0.000  0.000  0.003  0.000  0.000  0.000  0.000  0.000  0.000  0.003
    3  0.000  0.000  0.043  0.000  0.000  0.000  0.000  0.000  0.000  0.043
    4  0.000  0.000  0.149  0.000  0.000  0.000  0.000  0.000  0.000  0.149
    5  0.000  0.000  0.045  0.000  0.000  0.000  0.000  0.000  0.000  0.045
    6  0.000  0.000  0.045  0.000  0.000  0.000  0.000  0.000  0.000  0.045
    7  0.000  0.000  0.149  0.000  0.000  0.000  0.000  0.000  0.000  0.149
    8  0.000  0.000  0.043  0.000  0.000  0.000  0.000  0.000  0.000  0.043
tot    0.000  0.000  0.480  0.000  0.000  0.000  0.000  0.000  0.000  0.480
 
band    13 # energy   -4.32310835 # occ.  2.00000000
 
ion      s     py     pz     px    dxy    dyz    dz2    dxz  x2-y2    tot
    1  0.000  0.000  0.000  0.000  0.000  0.000  0.000  0.000  0.000  0.000
    2  0.000  0.000  0.000  0.000  0.000  0.000  0.000  0.000  0.000  0.000
    3  0.000  0.000  0.122  0.000  0.000  0.000  0.000  0.000  0.000  0.122