<?xml version="1.0" encoding="ISO-8859-1"?>
<modeling>
 <generator>
  <i name="program" type="string">vasp </i>
  <i name="version" type="string">5.4.4.18Apr17-6-g9f103f2a35  </i>
  <i name="subversion" type="string">(build Mar 30 2023 15:39:25) complex            parallel </i>
  <i name="platform" type="string">LinuxIFC </i>
  <i name="date" type="string">2023 06 30 </i>
  <i name="time" type="string">15:58:21 </i>
 </generator>
 <incar>
  <i type="string" name="SYSTEM"> BC3</i>
  <i type="int" name="ISTART">     1</i>
  <i type="string" name="PREC">accurate</i>
  <i type="string" name="ALGO"> Normal</i>
  <i type="int" name="ICHARG">    11</i>
  <i type="int" name="IBRION">    -1</i>
  <i name="EDIFF">      0.00000100</i>
  <i name="EDIFFG">     -0.00100000</i>
  <i type="int" name="NSW">     0</i>
  <i name="ENCUT">    450.00000000</i>
  <i type="int" name="NEDOS">  1000</i>
  <i type="int" name="ISMEAR">     0</i>
  <i name="SIGMA">      0.10000000</i>
  <i type="int" name="LORBIT">    11</i>
  <v type="int" name="KPOINT_BSE">    -1     0     0     0</v>
 </incar>
 <structure name="primitive_cell" >
  <crystal>
   <varray name="basis" >
    <v>       4.47300000       2.58200000       0.00000000 </v>
    <v>      -4.47300000       2.58200000       0.00000000 </v>
    <v>       0.00000000       0.00000000      15.00000000 </v>
   </varray>
   <i name="volume">    346.47858000 </i>
   <varray name="rec_basis" >
    <v>       0.11178180       0.19364833       0.00000000 </v>
    <v>      -0.11178180       0.19364833       0.00000000 </v>
    <v>       0.00000000       0.00000000       0.06666667 </v>
   </varray>
  </crystal>
  <varray name="positions" >
   <v>       0.33333300      -0.33333400       0.25000000 </v>
   <v>       0.16666600       0.33333300       0.25000000 </v>
   <v>      -0.33333400      -0.16666700       0.25000000 </v>
   <v>       0.16666600      -0.16666700       0.25000000 </v>
   <v>      -0.16666700       0.16666600       0.25000000 </v>
   <v>       0.33333300       0.16666600       0.25000000 </v>
   <v>      -0.16666700      -0.33333400       0.25000000 </v>
   <v>      -0.33333400       0.33333300       0.25000000 </v>
  </varray>
 </structure>
 <varray name="primitive_index" >
  <v type="int" >        1 </v>
  <v type="int" >        3 </v>
  <v type="int" >        7 </v>
  <v type="int" >        5 </v>
  <v type="int" >        6 </v>
  <v type="int" >        4 </v>
  <v type="int" >        8 </v>
  <v type="int" >        2 </v>
 </varray>
 <kpoints>
  <generation param="Gamma">
   <v type="int" name="divisions">      12       12        1 </v>
   <v name="usershift">      0.00000000       0.00000000       0.00000000 </v>
   <v name="genvec1">      0.08333333       0.00000000       0.00000000 </v>
   <v name="genvec2">      0.00000000       0.08333333       0.00000000 </v>
   <v name="genvec3">      0.00000000       0.00000000       1.00000000 </v>
   <v name="shift">      0.00000000       0.00000000       0.00000000 </v>
  </generation>
  <varray name="kpointlist" >
   <v>       0.00000000       0.00000000       0.00000000 </v>
   <v>       0.08333333       0.00000000       0.00000000 </v>
   <v>       0.16666667      -0.00000000       0.00000000 </v>
   <v>       0.25000000      -0.00000000       0.00000000 </v>
   <v>       0.33333333       0.00000000       0.00000000 </v>
   <v>       0.41666667      -0.00000000       0.00000000 </v>
   <v>       0.50000000      -0.00000000       0.00000000 </v>
   <v>       0.08333333       0.08333333       0.00000000 </v>
   <v>       0.16666667       0.08333333       0.00000000 </v>
   <v>       0.25000000       0.08333333       0.00000000 </v>
   <v>       0.33333333       0.08333333       0.00000000 </v>
   <v>       0.41666667       0.08333333       0.00000000 </v>
   <v>       0.50000000       0.08333333       0.00000000 </v>
   <v>      -0.41666667       0.08333333       0.00000000 </v>
   <v>      -0.33333333       0.08333333       0.00000000 </v>
   <v>      -0.25000000       0.08333333       0.00000000 </v>
   <v>      -0.16666667       0.08333333       0.00000000 </v>
   <v>      -0.08333333       0.08333333       0.00000000 </v>
   <v>       0.16666667       0.16666667       0.00000000 </v>
   <v>       0.25000000       0.16666667       0.00000000 </v>
   <v>       0.33333333       0.16666667       0.00000000 </v>
   <v>       0.41666667       0.16666667       0.00000000 </v>
   <v>       0.50000000       0.16666667       0.00000000 </v>
   <v>      -0.41666667       0.16666667       0.00000000 </v>
   <v>      -0.33333333       0.16666667       0.00000000 </v>
   <v>      -0.25000000       0.16666667       0.00000000 </v>
   <v>      -0.16666667       0.16666667       0.00000000 </v>
   <v>       0.25000000       0.25000000       0.00000000 </v>
   <v>       0.33333333       0.25000000       0.00000000 </v>
   <v>       0.41666667       0.25000000       0.00000000 </v>
   <v>       0.50000000       0.25000000       0.00000000 </v>
   <v>      -0.41666667       0.25000000       0.00000000 </v>
   <v>      -0.33333333       0.25000000       0.00000000 </v>
   <v>      -0.25000000       0.25000000       0.00000000 </v>
   <v>       0.33333333       0.33333333       0.00000000 </v>
   <v>       0.41666667       0.33333333       0.00000000 </v>
   <v>       0.50000000       0.33333333       0.00000000 </v>
   <v>      -0.41666667       0.33333333       0.00000000 </v>
   <v>      -0.33333333       0.33333333       0.00000000 </v>
   <v>       0.41666667       0.41666667       0.00000000 </v>
   <v>       0.50000000       0.41666667       0.00000000 </v>
   <v>      -0.41666667       0.41666667       0.00000000 </v>
   <v>       0.50000000       0.50000000       0.00000000 </v>
  </varray>
  <varray name="weights" >
   <v>       0.00694444 </v>
   <v>       0.02777778 </v>
   <v>       0.02777778 </v>
   <v>       0.02777778 </v>
   <v>       0.02777778 </v>
   <v>       0.02777778 </v>
   <v>       0.01388889 </v>
   <v>       0.01388889 </v>
   <v>       0.02777778 </v>
   <v>       0.02777778 </v>
   <v>       0.02777778 </v>
   <v>       0.02777778 </v>
   <v>       0.02777778 </v>
   <v>       0.02777778 </v>
   <v>       0.02777778 </v>
   <v>       0.02777778 </v>
   <v>       0.02777778 </v>
   <v>       0.01388889 </v>
   <v>       0.01388889 </v>
   <v>       0.02777778 </v>
   <v>       0.02777778 </v>
   <v>       0.02777778 </v>
   <v>       0.02777778 </v>
   <v>       0.02777778 </v>
   <v>       0.02777778 </v>
   <v>       0.02777778 </v>
   <v>       0.01388889 </v>
   <v>       0.01388889 </v>
   <v>       0.02777778 </v>
   <v>       0.02777778 </v>
   <v>       0.02777778 </v>
   <v>       0.02777778 </v>
   <v>       0.02777778 </v>
   <v>       0.01388889 </v>
   <v>       0.01388889 </v>
   <v>       0.02777778 </v>
   <v>       0.02777778 </v>
   <v>       0.02777778 </v>
   <v>       0.01388889 </v>
   <v>       0.01388889 </v>
   <v>       0.02777778 </v>
   <v>       0.01388889 </v>
   <v>       0.00694444 </v>
  </varray>
 </kpoints>
 <parameters>
  <separator name="general" >
   <i type="string" name="SYSTEM">BC3</i>
   <i type="logical" name="LCOMPAT"> F  </i>
  </separator>
  <separator name="electronic" >
   <i type="string" name="PREC">accura</i>
   <i name="ENMAX">    450.00000000</i>
   <i name="ENAUG">    644.87300000</i>
   <i name="EDIFF">      0.00000100</i>
   <i type="int" name="IALGO">    38</i>
   <i type="int" name="IWAVPR">    10</i>
   <i type="int" name="NBANDS">    24</i>
   <i name="NELECT">     30.00000000</i>
   <i type="int" name="TURBO">     0</i>
   <i type="int" name="IRESTART">     0</i>
   <i type="int" name="NREBOOT">     0</i>
   <i type="int" name="NMIN">     0</i>
   <i name="EREF">      0.00000000</i>
   <separator name="electronic smearing" >
    <i type="int" name="ISMEAR">     0</i>
    <i name="SIGMA">      0.10000000</i>
    <i name="KSPACING">      0.50000000</i>
    <i type="logical" name="KGAMMA"> T  </i>
   </separator>
   <separator name="electronic projectors" >
    <i type="logical" name="LREAL"> F  </i>
    <v name="ROPT">      0.00000000      0.00000000</v>
    <i type="int" name="LMAXPAW">  -100</i>
    <i type="int" name="LMAXMIX">     2</i>
    <i type="logical" name="NLSPLINE"> F  </i>
   </separator>
   <separator name="electronic startup" >
    <i type="int" name="ISTART">     0</i>
    <i type="int" name="ICHARG">    11</i>
    <i type="int" name="INIWAV">     1</i>
   </separator>
   <separator name="electronic spin" >
    <i type="int" name="ISPIN">     1</i>
    <i type="logical" name="LNONCOLLINEAR"> F  </i>
    <v name="MAGMOM">      1.00000000      1.00000000      1.00000000      1.00000000      1.00000000      1.00000000      1.00000000      1.00000000</v>
    <i name="NUPDOWN">     -1.00000000</i>
    <i type="logical" name="LSORBIT"> F  </i>
    <v name="SAXIS">      0.00000000      0.00000000      1.00000000</v>
    <i type="logical" name="LSPIRAL"> F  </i>
    <v name="QSPIRAL">      0.00000000      0.00000000      0.00000000</v>
    <i type="logical" name="LZEROZ"> F  </i>
   </separator>
   <separator name="electronic exchange-correlation" >
    <i type="logical" name="LASPH"> F  </i>
    <i type="logical" name="LMETAGGA"> F  </i>
   </separator>
   <separator name="electronic convergence" >
    <i type="int" name="NELM">    60</i>
    <i type="int" name="NELMDL">     0</i>
    <i type="int" name="NELMIN">     2</i>
    <i name="ENINI">    450.00000000</i>
    <separator name="electronic convergence detail" >
     <i type="logical" name="LDIAG"> T  </i>
     <i type="logical" name="LSUBROT"> F  </i>
     <i name="WEIMIN">      0.00000000</i>
     <i name="EBREAK">      0.00000001</i>
     <i name="DEPER">      0.30000000</i>
     <i type="int" name="NRMM">     4</i>
     <i name="TIME">      0.40000000</i>
    </separator>
   </separator>
   <separator name="electronic mixer" >
    <i name="AMIX">      0.40000000</i>
    <i name="BMIX">      1.00000000</i>
    <i name="AMIN">      0.10000000</i>
    <i name="AMIX_MAG">      1.60000000</i>
    <i name="BMIX_MAG">      1.00000000</i>
    <separator name="electronic mixer details" >
     <i type="int" name="IMIX">     4</i>
     <i type="logical" name="MIXFIRST"> F  </i>
     <i type="int" name="MAXMIX">   -45</i>
     <i name="WC">    100.00000000</i>
     <i type="int" name="INIMIX">     1</i>
     <i type="int" name="MIXPRE">     1</i>
     <i type="int" name="MREMOVE">     5</i>
    </separator>
   </separator>
   <separator name="electronic dipolcorrection" >
    <i type="logical" name="LDIPOL"> F  </i>
    <i type="logical" name="LMONO"> F  </i>
    <i type="int" name="IDIPOL">     0</i>
    <i name="EPSILON">      1.00000000</i>
    <v name="DIPOL">   -100.00000000   -100.00000000   -100.00000000</v>
    <i name="EFIELD">      0.00000000</i>
   </separator>
  </separator>
  <separator name="grids" >
   <i type="int" name="NGX">    36</i>
   <i type="int" name="NGY">    36</i>
   <i type="int" name="NGZ">   108</i>
   <i type="int" name="NGXF">    72</i>
   <i type="int" name="NGYF">    72</i>
   <i type="int" name="NGZF">   216</i>
   <i type="logical" name="ADDGRID"> F  </i>
  </separator>
  <separator name="ionic" >
   <i type="int" name="NSW">     0</i>
   <i type="int" name="IBRION">    -1</i>
   <i type="int" name="MDALGO">     0</i>
   <i type="int" name="ISIF">     2</i>
   <i name="PSTRESS">      0.00000000</i>
   <i name="EDIFFG">     -0.00100000</i>
   <i type="int" name="NFREE">     0</i>
   <i name="POTIM">      0.50000000</i>
   <i name="SMASS">     -3.00000000</i>
   <i name="SCALEE">      1.00000000</i>
  </separator>
  <separator name="ionic md" >
   <i name="TEBEG">      0.00010000</i>
   <i name="TEEND">      0.00010000</i>
   <i type="int" name="NBLOCK">     1</i>
   <i type="int" name="KBLOCK">     1</i>
   <i type="int" name="NPACO">   256</i>
   <i name="APACO">     16.00000000</i>
  </separator>
  <separator name="symmetry" >
   <i type="int" name="ISYM">     2</i>
   <i name="SYMPREC">      0.00001000</i>
  </separator>
  <separator name="dos" >
   <i type="int" name="LORBIT">    11</i>
   <v name="RWIGS">     -1.00000000     -1.00000000</v>
   <i type="int" name="NEDOS">  1000</i>
   <i name="EMIN">     10.00000000</i>
   <i name="EMAX">    -10.00000000</i>
   <i name="EFERMI">      0.00000000</i>
  </separator>
  <separator name="writing" >
   <i type="int" name="NWRITE">     2</i>
   <i type="logical" name="LWAVE"> T  </i>
   <i type="logical" name="LDOWNSAMPLE"> F  </i>
   <i type="logical" name="LCHARG"> T  </i>
   <i type="logical" name="LPARD"> F  </i>
   <i type="logical" name="LVTOT"> F  </i>
   <i type="logical" name="LVHAR"> F  </i>
   <i type="logical" name="LELF"> F  </i>
   <i type="logical" name="LOPTICS"> F  </i>
   <v name="STM">      0.00000000      0.00000000      0.00000000      0.00000000      0.00000000      0.00000000      0.00000000</v>
  </separator>
  <separator name="performance" >
   <i type="int" name="NPAR">    12</i>
   <i type="int" name="NSIM">     4</i>
   <i type="int" name="NBLK">    -1</i>
   <i type="logical" name="LPLANE"> T  </i>
   <i type="logical" name="LSCALAPACK"> T  </i>
   <i type="logical" name="LSCAAWARE"> F  </i>
   <i type="logical" name="LSCALU"> F  </i>
   <i type="logical" name="LASYNC"> F  </i>
   <i type="logical" name="LORBITALREAL"> F  </i>
  </separator>
  <separator name="miscellaneous" >
   <i type="int" name="IDIOT">     3</i>
   <i type="int" name="ISPECIAL">     0</i>
   <i type="logical" name="LMUSIC"> F  </i>
   <v name="POMASS">     10.81100000     12.01100000</v>
   <v name="DARWINR">      0.00000000      0.00000000</v>
   <v name="DARWINV">      1.00000000      1.00000000</v>
   <i type="logical" name="LCORR"> T  </i>
  </separator>
  <i type="logical" name="GGA_COMPAT"> T  </i>
  <i type="logical" name="LBERRY"> F  </i>
  <i type="int" name="ICORELEVEL">     0</i>
  <i type="logical" name="LDAU"> F  </i>
  <i type="int" name="I_CONSTRAINED_M">     0</i>
  <separator name="electronic exchange-correlation" >
   <i type="string" name="GGA">--</i>
   <i type="int" name="VOSKOWN">     0</i>
   <i type="logical" name="LHFCALC"> F  </i>
   <i type="string" name="PRECFOCK"></i>
   <i type="logical" name="LSYMGRAD"> F  </i>
   <i type="logical" name="LHFONE"> F  </i>
   <i type="logical" name="LRHFCALC"> F  </i>
   <i type="logical" name="LTHOMAS"> F  </i>
   <i type="logical" name="LMODELHF"> F  </i>
   <i name="ENCUT4O">     -1.00000000</i>
   <i type="int" name="EXXOEP">     0</i>
   <i type="int" name="FOURORBIT">     0</i>
   <i name="AEXX">      0.00000000</i>
   <i name="HFALPHA">      0.00000000</i>
   <i name="MCALPHA">      0.00000000</i>
   <i name="ALDAX">      1.00000000</i>
   <i name="AGGAX">      1.00000000</i>
   <i name="ALDAC">      1.00000000</i>
   <i name="AGGAC">      1.00000000</i>
   <i type="int" name="NKREDX">     1</i>
   <i type="int" name="NKREDY">     1</i>
   <i type="int" name="NKREDZ">     1</i>
   <i type="logical" name="SHIFTRED"> F  </i>
   <i type="logical" name="ODDONLY"> F  </i>
   <i type="logical" name="EVENONLY"> F  </i>
   <i type="int" name="LMAXFOCK">     0</i>
   <i type="int" name="NMAXFOCKAE">     0</i>
   <i type="logical" name="LFOCKAEDFT"> F  </i>
   <i name="HFSCREEN">      0.00000000</i>
   <i name="HFSCREENC">      0.00000000</i>
   <i type="int" name="NBANDSGWLOW">     0</i>
  </separator>
  <separator name="vdW DFT" >
   <i type="logical" name="LUSE_VDW"> F  </i>
   <i name="Zab_VDW">     -0.84910000</i>
   <i name="PARAM1">      0.12340000</i>
   <i name="PARAM2">      1.00000000</i>
   <i name="PARAM3">      0.00000000</i>
  </separator>
  <separator name="model GW" >
   <i type="int" name="MODEL_GW">     0</i>
   <i name="MODEL_EPS0">     25.98589350</i>
   <i name="MODEL_ALPHA">      1.00000000</i>
  </separator>
  <separator name="linear response parameters" >
   <i type="logical" name="LEPSILON"> F  </i>
   <i type="logical" name="LRPA"> F  </i>
   <i type="logical" name="LNABLA"> F  </i>
   <i type="logical" name="LVEL"> F  </i>
   <i type="int" name="KINTER">     0</i>
   <i name="CSHIFT">      0.10000000</i>
   <i name="OMEGAMAX">     -1.00000000</i>
   <i name="DEG_THRESHOLD">      0.00200000</i>
   <i name="RTIME">     -0.10000000</i>
   <i name="WPLASMAI">      0.00000000</i>
   <v name="DFIELD">      0.00000000      0.00000000      0.00000000</v>
   <v name="WPLASMA">      0.00000000      0.00000000      0.00000000      0.00000000      0.00000000      0.00000000      0.00000000      0.00000000      0.00000000</v>
  </separator>
  <separator name="orbital magnetization" >
   <i type="logical" name="NUCIND"> F  </i>
   <v name="MAGPOS">      0.00000000      0.00000000      0.00000000</v>
   <i type="logical" name="LNICSALL"> T  </i>
   <i type="logical" name="ORBITALMAG"> F  </i>
   <i type="logical" name="LMAGBLOCH"> F  </i>
   <i type="logical" name="LCHIMAG"> F  </i>
   <i type="logical" name="LGAUGE"> T  </i>
   <i type="int" name="MAGATOM">     0</i>
   <v name="MAGDIPOL">      0.00000000      0.00000000      0.00000000</v>
   <v name="AVECCONST">      0.00000000      0.00000000      0.00000000</v>
  </separator>
  <separator name="response functions" >
   <i type="logical" name="LADDER"> F  </i>
   <i type="logical" name="LRPAFORCE"> F  </i>
   <i type="logical" name="LFXC"> F  </i>
   <i type="logical" name="LHARTREE"> T  </i>
   <i type="int" name="IBSE">     0</i>
   <v type="int" name="KPOINT">    -1     0     0     0</v>
   <i type="logical" name="LTCTE"> F  </i>
   <i type="logical" name="LTETE"> F  </i>
   <i type="logical" name="LTRIPLET"> F  </i>
   <i type="logical" name="LFXCEPS"> F  </i>
   <i type="logical" name="LFXHEG"> F  </i>
   <i type="int" name="NATURALO">     2</i>
   <i type="logical" name="L2ORDER"> F  </i>
   <i type="logical" name="LMP2LT"> F  </i>
   <i type="logical" name="LUSEW"> F  </i>
   <i name="ENCUTGW">     -2.00000000</i>
   <i name="ENCUTGWSOFT">     -2.00000000</i>
   <i name="ENCUTLF">     -1.00000000</i>
   <i type="int" name="LMAXMP2">    -1</i>
   <i name="SCISSOR">      0.00000000</i>
   <i type="int" name="NOMEGA">     0</i>
   <i type="int" name="NOMEGAR">     0</i>
   <i type="int" name="NBANDSGW">    -1</i>
   <i type="int" name="NBANDSO">    -1</i>
   <i type="int" name="NBANDSV">    -1</i>
   <i type="int" name="NELM">     1</i>
   <i type="int" name="NELMHF">     1</i>
   <i type="int" name="DIM">     3</i>
   <i type="int" name="ANTIRES">     0</i>
   <i name="OMEGAMAX">    -30.00000000</i>
   <i name="OMEGAMIN">    -30.00000000</i>
   <i name="OMEGATL">   -200.00000000</i>
   <i type="int" name="OMEGAGRID">   140</i>
   <i name="CSHIFT">     -0.10000000</i>
   <i type="logical" name="SELFENERGY"> F  </i>
   <i type="logical" name="LSPECTRAL"> F  </i>
   <i type="logical" name="LSPECTRALGW"> F  </i>
   <i type="logical" name="LSINGLES"> F  </i>
   <i type="logical" name="LFERMIGW"> F  </i>
   <i type="logical" name="ODDONLYGW"> F  </i>
   <i type="logical" name="EVENONLYGW"> F  </i>
   <i type="int" name="NKREDLFX">     1</i>
   <i type="int" name="NKREDLFY">     1</i>
   <i type="int" name="NKREDLFZ">     1</i>
   <i type="int" name="MAXMEM">  2800</i>
   <i type="int" name="TELESCOPE">     0</i>
   <i type="int" name="TAUPAR">     1</i>
   <i type="int" name="OMEGAPAR">    -1</i>
   <i name="LAMBDA">      1.00000000</i>
  </separator>
  <separator name="External order field" >
   <i name="OFIELD_KAPPA">      0.00000000</i>
   <v name="OFIELD_K">      0.00000000      0.00000000      0.00000000</v>
   <i name="OFIELD_Q6_NEAR">      0.00000000</i>
   <i name="OFIELD_Q6_FAR">      0.00000000</i>
   <i name="OFIELD_A">      0.00000000</i>
  </separator>
 </parameters>
 <atominfo>
  <atoms>       8 </atoms>
  <types>       2 </types>
  <array name="atoms" >
   <dimension dim="1">ion</dimension>
   <field type="string">element</field>
   <field type="int">atomtype</field>
   <set>
    <rc><c>B </c><c>   1</c></rc>
    <rc><c>B </c><c>   1</c></rc>
    <rc><c>C </c><c>   2</c></rc>
    <rc><c>C </c><c>   2</c></rc>
    <rc><c>C </c><c>   2</c></rc>
    <rc><c>C </c><c>   2</c></rc>
    <rc><c>C </c><c>   2</c></rc>
    <rc><c>C </c><c>   2</c></rc>
   </set>
  </array>
  <array name="atomtypes" >
   <dimension dim="1">type</dimension>
   <field type="int">atomspertype</field>
   <field type="string">element</field>
   <field>mass</field>
   <field>valence</field>
   <field type="string">pseudopotential</field>
   <set>
    <rc><c>   2</c><c>B </c><c>     10.81100000</c><c>      3.00000000</c><c>  PAW_PBE B 06Sep2000                   </c></rc>
    <rc><c>   6</c><c>C </c><c>     12.01100000</c><c>      4.00000000</c><c>  PAW_PBE C 08Apr2002                   </c></rc>
   </set>
  </array>
 </atominfo>
 <structure name="initialpos" >
  <crystal>
   <varray name="basis" >
    <v>       4.47300000       2.58200000       0.00000000 </v>
    <v>      -4.47300000       2.58200000       0.00000000 </v>
    <v>       0.00000000       0.00000000      15.00000000 </v>
   </varray>
   <i name="volume">    346.47858000 </i>
   <varray name="rec_basis" >
    <v>       0.11178180       0.19364833       0.00000000 </v>
    <v>      -0.11178180       0.19364833       0.00000000 </v>
    <v>       0.00000000       0.00000000       0.06666667 </v>
   </varray>
  </crystal>
  <varray name="positions" >
   <v>       0.33333300       0.66666600       0.25000000 </v>
   <v>       0.66666600       0.33333300       0.25000000 </v>
   <v>       0.16666600       0.33333300       0.25000000 </v>
   <v>       0.33333300       0.16666600       0.25000000 </v>
   <v>       0.16666600       0.83333300       0.25000000 </v>
   <v>       0.83333300       0.16666600       0.25000000 </v>
   <v>       0.66666600       0.83333300       0.25000000 </v>
   <v>       0.83333300       0.66666600       0.25000000 </v>
  </varray>
 </structure>
 <calculation>
  <scstep>
   <time name="dav">    2.47    2.47</time>
   <time name="total">    2.54    2.54</time>
   <energy>
    <i name="alphaZ">     14.64016667 </i>
    <i name="ewald">   2593.16580357 </i>
    <i name="hartreedc">  -3487.10816652 </i>
    <i name="XCdc">     95.64232799 </i>
    <i name="pawpsdc">   2872.31455798 </i>
    <i name="pawaedc">  -2874.83944341 </i>
    <i name="eentropy">     -0.01500100 </i>
    <i name="bandstr">    -67.61634557 </i>
    <i name="atom">   1025.20389953 </i>
    <i name="e_fr_energy">    171.38779924 </i>
    <i name="e_wo_entrp">    171.40280024 </i>
    <i name="e_0_energy">    171.39529974 </i>
   </energy>
  </scstep>
  <scstep>
   <time name="dav">    3.70    3.70</time>
   <time name="total">    3.70    3.70</time>
   <energy>
    <i name="e_fr_energy">    -39.93854656 </i>
    <i name="e_wo_entrp">    -39.93487075 </i>
    <i name="e_0_energy">    -39.93670866 </i>
   </energy>
  </scstep>
  <scstep>
   <time name="dav">    2.70    2.70</time>
   <time name="total">    2.70    2.70</time>
   <energy>
    <i name="e_fr_energy">    -65.70008444 </i>
    <i name="e_wo_entrp">    -65.69984429 </i>
    <i name="e_0_energy">    -65.69996436 </i>
   </energy>
  </scstep>
  <scstep>
   <time name="dav">    3.02    3.02</time>
   <time name="total">    3.02    3.02</time>
   <energy>
    <i name="e_fr_energy">    -66.28416500 </i>
    <i name="e_wo_entrp">    -66.28398046 </i>
    <i name="e_0_energy">    -66.28407273 </i>
   </energy>
  </scstep>
  <scstep>
   <time name="dav">    3.01    3.01</time>
   <time name="total">    3.01    3.01</time>
   <energy>
    <i name="e_fr_energy">    -66.30044363 </i>
    <i name="e_wo_entrp">    -66.30026369 </i>
    <i name="e_0_energy">    -66.30035366 </i>
   </energy>
  </scstep>
  <scstep>
   <time name="dav">    3.41    3.41</time>
   <time name="total">    3.41    3.41</time>
   <energy>
    <i name="e_fr_energy">    -66.30118018 </i>
    <i name="e_wo_entrp">    -66.30100024 </i>
    <i name="e_0_energy">    -66.30109021 </i>
   </energy>
  </scstep>
  <scstep>
   <time name="dav">    3.17    3.17</time>
   <time name="total">    3.17    3.17</time>
   <energy>
    <i name="e_fr_energy">    -66.30119171 </i>
    <i name="e_wo_entrp">    -66.30101176 </i>
    <i name="e_0_energy">    -66.30110174 </i>
   </energy>
  </scstep>
  <scstep>
   <time name="dav">    3.12    3.12</time>
   <time name="total">    3.12    3.12</time>
   <energy>
    <i name="alphaZ">     14.64016667 </i>
    <i name="ewald">   2593.16580357 </i>
    <i name="hartreedc">  -3487.10816652 </i>
    <i name="XCdc">     95.64232799 </i>
    <i name="pawpsdc">   2872.31455798 </i>
    <i name="pawaedc">  -2874.83944341 </i>
    <i name="eentropy">     -0.00017994 </i>
    <i name="bandstr">   -305.32015788 </i>
    <i name="atom">   1025.20389953 </i>
    <i name="e_fr_energy">    -66.30119201 </i>
    <i name="e_wo_entrp">    -66.30101207 </i>
    <i name="e_0_energy">    -66.30110204 </i>
   </energy>
  </scstep>
  <structure>
   <crystal>
    <varray name="basis" >
     <v>       4.47300000       2.58200000       0.00000000 </v>
     <v>      -4.47300000       2.58200000       0.00000000 </v>
     <v>       0.00000000       0.00000000      15.00000000 </v>
    </varray>
    <i name="volume">    346.47858000 </i>
    <varray name="rec_basis" >
     <v>       0.11178180       0.19364833       0.00000000 </v>
     <v>      -0.11178180       0.19364833       0.00000000 </v>
     <v>       0.00000000       0.00000000       0.06666667 </v>
    </varray>
   </crystal>
   <varray name="positions" >
    <v>       0.33333300       0.66666600       0.25000000 </v>
    <v>       0.66666600       0.33333300       0.25000000 </v>
    <v>       0.16666600       0.33333300       0.25000000 </v>
    <v>       0.33333300       0.16666600       0.25000000 </v>
    <v>       0.16666600       0.83333300       0.25000000 </v>
    <v>       0.83333300       0.16666600       0.25000000 </v>
    <v>       0.66666600       0.83333300       0.25000000 </v>
    <v>       0.83333300       0.66666600       0.25000000 </v>
   </varray>
  </structure>
  <varray name="forces" >
   <v>      -0.00332172       0.00000000      -0.00000000 </v>
   <v>       0.00332172       0.00000000      -0.00000000 </v>
   <v>       2.15782448      -3.73404449      -0.00000000 </v>
   <v>      -2.15782448      -3.73404449      -0.00000000 </v>
   <v>      -4.30913963       0.00000000       0.00000000 </v>
   <v>       4.30913963       0.00000000       0.00000000 </v>
   <v>       2.15782448       3.73404449      -0.00000000 </v>
   <v>      -2.15782448       3.73404449      -0.00000000 </v>
  </varray>
  <varray name="stress" >
   <v>      -3.08363472       0.00000000       0.00000000 </v>
   <v>       0.00000000      -2.77935746       0.00000000 </v>
   <v>       0.00000000       0.00000000      -0.87279707 </v>
  </varray>
  <energy>
   <i name="e_fr_energy">    -66.30119201 </i>
   <i name="e_wo_entrp">    -66.30110204 </i>
   <i name="e_0_energy">     -0.00017994 </i>
  </energy>
  <time name="totalsc">   29.41   30.12</time>
  <eigenvalues>
   <array>
    <dimension dim="1">band</dimension>
    <dimension dim="2">kpoint</dimension>
    <dimension dim="3">spin</dimension>
    <field>eigene</field>
    <field>occ</field>
    <set>
     <set comment="spin 1">
      <set comment="kpoint 1">
       <r>  -19.5195    1.0000 </r>
       <r>  -15.5902    1.0000 </r>
       <r>  -15.5881    1.0000 </r>
       <r>  -13.8497    1.0000 </r>
       <r>  -13.8491    1.0000 </r>
       <r>  -12.3340    1.0000 </r>
       <r>  -12.1302    1.0000 </r>
       <r>   -8.6261    1.0000 </r>
       <r>   -7.8989    1.0000 </r>
       <r>   -6.5918    1.0000 </r>
       <r>   -6.5897    1.0000 </r>
       <r>   -4.2978    1.0000 </r>
       <r>   -4.2961    1.0000 </r>
       <r>   -3.9113    0.9852 </r>
       <r>   -3.9106    0.9848 </r>
       <r>   -2.6230    0.0000 </r>
       <r>   -0.6593    0.0000 </r>
       <r>   -0.6591    0.0000 </r>
       <r>    0.8376    0.0000 </r>
       <r>    1.0370    0.0000 </r>
       <r>    1.8163    0.0000 </r>
       <r>    2.2517    0.0000 </r>
       <r>    4.1938    0.0000 </r>
       <r>    4.2766    0.0000 </r>
      </set>
      <set comment="kpoint 2">
       <r>  -19.4863    1.0000 </r>
       <r>  -15.7607    1.0000 </r>
       <r>  -15.6584    1.0000 </r>
       <r>  -13.9038    1.0000 </r>
       <r>  -13.7194    1.0000 </r>
       <r>  -12.1947    1.0000 </r>
       <r>  -11.9249    1.0000 </r>
       <r>   -8.5822    1.0000 </r>
       <r>   -7.9717    1.0000 </r>
       <r>   -6.7008    1.0000 </r>
       <r>   -6.6084    1.0000 </r>
       <r>   -4.4301    1.0000 </r>
       <r>   -4.3231    1.0000 </r>
       <r>   -4.0640    1.0000 </r>
       <r>   -3.9903    0.9995 </r>
       <r>   -2.8009    0.0000 </r>
       <r>   -0.5960    0.0000 </r>
       <r>   -0.3643    0.0000 </r>
       <r>    0.8892    0.0000 </r>
       <r>    1.1468    0.0000 </r>
       <r>    1.8778    0.0000 </r>
       <r>    2.3037    0.0000 </r>
       <r>    4.2453    0.0000 </r>
       <r>    4.3575    0.0000 </r>
      </set>
      <set comment="kpoint 3">
       <r>  -19.3877    1.0000 </r>
       <r>  -16.1692    1.0000 </r>
       <r>  -15.8141    1.0000 </r>
       <r>  -14.0410    1.0000 </r>
       <r>  -13.3830    1.0000 </r>
       <r>  -11.8319    1.0000 </r>
       <r>  -11.3896    1.0000 </r>
       <r>   -8.4507    1.0000 </r>
       <r>   -8.2130    1.0000 </r>
       <r>   -7.0125    1.0000 </r>
       <r>   -6.6103    1.0000 </r>
       <r>   -4.8105    1.0000 </r>
       <r>   -4.4997    1.0000 </r>
       <r>   -4.3902    1.0000 </r>
       <r>   -4.2111    1.0000 </r>
       <r>   -3.0947    0.0000 </r>
       <r>   -0.4236    0.0000 </r>
       <r>    0.2339    0.0000 </r>
       <r>    1.0436    0.0000 </r>
       <r>    1.4791    0.0000 </r>
       <r>    2.0754    0.0000 </r>
       <r>    2.4595    0.0000 </r>
       <r>    4.3996    0.0000 </r>
       <r>    4.5749    0.0000 </r>
      </set>
      <set comment="kpoint 4">
       <r>  -19.2279    1.0000 </r>
       <r>  -16.6578    1.0000 </r>
       <r>  -15.9817    1.0000 </r>
       <r>  -14.1981    1.0000 </r>
       <r>  -12.9252    1.0000 </r>
       <r>  -11.3513    1.0000 </r>
       <r>  -10.6459    1.0000 </r>
       <r>   -8.6287    1.0000 </r>
       <r>   -8.2334    1.0000 </r>
       <r>   -7.4745    1.0000 </r>
       <r>   -6.5265    1.0000 </r>
       <r>   -5.3499    1.0000 </r>
       <r>   -5.1586    1.0000 </r>
       <r>   -4.5323    1.0000 </r>
       <r>   -4.4754    1.0000 </r>
       <r>   -3.3194    0.0000 </r>
       <r>   -0.1863    0.0000 </r>
       <r>    0.8054    0.0000 </r>
       <r>    1.3001    0.0000 </r>
       <r>    1.9791    0.0000 </r>
       <r>    2.4859    0.0000 </r>
       <r>    2.7188    0.0000 </r>
       <r>    4.6558    0.0000 </r>
       <r>    4.9144    0.0000 </r>
      </set>
      <set comment="kpoint 5">
       <r>  -19.0179    1.0000 </r>
       <r>  -17.1345    1.0000 </r>
       <r>  -16.1188    1.0000 </r>
       <r>  -14.3291    1.0000 </r>
       <r>  -12.4141    1.0000 </r>
       <r>  -10.8118    1.0000 </r>
       <r>   -9.7916    1.0000 </r>
       <r>   -9.1501    1.0000 </r>
       <r>   -8.0177    1.0000 </r>
       <r>   -7.9340    1.0000 </r>
       <r>   -6.3463    1.0000 </r>
       <r>   -5.9721    1.0000 </r>
       <r>   -5.9389    1.0000 </r>
       <r>   -4.9047    1.0000 </r>
       <r>   -4.5543    1.0000 </r>
       <r>   -3.4684    0.0000 </r>
       <r>    0.0557    0.0000 </r>
       <r>    1.2410    0.0000 </r>
       <r>    1.6581    0.0000 </r>
       <r>    2.4658    0.0000 </r>
       <r>    3.0812    0.0000 </r>
       <r>    3.2109    0.0000 </r>
       <r>    4.0944    0.0000 </r>
       <r>    4.9499    0.0000 </r>
      </set>
      <set comment="kpoint 6">
       <r>  -18.7930    1.0000 </r>
       <r>  -17.5291    1.0000 </r>
       <r>  -16.2063    1.0000 </r>
       <r>  -14.4133    1.0000 </r>
       <r>  -11.9392    1.0000 </r>
       <r>  -10.2698    1.0000 </r>
       <r>   -9.6499    1.0000 </r>
       <r>   -8.9852    1.0000 </r>
       <r>   -8.4597    1.0000 </r>
       <r>   -7.5639    1.0000 </r>
       <r>   -6.8763    1.0000 </r>
       <r>   -6.5011    1.0000 </r>
       <r>   -6.0987    1.0000 </r>
       <r>   -5.2753    1.0000 </r>
       <r>   -4.6086    1.0000 </r>
       <r>   -3.5549    0.0021 </r>
       <r>    0.2380    0.0000 </r>
       <r>    1.5272    0.0000 </r>
       <r>    2.1170    0.0000 </r>
       <r>    2.9573    0.0000 </r>
       <r>    3.3361    0.0000 </r>
       <r>    3.5472    0.0000 </r>
       <r>    3.9245    0.0000 </r>
       <r>    4.4365    0.0000 </r>
      </set>
      <set comment="kpoint 7">
       <r>  -18.6725    1.0000 </r>
       <r>  -17.7074    1.0000 </r>
       <r>  -16.2362    1.0000 </r>
       <r>  -14.4421    1.0000 </r>
       <r>  -11.7115    1.0000 </r>
       <r>   -9.9515    1.0000 </r>
       <r>   -9.8890    1.0000 </r>
       <r>   -9.0196    1.0000 </r>
       <r>   -7.8485    1.0000 </r>
       <r>   -7.7743    1.0000 </r>
       <r>   -7.2556    1.0000 </r>
       <r>   -6.8762    1.0000 </r>
       <r>   -5.9132    1.0000 </r>
       <r>   -5.5029    1.0000 </r>
       <r>   -4.6279    1.0000 </r>
       <r>   -3.5836    0.0070 </r>
       <r>    0.3060    0.0000 </r>
       <r>    1.6301    0.0000 </r>
       <r>    2.6580    0.0000 </r>
       <r>    2.6958    0.0000 </r>
       <r>    3.4824    0.0000 </r>
       <r>    3.5331    0.0000 </r>
       <r>    4.1065    0.0000 </r>
       <r>    4.1235    0.0000 </r>
      </set>
      <set comment="kpoint 8">
       <r>  -19.4204    1.0000 </r>
       <r>  -16.0202    1.0000 </r>
       <r>  -15.8056    1.0000 </r>
       <r>  -13.9296    1.0000 </r>
       <r>  -13.5601    1.0000 </r>
       <r>  -11.9142    1.0000 </r>
       <r>  -11.5756    1.0000 </r>
       <r>   -8.4944    1.0000 </r>
       <r>   -8.1357    1.0000 </r>
       <r>   -6.8674    1.0000 </r>
       <r>   -6.6558    1.0000 </r>
       <r>   -4.6515    1.0000 </r>
       <r>   -4.4210    1.0000 </r>
       <r>   -4.3502    1.0000 </r>
       <r>   -4.1488    1.0000 </r>
       <r>   -2.9959    0.0000 </r>
       <r>   -0.5263    0.0000 </r>
       <r>    0.1126    0.0000 </r>
       <r>    0.9922    0.0000 </r>
       <r>    1.3624    0.0000 </r>
       <r>    2.0061    0.0000 </r>
       <r>    2.4076    0.0000 </r>
       <r>    4.3482    0.0000 </r>
       <r>    4.5226    0.0000 </r>
      </set>
      <set comment="kpoint 9">
       <r>  -19.2909    1.0000 </r>
       <r>  -16.4308    1.0000 </r>
       <r>  -16.0158    1.0000 </r>
       <r>  -13.9922    1.0000 </r>
       <r>  -13.2529    1.0000 </r>
       <r>  -11.4378    1.0000 </r>
       <r>  -10.9746    1.0000 </r>
       <r>   -8.4974    1.0000 </r>
       <r>   -8.3200    1.0000 </r>
       <r>   -7.1658    1.0000 </r>
       <r>   -6.6706    1.0000 </r>
       <r>   -5.0696    1.0000 </r>
       <r>   -4.8786    1.0000 </r>
       <r>   -4.5976    1.0000 </r>
       <r>   -4.4390    1.0000 </r>
       <r>   -3.1375    0.0000 </r>
       <r>   -0.4150    0.0000 </r>
       <r>    0.7616    0.0000 </r>
       <r>    1.1977    0.0000 </r>
       <r>    1.7658    0.0000 </r>
       <r>    2.2947    0.0000 </r>
       <r>    2.6152    0.0000 </r>
       <r>    4.5536    0.0000 </r>
       <r>    4.8100    0.0000 </r>
      </set>
      <set comment="kpoint 10">
       <r>  -19.1049    1.0000 </r>
       <r>  -16.8970    1.0000 </r>
       <r>  -16.1943    1.0000 </r>
       <r>  -14.0995    1.0000 </r>
       <r>  -12.8024    1.0000 </r>
       <r>  -10.8990    1.0000 </r>
       <r>  -10.1948    1.0000 </r>
       <r>   -9.0123    1.0000 </r>
       <r>   -8.0613    1.0000 </r>
       <r>   -7.6057    1.0000 </r>
       <r>   -6.5585    1.0000 </r>
       <r>   -5.6236    1.0000 </r>
       <r>   -5.5956    1.0000 </r>
       <r>   -4.8058    1.0000 </r>
       <r>   -4.7525    1.0000 </r>
       <r>   -3.2076    0.0000 </r>
       <r>   -0.2587    0.0000 </r>
       <r>    1.3199    0.0000 </r>
       <r>    1.5051    0.0000 </r>
       <r>    2.2569    0.0000 </r>
       <r>    2.8454    0.0000 </r>
       <r>    2.9262    0.0000 </r>
       <r>    4.5483    0.0000 </r>
       <r>    4.8582    0.0000 </r>
      </set>
      <set comment="kpoint 11">
       <r>  -18.8818    1.0000 </r>
       <r>  -17.3310    1.0000 </r>
       <r>  -16.3190    1.0000 </r>
       <r>  -14.1919    1.0000 </r>
       <r>  -12.3064    1.0000 </r>
       <r>  -10.3500    1.0000 </r>
       <r>   -9.5911    1.0000 </r>
       <r>   -9.3057    1.0000 </r>
       <r>   -8.1072    1.0000 </r>
       <r>   -7.7246    1.0000 </r>
       <r>   -6.4437    1.0000 </r>
       <r>   -6.3404    1.0000 </r>
       <r>   -6.1999    1.0000 </r>
       <r>   -5.1957    1.0000 </r>
       <r>   -4.8623    1.0000 </r>
       <r>   -3.2477    0.0000 </r>
       <r>   -0.1009    0.0000 </r>
       <r>    1.7128    0.0000 </r>
       <r>    1.9137    0.0000 </r>
       <r>    2.7398    0.0000 </r>
       <r>    3.3401    0.0000 </r>
       <r>    3.6317    0.0000 </r>
       <r>    3.7423    0.0000 </r>
       <r>    4.6728    0.0000 </r>
      </set>
      <set comment="kpoint 12">
       <r>  -18.6882    1.0000 </r>
       <r>  -17.6357    1.0000 </r>
       <r>  -16.3827    1.0000 </r>
       <r>  -14.2426    1.0000 </r>
       <r>  -11.9147    1.0000 </r>
       <r>  -10.0460    1.0000 </r>
       <r>   -9.8458    1.0000 </r>
       <r>   -8.7455    1.0000 </r>
       <r>   -8.2143    1.0000 </r>
       <r>   -7.3489    1.0000 </r>
       <r>   -7.3405    1.0000 </r>
       <r>   -6.7135    1.0000 </r>
       <r>   -6.0921    1.0000 </r>
       <r>   -5.5383    1.0000 </r>
       <r>   -4.9190    1.0000 </r>
       <r>   -3.2684    0.0000 </r>
       <r>   -0.0012    0.0000 </r>
       <r>    1.9248    0.0000 </r>
       <r>    2.4228    0.0000 </r>
       <r>    3.0334    0.0000 </r>
       <r>    3.2607    0.0000 </r>
       <r>    3.8239    0.0000 </r>
       <r>    3.8574    0.0000 </r>
       <r>    4.4768    0.0000 </r>
      </set>
      <set comment="kpoint 13">
       <r>  -18.6882    1.0000 </r>
       <r>  -17.6357    1.0000 </r>
       <r>  -16.3827    1.0000 </r>
       <r>  -14.2425    1.0000 </r>
       <r>  -11.9144    1.0000 </r>
       <r>  -10.0460    1.0000 </r>
       <r>   -9.8470    1.0000 </r>
       <r>   -8.7448    1.0000 </r>
       <r>   -8.2145    1.0000 </r>
       <r>   -7.3484    1.0000 </r>
       <r>   -7.3406    1.0000 </r>
       <r>   -6.7133    1.0000 </r>
       <r>   -6.0918    1.0000 </r>
       <r>   -5.5387    1.0000 </r>
       <r>   -4.9192    1.0000 </r>
       <r>   -3.2681    0.0000 </r>
       <r>   -0.0013    0.0000 </r>
       <r>    1.9246    0.0000 </r>
       <r>    2.4227    0.0000 </r>
       <r>    3.0336    0.0000 </r>
       <r>    3.2605    0.0000 </r>
       <r>    3.8240    0.0000 </r>
       <r>    3.8572    0.0000 </r>
       <r>    4.4770    0.0000 </r>
      </set>
      <set comment="kpoint 14">
       <r>  -18.8819    1.0000 </r>
       <r>  -17.3310    1.0000 </r>
       <r>  -16.3190    1.0000 </r>
       <r>  -14.1916    1.0000 </r>
       <r>  -12.3060    1.0000 </r>
       <r>  -10.3509    1.0000 </r>
       <r>   -9.5924    1.0000 </r>
       <r>   -9.3059    1.0000 </r>
       <r>   -8.1059    1.0000 </r>
       <r>   -7.7247    1.0000 </r>
       <r>   -6.4433    1.0000 </r>
       <r>   -6.3399    1.0000 </r>
       <r>   -6.1997    1.0000 </r>
       <r>   -5.1962    1.0000 </r>
       <r>   -4.8626    1.0000 </r>
       <r>   -3.2470    0.0000 </r>
       <r>   -0.1011    0.0000 </r>
       <r>    1.7124    0.0000 </r>
       <r>    1.9136    0.0000 </r>
       <r>    2.7397    0.0000 </r>
       <r>    3.3400    0.0000 </r>
       <r>    3.6314    0.0000 </r>
       <r>    3.7426    0.0000 </r>
       <r>    4.6730    0.0000 </r>
      </set>
      <set comment="kpoint 15">
       <r>  -19.1050    1.0000 </r>
       <r>  -16.8971    1.0000 </r>
       <r>  -16.1943    1.0000 </r>
       <r>  -14.0989    1.0000 </r>
       <r>  -12.8022    1.0000 </r>
       <r>  -10.8999    1.0000 </r>
       <r>  -10.1952    1.0000 </r>
       <r>   -9.0134    1.0000 </r>
       <r>   -8.0614    1.0000 </r>
       <r>   -7.6044    1.0000 </r>
       <r>   -6.5580    1.0000 </r>
       <r>   -5.6235    1.0000 </r>
       <r>   -5.5953    1.0000 </r>
       <r>   -4.8062    1.0000 </r>
       <r>   -4.7530    1.0000 </r>
       <r>   -3.2064    0.0000 </r>
       <r>   -0.2590    0.0000 </r>
       <r>    1.3195    0.0000 </r>
       <r>    1.5050    0.0000 </r>
       <r>    2.2568    0.0000 </r>
       <r>    2.8451    0.0000 </r>
       <r>    2.9261    0.0000 </r>
       <r>    4.5486    0.0000 </r>
       <r>    4.8580    0.0000 </r>
      </set>
      <set comment="kpoint 16">
       <r>  -19.2910    1.0000 </r>
       <r>  -16.4312    1.0000 </r>
       <r>  -16.0154    1.0000 </r>
       <r>  -13.9912    1.0000 </r>
       <r>  -13.2531    1.0000 </r>
       <r>  -11.4384    1.0000 </r>
       <r>  -10.9750    1.0000 </r>
       <r>   -8.4984    1.0000 </r>
       <r>   -8.3200    1.0000 </r>
       <r>   -7.1650    1.0000 </r>
       <r>   -6.6699    1.0000 </r>
       <r>   -5.0697    1.0000 </r>
       <r>   -4.8785    1.0000 </r>
       <r>   -4.5979    1.0000 </r>
       <r>   -4.4391    1.0000 </r>
       <r>   -3.1362    0.0000 </r>
       <r>   -0.4154    0.0000 </r>
       <r>    0.7613    0.0000 </r>
       <r>    1.1977    0.0000 </r>
       <r>    1.7656    0.0000 </r>
       <r>    2.2945    0.0000 </r>
       <r>    2.6152    0.0000 </r>
       <r>    4.5535    0.0000 </r>
       <r>    4.8100    0.0000 </r>
      </set>
      <set comment="kpoint 17">
       <r>  -19.4204    1.0000 </r>
       <r>  -16.0215    1.0000 </r>
       <r>  -15.8043    1.0000 </r>
       <r>  -13.9285    1.0000 </r>
       <r>  -13.5607    1.0000 </r>
       <r>  -11.9145    1.0000 </r>
       <r>  -11.5760    1.0000 </r>
       <r>   -8.4944    1.0000 </r>
       <r>   -8.1362    1.0000 </r>
       <r>   -6.8681    1.0000 </r>
       <r>   -6.6541    1.0000 </r>
       <r>   -4.6525    1.0000 </r>
       <r>   -4.4203    1.0000 </r>
       <r>   -4.3506    1.0000 </r>
       <r>   -4.1484    1.0000 </r>
       <r>   -2.9949    0.0000 </r>
       <r>   -0.5268    0.0000 </r>
       <r>    0.1123    0.0000 </r>
       <r>    0.9922    0.0000 </r>
       <r>    1.3622    0.0000 </r>
       <r>    2.0060    0.0000 </r>
       <r>    2.4076    0.0000 </r>
       <r>    4.3482    0.0000 </r>
       <r>    4.5337    0.0000 </r>
      </set>
      <set comment="kpoint 18">
       <r>  -19.4863    1.0000 </r>
       <r>  -15.7622    1.0000 </r>
       <r>  -15.6567    1.0000 </r>
       <r>  -13.9032    1.0000 </r>
       <r>  -13.7198    1.0000 </r>
       <r>  -12.1947    1.0000 </r>
       <r>  -11.9251    1.0000 </r>
       <r>   -8.5822    1.0000 </r>
       <r>   -7.9719    1.0000 </r>
       <r>   -6.7023    1.0000 </r>
       <r>   -6.6066    1.0000 </r>
       <r>   -4.4314    1.0000 </r>
       <r>   -4.3218    1.0000 </r>
       <r>   -4.0647    1.0000 </r>
       <r>   -3.9896    0.9995 </r>
       <r>   -2.8006    0.0000 </r>
       <r>   -0.5962    0.0000 </r>
       <r>   -0.3643    0.0000 </r>
       <r>    0.8892    0.0000 </r>
       <r>    1.1467    0.0000 </r>
       <r>    1.8778    0.0000 </r>
       <r>    2.3037    0.0000 </r>
       <r>    4.2453    0.0000 </r>
       <r>    4.3856    0.0000 </r>
      </set>
      <set comment="kpoint 19">
       <r>  -19.1346    1.0000 </r>
       <r>  -16.7404    1.0000 </r>
       <r>  -16.3242    1.0000 </r>
       <r>  -13.8245    1.0000 </r>
       <r>  -13.1335    1.0000 </r>
       <r>  -10.8210    1.0000 </r>
       <r>  -10.4092    1.0000 </r>
       <r>   -8.9958    1.0000 </r>
       <r>   -8.1040    1.0000 </r>
       <r>   -7.2520    1.0000 </r>
       <r>   -6.8120    1.0000 </r>
       <r>   -5.4306    1.0000 </r>
       <r>   -5.3842    1.0000 </r>
       <r>   -5.0016    1.0000 </r>
       <r>   -4.8100    1.0000 </r>
       <r>   -3.0087    0.0000 </r>
       <r>   -0.4840    0.0000 </r>
       <r>    1.4542    0.0000 </r>
       <r>    1.4766    0.0000 </r>
       <r>    2.1383    0.0000 </r>
       <r>    2.6932    0.0000 </r>
       <r>    2.8746    0.0000 </r>
       <r>    4.8089    0.0000 </r>
       <r>    5.1095    0.0000 </r>
      </set>
      <set comment="kpoint 20">
       <r>  -18.9310    1.0000 </r>
       <r>  -17.1080    1.0000 </r>
       <r>  -16.5563    1.0000 </r>
       <r>  -13.7721    1.0000 </r>
       <r>  -12.8072    1.0000 </r>
       <r>  -10.2163    1.0000 </r>
       <r>   -9.6995    1.0000 </r>
       <r>   -9.5488    1.0000 </r>
       <r>   -7.8069    1.0000 </r>
       <r>   -7.5315    1.0000 </r>
       <r>   -6.7627    1.0000 </r>
       <r>   -6.1299    1.0000 </r>
       <r>   -5.8567    1.0000 </r>
       <r>   -5.2768    1.0000 </r>
       <r>   -5.2435    1.0000 </r>
       <r>   -2.8525    0.0000 </r>
       <r>   -0.5247    0.0000 </r>
       <r>    1.8124    0.0000 </r>
       <r>    2.0756    0.0000 </r>
       <r>    2.5874    0.0000 </r>
       <r>    3.2373    0.0000 </r>
       <r>    3.3005    0.0000 </r>
       <r>    4.2492    0.0000 </r>
       <r>    4.8558    0.0000 </r>
      </set>
      <set comment="kpoint 21">
       <r>  -18.7165    1.0000 </r>
       <r>  -17.4523    1.0000 </r>
       <r>  -16.6826    1.0000 </r>
       <r>  -13.7928    1.0000 </r>
       <r>  -12.3848    1.0000 </r>
       <r>  -10.2127    1.0000 </r>
       <r>   -9.6024    1.0000 </r>
       <r>   -8.8264    1.0000 </r>
       <r>   -7.9353    1.0000 </r>
       <r>   -7.4414    1.0000 </r>
       <r>   -6.9536    1.0000 </r>
       <r>   -6.5249    1.0000 </r>
       <r>   -6.3871    1.0000 </r>
       <r>   -5.6614    1.0000 </r>
       <r>   -5.4066    1.0000 </r>
       <r>   -2.7467    0.0000 </r>
       <r>   -0.5302    0.0000 </r>
       <r>    2.2716    0.0000 </r>
       <r>    2.4377    0.0000 </r>
       <r>    3.0963    0.0000 </r>
       <r>    3.4908    0.0000 </r>
       <r>    3.7036    0.0000 </r>
       <r>    3.9815    0.0000 </r>
       <r>    4.4929    0.0000 </r>
      </set>
      <set comment="kpoint 22">
       <r>  -18.6047    1.0000 </r>
       <r>  -17.6118    1.0000 </r>
       <r>  -16.7227    1.0000 </r>
       <r>  -13.8059    1.0000 </r>
       <r>  -12.1601    1.0000 </r>
       <r>  -10.4628    1.0000 </r>
       <r>   -9.3375    1.0000 </r>
       <r>   -8.3626    1.0000 </r>
       <r>   -7.8593    1.0000 </r>
       <r>   -7.7242    1.0000 </r>
       <r>   -7.1431    1.0000 </r>
       <r>   -6.7466    1.0000 </r>
       <r>   -6.3398    1.0000 </r>
       <r>   -5.9118    1.0000 </r>
       <r>   -5.4470    1.0000 </r>
       <r>   -2.7108    0.0000 </r>
       <r>   -0.5269    0.0000 </r>
       <r>    2.5629    0.0000 </r>
       <r>    2.8148    0.0000 </r>
       <r>    2.8481    0.0000 </r>
       <r>    3.6190    0.0000 </r>
       <r>    3.6810    0.0000 </r>
       <r>    4.2651    0.0000 </r>
       <r>    4.2785    0.0000 </r>
      </set>
      <set comment="kpoint 23">
       <r>  -18.7165    1.0000 </r>
       <r>  -17.4523    1.0000 </r>
       <r>  -16.6826    1.0000 </r>
       <r>  -13.7922    1.0000 </r>
       <r>  -12.3846    1.0000 </r>
       <r>  -10.2136    1.0000 </r>
       <r>   -9.6038    1.0000 </r>
       <r>   -8.8270    1.0000 </r>
       <r>   -7.9339    1.0000 </r>
       <r>   -7.4416    1.0000 </r>
       <r>   -6.9528    1.0000 </r>
       <r>   -6.5240    1.0000 </r>
       <r>   -6.3868    1.0000 </r>
       <r>   -5.6622    1.0000 </r>
       <r>   -5.4069    1.0000 </r>
       <r>   -2.7459    0.0000 </r>
       <r>   -0.5306    0.0000 </r>
       <r>    2.2713    0.0000 </r>
       <r>    2.4373    0.0000 </r>
       <r>    3.0960    0.0000 </r>
       <r>    3.4912    0.0000 </r>
       <r>    3.7033    0.0000 </r>
       <r>    3.9812    0.0000 </r>
       <r>    4.4944    0.0000 </r>
      </set>
      <set comment="kpoint 24">
       <r>  -18.9311    1.0000 </r>
       <r>  -17.1083    1.0000 </r>
       <r>  -16.5560    1.0000 </r>
       <r>  -13.7709    1.0000 </r>
       <r>  -12.8074    1.0000 </r>
       <r>  -10.2176    1.0000 </r>
       <r>   -9.7005    1.0000 </r>
       <r>   -9.5500    1.0000 </r>
       <r>   -7.8071    1.0000 </r>
       <r>   -7.5298    1.0000 </r>
       <r>   -6.7618    1.0000 </r>
       <r>   -6.1293    1.0000 </r>
       <r>   -5.8565    1.0000 </r>
       <r>   -5.2771    1.0000 </r>
       <r>   -5.2441    1.0000 </r>
       <r>   -2.8510    0.0000 </r>
       <r>   -0.5255    0.0000 </r>
       <r>    1.8121    0.0000 </r>
       <r>    2.0751    0.0000 </r>
       <r>    2.5871    0.0000 </r>
       <r>    3.2371    0.0000 </r>
       <r>    3.2999    0.0000 </r>
       <r>    4.2497    0.0000 </r>
       <r>    4.8552    0.0000 </r>
      </set>
      <set comment="kpoint 25">
       <r>  -19.1347    1.0000 </r>
       <r>  -16.7412    1.0000 </r>
       <r>  -16.3234    1.0000 </r>
       <r>  -13.8227    1.0000 </r>
       <r>  -13.1344    1.0000 </r>
       <r>  -10.8219    1.0000 </r>
       <r>  -10.4101    1.0000 </r>
       <r>   -8.9972    1.0000 </r>
       <r>   -8.1042    1.0000 </r>
       <r>   -7.2513    1.0000 </r>
       <r>   -6.8102    1.0000 </r>
       <r>   -5.4305    1.0000 </r>
       <r>   -5.3847    1.0000 </r>
       <r>   -5.0015    1.0000 </r>
       <r>   -4.8101    1.0000 </r>
       <r>   -3.0068    0.0000 </r>
       <r>   -0.4848    0.0000 </r>
       <r>    1.4540    0.0000 </r>
       <r>    1.4760    0.0000 </r>
       <r>    2.1379    0.0000 </r>
       <r>    2.6927    0.0000 </r>
       <r>    2.8744    0.0000 </r>
       <r>    4.8087    0.0000 </r>
       <r>    5.0933    0.0000 </r>
      </set>
      <set comment="kpoint 26">
       <r>  -19.2910    1.0000 </r>
       <r>  -16.4320    1.0000 </r>
       <r>  -16.0144    1.0000 </r>
       <r>  -13.9907    1.0000 </r>
       <r>  -13.2536    1.0000 </r>
       <r>  -11.4383    1.0000 </r>
       <r>  -10.9755    1.0000 </r>
       <r>   -8.4985    1.0000 </r>
       <r>   -8.3201    1.0000 </r>
       <r>   -7.1663    1.0000 </r>
       <r>   -6.6682    1.0000 </r>
       <r>   -5.0707    1.0000 </r>
       <r>   -4.8792    1.0000 </r>
       <r>   -4.5967    1.0000 </r>
       <r>   -4.4384    1.0000 </r>
       <r>   -3.1359    0.0000 </r>
       <r>   -0.4156    0.0000 </r>
       <r>    0.7611    0.0000 </r>
       <r>    1.1976    0.0000 </r>
       <r>    1.7655    0.0000 </r>
       <r>    2.2944    0.0000 </r>
       <r>    2.6151    0.0000 </r>
       <r>    4.5535    0.0000 </r>
       <r>    4.8129    0.0000 </r>
      </set>
      <set comment="kpoint 27">
       <r>  -19.3877    1.0000 </r>
       <r>  -16.1705    1.0000 </r>
       <r>  -15.8125    1.0000 </r>
       <r>  -14.0403    1.0000 </r>
       <r>  -13.3834    1.0000 </r>
       <r>  -11.8320    1.0000 </r>
       <r>  -11.3902    1.0000 </r>
       <r>   -8.4507    1.0000 </r>
       <r>   -8.2134    1.0000 </r>
       <r>   -7.0138    1.0000 </r>
       <r>   -6.6081    1.0000 </r>
       <r>   -4.8119    1.0000 </r>
       <r>   -4.5005    1.0000 </r>
       <r>   -4.3889    1.0000 </r>
       <r>   -4.2103    1.0000 </r>
       <r>   -3.0939    0.0000 </r>
       <r>   -0.4240    0.0000 </r>
       <r>    0.2336    0.0000 </r>
       <r>    1.0435    0.0000 </r>
       <r>    1.4789    0.0000 </r>
       <r>    2.0753    0.0000 </r>
       <r>    2.4595    0.0000 </r>
       <r>    4.3995    0.0000 </r>
       <r>    4.5736    0.0000 </r>
      </set>
      <set comment="kpoint 28">
       <r>  -18.7294    1.0000 </r>
       <r>  -17.3000    1.0000 </r>
       <r>  -16.8828    1.0000 </r>
       <r>  -13.4447    1.0000 </r>
       <r>  -12.7457    1.0000 </r>
       <r>  -10.2692    1.0000 </r>
       <r>   -9.3747    1.0000 </r>
       <r>   -9.0928    1.0000 </r>
       <r>   -7.4783    1.0000 </r>
       <r>   -7.4640    1.0000 </r>
       <r>   -6.9952    1.0000 </r>
       <r>   -6.7168    1.0000 </r>
       <r>   -6.0996    1.0000 </r>
       <r>   -5.7553    1.0000 </r>
       <r>   -5.7544    1.0000 </r>
       <r>   -2.4650    0.0000 </r>
       <r>   -0.8170    0.0000 </r>
       <r>    2.2212    0.0000 </r>
       <r>    2.7597    0.0000 </r>
       <r>    2.9980    0.0000 </r>
       <r>    3.6517    0.0000 </r>
       <r>    3.8211    0.0000 </r>
       <r>    4.0378    0.0000 </r>
       <r>    4.0616    0.0000 </r>
      </set>
      <set comment="kpoint 29">
       <r>  -18.5661    1.0000 </r>
       <r>  -17.4647    1.0000 </r>
       <r>  -17.0504    1.0000 </r>
       <r>  -13.3054    1.0000 </r>
       <r>  -12.5572    1.0000 </r>
       <r>  -10.7027    1.0000 </r>
       <r>   -8.8616    1.0000 </r>
       <r>   -8.3760    1.0000 </r>
       <r>   -7.7065    1.0000 </r>
       <r>   -7.4707    1.0000 </r>
       <r>   -7.1143    1.0000 </r>
       <r>   -6.7634    1.0000 </r>
       <r>   -6.4787    1.0000 </r>
       <r>   -6.2118    1.0000 </r>
       <r>   -5.9462    1.0000 </r>
       <r>   -2.1785    0.0000 </r>
       <r>   -1.0442    0.0000 </r>
       <r>    2.7307    0.0000 </r>
       <r>    3.1156    0.0000 </r>
       <r>    3.3406    0.0000 </r>
       <r>    3.5282    0.0000 </r>
       <r>    3.9496    0.0000 </r>
       <r>    4.0880    0.0000 </r>
       <r>    4.1698    0.0000 </r>
      </set>
      <set comment="kpoint 30">
       <r>  -18.5662    1.0000 </r>
       <r>  -17.4649    1.0000 </r>
       <r>  -17.0502    1.0000 </r>
       <r>  -13.3047    1.0000 </r>
       <r>  -12.5576    1.0000 </r>
       <r>  -10.7031    1.0000 </r>
       <r>   -8.8626    1.0000 </r>
       <r>   -8.3769    1.0000 </r>
       <r>   -7.7055    1.0000 </r>
       <r>   -7.4699    1.0000 </r>
       <r>   -7.1146    1.0000 </r>
       <r>   -6.7623    1.0000 </r>
       <r>   -6.4785    1.0000 </r>
       <r>   -6.2126    1.0000 </r>
       <r>   -5.9462    1.0000 </r>
       <r>   -2.1775    0.0000 </r>
       <r>   -1.0450    0.0000 </r>
       <r>    2.7302    0.0000 </r>
       <r>    3.1154    0.0000 </r>
       <r>    3.3412    0.0000 </r>
       <r>    3.5278    0.0000 </r>
       <r>    3.9495    0.0000 </r>
       <r>    4.0882    0.0000 </r>
       <r>    4.1693    0.0000 </r>
      </set>
      <set comment="kpoint 31">
       <r>  -18.7295    1.0000 </r>
       <r>  -17.3006    1.0000 </r>
       <r>  -16.8820    1.0000 </r>
       <r>  -13.4426    1.0000 </r>
       <r>  -12.7471    1.0000 </r>
       <r>  -10.2701    1.0000 </r>
       <r>   -9.3762    1.0000 </r>
       <r>   -9.0941    1.0000 </r>
       <r>   -7.4786    1.0000 </r>
       <r>   -7.4628    1.0000 </r>
       <r>   -6.9938    1.0000 </r>
       <r>   -6.7159    1.0000 </r>
       <r>   -6.0998    1.0000 </r>
       <r>   -5.7558    1.0000 </r>
       <r>   -5.7540    1.0000 </r>
       <r>   -2.4631    0.0000 </r>
       <r>   -0.8183    0.0000 </r>
       <r>    2.2208    0.0000 </r>
       <r>    2.7591    0.0000 </r>
       <r>    2.9976    0.0000 </r>
       <r>    3.6513    0.0000 </r>
       <r>    3.8203    0.0000 </r>
       <r>    4.0380    0.0000 </r>
       <r>    4.0617    0.0000 </r>
      </set>
      <set comment="kpoint 32">
       <r>  -18.9311    1.0000 </r>
       <r>  -17.1089    1.0000 </r>
       <r>  -16.5552    1.0000 </r>
       <r>  -13.7701    1.0000 </r>
       <r>  -12.8083    1.0000 </r>
       <r>  -10.2174    1.0000 </r>
       <r>   -9.7009    1.0000 </r>
       <r>   -9.5501    1.0000 </r>
       <r>   -7.8072    1.0000 </r>
       <r>   -7.5310    1.0000 </r>
       <r>   -6.7603    1.0000 </r>
       <r>   -6.1301    1.0000 </r>
       <r>   -5.8574    1.0000 </r>
       <r>   -5.2761    1.0000 </r>
       <r>   -5.2433    1.0000 </r>
       <r>   -2.8505    0.0000 </r>
       <r>   -0.5259    0.0000 </r>
       <r>    1.8121    0.0000 </r>
       <r>    2.0750    0.0000 </r>
       <r>    2.5870    0.0000 </r>
       <r>    3.2370    0.0000 </r>
       <r>    3.2996    0.0000 </r>
       <r>    4.2486    0.0000 </r>
       <r>    4.8566    0.0000 </r>
      </set>
      <set comment="kpoint 33">
       <r>  -19.1050    1.0000 </r>
       <r>  -16.8980    1.0000 </r>
       <r>  -16.1929    1.0000 </r>
       <r>  -14.0981    1.0000 </r>
       <r>  -12.8031    1.0000 </r>
       <r>  -10.8998    1.0000 </r>
       <r>  -10.1962    1.0000 </r>
       <r>   -9.0134    1.0000 </r>
       <r>   -8.0615    1.0000 </r>
       <r>   -7.6058    1.0000 </r>
       <r>   -6.5559    1.0000 </r>
       <r>   -5.6246    1.0000 </r>
       <r>   -5.5964    1.0000 </r>
       <r>   -4.8049    1.0000 </r>
       <r>   -4.7516    1.0000 </r>
       <r>   -3.2058    0.0000 </r>
       <r>   -0.2596    0.0000 </r>
       <r>    1.3192    0.0000 </r>
       <r>    1.5049    0.0000 </r>
       <r>    2.2565    0.0000 </r>
       <r>    2.8447    0.0000 </r>
       <r>    2.9260    0.0000 </r>
       <r>    4.5475    0.0000 </r>
       <r>    4.8579    0.0000 </r>
      </set>
      <set comment="kpoint 34">
       <r>  -19.2279    1.0000 </r>
       <r>  -16.6589    1.0000 </r>
       <r>  -15.9802    1.0000 </r>
       <r>  -14.1972    1.0000 </r>
       <r>  -12.9258    1.0000 </r>
       <r>  -11.3516    1.0000 </r>
       <r>  -10.6470    1.0000 </r>
       <r>   -8.6292    1.0000 </r>
       <r>   -8.2335    1.0000 </r>
       <r>   -7.4755    1.0000 </r>
       <r>   -6.5241    1.0000 </r>
       <r>   -5.3511    1.0000 </r>
       <r>   -5.1598    1.0000 </r>
       <r>   -4.5312    1.0000 </r>
       <r>   -4.4740    1.0000 </r>
       <r>   -3.3183    0.0000 </r>
       <r>   -0.1868    0.0000 </r>
       <r>    0.8049    0.0000 </r>
       <r>    1.3000    0.0000 </r>
       <r>    1.9787    0.0000 </r>
       <r>    2.4854    0.0000 </r>
       <r>    2.7186    0.0000 </r>
       <r>    4.6557    0.0000 </r>
       <r>    4.8975    0.0000 </r>
      </set>
      <set comment="kpoint 35">
       <r>  -18.5022    1.0000 </r>
       <r>  -17.3308    1.0000 </r>
       <r>  -17.3297    1.0000 </r>
       <r>  -12.8613    1.0000 </r>
       <r>  -12.8586    1.0000 </r>
       <r>  -10.9110    1.0000 </r>
       <r>   -8.1942    1.0000 </r>
       <r>   -8.1932    1.0000 </r>
       <r>   -8.0602    1.0000 </r>
       <r>   -7.5374    1.0000 </r>
       <r>   -6.9159    1.0000 </r>
       <r>   -6.6836    1.0000 </r>
       <r>   -6.6830    1.0000 </r>
       <r>   -6.3647    1.0000 </r>
       <r>   -6.3640    1.0000 </r>
       <r>   -1.6023    0.0000 </r>
       <r>   -1.6001    0.0000 </r>
       <r>    3.2768    0.0000 </r>
       <r>    3.2773    0.0000 </r>
       <r>    3.3174    0.0000 </r>
       <r>    3.4335    0.0000 </r>
       <r>    4.0291    0.0000 </r>
       <r>    4.0298    0.0000 </r>
       <r>    4.1274    0.0000 </r>
      </set>
      <set comment="kpoint 36">
       <r>  -18.5662    1.0000 </r>
       <r>  -17.4656    1.0000 </r>
       <r>  -17.0494    1.0000 </r>
       <r>  -13.3033    1.0000 </r>
       <r>  -12.5592    1.0000 </r>
       <r>  -10.7030    1.0000 </r>
       <r>   -8.8631    1.0000 </r>
       <r>   -8.3773    1.0000 </r>
       <r>   -7.7061    1.0000 </r>
       <r>   -7.4699    1.0000 </r>
       <r>   -7.1147    1.0000 </r>
       <r>   -6.7618    1.0000 </r>
       <r>   -6.4792    1.0000 </r>
       <r>   -6.2117    1.0000 </r>
       <r>   -5.9454    1.0000 </r>
       <r>   -2.1765    0.0000 </r>
       <r>   -1.0460    0.0000 </r>
       <r>    2.7301    0.0000 </r>
       <r>    3.1153    0.0000 </r>
       <r>    3.3404    0.0000 </r>
       <r>    3.5276    0.0000 </r>
       <r>    3.9504    0.0000 </r>
       <r>    4.0874    0.0000 </r>
       <r>    4.1692    0.0000 </r>
      </set>
      <set comment="kpoint 37">
       <r>  -18.7166    1.0000 </r>
       <r>  -17.4531    1.0000 </r>
       <r>  -16.6815    1.0000 </r>
       <r>  -13.7910    1.0000 </r>
       <r>  -12.3862    1.0000 </r>
       <r>  -10.2133    1.0000 </r>
       <r>   -9.6039    1.0000 </r>
       <r>   -8.8279    1.0000 </r>
       <r>   -7.9345    1.0000 </r>
       <r>   -7.4418    1.0000 </r>
       <r>   -6.9540    1.0000 </r>
       <r>   -6.5226    1.0000 </r>
       <r>   -6.3876    1.0000 </r>
       <r>   -5.6607    1.0000 </r>
       <r>   -5.4057    1.0000 </r>
       <r>   -2.7448    0.0000 </r>
       <r>   -0.5316    0.0000 </r>
       <r>    2.2711    0.0000 </r>
       <r>    2.4370    0.0000 </r>
       <r>    3.0958    0.0000 </r>
       <r>    3.4903    0.0000 </r>
       <r>    3.7031    0.0000 </r>
       <r>    3.9804    0.0000 </r>
       <r>    4.4929    0.0000 </r>
      </set>
      <set comment="kpoint 38">
       <r>  -18.8819    1.0000 </r>
       <r>  -17.3319    1.0000 </r>
       <r>  -16.3176    1.0000 </r>
       <r>  -14.1906    1.0000 </r>
       <r>  -12.3073    1.0000 </r>
       <r>  -10.3511    1.0000 </r>
       <r>   -9.5920    1.0000 </r>
       <r>   -9.3071    1.0000 </r>
       <r>   -8.1068    1.0000 </r>
       <r>   -7.7249    1.0000 </r>
       <r>   -6.4446    1.0000 </r>
       <r>   -6.3381    1.0000 </r>
       <r>   -6.2006    1.0000 </r>
       <r>   -5.1945    1.0000 </r>
       <r>   -4.8612    1.0000 </r>
       <r>   -3.2460    0.0000 </r>
       <r>   -0.1020    0.0000 </r>
       <r>    1.7119    0.0000 </r>
       <r>    1.9134    0.0000 </r>
       <r>    2.7394    0.0000 </r>
       <r>    3.3398    0.0000 </r>
       <r>    3.6306    0.0000 </r>
       <r>    3.7417    0.0000 </r>
       <r>    4.6724    0.0000 </r>
      </set>
      <set comment="kpoint 39">
       <r>  -19.0180    1.0000 </r>
       <r>  -17.1355    1.0000 </r>
       <r>  -16.1173    1.0000 </r>
       <r>  -14.3281    1.0000 </r>
       <r>  -12.4150    1.0000 </r>
       <r>  -10.8124    1.0000 </r>
       <r>   -9.7930    1.0000 </r>
       <r>   -9.1504    1.0000 </r>
       <r>   -8.0183    1.0000 </r>
       <r>   -7.9342    1.0000 </r>
       <r>   -6.3439    1.0000 </r>
       <r>   -5.9734    1.0000 </r>
       <r>   -5.9399    1.0000 </r>
       <r>   -4.9033    1.0000 </r>
       <r>   -4.5529    1.0000 </r>
       <r>   -3.4671    0.0000 </r>
       <r>    0.0549    0.0000 </r>
       <r>    1.2403    0.0000 </r>
       <r>    1.6579    0.0000 </r>
       <r>    2.4655    0.0000 </r>
       <r>    3.0810    0.0000 </r>
       <r>    3.2101    0.0000 </r>
       <r>    4.0935    0.0000 </r>
       <r>    4.9494    0.0000 </r>
      </set>
      <set comment="kpoint 40">
       <r>  -18.6048    1.0000 </r>
       <r>  -17.6126    1.0000 </r>
       <r>  -16.7215    1.0000 </r>
       <r>  -13.8043    1.0000 </r>
       <r>  -12.1620    1.0000 </r>
       <r>  -10.4625    1.0000 </r>
       <r>   -9.3389    1.0000 </r>
       <r>   -8.3626    1.0000 </r>
       <r>   -7.8607    1.0000 </r>
       <r>   -7.7243    1.0000 </r>
       <r>   -7.1434    1.0000 </r>
       <r>   -6.7472    1.0000 </r>
       <r>   -6.3380    1.0000 </r>
       <r>   -5.9104    1.0000 </r>
       <r>   -5.4459    1.0000 </r>
       <r>   -2.7092    0.0000 </r>
       <r>   -0.5282    0.0000 </r>
       <r>    2.5624    0.0000 </r>
       <r>    2.8143    0.0000 </r>
       <r>    2.8476    0.0000 </r>
       <r>    3.6182    0.0000 </r>
       <r>    3.6806    0.0000 </r>
       <r>    4.2646    0.0000 </r>
       <r>    4.2780    0.0000 </r>
      </set>
      <set comment="kpoint 41">
       <r>  -18.6883    1.0000 </r>
       <r>  -17.6365    1.0000 </r>
       <r>  -16.3813    1.0000 </r>
       <r>  -14.2413    1.0000 </r>
       <r>  -11.9162    1.0000 </r>
       <r>  -10.0458    1.0000 </r>
       <r>   -9.8476    1.0000 </r>
       <r>   -8.7455    1.0000 </r>
       <r>   -8.2153    1.0000 </r>
       <r>   -7.3499    1.0000 </r>
       <r>   -7.3409    1.0000 </r>
       <r>   -6.7141    1.0000 </r>
       <r>   -6.0898    1.0000 </r>
       <r>   -5.5368    1.0000 </r>
       <r>   -4.9179    1.0000 </r>
       <r>   -3.2668    0.0000 </r>
       <r>   -0.0023    0.0000 </r>
       <r>    1.9239    0.0000 </r>
       <r>    2.4223    0.0000 </r>
       <r>    3.0329    0.0000 </r>
       <r>    3.2601    0.0000 </r>
       <r>    3.8231    0.0000 </r>
       <r>    3.8569    0.0000 </r>
       <r>    4.4763    0.0000 </r>
      </set>
      <set comment="kpoint 42">
       <r>  -18.7932    1.0000 </r>
       <r>  -17.5299    1.0000 </r>
       <r>  -16.2048    1.0000 </r>
       <r>  -14.4123    1.0000 </r>
       <r>  -11.9405    1.0000 </r>
       <r>  -10.2708    1.0000 </r>
       <r>   -9.6497    1.0000 </r>
       <r>   -8.9865    1.0000 </r>
       <r>   -8.4600    1.0000 </r>
       <r>   -7.5642    1.0000 </r>
       <r>   -6.8777    1.0000 </r>
       <r>   -6.5019    1.0000 </r>
       <r>   -6.0964    1.0000 </r>
       <r>   -5.2736    1.0000 </r>
       <r>   -4.6072    1.0000 </r>
       <r>   -3.5536    0.0020 </r>
       <r>    0.2371    0.0000 </r>
       <r>    1.5263    0.0000 </r>
       <r>    2.1166    0.0000 </r>
       <r>    2.9569    0.0000 </r>
       <r>    3.3354    0.0000 </r>
       <r>    3.5469    0.0000 </r>
       <r>    3.9234    0.0000 </r>
       <r>    4.4362    0.0000 </r>
      </set>
      <set comment="kpoint 43">
       <r>  -18.6726    1.0000 </r>
       <r>  -17.7083    1.0000 </r>
       <r>  -16.2347    1.0000 </r>
       <r>  -14.4411    1.0000 </r>
       <r>  -11.7132    1.0000 </r>
       <r>   -9.9531    1.0000 </r>
       <r>   -9.8885    1.0000 </r>
       <r>   -9.0194    1.0000 </r>
       <r>   -7.8503    1.0000 </r>
       <r>   -7.7752    1.0000 </r>
       <r>   -7.2560    1.0000 </r>
       <r>   -6.8768    1.0000 </r>
       <r>   -5.9110    1.0000 </r>
       <r>   -5.5010    1.0000 </r>
       <r>   -4.6264    1.0000 </r>
       <r>   -3.5823    0.0066 </r>
       <r>    0.3051    0.0000 </r>
       <r>    1.6292    0.0000 </r>
       <r>    2.6574    0.0000 </r>
       <r>    2.6953    0.0000 </r>
       <r>    3.4816    0.0000 </r>
       <r>    3.5326    0.0000 </r>
       <r>    4.1060    0.0000 </r>
       <r>    4.1230    0.0000 </r>
      </set>
     </set>
    </set>
   </array>
  </eigenvalues>
  <separator name="orbital magnetization" >
   <v name="MAGDIPOLOUT">      0.00000000      0.00000000      0.00000000</v>
  </separator>
  <dos>
   <i name="efermi">     -3.75745133 </i>
   <total>
    <array>
     <dimension dim="1">gridpoints</dimension>
     <dimension dim="2">spin</dimension>
     <field>energy</field>
     <field>total</field>
     <field>integrated</field>
     <set>
      <set comment="spin 1">
       <r>   -20.7510     0.0000     0.0000 </r>
       <r>   -20.7239     0.0000     0.0000 </r>
       <r>   -20.6967     0.0000     0.0000 </r>
       <r>   -20.6696     0.0000     0.0000 </r>
       <r>   -20.6425     0.0000     0.0000 </r>
       <r>   -20.6154     0.0000     0.0000 </r>
       <r>   -20.5883     0.0000     0.0000 </r>
       <r>   -20.5611     0.0000     0.0000 </r>
       <r>   -20.5340     0.0000     0.0000 </r>
       <r>   -20.5069     0.0000     0.0000 </r>
       <r>   -20.4798     0.0000     0.0000 </r>
       <r>   -20.4527     0.0000     0.0000 </r>
       <r>   -20.4255     0.0000     0.0000 </r>
       <r>   -20.3984     0.0000     0.0000 </r>
       <r>   -20.3713     0.0000     0.0000 </r>
       <r>   -20.3442     0.0000     0.0000 </r>
       <r>   -20.3171     0.0000     0.0000 </r>
       <r>   -20.2899     0.0000     0.0000 </r>
       <r>   -20.2628     0.0000     0.0000 </r>
       <r>   -20.2357     0.0000     0.0000 </r>
       <r>   -20.2086     0.0000     0.0000 </r>
       <r>   -20.1815     0.0000     0.0000 </r>
       <r>   -20.1544     0.0000     0.0000 </r>
       <r>   -20.1272     0.0000     0.0000 </r>
       <r>   -20.1001     0.0000     0.0000 </r>
       <r>   -20.0730     0.0000     0.0000 </r>
       <r>   -20.0459     0.0000     0.0000 </r>
       <r>   -20.0188     0.0000     0.0000 </r>
       <r>   -19.9916     0.0000     0.0000 </r>
       <r>   -19.9645     0.0000     0.0000 </r>
       <r>   -19.9374     0.0000     0.0000 </r>
       <r>   -19.9103     0.0000     0.0000 </r>
       <r>   -19.8832     0.0000     0.0000 </r>
       <r>   -19.8560     0.0000     0.0000 </r>
       <r>   -19.8289     0.0000     0.0000 </r>
       <r>   -19.8018     0.0000     0.0000 </r>
       <r>   -19.7747     0.0001     0.0000 </r>
       <r>   -19.7476     0.0005     0.0000 </r>
       <r>   -19.7204     0.0019     0.0001 </r>
       <r>   -19.6933     0.0064     0.0002 </r>
       <r>   -19.6662     0.0185     0.0007 </r>
       <r>   -19.6391     0.0466     0.0020 </r>
       <r>   -19.6120     0.1036     0.0048 </r>
       <r>   -19.5849     0.2034     0.0103 </r>
       <r>   -19.5577     0.3551     0.0200 </r>
       <r>   -19.5306     0.5551     0.0350 </r>
       <r>   -19.5035     0.7847     0.0563 </r>
       <r>   -19.4764     1.0136     0.0838 </r>
       <r>   -19.4493     1.2106     0.1166 </r>
       <r>   -19.4221     1.3552     0.1534 </r>
       <r>   -19.3950     1.4462     0.1926 </r>
       <r>   -19.3679     1.5008     0.2333 </r>
       <r>   -19.3408     1.5420     0.2751 </r>
       <r>   -19.3137     1.5804     0.3180 </r>
       <r>   -19.2865     1.6060     0.3615 </r>
       <r>   -19.2594     1.6037     0.4050 </r>
       <r>   -19.2323     1.5778     0.4478 </r>
       <r>   -19.2052     1.5600     0.4901 </r>
       <r>   -19.1781     1.5854     0.5331 </r>
       <r>   -19.1509     1.6580     0.5781 </r>
       <r>   -19.1238     1.7391     0.6252 </r>
       <r>   -19.0967     1.7751     0.6734 </r>
       <r>   -19.0696     1.7427     0.7206 </r>
       <r>   -19.0425     1.6726     0.7660 </r>
       <r>   -19.0154     1.6301     0.8102 </r>
       <r>   -18.9882     1.6695     0.8555 </r>
       <r>   -18.9611     1.7954     0.9042 </r>
       <r>   -18.9340     1.9567     0.9572 </r>
       <r>   -18.9069     2.0784     1.0136 </r>
       <r>   -18.8798     2.1134     1.0709 </r>
       <r>   -18.8526     2.0797     1.1273 </r>
       <r>   -18.8255     2.0563     1.1831 </r>
       <r>   -18.7984     2.1335     1.2409 </r>
       <r>   -18.7713     2.3492     1.3046 </r>
       <r>   -18.7442     2.6534     1.3766 </r>
       <r>   -18.7170     2.9303     1.4560 </r>
       <r>   -18.6899     3.0659     1.5392 </r>
       <r>   -18.6628     3.0143     1.6209 </r>
       <r>   -18.6357     2.8117     1.6972 </r>
       <r>   -18.6086     2.5307     1.7658 </r>
       <r>   -18.5814     2.2212     1.8261 </r>
       <r>   -18.5543     1.8913     1.8773 </r>
       <r>   -18.5272     1.5331     1.9189 </r>
       <r>   -18.5001     1.1573     1.9503 </r>
       <r>   -18.4730     0.7997     1.9720 </r>
       <r>   -18.4459     0.5006     1.9856 </r>
       <r>   -18.4187     0.2825     1.9932 </r>
       <r>   -18.3916     0.1434     1.9971 </r>
       <r>   -18.3645     0.0654     1.9989 </r>
       <r>   -18.3374     0.0267     1.9996 </r>
       <r>   -18.3103     0.0097     1.9999 </r>
       <r>   -18.2831     0.0032     2.0000 </r>
       <r>   -18.2560     0.0009     2.0000 </r>
       <r>   -18.2289     0.0002     2.0000 </r>
       <r>   -18.2018     0.0001     2.0000 </r>
       <r>   -18.1747     0.0000     2.0000 </r>
       <r>   -18.1475     0.0000     2.0000 </r>
       <r>   -18.1204     0.0000     2.0000 </r>
       <r>   -18.0933     0.0000     2.0000 </r>
       <r>   -18.0662     0.0000     2.0000 </r>
       <r>   -18.0391     0.0000     2.0000 </r>
       <r>   -18.0119     0.0000     2.0000 </r>
       <r>   -17.9848     0.0001     2.0000 </r>
       <r>   -17.9577     0.0003     2.0000 </r>
       <r>   -17.9306     0.0010     2.0000 </r>
       <r>   -17.9035     0.0035     2.0001 </r>
       <r>   -17.8764     0.0106     2.0004 </r>
       <r>   -17.8492     0.0285     2.0012 </r>
       <r>   -17.8221     0.0679     2.0030 </r>
       <r>   -17.7950     0.1454     2.0070 </r>
       <r>   -17.7679     0.2806     2.0146 </r>
       <r>   -17.7408     0.4897     2.0279 </r>
       <r>   -17.7136     0.7734     2.0488 </r>
       <r>   -17.6865     1.1049     2.0788 </r>
       <r>   -17.6594     1.4294     2.1176 </r>
       <r>   -17.6323     1.6858     2.1633 </r>
       <r>   -17.6052     1.8440     2.2133 </r>
       <r>   -17.5780     1.9303     2.2656 </r>
       <r>   -17.5509     2.0115     2.3202 </r>
       <r>   -17.5238     2.1419     2.3783 </r>
       <r>   -17.4967     2.3145     2.4410 </r>
       <r>   -17.4696     2.4647     2.5079 </r>
       <r>   -17.4424     2.5251     2.5764 </r>
       <r>   -17.4153     2.4841     2.6437 </r>
       <r>   -17.3882     2.3873     2.7085 </r>
       <r>   -17.3611     2.2829     2.7704 </r>
       <r>   -17.3340     2.1687     2.8292 </r>
       <r>   -17.3069     1.9998     2.8834 </r>
       <r>   -17.2797     1.7500     2.9309 </r>
       <r>   -17.2526     1.4623     2.9705 </r>
       <r>   -17.2255     1.2392     3.0042 </r>
       <r>   -17.1984     1.1814     3.0362 </r>
       <r>   -17.1713     1.3224     3.0721 </r>
       <r>   -17.1441     1.6044     3.1156 </r>
       <r>   -17.1170     1.9050     3.1672 </r>
       <r>   -17.0899     2.0966     3.2241 </r>
       <r>   -17.0628     2.1066     3.2812 </r>
       <r>   -17.0357     1.9494     3.3341 </r>
       <r>   -17.0085     1.7158     3.3806 </r>
       <r>   -16.9814     1.5221     3.4219 </r>
       <r>   -16.9543     1.4456     3.4611 </r>
       <r>   -16.9272     1.4810     3.5013 </r>
       <r>   -16.9001     1.5516     3.5433 </r>
       <r>   -16.8729     1.5731     3.5860 </r>
       <r>   -16.8458     1.5227     3.6273 </r>
       <r>   -16.8187     1.4605     3.6669 </r>
       <r>   -16.7916     1.4811     3.7071 </r>
       <r>   -16.7645     1.6386     3.7515 </r>
       <r>   -16.7374     1.8992     3.8030 </r>
       <r>   -16.7102     2.1591     3.8616 </r>
       <r>   -16.6831     2.3080     3.9241 </r>
       <r>   -16.6560     2.2941     3.9864 </r>
       <r>   -16.6289     2.1450     4.0445 </r>
       <r>   -16.6018     1.9372     4.0971 </r>
       <r>   -16.5746     1.7447     4.1444 </r>
       <r>   -16.5475     1.6120     4.1881 </r>
       <r>   -16.5204     1.5625     4.2305 </r>
       <r>   -16.4933     1.6166     4.2743 </r>
       <r>   -16.4662     1.7877     4.3228 </r>
       <r>   -16.4390     2.0589     4.3786 </r>
       <r>   -16.4119     2.3719     4.4429 </r>
       <r>   -16.3848     2.6457     4.5147 </r>
       <r>   -16.3577     2.8140     4.5910 </r>
       <r>   -16.3306     2.8561     4.6685 </r>
       <r>   -16.3034     2.8061     4.7446 </r>
       <r>   -16.2763     2.7334     4.8187 </r>
       <r>   -16.2492     2.6987     4.8919 </r>
       <r>   -16.2221     2.7097     4.9654 </r>
       <r>   -16.1950     2.7145     5.0390 </r>
       <r>   -16.1678     2.6473     5.1108 </r>
       <r>   -16.1407     2.4916     5.1783 </r>
       <r>   -16.1136     2.3029     5.2408 </r>
       <r>   -16.0865     2.1664     5.2995 </r>
       <r>   -16.0594     2.1252     5.3572 </r>
       <r>   -16.0323     2.1383     5.4152 </r>
       <r>   -16.0051     2.1072     5.4723 </r>
       <r>   -15.9780     1.9515     5.5252 </r>
       <r>   -15.9509     1.6736     5.5706 </r>
       <r>   -15.9238     1.3632     5.6076 </r>
       <r>   -15.8967     1.1394     5.6385 </r>
       <r>   -15.8695     1.0762     5.6677 </r>
       <r>   -15.8424     1.1618     5.6992 </r>
       <r>   -15.8153     1.3113     5.7347 </r>
       <r>   -15.7882     1.4210     5.7733 </r>
       <r>   -15.7611     1.4263     5.8120 </r>
       <r>   -15.7339     1.3278     5.8480 </r>
       <r>   -15.7068     1.1726     5.8798 </r>
       <r>   -15.6797     1.0113     5.9072 </r>
       <r>   -15.6526     0.8669     5.9307 </r>
       <r>   -15.6255     0.7341     5.9506 </r>
       <r>   -15.5983     0.5994     5.9669 </r>
       <r>   -15.5712     0.4596     5.9793 </r>
       <r>   -15.5441     0.3244     5.9881 </r>
       <r>   -15.5170     0.2082     5.9938 </r>
       <r>   -15.4899     0.1205     5.9970 </r>
       <r>   -15.4628     0.0625     5.9987 </r>
       <r>   -15.4356     0.0289     5.9995 </r>
       <r>   -15.4085     0.0118     5.9998 </r>
       <r>   -15.3814     0.0043     6.0000 </r>
       <r>   -15.3543     0.0013     6.0000 </r>
       <r>   -15.3272     0.0004     6.0000 </r>
       <r>   -15.3000     0.0001     6.0000 </r>
       <r>   -15.2729     0.0000     6.0000 </r>
       <r>   -15.2458     0.0000     6.0000 </r>
       <r>   -15.2187     0.0000     6.0000 </r>
       <r>   -15.1916     0.0000     6.0000 </r>
       <r>   -15.1644     0.0000     6.0000 </r>
       <r>   -15.1373     0.0000     6.0000 </r>
       <r>   -15.1102     0.0000     6.0000 </r>
       <r>   -15.0831     0.0000     6.0000 </r>
       <r>   -15.0560     0.0000     6.0000 </r>
       <r>   -15.0288     0.0000     6.0000 </r>
       <r>   -15.0017     0.0000     6.0000 </r>
       <r>   -14.9746     0.0000     6.0000 </r>
       <r>   -14.9475     0.0000     6.0000 </r>
       <r>   -14.9204     0.0000     6.0000 </r>
       <r>   -14.8933     0.0000     6.0000 </r>
       <r>   -14.8661     0.0000     6.0000 </r>
       <r>   -14.8390     0.0000     6.0000 </r>
       <r>   -14.8119     0.0000     6.0000 </r>
       <r>   -14.7848     0.0000     6.0000 </r>
       <r>   -14.7577     0.0000     6.0000 </r>
       <r>   -14.7305     0.0000     6.0000 </r>
       <r>   -14.7034     0.0002     6.0000 </r>
       <r>   -14.6763     0.0008     6.0000 </r>
       <r>   -14.6492     0.0029     6.0001 </r>
       <r>   -14.6221     0.0092     6.0004 </r>
       <r>   -14.5949     0.0259     6.0011 </r>
       <r>   -14.5678     0.0633     6.0028 </r>
       <r>   -14.5407     0.1351     6.0064 </r>
       <r>   -14.5136     0.2526     6.0133 </r>
       <r>   -14.4865     0.4154     6.0246 </r>
       <r>   -14.4593     0.6055     6.0410 </r>
       <r>   -14.4322     0.7924     6.0625 </r>
       <r>   -14.4051     0.9503     6.0882 </r>
       <r>   -14.3780     1.0778     6.1175 </r>
       <r>   -14.3509     1.2046     6.1501 </r>
       <r>   -14.3238     1.3766     6.1875 </r>
       <r>   -14.2966     1.6274     6.2316 </r>
       <r>   -14.2695     1.9490     6.2845 </r>
       <r>   -14.2424     2.2832     6.3464 </r>
       <r>   -14.2153     2.5438     6.4154 </r>
       <r>   -14.1882     2.6647     6.4876 </r>
       <r>   -14.1610     2.6395     6.5592 </r>
       <r>   -14.1339     2.5223     6.6276 </r>
       <r>   -14.1068     2.3896     6.6924 </r>
       <r>   -14.0797     2.2962     6.7547 </r>
       <r>   -14.0526     2.2558     6.8159 </r>
       <r>   -14.0254     2.2509     6.8769 </r>
       <r>   -13.9983     2.2553     6.9381 </r>
       <r>   -13.9712     2.2541     6.9992 </r>
       <r>   -13.9441     2.2573     7.0604 </r>
       <r>   -13.9170     2.3023     7.1228 </r>
       <r>   -13.8898     2.4368     7.1889 </r>
       <r>   -13.8627     2.6823     7.2617 </r>
       <r>   -13.8356     2.9960     7.3429 </r>
       <r>   -13.8085     3.2631     7.4314 </r>
       <r>   -13.7814     3.3425     7.5221 </r>
       <r>   -13.7543     3.1443     7.6073 </r>
       <r>   -13.7271     2.6860     7.6802 </r>
       <r>   -13.7000     2.0852     7.7367 </r>
       <r>   -13.6729     1.4969     7.7773 </r>
       <r>   -13.6458     1.0423     7.8056 </r>
       <r>   -13.6187     0.7692     7.8264 </r>
       <r>   -13.5915     0.6559     7.8442 </r>
       <r>   -13.5644     0.6452     7.8617 </r>
       <r>   -13.5373     0.6834     7.8803 </r>
[...]
        <r>  0.0000  0.0000  0.0300  0.0000  0.0000  0.0000  0.0000  0.0000  0.0000 </r>
        <r>  0.0000  0.0000  0.0300  0.0000  0.0000  0.0000  0.0000  0.0000  0.0000 </r>
        <r>  0.0000  0.0000  0.0135  0.0000  0.0000  0.0000  0.0000  0.0000  0.0000 </r>
        <r>  0.0000  0.0000  0.0135  0.0000  0.0000  0.0000  0.0000  0.0000  0.0000 </r>
        <r>  0.0000  0.0000  0.0300  0.0000  0.0000  0.0000  0.0000  0.0000  0.0000 </r>
        <r>  0.0000  0.0000  0.0300  0.0000  0.0000  0.0000  0.0000  0.0000  0.0000 </r>
       </set>
      </set>
      <set comment="kpoint 43">
       <set comment="band 1">
        <r>  0.0101  0.0000  0.0000  0.0132  0.0000  0.0000  0.0000  0.0000  0.0000 </r>
        <r>  0.0101  0.0000  0.0000  0.0132  0.0000  0.0000  0.0000  0.0000  0.0000 </r>
        <r>  0.1035  0.0017  0.0000  0.0034  0.0000  0.0000  0.0000  0.0000  0.0000 </r>
        <r>  0.1035  0.0017  0.0000  0.0034  0.0000  0.0000  0.0000  0.0000  0.0000 </r>
        <r>  0.0659  0.0000  0.0000  0.0087  0.0000  0.0000  0.0000  0.0000  0.0000 </r>
        <r>  0.0659  0.0000  0.0000  0.0087  0.0000  0.0000  0.0000  0.0000  0.0000 </r>
        <r>  0.1035  0.0017  0.0000  0.0034  0.0000  0.0000  0.0000  0.0000  0.0000 </r>
        <r>  0.1035  0.0017  0.0000  0.0034  0.0000  0.0000  0.0000  0.0000  0.0000 </r>
       </set>
       <set comment="band 2">
        <r>  0.0669  0.0000  0.0000  0.0052  0.0000  0.0000  0.0000  0.0000  0.0000 </r>
        <r>  0.0669  0.0000  0.0000  0.0052  0.0000  0.0000  0.0000  0.0000  0.0000 </r>
        <r>  0.0413  0.0016  0.0000  0.0111  0.0000  0.0000  0.0000  0.0000  0.0000 </r>
        <r>  0.0413  0.0016  0.0000  0.0111  0.0000  0.0000  0.0000  0.0000  0.0000 </r>
        <r>  0.1445  0.0000  0.0000  0.0002  0.0000  0.0000  0.0000  0.0000  0.0000 </r>
        <r>  0.1445  0.0000  0.0000  0.0002  0.0000  0.0000  0.0000  0.0000  0.0000 </r>
        <r>  0.0413  0.0016  0.0000  0.0111  0.0000  0.0000  0.0000  0.0000  0.0000 </r>
        <r>  0.0413  0.0016  0.0000  0.0111  0.0000  0.0000  0.0000  0.0000  0.0000 </r>
       </set>
       <set comment="band 3">
        <r>  0.0000  0.0354  0.0000  0.0000  0.0000  0.0000  0.0000  0.0000  0.0000 </r>
        <r>  0.0000  0.0354  0.0000  0.0000  0.0000  0.0000  0.0000  0.0000  0.0000 </r>
        <r>  0.1307  0.0001  0.0000  0.0022  0.0000  0.0000  0.0000  0.0000  0.0000 </r>
        <r>  0.1307  0.0001  0.0000  0.0022  0.0000  0.0000  0.0000  0.0000  0.0000 </r>
        <r>  0.0000  0.0345  0.0000  0.0000  0.0000  0.0000  0.0000  0.0000  0.0000 </r>
        <r>  0.0000  0.0345  0.0000  0.0000  0.0000  0.0000  0.0000  0.0000  0.0000 </r>
        <r>  0.1307  0.0001  0.0000  0.0022  0.0000  0.0000  0.0000  0.0000  0.0000 </r>
        <r>  0.1307  0.0001  0.0000  0.0022  0.0000  0.0000  0.0000  0.0000  0.0000 </r>
       </set>
       <set comment="band 4">
        <r>  0.1069  0.0000  0.0000  0.0001  0.0000  0.0000  0.0000  0.0000  0.0000 </r>
        <r>  0.1069  0.0000  0.0000  0.0001  0.0000  0.0000  0.0000  0.0000  0.0000 </r>
        <r>  0.0096  0.0413  0.0000  0.0054  0.0000  0.0000  0.0000  0.0000  0.0000 </r>
        <r>  0.0096  0.0413  0.0000  0.0054  0.0000  0.0000  0.0000  0.0000  0.0000 </r>
        <r>  0.1191  0.0000  0.0000  0.0004  0.0000  0.0000  0.0000  0.0000  0.0000 </r>
        <r>  0.1191  0.0000  0.0000  0.0004  0.0000  0.0000  0.0000  0.0000  0.0000 </r>
        <r>  0.0096  0.0413  0.0000  0.0054  0.0000  0.0000  0.0000  0.0000  0.0000 </r>
        <r>  0.0096  0.0413  0.0000  0.0054  0.0000  0.0000  0.0000  0.0000  0.0000 </r>
       </set>
       <set comment="band 5">
        <r>  0.0000  0.0469  0.0000  0.0000  0.0000  0.0000  0.0000  0.0000  0.0000 </r>
        <r>  0.0000  0.0469  0.0000  0.0000  0.0000  0.0000  0.0000  0.0000  0.0000 </r>
        <r>  0.0973  0.0007  0.0000  0.0239  0.0000  0.0000  0.0000  0.0000  0.0000 </r>
        <r>  0.0973  0.0007  0.0000  0.0239  0.0000  0.0000  0.0000  0.0000  0.0000 </r>
        <r>  0.0000  0.0736  0.0000  0.0000  0.0000  0.0000  0.0000  0.0000  0.0000 </r>
        <r>  0.0000  0.0736  0.0000  0.0000  0.0000  0.0000  0.0000  0.0000  0.0000 </r>
        <r>  0.0973  0.0007  0.0000  0.0239  0.0000  0.0000  0.0000  0.0000  0.0000 </r>
        <r>  0.0973  0.0007  0.0000  0.0239  0.0000  0.0000  0.0000  0.0000  0.0000 </r>
       </set>
       <set comment="band 6">
        <r>  0.1218  0.0000  0.0000  0.0222  0.0000  0.0000  0.0000  0.0000  0.0000 </r>
        <r>  0.1218  0.0000  0.0000  0.0222  0.0000  0.0000  0.0000  0.0000  0.0000 </r>
        <r>  0.0035  0.0645  0.0000  0.0011  0.0000  0.0000  0.0000  0.0000  0.0000 </r>
        <r>  0.0035  0.0645  0.0000  0.0011  0.0000  0.0000  0.0000  0.0000  0.0000 </r>
        <r>  0.0570  0.0000  0.0000  0.0367  0.0000  0.0000  0.0000  0.0000  0.0000 </r>
        <r>  0.0570  0.0000  0.0000  0.0367  0.0000  0.0000  0.0000  0.0000  0.0000 </r>
        <r>  0.0035  0.0645  0.0000  0.0011  0.0000  0.0000  0.0000  0.0000  0.0000 </r>
        <r>  0.0035  0.0645  0.0000  0.0011  0.0000  0.0000  0.0000  0.0000  0.0000 </r>
       </set>
       <set comment="band 7">
        <r>  0.0000  0.0308  0.0000  0.0000  0.0000  0.0000  0.0000  0.0000  0.0000 </r>
        <r>  0.0000  0.0308  0.0000  0.0000  0.0000  0.0000  0.0000  0.0000  0.0000 </r>
        <r>  0.0060  0.0013  0.0000  0.1126  0.0000  0.0000  0.0000  0.0000  0.0000 </r>
        <r>  0.0060  0.0013  0.0000  0.1126  0.0000  0.0000  0.0000  0.0000  0.0000 </r>
        <r>  0.0000  0.0538  0.0000  0.0000  0.0000  0.0000  0.0000  0.0000  0.0000 </r>
        <r>  0.0000  0.0538  0.0000  0.0000  0.0000  0.0000  0.0000  0.0000  0.0000 </r>
        <r>  0.0060  0.0013  0.0000  0.1126  0.0000  0.0000  0.0000  0.0000  0.0000 </r>
        <r>  0.0060  0.0013  0.0000  0.1126  0.0000  0.0000  0.0000  0.0000  0.0000 </r>
       </set>
       <set comment="band 8">
        <r>  0.0010  0.0000  0.0000  0.1203  0.0000  0.0000  0.0000  0.0000  0.0000 </r>
        <r>  0.0010  0.0000  0.0000  0.1203  0.0000  0.0000  0.0000  0.0000  0.0000 </r>
        <r>  0.0002  0.0332  0.0000  0.0133  0.0000  0.0000  0.0000  0.0000  0.0000 </r>
        <r>  0.0002  0.0332  0.0000  0.0133  0.0000  0.0000  0.0000  0.0000  0.0000 </r>
        <r>  0.0357  0.0000  0.0000  0.1002  0.0000  0.0000  0.0000  0.0000  0.0000 </r>
        <r>  0.0357  0.0000  0.0000  0.1002  0.0000  0.0000  0.0000  0.0000  0.0000 </r>
        <r>  0.0002  0.0332  0.0000  0.0133  0.0000  0.0000  0.0000  0.0000  0.0000 </r>
        <r>  0.0002  0.0332  0.0000  0.0133  0.0000  0.0000  0.0000  0.0000  0.0000 </r>
       </set>
       <set comment="band 9">
        <r>  0.0044  0.0000  0.0000  0.1376  0.0000  0.0000  0.0000  0.0000  0.0000 </r>
        <r>  0.0044  0.0000  0.0000  0.1376  0.0000  0.0000  0.0000  0.0000  0.0000 </r>
        <r>  0.0467  0.0000  0.0000  0.0013  0.0000  0.0000  0.0000  0.0000  0.0000 </r>
        <r>  0.0467  0.0000  0.0000  0.0013  0.0000  0.0000  0.0000  0.0000  0.0000 </r>
        <r>  0.0121  0.0000  0.0000  0.1358  0.0000  0.0000  0.0000  0.0000  0.0000 </r>
        <r>  0.0121  0.0000  0.0000  0.1358  0.0000  0.0000  0.0000  0.0000  0.0000 </r>
        <r>  0.0467  0.0000  0.0000  0.0013  0.0000  0.0000  0.0000  0.0000  0.0000 </r>
        <r>  0.0467  0.0000  0.0000  0.0013  0.0000  0.0000  0.0000  0.0000  0.0000 </r>
       </set>
       <set comment="band 10">
        <r>  0.0938  0.0000  0.0000  0.0063  0.0000  0.0000  0.0000  0.0000  0.0000 </r>
        <r>  0.0938  0.0000  0.0000  0.0063  0.0000  0.0000  0.0000  0.0000  0.0000 </r>
        <r>  0.0003  0.0001  0.0000  0.1149  0.0000  0.0000  0.0000  0.0000  0.0000 </r>
        <r>  0.0003  0.0001  0.0000  0.1149  0.0000  0.0000  0.0000  0.0000  0.0000 </r>
        <r>  0.0061  0.0000  0.0000  0.0343  0.0000  0.0000  0.0000  0.0000  0.0000 </r>
        <r>  0.0061  0.0000  0.0000  0.0343  0.0000  0.0000  0.0000  0.0000  0.0000 </r>
        <r>  0.0003  0.0001  0.0000  0.1149  0.0000  0.0000  0.0000  0.0000  0.0000 </r>
        <r>  0.0003  0.0001  0.0000  0.1149  0.0000  0.0000  0.0000  0.0000  0.0000 </r>
       </set>
       <set comment="band 11">
        <r>  0.0000  0.0000  0.0149  0.0000  0.0000  0.0000  0.0000  0.0000  0.0000 </r>
        <r>  0.0000  0.0000  0.0149  0.0000  0.0000  0.0000  0.0000  0.0000  0.0000 </r>
        <r>  0.0000  0.0000  0.0783  0.0000  0.0000  0.0000  0.0000  0.0000  0.0000 </r>
        <r>  0.0000  0.0000  0.0783  0.0000  0.0000  0.0000  0.0000  0.0000  0.0000 </r>
        <r>  0.0000  0.0000  0.0400  0.0000  0.0000  0.0000  0.0000  0.0000  0.0000 </r>
        <r>  0.0000  0.0000  0.0400  0.0000  0.0000  0.0000  0.0000  0.0000  0.0000 </r>
        <r>  0.0000  0.0000  0.0783  0.0000  0.0000  0.0000  0.0000  0.0000  0.0000 </r>
        <r>  0.0000  0.0000  0.0783  0.0000  0.0000  0.0000  0.0000  0.0000  0.0000 </r>
       </set>
       <set comment="band 12">
        <r>  0.0000  0.0000  0.0608  0.0000  0.0000  0.0000  0.0000  0.0000  0.0000 </r>
        <r>  0.0000  0.0000  0.0608  0.0000  0.0000  0.0000  0.0000  0.0000  0.0000 </r>
        <r>  0.0000  0.0000  0.0312  0.0000  0.0000  0.0000  0.0000  0.0000  0.0000 </r>
        <r>  0.0000  0.0000  0.0312  0.0000  0.0000  0.0000  0.0000  0.0000  0.0000 </r>
        <r>  0.0000  0.0000  0.0928  0.0000  0.0000  0.0000  0.0000  0.0000  0.0000 </r>
        <r>  0.0000  0.0000  0.0928  0.0000  0.0000  0.0000  0.0000  0.0000  0.0000 </r>
        <r>  0.0000  0.0000  0.0312  0.0000  0.0000  0.0000  0.0000  0.0000  0.0000 </r>
        <r>  0.0000  0.0000  0.0312  0.0000  0.0000  0.0000  0.0000  0.0000  0.0000 </r>
       </set>
       <set comment="band 13">
        <r>  0.0000  0.0885  0.0000  0.0000  0.0000  0.0000  0.0000  0.0000  0.0000 </r>
        <r>  0.0000  0.0885  0.0000  0.0000  0.0000  0.0000  0.0000  0.0000  0.0000 </r>
        <r>  0.0001  0.1199  0.0000  0.0024  0.0000  0.0000  0.0000  0.0000  0.0000 </r>
        <r>  0.0001  0.1199  0.0000  0.0024  0.0000  0.0000  0.0000  0.0000  0.0000 </r>
        <r>  0.0000  0.0527  0.0000  0.0000  0.0000  0.0000  0.0000  0.0000  0.0000 </r>
        <r>  0.0000  0.0527  0.0000  0.0000  0.0000  0.0000  0.0000  0.0000  0.0000 </r>
        <r>  0.0001  0.1199  0.0000  0.0024  0.0000  0.0000  0.0000  0.0000  0.0000 </r>
        <r>  0.0001  0.1199  0.0000  0.0024  0.0000  0.0000  0.0000  0.0000  0.0000 </r>
       </set>
       <set comment="band 14">
        <r>  0.0000  0.1377  0.0000  0.0000  0.0000  0.0000  0.0000  0.0000  0.0000 </r>
        <r>  0.0000  0.1377  0.0000  0.0000  0.0000  0.0000  0.0000  0.0000  0.0000 </r>
        <r>  0.0029  0.0793  0.0000  0.0004  0.0000  0.0000  0.0000  0.0000  0.0000 </r>
        <r>  0.0029  0.0793  0.0000  0.0004  0.0000  0.0000  0.0000  0.0000  0.0000 </r>
        <r>  0.0000  0.1008  0.0000  0.0000  0.0000  0.0000  0.0000  0.0000  0.0000 </r>
        <r>  0.0000  0.1008  0.0000  0.0000  0.0000  0.0000  0.0000  0.0000  0.0000 </r>
        <r>  0.0029  0.0793  0.0000  0.0004  0.0000  0.0000  0.0000  0.0000  0.0000 </r>
        <r>  0.0029  0.0793  0.0000  0.0004  0.0000  0.0000  0.0000  0.0000  0.0000 </r>
       </set>
       <set comment="band 15">
        <r>  0.0000  0.0000  0.0000  0.0000  0.0000  0.0000  0.0000  0.0000  0.0000 </r>
        <r>  0.0000  0.0000  0.0000  0.0000  0.0000  0.0000  0.0000  0.0000  0.0000 </r>
        <r>  0.0000  0.0000  0.1149  0.0000  0.0000  0.0000  0.0000  0.0000  0.0000 </r>
        <r>  0.0000  0.0000  0.1149  0.0000  0.0000  0.0000  0.0000  0.0000  0.0000 </r>
        <r>  0.0000  0.0000  0.0000  0.0000  0.0000  0.0000  0.0000  0.0000  0.0000 </r>
        <r>  0.0000  0.0000  0.0000  0.0000  0.0000  0.0000  0.0000  0.0000  0.0000 </r>
        <r>  0.0000  0.0000  0.1149  0.0000  0.0000  0.0000  0.0000  0.0000  0.0000 </r>
        <r>  0.0000  0.0000  0.1149  0.0000  0.0000  0.0000  0.0000  0.0000  0.0000 </r>
       </set>
       <set comment="band 16">
        <r>  0.0000  0.0000  0.1038  0.0000  0.0000  0.0000  0.0000  0.0000  0.0000 </r>
        <r>  0.0000  0.0000  0.1038  0.0000  0.0000  0.0000  0.0000  0.0000  0.0000 </r>
        <r>  0.0000  0.0000  0.0031  0.0000  0.0000  0.0000  0.0000  0.0000  0.0000 </r>
        <r>  0.0000  0.0000  0.0031  0.0000  0.0000  0.0000  0.0000  0.0000  0.0000 </r>
        <r>  0.0000  0.0000  0.1268  0.0000  0.0000  0.0000  0.0000  0.0000  0.0000 </r>
        <r>  0.0000  0.0000  0.1268  0.0000  0.0000  0.0000  0.0000  0.0000  0.0000 </r>
        <r>  0.0000  0.0000  0.0031  0.0000  0.0000  0.0000  0.0000  0.0000  0.0000 </r>
        <r>  0.0000  0.0000  0.0031  0.0000  0.0000  0.0000  0.0000  0.0000  0.0000 </r>
       </set>
       <set comment="band 17">
        <r>  0.0000  0.0000  0.0000  0.0000  0.0000  0.0000  0.0000  0.0000  0.0000 </r>
        <r>  0.0000  0.0000  0.0000  0.0000  0.0000  0.0000  0.0000  0.0000  0.0000 </r>
        <r>  0.0000  0.0000  0.1333  0.0000  0.0000  0.0000  0.0000  0.0000  0.0000 </r>
        <r>  0.0000  0.0000  0.1333  0.0000  0.0000  0.0000  0.0000  0.0000  0.0000 </r>
        <r>  0.0000  0.0000  0.0000  0.0000  0.0000  0.0000  0.0000  0.0000  0.0000 </r>
        <r>  0.0000  0.0000  0.0000  0.0000  0.0000  0.0000  0.0000  0.0000  0.0000 </r>
        <r>  0.0000  0.0000  0.1333  0.0000  0.0000  0.0000  0.0000  0.0000  0.0000 </r>
        <r>  0.0000  0.0000  0.1333  0.0000  0.0000  0.0000  0.0000  0.0000  0.0000 </r>
       </set>
       <set comment="band 18">
        <r>  0.0000  0.0000  0.0950  0.0000  0.0000  0.0000  0.0000  0.0000  0.0000 </r>
        <r>  0.0000  0.0000  0.0950  0.0000  0.0000  0.0000  0.0000  0.0000  0.0000 </r>
        <r>  0.0000  0.0000  0.0082  0.0000  0.0000  0.0000  0.0000  0.0000  0.0000 </r>
        <r>  0.0000  0.0000  0.0082  0.0000  0.0000  0.0000  0.0000  0.0000  0.0000 </r>
        <r>  0.0000  0.0000  0.1516  0.0000  0.0000  0.0000  0.0000  0.0000  0.0000 </r>
        <r>  0.0000  0.0000  0.1516  0.0000  0.0000  0.0000  0.0000  0.0000  0.0000 </r>
        <r>  0.0000  0.0000  0.0082  0.0000  0.0000  0.0000  0.0000  0.0000  0.0000 </r>
        <r>  0.0000  0.0000  0.0082  0.0000  0.0000  0.0000  0.0000  0.0000  0.0000 </r>
       </set>
       <set comment="band 19">
        <r>  0.0011  0.0000  0.0000  0.0002  0.0000  0.0000  0.0000  0.0000  0.0000 </r>
        <r>  0.0011  0.0000  0.0000  0.0002  0.0000  0.0000  0.0000  0.0000  0.0000 </r>
        <r>  0.0019  0.0001  0.0000  0.0022  0.0000  0.0000  0.0000  0.0000  0.0000 </r>
        <r>  0.0019  0.0001  0.0000  0.0022  0.0000  0.0000  0.0000  0.0000  0.0000 </r>
        <r>  0.0019  0.0000  0.0000  0.0014  0.0000  0.0000  0.0000  0.0000  0.0000 </r>
        <r>  0.0019  0.0000  0.0000  0.0014  0.0000  0.0000  0.0000  0.0000  0.0000 </r>
        <r>  0.0019  0.0001  0.0000  0.0022  0.0000  0.0000  0.0000  0.0000  0.0000 </r>
        <r>  0.0019  0.0001  0.0000  0.0022  0.0000  0.0000  0.0000  0.0000  0.0000 </r>
       </set>
       <set comment="band 20">
        <r>  0.0007  0.0000  0.0000  0.0004  0.0000  0.0000  0.0000  0.0000  0.0000 </r>
        <r>  0.0007  0.0000  0.0000  0.0004  0.0000  0.0000  0.0000  0.0000  0.0000 </r>
        <r>  0.0039  0.0001  0.0000  0.0000  0.0000  0.0000  0.0000  0.0000  0.0000 </r>
        <r>  0.0039  0.0001  0.0000  0.0000  0.0000  0.0000  0.0000  0.0000  0.0000 </r>
        <r>  0.0007  0.0000  0.0000  0.0009  0.0000  0.0000  0.0000  0.0000  0.0000 </r>
        <r>  0.0007  0.0000  0.0000  0.0009  0.0000  0.0000  0.0000  0.0000  0.0000 </r>
        <r>  0.0039  0.0001  0.0000  0.0000  0.0000  0.0000  0.0000  0.0000  0.0000 </r>
        <r>  0.0039  0.0001  0.0000  0.0000  0.0000  0.0000  0.0000  0.0000  0.0000 </r>
       </set>
       <set comment="band 21">
        <r>  0.0000  0.0000  0.0017  0.0000  0.0000  0.0000  0.0000  0.0000  0.0000 </r>
        <r>  0.0000  0.0000  0.0017  0.0000  0.0000  0.0000  0.0000  0.0000  0.0000 </r>
        <r>  0.0000  0.0000  0.0199  0.0000  0.0000  0.0000  0.0000  0.0000  0.0000 </r>
        <r>  0.0000  0.0000  0.0199  0.0000  0.0000  0.0000  0.0000  0.0000  0.0000 </r>
        <r>  0.0000  0.0000  0.0000  0.0000  0.0000  0.0000  0.0000  0.0000  0.0000 </r>
        <r>  0.0000  0.0000  0.0000  0.0000  0.0000  0.0000  0.0000  0.0000  0.0000 </r>
        <r>  0.0000  0.0000  0.0199  0.0000  0.0000  0.0000  0.0000  0.0000  0.0000 </r>
        <r>  0.0000  0.0000  0.0199  0.0000  0.0000  0.0000  0.0000  0.0000  0.0000 </r>
       </set>
       <set comment="band 22">
        <r>  0.0000  0.0000  0.0013  0.0000  0.0000  0.0000  0.0000  0.0000  0.0000 </r>
        <r>  0.0000  0.0000  0.0013  0.0000  0.0000  0.0000  0.0000  0.0000  0.0000 </r>
        <r>  0.0000  0.0000  0.0069  0.0000  0.0000  0.0000  0.0000  0.0000  0.0000 </r>
        <r>  0.0000  0.0000  0.0069  0.0000  0.0000  0.0000  0.0000  0.0000  0.0000 </r>
        <r>  0.0000  0.0000  0.0007  0.0000  0.0000  0.0000  0.0000  0.0000  0.0000 </r>
        <r>  0.0000  0.0000  0.0007  0.0000  0.0000  0.0000  0.0000  0.0000  0.0000 </r>
        <r>  0.0000  0.0000  0.0069  0.0000  0.0000  0.0000  0.0000  0.0000  0.0000 </r>
        <r>  0.0000  0.0000  0.0069  0.0000  0.0000  0.0000  0.0000  0.0000  0.0000 </r>
       </set>
       <set comment="band 23">
        <r>  0.0001  0.0000  0.0000  0.0001  0.0000  0.0000  0.0000  0.0000  0.0000 </r>
        <r>  0.0001  0.0000  0.0000  0.0001  0.0000  0.0000  0.0000  0.0000  0.0000 </r>
        <r>  0.0008  0.0000  0.0000  0.0013  0.0000  0.0000  0.0000  0.0000  0.0000 </r>
        <r>  0.0008  0.0000  0.0000  0.0013  0.0000  0.0000  0.0000  0.0000  0.0000 </r>
        <r>  0.0003  0.0000  0.0000  0.0005  0.0000  0.0000  0.0000  0.0000  0.0000 </r>
        <r>  0.0003  0.0000  0.0000  0.0005  0.0000  0.0000  0.0000  0.0000  0.0000 </r>
        <r>  0.0008  0.0000  0.0000  0.0013  0.0000  0.0000  0.0000  0.0000  0.0000 </r>
        <r>  0.0008  0.0000  0.0000  0.0013  0.0000  0.0000  0.0000  0.0000  0.0000 </r>
       </set>
       <set comment="band 24">
        <r>  0.0002  0.0000  0.0000  0.0001  0.0000  0.0000  0.0000  0.0000  0.0000 </r>
        <r>  0.0002  0.0000  0.0000  0.0001  0.0000  0.0000  0.0000  0.0000  0.0000 </r>
        <r>  0.0015  0.0000  0.0000  0.0000  0.0000  0.0000  0.0000  0.0000  0.0000 </r>
        <r>  0.0015  0.0000  0.0000  0.0000  0.0000  0.0000  0.0000  0.0000  0.0000 </r>
        <r>  0.0002  0.0000  0.0000  0.0002  0.0000  0.0000  0.0000  0.0000  0.0000 </r>
        <r>  0.0002  0.0000  0.0000  0.0002  0.0000  0.0000  0.0000  0.0000  0.0000 </r>
        <r>  0.0015  0.0000  0.0000  0.0000  0.0000  0.0000  0.0000  0.0000  0.0000 </r>
        <r>  0.0015  0.0000  0.0000  0.0000  0.0000  0.0000  0.0000  0.0000  0.0000 </r>
       </set>
      </set>
     </set>
    </set>
   </array>
  </projected>
 </calculation>
 <structure name="finalpos" >
  <crystal>
   <varray name="basis" >
    <v>       4.47300000       2.58200000       0.00000000 </v>
    <v>      -4.47300000       2.58200000       0.00000000 </v>
    <v>       0.00000000       0.00000000      15.00000000 </v>
   </varray>
   <i name="volume">    346.47858000 </i>
   <varray name="rec_basis" >
    <v>       0.11178180       0.19364833       0.00000000 </v>
    <v>      -0.11178180       0.19364833       0.00000000 </v>
    <v>       0.00000000       0.00000000       0.06666667 </v>
   </varray>
  </crystal>
  <varray name="positions" >
   <v>       0.33333300       0.66666600       0.25000000 </v>
   <v>       0.66666600       0.33333300       0.25000000 </v>
   <v>       0.16666600       0.33333300       0.25000000 </v>
   <v>       0.33333300       0.16666600       0.25000000 </v>
   <v>       0.16666600       0.83333300       0.25000000 </v>
   <v>       0.83333300       0.16666600       0.25000000 </v>
   <v>       0.66666600       0.83333300       0.25000000 </v>
   <v>       0.83333300       0.66666600       0.25000000 </v>
  </varray>
 </structure>
</modeling>
