 running on   12 total cores
 distrk:  each k-point on   12 cores,    1 groups
 distr:  one band on    1 cores,   12 groups
 using from now: INCAR     
 vasp.5.4.4.18Apr17-6-g9f103f2a35 (build Mar 30 2023 15:39:25) complex          
  
 POSCAR found type information on POSCAR  B  C 
 POSCAR found :  2 types and       8 ions
 scaLAPACK will be used

 ----------------------------------------------------------------------------- 
|                                                                             |
|           W    W    AA    RRRRR   N    N  II  N    N   GGGG   !!!           |
|           W    W   A  A   R    R  NN   N  II  NN   N  G    G  !!!           |
|           W    W  A    A  R    R  N N  N  II  N N  N  G       !!!           |
|           W WW W  AAAAAA  RRRRR   N  N N  II  N  N N  G  GGG   !            |
|           WW  WW  A    A  R   R   N   NN  II  N   NN  G    G                |
|           W    W  A    A  R    R  N    N  II  N    N   GGGG   !!!           |
|                                                                             |
|      For optimal performance we recommend to set                            |
|        NCORE= 4 - approx SQRT( number of cores)                             |
|      NCORE specifies how many cores store one orbital (NPAR=cpu/NCORE).     |
|      This setting can  greatly improve the performance of VASP for DFT.     |
|      The default,   NCORE=1            might be grossly inefficient         |
|      on modern multi-core architectures or massively parallel machines.     |
|      Do your own testing !!!!                                               |
|      Unfortunately you need to use the default for GW and RPA calculations. |
|      (for HF NCORE is supported but not extensively tested yet)             |
|                                                                             |
 ----------------------------------------------------------------------------- 

 LDA part: xc-table for Pade appr. of Perdew
 WARNING: stress and forces are not correct
 POSCAR, INCAR and KPOINTS ok, starting setup
 FFT: planning ...
 WAVECAR not read
 charge-density read from file: BC3                                     
 WARNING: random wavefunctions but no delay for mixing, default for NELMDL
 entering main loop
       N       E                     dE             d eps       ncg     rms          rms(c)
DAV:   1     0.171387799239E+03    0.17139E+03   -0.98561E+03  2064   0.824E+02
DAV:   2    -0.399385465613E+02   -0.21133E+03   -0.19399E+03  3516   0.167E+02
DAV:   3    -0.657000844412E+02   -0.25762E+02   -0.25522E+02  2352   0.724E+01
DAV:   4    -0.662841650007E+02   -0.58408E+00   -0.58336E+00  2712   0.133E+01
DAV:   5    -0.663004436317E+02   -0.16279E-01   -0.16270E-01  2700   0.203E+00
DAV:   6    -0.663011801824E+02   -0.73655E-03   -0.73653E-03  3192   0.434E-01
DAV:   7    -0.663011917082E+02   -0.11526E-04   -0.11525E-04  2904   0.418E-02
DAV:   8    -0.663011920135E+02   -0.30530E-06   -0.30552E-06  2820   0.558E-03
   1 F= -.66301192E+02 E0= -.66301102E+02  d E =-.179944E-03
 writing wavefunctions
