 vasp.5.4.4.18Apr17-6-g9f103f2a35 (build Mar 30 2023 15:39:25) complex          
  
 executed on             LinuxIFC date 2023.05.02  16:59:11
 running on   12 total cores
 distrk:  each k-point on   12 cores,    1 groups
 distr:  one band on NCORES_PER_BAND=   1 cores,   12 groups


--------------------------------------------------------------------------------------------------------


 INCAR:
 POTCAR:    PAW_PBE Si 05Jan2001                  

 ----------------------------------------------------------------------------- 
|                                                                             |
|           W    W    AA    RRRRR   N    N  II  N    N   GGGG   !!!           |
|           W    W   A  A   R    R  NN   N  II  NN   N  G    G  !!!           |
|           W    W  A    A  R    R  N N  N  II  N N  N  G       !!!           |
|           W WW W  AAAAAA  RRRRR   N  N N  II  N  N N  G  GGG   !            |
|           WW  WW  A    A  R   R   N   NN  II  N   NN  G    G                |
|           W    W  A    A  R    R  N    N  II  N    N   GGGG   !!!           |
|                                                                             |
|      For optimal performance we recommend to set                            |
|        NCORE= 4 - approx SQRT( number of cores)                             |
|      NCORE specifies how many cores store one orbital (NPAR=cpu/NCORE).     |
|      This setting can  greatly improve the performance of VASP for DFT.     |
|      The default,   NCORE=1            might be grossly inefficient         |
|      on modern multi-core architectures or massively parallel machines.     |
|      Do your own testing !!!!                                               |
|      Unfortunately you need to use the default for GW and RPA calculations. |
|      (for HF NCORE is supported but not extensively tested yet)             |
|                                                                             |
 ----------------------------------------------------------------------------- 

 POTCAR:    PAW_PBE Si 05Jan2001                  
   SHA256 =  79d9987ad8750f624c4d6acb2a16d13abf6a777132adc04dc6c8399be72b42bb Si
   COPYR  = (c) Copyright 05Jan2001 Georg Kresse                                
   COPYR  = This file is part of the software VASP. Any use, copying, and all ot
   COPYR  = If you do not have a valid VASP license, you may not use, copy or di
   VRHFIN =Si: s2p2                                                             
   LEXCH  = PE                                                                  
   EATOM  =   103.0669 eV,    7.5752 Ry                                         
                                                                                
   TITEL  = PAW_PBE Si 05Jan2001                                                
   LULTRA =        F    use ultrasoft PP ?                                      
   IUNSCR =        1    unscreen: 0-lin 1-nonlin 2-no                           
   RPACOR =    1.500    partial core radius                                     
   POMASS =   28.085; ZVAL   =    4.000    mass and valenz                      
   RCORE  =    1.900    outmost cutoff radius                                   
   RWIGS  =    2.480; RWIGS  =    1.312    wigner-seitz radius (au A)           
   ENMAX  =  245.345; ENMIN  =  184.009 eV                                      
   ICORE  =        2    local potential                                         
   LCOR   =        T    correct aug charges                                     
   LPAW   =        T    paw PP                                                  
   EAUG   =  322.069                                                            
   DEXC   =    0.000                                                            
   RMAX   =    1.950    core radius for proj-oper                               
   RAUG   =    1.300    factor for augmentation sphere                          
   RDEP   =    1.993    radius for radial grids                                 
   RDEPT  =    1.837    core radius for aug-charge                              
                                                                                
   Atomic configuration                                                         
    6 entries                                                                   
     n  l   j            E        occ.                                          
     1  0  0.50     -1785.8828   2.0000                                         
     2  0  0.50      -139.4969   2.0000                                         
     2  1  1.50       -95.5546   6.0000                                         
     3  0  0.50       -10.8127   2.0000                                         
     3  1  0.50        -4.0811   2.0000                                         
     3  2  1.50        -4.0817   0.0000                                         
   Description                                                                  
     l       E           TYP  RCUT    TYP  RCUT                                 
     0    -10.8127223     23  1.900                                             
     0     -7.6451159     23  1.900                                             
     1     -4.0811372     23  1.900                                             
     1      2.4879257     23  1.900                                             
     2     -4.0817478      7  1.900                                             
  local pseudopotential read in
  partial core-charges read in
  partial kinetic energy density read in
  atomic valenz-charges read in
  non local Contribution for L=           0  read in
    real space projection operators read in
  non local Contribution for L=           0  read in
    real space projection operators read in
  non local Contribution for L=           1  read in
    real space projection operators read in
  non local Contribution for L=           1  read in
    real space projection operators read in
    PAW grid and wavefunctions read in
 
   number of l-projection  operators is LMAX  =           4
   number of lm-projection operators is LMMAX =           8
 
  PAW_PBE Si 05Jan2001                  :
 energy of atom  1       EATOM= -103.0669
 kinetic energy error for atom=    0.0061 (will be added to EATOM!!)
 
 
 POSCAR: cd:                                     
  positions in direct lattice
  No initial velocities read in
 exchange correlation table for  LEXCH =        8
   RHO(1)=    0.500       N(1)  =     2000
   RHO(2)=  100.500       N(2)  =     4000
 


--------------------------------------------------------------------------------------------------------


 ion  position               nearest neighbor table
   1  0.875  0.875  0.875-   2 2.38   2 2.38   2 2.38   2 2.38
   2  0.125  0.125  0.125-   1 2.38   1 2.38   1 2.38   1 2.38
 
  LATTYP: Found a face centered cubic cell.
 ALAT       =     5.5000000000
  
  Lattice vectors:
  
 A1 = (   0.0000000000,   2.7500000000,   2.7500000000)
 A2 = (   2.7500000000,   0.0000000000,   2.7500000000)
 A3 = (   2.7500000000,   2.7500000000,   0.0000000000)


Analysis of symmetry for initial positions (statically):
=====================================================================
 Subroutine PRICEL returns:
 Original cell was already a primitive cell.
 

 Routine SETGRP: Setting up the symmetry group for a 
 face centered cubic supercell.


 Subroutine GETGRP returns: Found 48 space group operations
 (whereof 12 operations were pure point group operations)
 out of a pool of 48 trial point group operations.


The static configuration has the point symmetry D_3d.
 The point group associated with its full space group is O_h .


Analysis of symmetry for dynamics (positions and initial velocities):
=====================================================================
 Subroutine PRICEL returns:
 Original cell was already a primitive cell.
 

 Routine SETGRP: Setting up the symmetry group for a 
 face centered cubic supercell.


 Subroutine GETGRP returns: Found 48 space group operations
 (whereof 12 operations were pure point group operations)
 out of a pool of 48 trial point group operations.


The dynamic configuration has the point symmetry D_3d.
 The point group associated with its full space group is O_h .


 Subroutine INISYM returns: Found 48 space group operations
 (whereof 12 operations are pure point group operations),
 and found     1 'primitive' translations

 
 
 KPOINTS: k-points                                

Automatic generation of k-mesh.
Space group operators:
 irot       det(A)        alpha          n_x          n_y          n_z        tau_x        tau_y        tau_z
    1     1.000000     0.000000     1.000000     0.000000     0.000000     0.000000     0.000000     0.000000
    2    -1.000000     0.000000     1.000000     0.000000     0.000000     0.000000     0.000000     0.000000
    3     1.000000   120.000000    -0.577350    -0.577350    -0.577350     0.000000     0.000000     0.000000
    4    -1.000000   120.000000    -0.577350    -0.577350    -0.577350     0.000000     0.000000     0.000000
    5     1.000000   120.000000     0.577350     0.577350     0.577350     0.000000     0.000000     0.000000
    6    -1.000000   120.000000     0.577350     0.577350     0.577350     0.000000     0.000000     0.000000
    7     1.000000   180.000000     0.000000    -0.707107     0.707107     0.000000     0.000000     0.000000
    8    -1.000000   180.000000     0.000000    -0.707107     0.707107     0.000000     0.000000     0.000000
    9     1.000000   180.000000     0.707107    -0.707107     0.000000     0.000000     0.000000     0.000000
   10    -1.000000   180.000000     0.707107    -0.707107     0.000000     0.000000     0.000000     0.000000
   11     1.000000   180.000000     0.707107     0.000000    -0.707107     0.000000     0.000000     0.000000
   12    -1.000000   180.000000     0.707107     0.000000    -0.707107     0.000000     0.000000     0.000000
   13     1.000000    90.000000     0.000000     0.000000    -1.000000     0.500000     0.000000     0.000000
   14    -1.000000    90.000000     0.000000     0.000000    -1.000000     0.500000     0.000000     0.000000
   15     1.000000   180.000000     0.000000     0.707107     0.707107     0.500000     0.000000     0.000000
   16    -1.000000   180.000000     0.000000     0.707107     0.707107     0.500000     0.000000     0.000000
   17     1.000000    90.000000     0.000000     1.000000     0.000000     0.500000     0.000000     0.000000
   18    -1.000000    90.000000     0.000000     1.000000     0.000000     0.500000     0.000000     0.000000
   19     1.000000   180.000000     0.000000     0.000000     1.000000     0.000000     0.000000     0.500000
   20    -1.000000   180.000000     0.000000     0.000000     1.000000     0.000000     0.000000     0.500000
   21     1.000000   120.000000    -0.577350     0.577350     0.577350     0.000000     0.000000     0.500000
   22    -1.000000   120.000000    -0.577350     0.577350     0.577350     0.000000     0.000000     0.500000
   23     1.000000   120.000000    -0.577350     0.577350    -0.577350     0.000000     0.000000     0.500000
   24    -1.000000   120.000000    -0.577350     0.577350    -0.577350     0.000000     0.000000     0.500000
   25     1.000000    90.000000     0.000000     0.000000     1.000000     0.000000     0.500000     0.000000
   26    -1.000000    90.000000     0.000000     0.000000     1.000000     0.000000     0.500000     0.000000
   27     1.000000    90.000000    -1.000000     0.000000     0.000000     0.000000     0.500000     0.000000
   28    -1.000000    90.000000    -1.000000     0.000000     0.000000     0.000000     0.500000     0.000000
   29     1.000000   180.000000     0.707107     0.000000     0.707107     0.000000     0.500000     0.000000
   30    -1.000000   180.000000     0.707107     0.000000     0.707107     0.000000     0.500000     0.000000
   31     1.000000   120.000000     0.577350    -0.577350     0.577350     0.500000     0.000000     0.000000
   32    -1.000000   120.000000     0.577350    -0.577350     0.577350     0.500000     0.000000     0.000000
   33     1.000000   120.000000    -0.577350    -0.577350     0.577350     0.500000     0.000000     0.000000
   34    -1.000000   120.000000    -0.577350    -0.577350     0.577350     0.500000     0.000000     0.000000
   35     1.000000   180.000000     1.000000     0.000000     0.000000     0.500000     0.000000     0.000000
   36    -1.000000   180.000000     1.000000     0.000000     0.000000     0.500000     0.000000     0.000000
   37     1.000000    90.000000     0.000000    -1.000000     0.000000     0.000000     0.000000     0.500000
   38    -1.000000    90.000000     0.000000    -1.000000     0.000000     0.000000     0.000000     0.500000
   39     1.000000   180.000000     0.707107     0.707107     0.000000     0.000000     0.000000     0.500000
   40    -1.000000   180.000000     0.707107     0.707107     0.000000     0.000000     0.000000     0.500000
   41     1.000000    90.000000     1.000000     0.000000     0.000000     0.000000     0.000000     0.500000
   42    -1.000000    90.000000     1.000000     0.000000     0.000000     0.000000     0.000000     0.500000
   43     1.000000   120.000000     0.577350    -0.577350    -0.577350     0.000000     0.500000     0.000000
   44    -1.000000   120.000000     0.577350    -0.577350    -0.577350     0.000000     0.500000     0.000000
   45     1.000000   180.000000     0.000000     1.000000     0.000000     0.000000     0.500000     0.000000
   46    -1.000000   180.000000     0.000000     1.000000     0.000000     0.000000     0.500000     0.000000
   47     1.000000   120.000000     0.577350     0.577350    -0.577350     0.000000     0.500000     0.000000
   48    -1.000000   120.000000     0.577350     0.577350    -0.577350     0.000000     0.500000     0.000000
 
 Subroutine IBZKPT returns following result:
 ===========================================
 
 Found    286 irreducible k-points:
 
 Following reciprocal coordinates:
            Coordinates               Weight
  0.000000  0.000000  0.000000      1.000000
  0.047619  0.000000  0.000000      8.000000
  0.095238  0.000000  0.000000      8.000000
  0.142857  0.000000  0.000000      8.000000
  0.190476  0.000000  0.000000      8.000000
  0.238095  0.000000  0.000000      8.000000
  0.285714  0.000000  0.000000      8.000000
  0.333333  0.000000  0.000000      8.000000
  0.380952  0.000000  0.000000      8.000000
  0.428571  0.000000  0.000000      8.000000
  0.476190  0.000000  0.000000      8.000000
  0.047619  0.047619  0.000000      6.000000
  0.095238  0.047619  0.000000     24.000000
  0.142857  0.047619  0.000000     24.000000
  0.190476  0.047619  0.000000     24.000000
  0.238095  0.047619  0.000000     24.000000
  0.285714  0.047619  0.000000     24.000000
  0.333333  0.047619  0.000000     24.000000
  0.380952  0.047619  0.000000     24.000000
  0.428571  0.047619  0.000000     24.000000
  0.476190  0.047619  0.000000     24.000000
 -0.476190  0.047619  0.000000     24.000000
 -0.428571  0.047619  0.000000     24.000000
 -0.380952  0.047619  0.000000     24.000000
 -0.333333  0.047619  0.000000     24.000000
 -0.285714  0.047619  0.000000     24.000000
 -0.238095  0.047619  0.000000     24.000000
 -0.190476  0.047619  0.000000     24.000000
 -0.142857  0.047619  0.000000     24.000000
 -0.095238  0.047619  0.000000     24.000000
 -0.047619  0.047619  0.000000     12.000000
  0.095238  0.095238  0.000000      6.000000
  0.142857  0.095238  0.000000     24.000000
  0.190476  0.095238  0.000000     24.000000
  0.238095  0.095238  0.000000     24.000000
  0.285714  0.095238  0.000000     24.000000
  0.333333  0.095238  0.000000     24.000000
  0.380952  0.095238  0.000000     24.000000
  0.428571  0.095238  0.000000     24.000000
  0.476190  0.095238  0.000000     24.000000
 -0.476190  0.095238  0.000000     24.000000
 -0.428571  0.095238  0.000000     24.000000
 -0.380952  0.095238  0.000000     24.000000
 -0.333333  0.095238  0.000000     24.000000
 -0.285714  0.095238  0.000000     24.000000
 -0.238095  0.095238  0.000000     24.000000
 -0.190476  0.095238  0.000000     24.000000
 -0.142857  0.095238  0.000000     24.000000
 -0.095238  0.095238  0.000000     12.000000
  0.142857  0.142857  0.000000      6.000000
  0.190476  0.142857  0.000000     24.000000
  0.238095  0.142857  0.000000     24.000000
  0.285714  0.142857  0.000000     24.000000
  0.333333  0.142857  0.000000     24.000000
  0.380952  0.142857  0.000000     24.000000
  0.428571  0.142857  0.000000     24.000000
  0.476190  0.142857  0.000000     24.000000
 -0.476190  0.142857  0.000000     24.000000
 -0.428571  0.142857  0.000000     24.000000
 -0.380952  0.142857  0.000000     24.000000
 -0.333333  0.142857  0.000000     24.000000
 -0.285714  0.142857  0.000000     24.000000
 -0.238095  0.142857  0.000000     24.000000
 -0.190476  0.142857  0.000000     24.000000
 -0.142857  0.142857  0.000000     12.000000
  0.190476  0.190476  0.000000      6.000000
  0.238095  0.190476  0.000000     24.000000
  0.285714  0.190476  0.000000     24.000000
  0.333333  0.190476  0.000000     24.000000
  0.380952  0.190476  0.000000     24.000000
  0.428571  0.190476  0.000000     24.000000
  0.476190  0.190476  0.000000     24.000000
 -0.476190  0.190476  0.000000     24.000000
 -0.428571  0.190476  0.000000     24.000000
 -0.380952  0.190476  0.000000     24.000000
 -0.333333  0.190476  0.000000     24.000000
 -0.285714  0.190476  0.000000     24.000000
 -0.238095  0.190476  0.000000     24.000000
 -0.190476  0.190476  0.000000     12.000000
  0.238095  0.238095  0.000000      6.000000
  0.285714  0.238095  0.000000     24.000000
  0.333333  0.238095  0.000000     24.000000
  0.380952  0.238095  0.000000     24.000000
  0.428571  0.238095  0.000000     24.000000
  0.476190  0.238095  0.000000     24.000000
 -0.476190  0.238095  0.000000     24.000000
 -0.428571  0.238095  0.000000     24.000000
 -0.380952  0.238095  0.000000     24.000000
 -0.333333  0.238095  0.000000     24.000000
 -0.285714  0.238095  0.000000     24.000000
 -0.238095  0.238095  0.000000     12.000000
  0.285714  0.285714  0.000000      6.000000
  0.333333  0.285714  0.000000     24.000000
  0.380952  0.285714  0.000000     24.000000
  0.428571  0.285714  0.000000     24.000000
  0.476190  0.285714  0.000000     24.000000
 -0.476190  0.285714  0.000000     24.000000
 -0.428571  0.285714  0.000000     24.000000
 -0.380952  0.285714  0.000000     24.000000
 -0.333333  0.285714  0.000000     24.000000
 -0.285714  0.285714  0.000000     12.000000
  0.333333  0.333333  0.000000      6.000000
  0.380952  0.333333  0.000000     24.000000
  0.428571  0.333333  0.000000     24.000000
  0.476190  0.333333  0.000000     24.000000
 -0.476190  0.333333  0.000000     24.000000
 -0.428571  0.333333  0.000000     24.000000
 -0.380952  0.333333  0.000000     24.000000
 -0.333333  0.333333  0.000000     12.000000
  0.380952  0.380952  0.000000      6.000000
  0.428571  0.380952  0.000000     24.000000
  0.476190  0.380952  0.000000     24.000000
 -0.476190  0.380952  0.000000     24.000000
 -0.428571  0.380952  0.000000     24.000000
 -0.380952  0.380952  0.000000     12.000000
  0.428571  0.428571  0.000000      6.000000
  0.476190  0.428571  0.000000     24.000000
 -0.476190  0.428571  0.000000     24.000000
 -0.428571  0.428571  0.000000     12.000000
  0.476190  0.476190  0.000000      6.000000
 -0.476190  0.476190  0.000000     12.000000
  0.142857  0.095238  0.047619     24.000000
  0.190476  0.095238  0.047619     48.000000
  0.238095  0.095238  0.047619     48.000000
  0.285714  0.095238  0.047619     48.000000
  0.333333  0.095238  0.047619     48.000000
  0.380952  0.095238  0.047619     48.000000
  0.428571  0.095238  0.047619     48.000000
  0.476190  0.095238  0.047619     48.000000
 -0.476190  0.095238  0.047619     48.000000
  0.190476  0.142857  0.047619     24.000000
  0.238095  0.142857  0.047619     48.000000
  0.285714  0.142857  0.047619     48.000000
  0.333333  0.142857  0.047619     48.000000
  0.380952  0.142857  0.047619     48.000000
  0.428571  0.142857  0.047619     48.000000
  0.476190  0.142857  0.047619     48.000000
 -0.476190  0.142857  0.047619     48.000000
 -0.428571  0.142857  0.047619     48.000000
 -0.380952  0.142857  0.047619     48.000000
 -0.333333  0.142857  0.047619     48.000000
 -0.285714  0.142857  0.047619     48.000000
 -0.238095  0.142857  0.047619     48.000000
 -0.190476  0.142857  0.047619     48.000000
 -0.142857  0.142857  0.047619     48.000000
 -0.095238  0.142857  0.047619     24.000000
  0.238095  0.190476  0.047619     24.000000
  0.285714  0.190476  0.047619     48.000000
  0.333333  0.190476  0.047619     48.000000
  0.380952  0.190476  0.047619     48.000000
  0.428571  0.190476  0.047619     48.000000
  0.476190  0.190476  0.047619     48.000000
 -0.476190  0.190476  0.047619     48.000000
 -0.428571  0.190476  0.047619     48.000000
 -0.380952  0.190476  0.047619     48.000000
 -0.333333  0.190476  0.047619     48.000000
 -0.285714  0.190476  0.047619     48.000000
 -0.238095  0.190476  0.047619     48.000000
 -0.190476  0.190476  0.047619     48.000000
 -0.142857  0.190476  0.047619     24.000000
  0.285714  0.238095  0.047619     24.000000
  0.333333  0.238095  0.047619     48.000000
  0.380952  0.238095  0.047619     48.000000
  0.428571  0.238095  0.047619     48.000000
  0.476190  0.238095  0.047619     48.000000
 -0.476190  0.238095  0.047619     48.000000
 -0.428571  0.238095  0.047619     48.000000
 -0.380952  0.238095  0.047619     48.000000
 -0.333333  0.238095  0.047619     48.000000
 -0.285714  0.238095  0.047619     48.000000
 -0.238095  0.238095  0.047619     48.000000
 -0.190476  0.238095  0.047619     24.000000
  0.333333  0.285714  0.047619     24.000000
  0.380952  0.285714  0.047619     48.000000
  0.428571  0.285714  0.047619     48.000000
  0.476190  0.285714  0.047619     48.000000
 -0.476190  0.285714  0.047619     48.000000
 -0.428571  0.285714  0.047619     48.000000
 -0.380952  0.285714  0.047619     48.000000
 -0.333333  0.285714  0.047619     48.000000
 -0.285714  0.285714  0.047619     48.000000
 -0.238095  0.285714  0.047619     24.000000
  0.380952  0.333333  0.047619     24.000000
  0.428571  0.333333  0.047619     48.000000
  0.476190  0.333333  0.047619     48.000000
 -0.476190  0.333333  0.047619     48.000000
 -0.428571  0.333333  0.047619     48.000000
 -0.380952  0.333333  0.047619     48.000000
 -0.333333  0.333333  0.047619     48.000000
 -0.285714  0.333333  0.047619     24.000000
  0.428571  0.380952  0.047619     24.000000
  0.476190  0.380952  0.047619     48.000000
 -0.476190  0.380952  0.047619     48.000000
 -0.428571  0.380952  0.047619     48.000000
 -0.380952  0.380952  0.047619     48.000000
 -0.333333  0.380952  0.047619     24.000000
  0.476190  0.428571  0.047619     24.000000
 -0.476190  0.428571  0.047619     48.000000
 -0.428571  0.428571  0.047619     48.000000
 -0.380952  0.428571  0.047619     24.000000
 -0.476190  0.476190  0.047619     24.000000
 -0.428571  0.476190  0.047619     24.000000
  0.285714  0.190476  0.095238     24.000000
  0.333333  0.190476  0.095238     48.000000
  0.380952  0.190476  0.095238     48.000000
  0.428571  0.190476  0.095238     48.000000
  0.476190  0.190476  0.095238     48.000000
 -0.476190  0.190476  0.095238     48.000000
 -0.428571  0.190476  0.095238     48.000000
  0.333333  0.238095  0.095238     24.000000
  0.380952  0.238095  0.095238     48.000000
  0.428571  0.238095  0.095238     48.000000
  0.476190  0.238095  0.095238     48.000000
 -0.476190  0.238095  0.095238     48.000000
 -0.428571  0.238095  0.095238     48.000000
 -0.380952  0.238095  0.095238     48.000000
 -0.333333  0.238095  0.095238     48.000000
 -0.285714  0.238095  0.095238     48.000000
 -0.238095  0.238095  0.095238     48.000000
 -0.190476  0.238095  0.095238     48.000000
 -0.142857  0.238095  0.095238     24.000000
  0.380952  0.285714  0.095238     24.000000
  0.428571  0.285714  0.095238     48.000000
  0.476190  0.285714  0.095238     48.000000
 -0.476190  0.285714  0.095238     48.000000
 -0.428571  0.285714  0.095238     48.000000
 -0.380952  0.285714  0.095238     48.000000
 -0.333333  0.285714  0.095238     48.000000
 -0.285714  0.285714  0.095238     48.000000
 -0.238095  0.285714  0.095238     48.000000
 -0.190476  0.285714  0.095238     24.000000
  0.428571  0.333333  0.095238     24.000000
  0.476190  0.333333  0.095238     48.000000
 -0.476190  0.333333  0.095238     48.000000
 -0.428571  0.333333  0.095238     48.000000
 -0.380952  0.333333  0.095238     48.000000
 -0.333333  0.333333  0.095238     48.000000
 -0.285714  0.333333  0.095238     48.000000
 -0.238095  0.333333  0.095238     24.000000
  0.476190  0.380952  0.095238     24.000000
 -0.476190  0.380952  0.095238     48.000000
 -0.428571  0.380952  0.095238     48.000000
 -0.380952  0.380952  0.095238     48.000000
 -0.333333  0.380952  0.095238     48.000000
 -0.285714  0.380952  0.095238     24.000000
 -0.476190  0.428571  0.095238     24.000000
 -0.428571  0.428571  0.095238     48.000000
 -0.380952  0.428571  0.095238     48.000000
 -0.333333  0.428571  0.095238     24.000000
 -0.428571  0.476190  0.095238     24.000000
 -0.380952  0.476190  0.095238     24.000000
  0.428571  0.285714  0.142857     24.000000
  0.476190  0.285714  0.142857     48.000000
 -0.476190  0.285714  0.142857     48.000000
 -0.428571  0.285714  0.142857     48.000000
 -0.380952  0.285714  0.142857     48.000000
  0.476190  0.333333  0.142857     24.000000
 -0.476190  0.333333  0.142857     48.000000
 -0.428571  0.333333  0.142857     48.000000
 -0.380952  0.333333  0.142857     48.000000
 -0.333333  0.333333  0.142857     48.000000
 -0.285714  0.333333  0.142857     48.000000
 -0.238095  0.333333  0.142857     48.000000
 -0.190476  0.333333  0.142857     24.000000
 -0.476190  0.380952  0.142857     24.000000
 -0.428571  0.380952  0.142857     48.000000
 -0.380952  0.380952  0.142857     48.000000
 -0.333333  0.380952  0.142857     48.000000
 -0.285714  0.380952  0.142857     48.000000
 -0.238095  0.380952  0.142857     24.000000
 -0.428571  0.428571  0.142857     24.000000
 -0.380952  0.428571  0.142857     48.000000
 -0.333333  0.428571  0.142857     48.000000
 -0.285714  0.428571  0.142857     24.000000
 -0.380952  0.476190  0.142857     24.000000
 -0.333333  0.476190  0.142857     24.000000
 -0.428571  0.380952  0.190476     24.000000
 -0.380952  0.380952  0.190476     48.000000
 -0.333333  0.380952  0.190476     48.000000
 -0.380952  0.428571  0.190476     24.000000
 -0.333333  0.428571  0.190476     48.000000
 -0.285714  0.428571  0.190476     48.000000
 -0.238095  0.428571  0.190476     24.000000
 -0.333333  0.476190  0.190476     24.000000
 -0.285714  0.476190  0.190476     24.000000
 -0.285714  0.476190  0.238095     24.000000
 
 Following cartesian coordinates:
            Coordinates               Weight
  0.000000  0.000000  0.000000      1.000000
 -0.047619  0.047619  0.047619      8.000000
 -0.095238  0.095238  0.095238      8.000000
 -0.142857  0.142857  0.142857      8.000000
 -0.190476  0.190476  0.190476      8.000000
 -0.238095  0.238095  0.238095      8.000000
 -0.285714  0.285714  0.285714      8.000000
 -0.333333  0.333333  0.333333      8.000000
 -0.380952  0.380952  0.380952      8.000000
 -0.428571  0.428571  0.428571      8.000000
 -0.476190  0.476190  0.476190      8.000000
  0.000000  0.000000  0.095238      6.000000
 -0.047619  0.047619  0.142857     24.000000
 -0.095238  0.095238  0.190476     24.000000
 -0.142857  0.142857  0.238095     24.000000
 -0.190476  0.190476  0.285714     24.000000
 -0.238095  0.238095  0.333333     24.000000
 -0.285714  0.285714  0.380952     24.000000
 -0.333333  0.333333  0.428571     24.000000
 -0.380952  0.380952  0.476190     24.000000
 -0.428571  0.428571  0.523810     24.000000
  0.523810 -0.523810 -0.428571     24.000000
  0.476190 -0.476190 -0.380952     24.000000
  0.428571 -0.428571 -0.333333     24.000000
  0.380952 -0.380952 -0.285714     24.000000
  0.333333 -0.333333 -0.238095     24.000000
  0.285714 -0.285714 -0.190476     24.000000
  0.238095 -0.238095 -0.142857     24.000000
  0.190476 -0.190476 -0.095238     24.000000
  0.142857 -0.142857 -0.047619     24.000000
  0.095238 -0.095238  0.000000     12.000000
  0.000000  0.000000  0.190476      6.000000
 -0.047619  0.047619  0.238095     24.000000
 -0.095238  0.095238  0.285714     24.000000
 -0.142857  0.142857  0.333333     24.000000
 -0.190476  0.190476  0.380952     24.000000
 -0.238095  0.238095  0.428571     24.000000
 -0.285714  0.285714  0.476190     24.000000
 -0.333333  0.333333  0.523810     24.000000
 -0.380952  0.380952  0.571429     24.000000
  0.571429 -0.571429 -0.380952     24.000000
  0.523810 -0.523810 -0.333333     24.000000
  0.476190 -0.476190 -0.285714     24.000000
  0.428571 -0.428571 -0.238095     24.000000
  0.380952 -0.380952 -0.190476     24.000000
  0.333333 -0.333333 -0.142857     24.000000
  0.285714 -0.285714 -0.095238     24.000000
  0.238095 -0.238095 -0.047619     24.000000
  0.190476 -0.190476  0.000000     12.000000
  0.000000  0.000000  0.285714      6.000000
 -0.047619  0.047619  0.333333     24.000000
 -0.095238  0.095238  0.380952     24.000000
 -0.142857  0.142857  0.428571     24.000000
 -0.190476  0.190476  0.476190     24.000000
 -0.238095  0.238095  0.523810     24.000000
 -0.285714  0.285714  0.571429     24.000000
 -0.333333  0.333333  0.619048     24.000000
  0.619048 -0.619048 -0.333333     24.000000
  0.571429 -0.571429 -0.285714     24.000000
  0.523810 -0.523810 -0.238095     24.000000
  0.476190 -0.476190 -0.190476     24.000000
  0.428571 -0.428571 -0.142857     24.000000
  0.380952 -0.380952 -0.095238     24.000000
  0.333333 -0.333333 -0.047619     24.000000
  0.285714 -0.285714  0.000000     12.000000
  0.000000  0.000000  0.380952      6.000000
 -0.047619  0.047619  0.428571     24.000000
 -0.095238  0.095238  0.476190     24.000000
 -0.142857  0.142857  0.523810     24.000000
 -0.190476  0.190476  0.571429     24.000000
 -0.238095  0.238095  0.619048     24.000000
 -0.285714  0.285714  0.666667     24.000000
  0.666667 -0.666667 -0.285714     24.000000
  0.619048 -0.619048 -0.238095     24.000000
  0.571429 -0.571429 -0.190476     24.000000
  0.523810 -0.523810 -0.142857     24.000000
  0.476190 -0.476190 -0.095238     24.000000
  0.428571 -0.428571 -0.047619     24.000000
  0.380952 -0.380952  0.000000     12.000000
  0.000000  0.000000  0.476190      6.000000
 -0.047619  0.047619  0.523810     24.000000
 -0.095238  0.095238  0.571429     24.000000
 -0.142857  0.142857  0.619048     24.000000
 -0.190476  0.190476  0.666667     24.000000
 -0.238095  0.238095  0.714286     24.000000
  0.714286 -0.714286 -0.238095     24.000000
  0.666667 -0.666667 -0.190476     24.000000
  0.619048 -0.619048 -0.142857     24.000000
  0.571429 -0.571429 -0.095238     24.000000
  0.523810 -0.523810 -0.047619     24.000000
  0.476190 -0.476190  0.000000     12.000000
  0.000000  0.000000  0.571429      6.000000
 -0.047619  0.047619  0.619048     24.000000
 -0.095238  0.095238  0.666667     24.000000
 -0.142857  0.142857  0.714286     24.000000
 -0.190476  0.190476  0.761905     24.000000
  0.761905 -0.761905 -0.190476     24.000000
  0.714286 -0.714286 -0.142857     24.000000
  0.666667 -0.666667 -0.095238     24.000000
  0.619048 -0.619048 -0.047619     24.000000
  0.571429 -0.571429  0.000000     12.000000
  0.000000  0.000000  0.666667      6.000000
 -0.047619  0.047619  0.714286     24.000000
 -0.095238  0.095238  0.761905     24.000000
 -0.142857  0.142857  0.809524     24.000000
  0.809524 -0.809524 -0.142857     24.000000
  0.761905 -0.761905 -0.095238     24.000000
  0.714286 -0.714286 -0.047619     24.000000
  0.666667 -0.666667  0.000000     12.000000
  0.000000  0.000000  0.761905      6.000000
 -0.047619  0.047619  0.809524     24.000000
 -0.095238  0.095238  0.857143     24.000000
  0.857143 -0.857143 -0.095238     24.000000
  0.809524 -0.809524 -0.047619     24.000000
  0.761905 -0.761905  0.000000     12.000000
  0.000000  0.000000  0.857143      6.000000
 -0.047619  0.047619  0.904762     24.000000
  0.904762 -0.904762 -0.047619     24.000000
  0.857143 -0.857143  0.000000     12.000000
  0.000000  0.000000  0.952381      6.000000
  0.952381 -0.952381  0.000000     12.000000
 -0.000000  0.095238  0.190476     24.000000
 -0.047619  0.142857  0.238095     48.000000
 -0.095238  0.190476  0.285714     48.000000
 -0.142857  0.238095  0.333333     48.000000
 -0.190476  0.285714  0.380952     48.000000
 -0.238095  0.333333  0.428571     48.000000
 -0.285714  0.380952  0.476190     48.000000
 -0.333333  0.428571  0.523810     48.000000
  0.619048 -0.523810 -0.428571     48.000000
 -0.000000  0.095238  0.285714     24.000000
 -0.047619  0.142857  0.333333     48.000000
 -0.095238  0.190476  0.380952     48.000000
 -0.142857  0.238095  0.428571     48.000000
 -0.190476  0.285714  0.476190     48.000000
 -0.238095  0.333333  0.523810     48.000000
 -0.285714  0.380952  0.571429     48.000000
  0.666667 -0.571429 -0.380952     48.000000
  0.619048 -0.523810 -0.333333     48.000000
  0.571429 -0.476190 -0.285714     48.000000
  0.523810 -0.428571 -0.238095     48.000000
  0.476190 -0.380952 -0.190476     48.000000
  0.428571 -0.333333 -0.142857     48.000000
  0.380952 -0.285714 -0.095238     48.000000
  0.333333 -0.238095 -0.047619     48.000000
  0.285714 -0.190476  0.000000     24.000000
  0.000000  0.095238  0.380952     24.000000
 -0.047619  0.142857  0.428571     48.000000
 -0.095238  0.190476  0.476190     48.000000
 -0.142857  0.238095  0.523810     48.000000
 -0.190476  0.285714  0.571429     48.000000
 -0.238095  0.333333  0.619048     48.000000
  0.714286 -0.619048 -0.333333     48.000000
  0.666667 -0.571429 -0.285714     48.000000
  0.619048 -0.523810 -0.238095     48.000000
  0.571429 -0.476190 -0.190476     48.000000
  0.523810 -0.428571 -0.142857     48.000000
  0.476190 -0.380952 -0.095238     48.000000
  0.428571 -0.333333 -0.047619     48.000000
  0.380952 -0.285714  0.000000     24.000000
 -0.000000  0.095238  0.476190     24.000000
 -0.047619  0.142857  0.523810     48.000000
 -0.095238  0.190476  0.571429     48.000000
 -0.142857  0.238095  0.619048     48.000000
 -0.190476  0.285714  0.666667     48.000000
  0.761905 -0.666667 -0.285714     48.000000
  0.714286 -0.619048 -0.238095     48.000000
  0.666667 -0.571429 -0.190476     48.000000
  0.619048 -0.523810 -0.142857     48.000000
  0.571429 -0.476190 -0.095238     48.000000
  0.523810 -0.428571 -0.047619     48.000000
  0.476190 -0.380952 -0.000000     24.000000
 -0.000000  0.095238  0.571429     24.000000
 -0.047619  0.142857  0.619048     48.000000
 -0.095238  0.190476  0.666667     48.000000
 -0.142857  0.238095  0.714286     48.000000
  0.809524 -0.714286 -0.238095     48.000000
  0.761905 -0.666667 -0.190476     48.000000
  0.714286 -0.619048 -0.142857     48.000000
  0.666667 -0.571429 -0.095238     48.000000
  0.619048 -0.523810 -0.047619     48.000000
  0.571429 -0.476190  0.000000     24.000000
 -0.000000  0.095238  0.666667     24.000000
 -0.047619  0.142857  0.714286     48.000000
 -0.095238  0.190476  0.761905     48.000000
  0.857143 -0.761905 -0.190476     48.000000
  0.809524 -0.714286 -0.142857     48.000000
  0.761905 -0.666667 -0.095238     48.000000
  0.714286 -0.619048 -0.047619     48.000000
  0.666667 -0.571429  0.000000     24.000000
  0.000000  0.095238  0.761905     24.000000
 -0.047619  0.142857  0.809524     48.000000
  0.904762 -0.809524 -0.142857     48.000000
  0.857143 -0.761905 -0.095238     48.000000
  0.809524 -0.714286 -0.047619     48.000000
  0.761905 -0.666667 -0.000000     24.000000
  0.000000  0.095238  0.857143     24.000000
  0.952381 -0.857143 -0.095238     48.000000
  0.904762 -0.809524 -0.047619     48.000000
  0.857143 -0.761905 -0.000000     24.000000
  1.000000 -0.904762 -0.047619     24.000000
  0.952381 -0.857143 -0.000000     24.000000
  0.000000  0.190476  0.380952     24.000000
 -0.047619  0.238095  0.428571     48.000000
 -0.095238  0.285714  0.476190     48.000000
 -0.142857  0.333333  0.523810     48.000000
 -0.190476  0.380952  0.571429     48.000000
  0.761905 -0.571429 -0.380952     48.000000
  0.714286 -0.523810 -0.333333     48.000000
  0.000000  0.190476  0.476190     24.000000
 -0.047619  0.238095  0.523810     48.000000
 -0.095238  0.285714  0.571429     48.000000
 -0.142857  0.333333  0.619048     48.000000
  0.809524 -0.619048 -0.333333     48.000000
  0.761905 -0.571429 -0.285714     48.000000
  0.714286 -0.523810 -0.238095     48.000000
  0.666667 -0.476190 -0.190476     48.000000
  0.619048 -0.428571 -0.142857     48.000000
  0.571429 -0.380952 -0.095238     48.000000
  0.523810 -0.333333 -0.047619     48.000000
  0.476190 -0.285714 -0.000000     24.000000
 -0.000000  0.190476  0.571429     24.000000
 -0.047619  0.238095  0.619048     48.000000
 -0.095238  0.285714  0.666667     48.000000
  0.857143 -0.666667 -0.285714     48.000000
  0.809524 -0.619048 -0.238095     48.000000
  0.761905 -0.571429 -0.190476     48.000000
  0.714286 -0.523810 -0.142857     48.000000
  0.666667 -0.476190 -0.095238     48.000000
  0.619048 -0.428571 -0.047619     48.000000
  0.571429 -0.380952 -0.000000     24.000000
 -0.000000  0.190476  0.666667     24.000000
 -0.047619  0.238095  0.714286     48.000000
  0.904762 -0.714286 -0.238095     48.000000
  0.857143 -0.666667 -0.190476     48.000000
  0.809524 -0.619048 -0.142857     48.000000
  0.761905 -0.571429 -0.095238     48.000000
  0.714286 -0.523810 -0.047619     48.000000
  0.666667 -0.476190 -0.000000     24.000000
  0.000000  0.190476  0.761905     24.000000
  0.952381 -0.761905 -0.190476     48.000000
  0.904762 -0.714286 -0.142857     48.000000
  0.857143 -0.666667 -0.095238     48.000000
  0.809524 -0.619048 -0.047619     48.000000
  0.761905 -0.571429  0.000000     24.000000
  1.000000 -0.809524 -0.142857     24.000000
  0.952381 -0.761905 -0.095238     48.000000
  0.904762 -0.714286 -0.047619     48.000000
  0.857143 -0.666667  0.000000     24.000000
  1.000000 -0.809524 -0.047619     24.000000
  0.952381 -0.761905 -0.000000     24.000000
 -0.000000  0.285714  0.571429     24.000000
 -0.047619  0.333333  0.619048     48.000000
  0.904762 -0.619048 -0.333333     48.000000
  0.857143 -0.571429 -0.285714     48.000000
  0.809524 -0.523810 -0.238095     48.000000
 -0.000000  0.285714  0.666667     24.000000
  0.952381 -0.666667 -0.285714     48.000000
  0.904762 -0.619048 -0.238095     48.000000
  0.857143 -0.571429 -0.190476     48.000000
  0.809524 -0.523810 -0.142857     48.000000
  0.761905 -0.476190 -0.095238     48.000000
  0.714286 -0.428571 -0.047619     48.000000
  0.666667 -0.380952 -0.000000     24.000000
  1.000000 -0.714286 -0.238095     24.000000
  0.952381 -0.666667 -0.190476     48.000000
  0.904762 -0.619048 -0.142857     48.000000
  0.857143 -0.571429 -0.095238     48.000000
  0.809524 -0.523810 -0.047619     48.000000
  0.761905 -0.476190  0.000000     24.000000
  1.000000 -0.714286 -0.142857     24.000000
  0.952381 -0.666667 -0.095238     48.000000
  0.904762 -0.619048 -0.047619     48.000000
  0.857143 -0.571429 -0.000000     24.000000
  1.000000 -0.714286 -0.047619     24.000000
  0.952381 -0.666667  0.000000     24.000000
  1.000000 -0.619048 -0.238095     24.000000
  0.952381 -0.571429 -0.190476     48.000000
  0.904762 -0.523810 -0.142857     48.000000
  1.000000 -0.619048 -0.142857     24.000000
  0.952381 -0.571429 -0.095238     48.000000
  0.904762 -0.523810 -0.047619     48.000000
  0.857143 -0.476190  0.000000     24.000000
  1.000000 -0.619048 -0.047619     24.000000
  0.952381 -0.571429  0.000000     24.000000
  1.000000 -0.523810 -0.047619     24.000000
 


--------------------------------------------------------------------------------------------------------




 Dimension of arrays:
   k-points           NKPTS =    286   k-points in BZ     NKDIM =    286   number of bands    NBANDS=     12
   number of dos      NEDOS =    301   number of ions     NIONS =      2
   non local maximal  LDIM  =      4   non local SUM 2l+1 LMDIM =      8
   total plane-waves  NPLWV =   8000
   max r-space proj   IRMAX =      1   max aug-charges    IRDMAX=   6630
   dimension x,y,z NGX =    20 NGY =   20 NGZ =   20
   dimension x,y,z NGXF=    40 NGYF=   40 NGZF=   40
   support grid    NGXF=    40 NGYF=   40 NGZF=   40
   ions per type =               2
   NGX,Y,Z   is equivalent  to a cutoff of   8.55,  8.55,  8.55 a.u.
   NGXF,Y,Z  is equivalent  to a cutoff of  17.10, 17.10, 17.10 a.u.

 SYSTEM =  cd Si                                   
 POSCAR =  cd:                                     

 Startparameter for this run:
   NWRITE =      2    write-flag & timer
   PREC   = accura    normal or accurate (medium, high low for compatibility)
   ISTART =      0    job   : 0-new  1-cont  2-samecut
   ICHARG =      2    charge: 1-file 2-atom 10-const
   ISPIN  =      1    spin polarized calculation?
   LNONCOLLINEAR =      F non collinear calculations
   LSORBIT =      F    spin-orbit coupling
   INIWAV =      1    electr: 0-lowe 1-rand  2-diag
   LASPH  =      F    aspherical Exc in radial PAW
   METAGGA=      F    non-selfconsistent MetaGGA calc.

 Electronic Relaxation 1
   ENCUT  =  240.0 eV  17.64 Ry    4.20 a.u.   4.91  4.91  4.91*2*pi/ulx,y,z
   ENINI  =  240.0     initial cutoff
   ENAUG  =  322.1 eV  augmentation charge cutoff
   NELM   =     60;   NELMIN=  2; NELMDL= -5     # of ELM steps 
   EDIFF  = 0.1E-05   stopping-criterion for ELM
   LREAL  =      F    real-space projection
   NLSPLINE    = F    spline interpolate recip. space projectors
   LCOMPAT=      F    compatible to vasp.4.4
   GGA_COMPAT  = T    GGA compatible to vasp.4.4-vasp.4.6
   LMAXPAW     = -100 max onsite density
   LMAXMIX     =    2 max onsite mixed and CHGCAR
   VOSKOWN=      0    Vosko Wilk Nusair interpolation
   ROPT   =    0.00000
 Ionic relaxation
   EDIFFG = -.1E-05   stopping-criterion for IOM
   NSW    =      0    number of steps for IOM
   NBLOCK =      1;   KBLOCK =      1    inner block; outer block 
   IBRION =     -1    ionic relax: 0-MD 1-quasi-New 2-CG
   NFREE  =      0    steps in history (QN), initial steepest desc. (CG)
   ISIF   =      2    stress and relaxation
   IWAVPR =     10    prediction:  0-non 1-charg 2-wave 3-comb
   ISYM   =      2    0-nonsym 1-usesym 2-fastsym
   LCORR  =      T    Harris-Foulkes like correction to forces

   POTIM  = 0.5000    time-step for ionic-motion
   TEIN   =    0.0    initial temperature
   TEBEG  =    0.0;   TEEND  =   0.0 temperature during run
   SMASS  =  -3.00    Nose mass-parameter (am)
   estimated Nose-frequenzy (Omega)   =  0.10E-29 period in steps =****** mass=  -0.346E-27a.u.
   SCALEE = 1.0000    scale energy and forces
   NPACO  =    256;   APACO  = 16.0  distance and # of slots for P.C.
   PSTRESS=    0.0 pullay stress

  Mass of Ions in am
   POMASS =  28.09
  Ionic Valenz
   ZVAL   =   4.00
  Atomic Wigner-Seitz radii
   RWIGS  =  -1.00
  virtual crystal weights 
   VCA    =   1.00
   NELECT =       8.0000    total number of electrons
   NUPDOWN=      -1.0000    fix difference up-down

 DOS related values:
   EMIN   =  10.00;   EMAX   =-10.00  energy-range for DOS
   EFERMI =   0.00
   ISMEAR =     0;   SIGMA  =   0.10  broadening in eV -4-tet -1-fermi 0-gaus

 Electronic relaxation 2 (details)
   IALGO  =     38    algorithm
   LDIAG  =      T    sub-space diagonalisation (order eigenvalues)
   LSUBROT=      F    optimize rotation matrix (better conditioning)
   TURBO    =      0    0=normal 1=particle mesh
   IRESTART =      0    0=no restart 2=restart with 2 vectors
   NREBOOT  =      0    no. of reboots
   NMIN     =      0    reboot dimension
   EREF     =   0.00    reference energy to select bands
   IMIX   =      4    mixing-type and parameters
     AMIX     =   0.40;   BMIX     =  1.00
     AMIX_MAG =   1.60;   BMIX_MAG =  1.00
     AMIN     =   0.10
     WC   =   100.;   INIMIX=   1;  MIXPRE=   1;  MAXMIX= -45

 Intra band minimization:
   WEIMIN = 0.0000     energy-eigenvalue tresh-hold
   EBREAK =  0.21E-08  absolut break condition
   DEPER  =   0.30     relativ break condition  

   TIME   =   0.40     timestep for ELM

  volume/ion in A,a.u.               =      20.80       140.34
  Fermi-wavevector in a.u.,A,eV,Ry     =   0.944993  1.785779 12.150174  0.893013
  Thomas-Fermi vector in A             =   2.072852
 
 Write flags
   LWAVE        =      T    write WAVECAR
   LDOWNSAMPLE  =      F    k-point downsampling of WAVECAR
   LCHARG       =      T    write CHGCAR
   LVTOT        =      F    write LOCPOT, total local potential
   LVHAR        =      F    write LOCPOT, Hartree potential only
   LELF         =      F    write electronic localiz. function (ELF)
   LORBIT       =     11    0 simple, 1 ext, 2 COOP (PROOUT), +10 PAW based schemes


 Dipole corrections
   LMONO  =      F    monopole corrections only (constant potential shift)
   LDIPOL =      F    correct potential (dipole corrections)
   IDIPOL =      0    1-x, 2-y, 3-z, 4-all directions 
   EPSILON=  1.0000000 bulk dielectric constant

 Exchange correlation treatment:
   GGA     =    --    GGA type
   LEXCH   =     8    internal setting for exchange type
   VOSKOWN=      0    Vosko Wilk Nusair interpolation
   LHFCALC =     F    Hartree Fock is set to
   LHFONE  =     F    Hartree Fock one center treatment
   AEXX    =    0.0000 exact exchange contribution

 Linear response parameters
   LEPSILON=     F    determine dielectric tensor
   LRPA    =     F    only Hartree local field effects (RPA)
   LNABLA  =     F    use nabla operator in PAW spheres
   LVEL    =     F    velocity operator in full k-point grid
   LINTERFAST=   F  fast interpolation
   KINTER  =     0    interpolate to denser k-point grid
   CSHIFT  =0.1000    complex shift for real part using Kramers Kronig
   OMEGAMAX=  -1.0    maximum frequency
   DEG_THRESHOLD= 0.2000000E-02 threshold for treating states as degnerate
   RTIME   =   -0.100 relaxation time in fs
  (WPLASMAI=    0.000 imaginary part of plasma frequency in eV, 0.658/RTIME)
   DFIELD  = 0.0000000 0.0000000 0.0000000 field for delta impulse in time
 
 Orbital magnetization related:
   ORBITALMAG=     F  switch on orbital magnetization
   LCHIMAG   =     F  perturbation theory with respect to B field
   DQ        =  0.001000  dq finite difference perturbation B field
   LLRAUG    =     F  two centre corrections for induced B field



--------------------------------------------------------------------------------------------------------


 Static calculation
 charge density and potential will be updated during run
 non-spin polarized calculation
 Variant of blocked Davidson
 Davidson routine will perform the subspace rotation
 perform sub-space diagonalisation
    after iterative eigenvector-optimisation
 modified Broyden-mixing scheme, WC =      100.0
 initial mixing is a Kerker type mixing with AMIX =  0.4000 and BMIX =      1.0000
 Hartree-type preconditioning will be used
 using additional bands            8
 reciprocal scheme for non local part
 use partial core corrections
 calculate Harris-corrections to forces 
   (improved forces if not selfconsistent)
 use gradient corrections 
 use of overlap-Matrix (Vanderbilt PP)
 Gauss-broadening in eV      SIGMA  =   0.10


--------------------------------------------------------------------------------------------------------


  energy-cutoff  :      240.00
  volume of cell :       41.59
      direct lattice vectors                 reciprocal lattice vectors
     0.000000000  2.750000000  2.750000000    -0.181818182  0.181818182  0.181818182
     2.750000000  0.000000000  2.750000000     0.181818182 -0.181818182  0.181818182
     2.750000000  2.750000000  0.000000000     0.181818182  0.181818182 -0.181818182

  length of vectors
     3.889087297  3.889087297  3.889087297     0.314918329  0.314918329  0.314918329


 
 k-points in units of 2pi/SCALE and weight: k-points                                
   0.00000000  0.00000000  0.00000000       0.000
  -0.04761905  0.04761905  0.04761905       0.001
  -0.09523810  0.09523810  0.09523810       0.001
  -0.14285714  0.14285714  0.14285714       0.001
  -0.19047619  0.19047619  0.19047619       0.001
  -0.23809524  0.23809524  0.23809524       0.001
  -0.28571429  0.28571429  0.28571429       0.001
  -0.33333333  0.33333333  0.33333333       0.001
  -0.38095238  0.38095238  0.38095238       0.001
  -0.42857143  0.42857143  0.42857143       0.001
  -0.47619048  0.47619048  0.47619048       0.001
   0.00000000  0.00000000  0.09523810       0.001
  -0.04761905  0.04761905  0.14285714       0.003
  -0.09523810  0.09523810  0.19047619       0.003
  -0.14285714  0.14285714  0.23809524       0.003
  -0.19047619  0.19047619  0.28571429       0.003
  -0.23809524  0.23809524  0.33333333       0.003
  -0.28571429  0.28571429  0.38095238       0.003
  -0.33333333  0.33333333  0.42857143       0.003
  -0.38095238  0.38095238  0.47619048       0.003
  -0.42857143  0.42857143  0.52380952       0.003
   0.52380952 -0.52380952 -0.42857143       0.003
   0.47619048 -0.47619048 -0.38095238       0.003
   0.42857143 -0.42857143 -0.33333333       0.003
   0.38095238 -0.38095238 -0.28571429       0.003
   0.33333333 -0.33333333 -0.23809524       0.003
   0.28571429 -0.28571429 -0.19047619       0.003
   0.23809524 -0.23809524 -0.14285714       0.003
   0.19047619 -0.19047619 -0.09523810       0.003
   0.14285714 -0.14285714 -0.04761905       0.003
   0.09523810 -0.09523810  0.00000000       0.001
   0.00000000  0.00000000  0.19047619       0.001
  -0.04761905  0.04761905  0.23809524       0.003
  -0.09523810  0.09523810  0.28571429       0.003
  -0.14285714  0.14285714  0.33333333       0.003
  -0.19047619  0.19047619  0.38095238       0.003
  -0.23809524  0.23809524  0.42857143       0.003
  -0.28571429  0.28571429  0.47619048       0.003
  -0.33333333  0.33333333  0.52380952       0.003
  -0.38095238  0.38095238  0.57142857       0.003
   0.57142857 -0.57142857 -0.38095238       0.003
   0.52380952 -0.52380952 -0.33333333       0.003
   0.47619048 -0.47619048 -0.28571429       0.003
   0.42857143 -0.42857143 -0.23809524       0.003
   0.38095238 -0.38095238 -0.19047619       0.003
   0.33333333 -0.33333333 -0.14285714       0.003
   0.28571429 -0.28571429 -0.09523810       0.003
   0.23809524 -0.23809524 -0.04761905       0.003
   0.19047619 -0.19047619  0.00000000       0.001
   0.00000000  0.00000000  0.28571429       0.001
  -0.04761905  0.04761905  0.33333333       0.003
  -0.09523810  0.09523810  0.38095238       0.003
  -0.14285714  0.14285714  0.42857143       0.003
  -0.19047619  0.19047619  0.47619048       0.003
  -0.23809524  0.23809524  0.52380952       0.003
  -0.28571429  0.28571429  0.57142857       0.003
  -0.33333333  0.33333333  0.61904762       0.003
   0.61904762 -0.61904762 -0.33333333       0.003
   0.57142857 -0.57142857 -0.28571429       0.003
   0.52380952 -0.52380952 -0.23809524       0.003
   0.47619048 -0.47619048 -0.19047619       0.003
   0.42857143 -0.42857143 -0.14285714       0.003
   0.38095238 -0.38095238 -0.09523810       0.003
   0.33333333 -0.33333333 -0.04761905       0.003
   0.28571429 -0.28571429  0.00000000       0.001
   0.00000000  0.00000000  0.38095238       0.001
  -0.04761905  0.04761905  0.42857143       0.003
  -0.09523810  0.09523810  0.47619048       0.003
  -0.14285714  0.14285714  0.52380952       0.003
  -0.19047619  0.19047619  0.57142857       0.003
  -0.23809524  0.23809524  0.61904762       0.003
  -0.28571429  0.28571429  0.66666667       0.003
   0.66666667 -0.66666667 -0.28571429       0.003
   0.61904762 -0.61904762 -0.23809524       0.003
   0.57142857 -0.57142857 -0.19047619       0.003
   0.52380952 -0.52380952 -0.14285714       0.003
   0.47619048 -0.47619048 -0.09523810       0.003
   0.42857143 -0.42857143 -0.04761905       0.003
   0.38095238 -0.38095238  0.00000000       0.001
   0.00000000  0.00000000  0.47619048       0.001
  -0.04761905  0.04761905  0.52380952       0.003
  -0.09523810  0.09523810  0.57142857       0.003
  -0.14285714  0.14285714  0.61904762       0.003
  -0.19047619  0.19047619  0.66666667       0.003
  -0.23809524  0.23809524  0.71428571       0.003
   0.71428571 -0.71428571 -0.23809524       0.003
   0.66666667 -0.66666667 -0.19047619       0.003
   0.61904762 -0.61904762 -0.14285714       0.003
   0.57142857 -0.57142857 -0.09523810       0.003
   0.52380952 -0.52380952 -0.04761905       0.003
   0.47619048 -0.47619048  0.00000000       0.001
   0.00000000  0.00000000  0.57142857       0.001
  -0.04761905  0.04761905  0.61904762       0.003
  -0.09523810  0.09523810  0.66666667       0.003
  -0.14285714  0.14285714  0.71428571       0.003
  -0.19047619  0.19047619  0.76190476       0.003
   0.76190476 -0.76190476 -0.19047619       0.003
   0.71428571 -0.71428571 -0.14285714       0.003
   0.66666667 -0.66666667 -0.09523810       0.003
   0.61904762 -0.61904762 -0.04761905       0.003
   0.57142857 -0.57142857  0.00000000       0.001
   0.00000000  0.00000000  0.66666667       0.001
  -0.04761905  0.04761905  0.71428571       0.003
  -0.09523810  0.09523810  0.76190476       0.003
  -0.14285714  0.14285714  0.80952381       0.003
   0.80952381 -0.80952381 -0.14285714       0.003
   0.76190476 -0.76190476 -0.09523810       0.003
   0.71428571 -0.71428571 -0.04761905       0.003
   0.66666667 -0.66666667  0.00000000       0.001
   0.00000000  0.00000000  0.76190476       0.001
  -0.04761905  0.04761905  0.80952381       0.003
  -0.09523810  0.09523810  0.85714286       0.003
   0.85714286 -0.85714286 -0.09523810       0.003
   0.80952381 -0.80952381 -0.04761905       0.003
   0.76190476 -0.76190476  0.00000000       0.001
   0.00000000  0.00000000  0.85714286       0.001
  -0.04761905  0.04761905  0.90476190       0.003
   0.90476190 -0.90476190 -0.04761905       0.003
   0.85714286 -0.85714286  0.00000000       0.001
   0.00000000  0.00000000  0.95238095       0.001
   0.95238095 -0.95238095  0.00000000       0.001
  -0.00000000  0.09523810  0.19047619       0.003
  -0.04761905  0.14285714  0.23809524       0.005
  -0.09523810  0.19047619  0.28571429       0.005
  -0.14285714  0.23809524  0.33333333       0.005
  -0.19047619  0.28571429  0.38095238       0.005
  -0.23809524  0.33333333  0.42857143       0.005
  -0.28571429  0.38095238  0.47619048       0.005
  -0.33333333  0.42857143  0.52380952       0.005
   0.61904762 -0.52380952 -0.42857143       0.005
  -0.00000000  0.09523810  0.28571429       0.003
  -0.04761905  0.14285714  0.33333333       0.005
  -0.09523810  0.19047619  0.38095238       0.005
  -0.14285714  0.23809524  0.42857143       0.005
  -0.19047619  0.28571429  0.47619048       0.005
  -0.23809524  0.33333333  0.52380952       0.005
  -0.28571429  0.38095238  0.57142857       0.005
   0.66666667 -0.57142857 -0.38095238       0.005
   0.61904762 -0.52380952 -0.33333333       0.005
   0.57142857 -0.47619048 -0.28571429       0.005
   0.52380952 -0.42857143 -0.23809524       0.005
   0.47619048 -0.38095238 -0.19047619       0.005
   0.42857143 -0.33333333 -0.14285714       0.005
   0.38095238 -0.28571429 -0.09523810       0.005
   0.33333333 -0.23809524 -0.04761905       0.005
   0.28571429 -0.19047619  0.00000000       0.003
   0.00000000  0.09523810  0.38095238       0.003
  -0.04761905  0.14285714  0.42857143       0.005
  -0.09523810  0.19047619  0.47619048       0.005
  -0.14285714  0.23809524  0.52380952       0.005
  -0.19047619  0.28571429  0.57142857       0.005
  -0.23809524  0.33333333  0.61904762       0.005
   0.71428571 -0.61904762 -0.33333333       0.005
   0.66666667 -0.57142857 -0.28571429       0.005
   0.61904762 -0.52380952 -0.23809524       0.005
   0.57142857 -0.47619048 -0.19047619       0.005
   0.52380952 -0.42857143 -0.14285714       0.005
   0.47619048 -0.38095238 -0.09523810       0.005
   0.42857143 -0.33333333 -0.04761905       0.005
   0.38095238 -0.28571429  0.00000000       0.003
  -0.00000000  0.09523810  0.47619048       0.003
  -0.04761905  0.14285714  0.52380952       0.005
  -0.09523810  0.19047619  0.57142857       0.005
  -0.14285714  0.23809524  0.61904762       0.005
  -0.19047619  0.28571429  0.66666667       0.005
   0.76190476 -0.66666667 -0.28571429       0.005
   0.71428571 -0.61904762 -0.23809524       0.005
   0.66666667 -0.57142857 -0.19047619       0.005
   0.61904762 -0.52380952 -0.14285714       0.005
   0.57142857 -0.47619048 -0.09523810       0.005
   0.52380952 -0.42857143 -0.04761905       0.005
   0.47619048 -0.38095238 -0.00000000       0.003
  -0.00000000  0.09523810  0.57142857       0.003
  -0.04761905  0.14285714  0.61904762       0.005
  -0.09523810  0.19047619  0.66666667       0.005
  -0.14285714  0.23809524  0.71428571       0.005
   0.80952381 -0.71428571 -0.23809524       0.005
   0.76190476 -0.66666667 -0.19047619       0.005
   0.71428571 -0.61904762 -0.14285714       0.005
   0.66666667 -0.57142857 -0.09523810       0.005
   0.61904762 -0.52380952 -0.04761905       0.005
   0.57142857 -0.47619048  0.00000000       0.003
  -0.00000000  0.09523810  0.66666667       0.003
  -0.04761905  0.14285714  0.71428571       0.005
  -0.09523810  0.19047619  0.76190476       0.005
   0.85714286 -0.76190476 -0.19047619       0.005
   0.80952381 -0.71428571 -0.14285714       0.005
   0.76190476 -0.66666667 -0.09523810       0.005
   0.71428571 -0.61904762 -0.04761905       0.005
   0.66666667 -0.57142857  0.00000000       0.003
   0.00000000  0.09523810  0.76190476       0.003
  -0.04761905  0.14285714  0.80952381       0.005
   0.90476190 -0.80952381 -0.14285714       0.005
   0.85714286 -0.76190476 -0.09523810       0.005
   0.80952381 -0.71428571 -0.04761905       0.005
   0.76190476 -0.66666667 -0.00000000       0.003
   0.00000000  0.09523810  0.85714286       0.003
   0.95238095 -0.85714286 -0.09523810       0.005
   0.90476190 -0.80952381 -0.04761905       0.005
   0.85714286 -0.76190476 -0.00000000       0.003
   1.00000000 -0.90476190 -0.04761905       0.003
   0.95238095 -0.85714286 -0.00000000       0.003
   0.00000000  0.19047619  0.38095238       0.003
  -0.04761905  0.23809524  0.42857143       0.005
  -0.09523810  0.28571429  0.47619048       0.005
  -0.14285714  0.33333333  0.52380952       0.005
  -0.19047619  0.38095238  0.57142857       0.005
   0.76190476 -0.57142857 -0.38095238       0.005
   0.71428571 -0.52380952 -0.33333333       0.005
   0.00000000  0.19047619  0.47619048       0.003
  -0.04761905  0.23809524  0.52380952       0.005
  -0.09523810  0.28571429  0.57142857       0.005
  -0.14285714  0.33333333  0.61904762       0.005
   0.80952381 -0.61904762 -0.33333333       0.005
   0.76190476 -0.57142857 -0.28571429       0.005
   0.71428571 -0.52380952 -0.23809524       0.005
   0.66666667 -0.47619048 -0.19047619       0.005
   0.61904762 -0.42857143 -0.14285714       0.005
   0.57142857 -0.38095238 -0.09523810       0.005
   0.52380952 -0.33333333 -0.04761905       0.005
   0.47619048 -0.28571429 -0.00000000       0.003
  -0.00000000  0.19047619  0.57142857       0.003
  -0.04761905  0.23809524  0.61904762       0.005
  -0.09523810  0.28571429  0.66666667       0.005
   0.85714286 -0.66666667 -0.28571429       0.005
   0.80952381 -0.61904762 -0.23809524       0.005
   0.76190476 -0.57142857 -0.19047619       0.005
   0.71428571 -0.52380952 -0.14285714       0.005
   0.66666667 -0.47619048 -0.09523810       0.005
   0.61904762 -0.42857143 -0.04761905       0.005
   0.57142857 -0.38095238 -0.00000000       0.003
  -0.00000000  0.19047619  0.66666667       0.003
  -0.04761905  0.23809524  0.71428571       0.005
   0.90476190 -0.71428571 -0.23809524       0.005
   0.85714286 -0.66666667 -0.19047619       0.005
   0.80952381 -0.61904762 -0.14285714       0.005
   0.76190476 -0.57142857 -0.09523810       0.005
   0.71428571 -0.52380952 -0.04761905       0.005
   0.66666667 -0.47619048 -0.00000000       0.003
   0.00000000  0.19047619  0.76190476       0.003
   0.95238095 -0.76190476 -0.19047619       0.005
   0.90476190 -0.71428571 -0.14285714       0.005
   0.85714286 -0.66666667 -0.09523810       0.005
   0.80952381 -0.61904762 -0.04761905       0.005
   0.76190476 -0.57142857  0.00000000       0.003
   1.00000000 -0.80952381 -0.14285714       0.003
   0.95238095 -0.76190476 -0.09523810       0.005
   0.90476190 -0.71428571 -0.04761905       0.005
   0.85714286 -0.66666667  0.00000000       0.003
   1.00000000 -0.80952381 -0.04761905       0.003
   0.95238095 -0.76190476 -0.00000000       0.003
  -0.00000000  0.28571429  0.57142857       0.003
  -0.04761905  0.33333333  0.61904762       0.005
   0.90476190 -0.61904762 -0.33333333       0.005
   0.85714286 -0.57142857 -0.28571429       0.005
   0.80952381 -0.52380952 -0.23809524       0.005
  -0.00000000  0.28571429  0.66666667       0.003
   0.95238095 -0.66666667 -0.28571429       0.005
   0.90476190 -0.61904762 -0.23809524       0.005
   0.85714286 -0.57142857 -0.19047619       0.005
   0.80952381 -0.52380952 -0.14285714       0.005
   0.76190476 -0.47619048 -0.09523810       0.005
   0.71428571 -0.42857143 -0.04761905       0.005
   0.66666667 -0.38095238 -0.00000000       0.003
   1.00000000 -0.71428571 -0.23809524       0.003
   0.95238095 -0.66666667 -0.19047619       0.005
   0.90476190 -0.61904762 -0.14285714       0.005
   0.85714286 -0.57142857 -0.09523810       0.005
   0.80952381 -0.52380952 -0.04761905       0.005
   0.76190476 -0.47619048  0.00000000       0.003
   1.00000000 -0.71428571 -0.14285714       0.003
   0.95238095 -0.66666667 -0.09523810       0.005
   0.90476190 -0.61904762 -0.04761905       0.005
   0.85714286 -0.57142857 -0.00000000       0.003
   1.00000000 -0.71428571 -0.04761905       0.003
   0.95238095 -0.66666667  0.00000000       0.003
   1.00000000 -0.61904762 -0.23809524       0.003
   0.95238095 -0.57142857 -0.19047619       0.005
   0.90476190 -0.52380952 -0.14285714       0.005
   1.00000000 -0.61904762 -0.14285714       0.003
   0.95238095 -0.57142857 -0.09523810       0.005
   0.90476190 -0.52380952 -0.04761905       0.005
   0.85714286 -0.47619048  0.00000000       0.003
   1.00000000 -0.61904762 -0.04761905       0.003
   0.95238095 -0.57142857  0.00000000       0.003
   1.00000000 -0.52380952 -0.04761905       0.003
 
 k-points in reciprocal lattice and weights: k-points                                
   0.00000000  0.00000000  0.00000000       0.000
   0.04761905  0.00000000  0.00000000       0.001
   0.09523810  0.00000000  0.00000000       0.001
   0.14285714  0.00000000  0.00000000       0.001
   0.19047619  0.00000000  0.00000000       0.001
   0.23809524  0.00000000  0.00000000       0.001
   0.28571429  0.00000000  0.00000000       0.001
   0.33333333  0.00000000  0.00000000       0.001
   0.38095238  0.00000000  0.00000000       0.001
   0.42857143  0.00000000  0.00000000       0.001
   0.47619048  0.00000000  0.00000000       0.001
   0.04761905  0.04761905  0.00000000       0.001
   0.09523810  0.04761905  0.00000000       0.003
   0.14285714  0.04761905  0.00000000       0.003
   0.19047619  0.04761905  0.00000000       0.003
   0.23809524  0.04761905  0.00000000       0.003
   0.28571429  0.04761905  0.00000000       0.003
   0.33333333  0.04761905  0.00000000       0.003
   0.38095238  0.04761905  0.00000000       0.003
   0.42857143  0.04761905  0.00000000       0.003
   0.47619048  0.04761905  0.00000000       0.003
  -0.47619048  0.04761905  0.00000000       0.003
  -0.42857143  0.04761905  0.00000000       0.003
  -0.38095238  0.04761905  0.00000000       0.003
  -0.33333333  0.04761905  0.00000000       0.003
  -0.28571429  0.04761905  0.00000000       0.003
  -0.23809524  0.04761905  0.00000000       0.003
  -0.19047619  0.04761905  0.00000000       0.003
  -0.14285714  0.04761905  0.00000000       0.003
  -0.09523810  0.04761905  0.00000000       0.003
  -0.04761905  0.04761905  0.00000000       0.001
   0.09523810  0.09523810  0.00000000       0.001
   0.14285714  0.09523810  0.00000000       0.003
   0.19047619  0.09523810  0.00000000       0.003
   0.23809524  0.09523810  0.00000000       0.003
   0.28571429  0.09523810  0.00000000       0.003
   0.33333333  0.09523810  0.00000000       0.003
   0.38095238  0.09523810  0.00000000       0.003
   0.42857143  0.09523810  0.00000000       0.003
   0.47619048  0.09523810  0.00000000       0.003
  -0.47619048  0.09523810  0.00000000       0.003
  -0.42857143  0.09523810  0.00000000       0.003
  -0.38095238  0.09523810  0.00000000       0.003
  -0.33333333  0.09523810  0.00000000       0.003
  -0.28571429  0.09523810  0.00000000       0.003
  -0.23809524  0.09523810  0.00000000       0.003
  -0.19047619  0.09523810  0.00000000       0.003
  -0.14285714  0.09523810  0.00000000       0.003
  -0.09523810  0.09523810  0.00000000       0.001
   0.14285714  0.14285714  0.00000000       0.001
   0.19047619  0.14285714  0.00000000       0.003
   0.23809524  0.14285714  0.00000000       0.003
   0.28571429  0.14285714  0.00000000       0.003
   0.33333333  0.14285714  0.00000000       0.003
   0.38095238  0.14285714  0.00000000       0.003
   0.42857143  0.14285714  0.00000000       0.003
   0.47619048  0.14285714  0.00000000       0.003
  -0.47619048  0.14285714  0.00000000       0.003
  -0.42857143  0.14285714  0.00000000       0.003
  -0.38095238  0.14285714  0.00000000       0.003
  -0.33333333  0.14285714  0.00000000       0.003
  -0.28571429  0.14285714  0.00000000       0.003
  -0.23809524  0.14285714  0.00000000       0.003
  -0.19047619  0.14285714  0.00000000       0.003
  -0.14285714  0.14285714  0.00000000       0.001
   0.19047619  0.19047619  0.00000000       0.001
   0.23809524  0.19047619  0.00000000       0.003
   0.28571429  0.19047619  0.00000000       0.003
   0.33333333  0.19047619  0.00000000       0.003
   0.38095238  0.19047619  0.00000000       0.003
   0.42857143  0.19047619  0.00000000       0.003
   0.47619048  0.19047619  0.00000000       0.003
  -0.47619048  0.19047619  0.00000000       0.003
  -0.42857143  0.19047619  0.00000000       0.003
  -0.38095238  0.19047619  0.00000000       0.003
  -0.33333333  0.19047619  0.00000000       0.003
  -0.28571429  0.19047619  0.00000000       0.003
  -0.23809524  0.19047619  0.00000000       0.003
  -0.19047619  0.19047619  0.00000000       0.001
   0.23809524  0.23809524  0.00000000       0.001
   0.28571429  0.23809524  0.00000000       0.003
   0.33333333  0.23809524  0.00000000       0.003
   0.38095238  0.23809524  0.00000000       0.003
   0.42857143  0.23809524  0.00000000       0.003
   0.47619048  0.23809524  0.00000000       0.003
  -0.47619048  0.23809524  0.00000000       0.003
  -0.42857143  0.23809524  0.00000000       0.003
  -0.38095238  0.23809524  0.00000000       0.003
  -0.33333333  0.23809524  0.00000000       0.003
  -0.28571429  0.23809524  0.00000000       0.003
  -0.23809524  0.23809524  0.00000000       0.001
   0.28571429  0.28571429  0.00000000       0.001
   0.33333333  0.28571429  0.00000000       0.003
   0.38095238  0.28571429  0.00000000       0.003
   0.42857143  0.28571429  0.00000000       0.003
   0.47619048  0.28571429  0.00000000       0.003
  -0.47619048  0.28571429  0.00000000       0.003
  -0.42857143  0.28571429  0.00000000       0.003
  -0.38095238  0.28571429  0.00000000       0.003
  -0.33333333  0.28571429  0.00000000       0.003
  -0.28571429  0.28571429  0.00000000       0.001
   0.33333333  0.33333333  0.00000000       0.001
   0.38095238  0.33333333  0.00000000       0.003
   0.42857143  0.33333333  0.00000000       0.003
   0.47619048  0.33333333  0.00000000       0.003
  -0.47619048  0.33333333  0.00000000       0.003
  -0.42857143  0.33333333  0.00000000       0.003
  -0.38095238  0.33333333  0.00000000       0.003
  -0.33333333  0.33333333  0.00000000       0.001
   0.38095238  0.38095238  0.00000000       0.001
   0.42857143  0.38095238  0.00000000       0.003
   0.47619048  0.38095238  0.00000000       0.003
  -0.47619048  0.38095238  0.00000000       0.003
  -0.42857143  0.38095238  0.00000000       0.003
  -0.38095238  0.38095238  0.00000000       0.001
   0.42857143  0.42857143  0.00000000       0.001
   0.47619048  0.42857143  0.00000000       0.003
  -0.47619048  0.42857143  0.00000000       0.003
  -0.42857143  0.42857143  0.00000000       0.001
   0.47619048  0.47619048  0.00000000       0.001
  -0.47619048  0.47619048  0.00000000       0.001
   0.14285714  0.09523810  0.04761905       0.003
   0.19047619  0.09523810  0.04761905       0.005
   0.23809524  0.09523810  0.04761905       0.005
   0.28571429  0.09523810  0.04761905       0.005
   0.33333333  0.09523810  0.04761905       0.005
   0.38095238  0.09523810  0.04761905       0.005
   0.42857143  0.09523810  0.04761905       0.005
   0.47619048  0.09523810  0.04761905       0.005
  -0.47619048  0.09523810  0.04761905       0.005
   0.19047619  0.14285714  0.04761905       0.003
   0.23809524  0.14285714  0.04761905       0.005
   0.28571429  0.14285714  0.04761905       0.005
   0.33333333  0.14285714  0.04761905       0.005
   0.38095238  0.14285714  0.04761905       0.005
   0.42857143  0.14285714  0.04761905       0.005
   0.47619048  0.14285714  0.04761905       0.005
  -0.47619048  0.14285714  0.04761905       0.005
  -0.42857143  0.14285714  0.04761905       0.005
  -0.38095238  0.14285714  0.04761905       0.005
  -0.33333333  0.14285714  0.04761905       0.005
  -0.28571429  0.14285714  0.04761905       0.005
  -0.23809524  0.14285714  0.04761905       0.005
  -0.19047619  0.14285714  0.04761905       0.005
  -0.14285714  0.14285714  0.04761905       0.005
  -0.09523810  0.14285714  0.04761905       0.003
   0.23809524  0.19047619  0.04761905       0.003
   0.28571429  0.19047619  0.04761905       0.005
   0.33333333  0.19047619  0.04761905       0.005
   0.38095238  0.19047619  0.04761905       0.005
   0.42857143  0.19047619  0.04761905       0.005
   0.47619048  0.19047619  0.04761905       0.005
  -0.47619048  0.19047619  0.04761905       0.005
  -0.42857143  0.19047619  0.04761905       0.005
  -0.38095238  0.19047619  0.04761905       0.005
  -0.33333333  0.19047619  0.04761905       0.005
  -0.28571429  0.19047619  0.04761905       0.005
  -0.23809524  0.19047619  0.04761905       0.005
  -0.19047619  0.19047619  0.04761905       0.005
  -0.14285714  0.19047619  0.04761905       0.003
   0.28571429  0.23809524  0.04761905       0.003
   0.33333333  0.23809524  0.04761905       0.005
   0.38095238  0.23809524  0.04761905       0.005
   0.42857143  0.23809524  0.04761905       0.005
   0.47619048  0.23809524  0.04761905       0.005
  -0.47619048  0.23809524  0.04761905       0.005
  -0.42857143  0.23809524  0.04761905       0.005
  -0.38095238  0.23809524  0.04761905       0.005
  -0.33333333  0.23809524  0.04761905       0.005
  -0.28571429  0.23809524  0.04761905       0.005
  -0.23809524  0.23809524  0.04761905       0.005
  -0.19047619  0.23809524  0.04761905       0.003
   0.33333333  0.28571429  0.04761905       0.003
   0.38095238  0.28571429  0.04761905       0.005
   0.42857143  0.28571429  0.04761905       0.005
   0.47619048  0.28571429  0.04761905       0.005
  -0.47619048  0.28571429  0.04761905       0.005
  -0.42857143  0.28571429  0.04761905       0.005
  -0.38095238  0.28571429  0.04761905       0.005
  -0.33333333  0.28571429  0.04761905       0.005
  -0.28571429  0.28571429  0.04761905       0.005
  -0.23809524  0.28571429  0.04761905       0.003
   0.38095238  0.33333333  0.04761905       0.003
   0.42857143  0.33333333  0.04761905       0.005
   0.47619048  0.33333333  0.04761905       0.005
  -0.47619048  0.33333333  0.04761905       0.005
  -0.42857143  0.33333333  0.04761905       0.005
  -0.38095238  0.33333333  0.04761905       0.005
  -0.33333333  0.33333333  0.04761905       0.005
  -0.28571429  0.33333333  0.04761905       0.003
   0.42857143  0.38095238  0.04761905       0.003
   0.47619048  0.38095238  0.04761905       0.005
  -0.47619048  0.38095238  0.04761905       0.005
  -0.42857143  0.38095238  0.04761905       0.005
  -0.38095238  0.38095238  0.04761905       0.005
  -0.33333333  0.38095238  0.04761905       0.003
   0.47619048  0.42857143  0.04761905       0.003
  -0.47619048  0.42857143  0.04761905       0.005
  -0.42857143  0.42857143  0.04761905       0.005
  -0.38095238  0.42857143  0.04761905       0.003
  -0.47619048  0.47619048  0.04761905       0.003
  -0.42857143  0.47619048  0.04761905       0.003
   0.28571429  0.19047619  0.09523810       0.003
   0.33333333  0.19047619  0.09523810       0.005
   0.38095238  0.19047619  0.09523810       0.005
   0.42857143  0.19047619  0.09523810       0.005
   0.47619048  0.19047619  0.09523810       0.005
  -0.47619048  0.19047619  0.09523810       0.005
  -0.42857143  0.19047619  0.09523810       0.005
   0.33333333  0.23809524  0.09523810       0.003
   0.38095238  0.23809524  0.09523810       0.005
   0.42857143  0.23809524  0.09523810       0.005
   0.47619048  0.23809524  0.09523810       0.005
  -0.47619048  0.23809524  0.09523810       0.005
  -0.42857143  0.23809524  0.09523810       0.005
  -0.38095238  0.23809524  0.09523810       0.005
  -0.33333333  0.23809524  0.09523810       0.005
  -0.28571429  0.23809524  0.09523810       0.005
  -0.23809524  0.23809524  0.09523810       0.005
  -0.19047619  0.23809524  0.09523810       0.005
  -0.14285714  0.23809524  0.09523810       0.003
   0.38095238  0.28571429  0.09523810       0.003
   0.42857143  0.28571429  0.09523810       0.005
   0.47619048  0.28571429  0.09523810       0.005
  -0.47619048  0.28571429  0.09523810       0.005
  -0.42857143  0.28571429  0.09523810       0.005
  -0.38095238  0.28571429  0.09523810       0.005
  -0.33333333  0.28571429  0.09523810       0.005
  -0.28571429  0.28571429  0.09523810       0.005
  -0.23809524  0.28571429  0.09523810       0.005
  -0.19047619  0.28571429  0.09523810       0.003
   0.42857143  0.33333333  0.09523810       0.003
   0.47619048  0.33333333  0.09523810       0.005
  -0.47619048  0.33333333  0.09523810       0.005
  -0.42857143  0.33333333  0.09523810       0.005
  -0.38095238  0.33333333  0.09523810       0.005
  -0.33333333  0.33333333  0.09523810       0.005
  -0.28571429  0.33333333  0.09523810       0.005
  -0.23809524  0.33333333  0.09523810       0.003
   0.47619048  0.38095238  0.09523810       0.003
  -0.47619048  0.38095238  0.09523810       0.005
  -0.42857143  0.38095238  0.09523810       0.005
  -0.38095238  0.38095238  0.09523810       0.005
  -0.33333333  0.38095238  0.09523810       0.005
  -0.28571429  0.38095238  0.09523810       0.003
  -0.47619048  0.42857143  0.09523810       0.003
  -0.42857143  0.42857143  0.09523810       0.005
  -0.38095238  0.42857143  0.09523810       0.005
  -0.33333333  0.42857143  0.09523810       0.003
  -0.42857143  0.47619048  0.09523810       0.003
  -0.38095238  0.47619048  0.09523810       0.003
   0.42857143  0.28571429  0.14285714       0.003
   0.47619048  0.28571429  0.14285714       0.005
  -0.47619048  0.28571429  0.14285714       0.005
  -0.42857143  0.28571429  0.14285714       0.005
  -0.38095238  0.28571429  0.14285714       0.005
   0.47619048  0.33333333  0.14285714       0.003
  -0.47619048  0.33333333  0.14285714       0.005
  -0.42857143  0.33333333  0.14285714       0.005
  -0.38095238  0.33333333  0.14285714       0.005
  -0.33333333  0.33333333  0.14285714       0.005
  -0.28571429  0.33333333  0.14285714       0.005
  -0.23809524  0.33333333  0.14285714       0.005
  -0.19047619  0.33333333  0.14285714       0.003
  -0.47619048  0.38095238  0.14285714       0.003
  -0.42857143  0.38095238  0.14285714       0.005
  -0.38095238  0.38095238  0.14285714       0.005
  -0.33333333  0.38095238  0.14285714       0.005
  -0.28571429  0.38095238  0.14285714       0.005
  -0.23809524  0.38095238  0.14285714       0.003
  -0.42857143  0.42857143  0.14285714       0.003
  -0.38095238  0.42857143  0.14285714       0.005
  -0.33333333  0.42857143  0.14285714       0.005
  -0.28571429  0.42857143  0.14285714       0.003
  -0.38095238  0.47619048  0.14285714       0.003
  -0.33333333  0.47619048  0.14285714       0.003
  -0.42857143  0.38095238  0.19047619       0.003
  -0.38095238  0.38095238  0.19047619       0.005
  -0.33333333  0.38095238  0.19047619       0.005
  -0.38095238  0.42857143  0.19047619       0.003
  -0.33333333  0.42857143  0.19047619       0.005
  -0.28571429  0.42857143  0.19047619       0.005
  -0.23809524  0.42857143  0.19047619       0.003
  -0.33333333  0.47619048  0.19047619       0.003
  -0.28571429  0.47619048  0.19047619       0.003
  -0.28571429  0.47619048  0.23809524       0.003
 
 position of ions in fractional coordinates (direct lattice) 
   0.87500000  0.87500000  0.87500000
   0.12500000  0.12500000  0.12500000
 
 position of ions in cartesian coordinates  (Angst):
   4.81250000  4.81250000  4.81250000
   0.68750000  0.68750000  0.68750000
 


--------------------------------------------------------------------------------------------------------


 k-point  1 :   0.0000 0.0000 0.0000  plane waves:     339
 k-point  2 :   0.0476 0.0000 0.0000  plane waves:     335
 k-point  3 :   0.0952 0.0000 0.0000  plane waves:     335
 k-point  4 :   0.1429 0.0000 0.0000  plane waves:     338
 k-point  5 :   0.1905 0.0000 0.0000  plane waves:     344
 k-point  6 :   0.2381 0.0000 0.0000  plane waves:     350
 k-point  7 :   0.2857 0.0000 0.0000  plane waves:     350
 k-point  8 :   0.3333 0.0000 0.0000  plane waves:     347
 k-point  9 :   0.3810 0.0000 0.0000  plane waves:     353
 k-point 10 :   0.4286 0.0000 0.0000  plane waves:     353
 k-point 11 :   0.4762 0.0000 0.0000  plane waves:     344
 k-point 12 :   0.0476 0.0476 0.0000  plane waves:     335
 k-point 13 :   0.0952 0.0476 0.0000  plane waves:     335
 k-point 14 :   0.1429 0.0476 0.0000  plane waves:     339
 k-point 15 :   0.1905 0.0476 0.0000  plane waves:     345
 k-point 16 :   0.2381 0.0476 0.0000  plane waves:     347
 k-point 17 :   0.2857 0.0476 0.0000  plane waves:     351
 k-point 18 :   0.3333 0.0476 0.0000  plane waves:     349
 k-point 19 :   0.3810 0.0476 0.0000  plane waves:     355
 k-point 20 :   0.4286 0.0476 0.0000  plane waves:     351
 k-point 21 :   0.4762 0.0476 0.0000  plane waves:     350
 k-point 22 :  -0.4762 0.0476 0.0000  plane waves:     350
 k-point 23 :  -0.4286 0.0476 0.0000  plane waves:     354
 k-point 24 :  -0.3810 0.0476 0.0000  plane waves:     350
 k-point 25 :  -0.3333 0.0476 0.0000  plane waves:     352
 k-point 26 :  -0.2857 0.0476 0.0000  plane waves:     350
 k-point 27 :  -0.2381 0.0476 0.0000  plane waves:     350
 k-point 28 :  -0.1905 0.0476 0.0000  plane waves:     350
 k-point 29 :  -0.1429 0.0476 0.0000  plane waves:     343
 k-point 30 :  -0.0952 0.0476 0.0000  plane waves:     336
 k-point 31 :  -0.0476 0.0476 0.0000  plane waves:     337
 k-point 32 :   0.0952 0.0952 0.0000  plane waves:     335
 k-point 33 :   0.1429 0.0952 0.0000  plane waves:     341
 k-point 34 :   0.1905 0.0952 0.0000  plane waves:     344
 k-point 35 :   0.2381 0.0952 0.0000  plane waves:     349
 k-point 36 :   0.2857 0.0952 0.0000  plane waves:     346
 k-point 37 :   0.3333 0.0952 0.0000  plane waves:     347
 k-point 38 :   0.3810 0.0952 0.0000  plane waves:     351
 k-point 39 :   0.4286 0.0952 0.0000  plane waves:     351
 k-point 40 :   0.4762 0.0952 0.0000  plane waves:     350
 k-point 41 :  -0.4762 0.0952 0.0000  plane waves:     351
 k-point 42 :  -0.4286 0.0952 0.0000  plane waves:     351
 k-point 43 :  -0.3810 0.0952 0.0000  plane waves:     354
 k-point 44 :  -0.3333 0.0952 0.0000  plane waves:     350
[...]
     12      18.7738      0.00000

 k-point   262 :      -0.2857    0.3333    0.1429
  band No.  band energies     occupation 
      1      -3.2766      2.00000
      2      -1.0744      2.00000
      3       1.5613      2.00000
      4       2.9365      2.00000
      5       8.6547      0.00000
      6       9.2083      0.00000
      7      10.8594      0.00000
      8      12.5889      0.00000
      9      12.8144      0.00000
     10      15.2868      0.00000
     11      18.2180      0.00000
     12      18.9486      0.00000

 k-point   263 :      -0.2381    0.3333    0.1429
  band No.  band energies     occupation 
      1      -3.5888      2.00000
      2      -0.6996      2.00000
      3       1.6428      2.00000
      4       3.0984      2.00000
      5       8.8622      0.00000
      6       9.0692      0.00000
      7      10.1122      0.00000
      8      12.6760      0.00000
      9      13.6071      0.00000
     10      14.5769      0.00000
     11      18.5946      0.00000
     12      19.3351      0.00000

 k-point   264 :      -0.1905    0.3333    0.1429
  band No.  band energies     occupation 
      1      -3.9345      2.00000
      2      -0.2857      2.00000
      3       1.8384      2.00000
      4       3.3052      2.00000
      5       8.7799      0.00000
      6       9.0940      0.00000
      7       9.6450      0.00000
      8      12.3461      0.00000
      9      14.1117      0.00000
     10      14.6300      0.00000
     11      18.5154      0.00000
     12      18.8410      0.00000

 k-point   265 :      -0.4762    0.3810    0.1429
  band No.  band energies     occupation 
      1      -3.6247      2.00000
      2      -0.5936      2.00000
      3       2.0604      2.00000
      4       2.7448      2.00000
      5       7.7353      0.00000
      6       8.3786      0.00000
      7      10.7749      0.00000
      8      13.3929      0.00000
      9      14.9535      0.00000
     10      15.4714      0.00000
     11      18.3834      0.00000
     12      18.8458      0.00000

 k-point   266 :      -0.4286    0.3810    0.1429
  band No.  band energies     occupation 
      1      -3.2769      2.00000
      2      -0.9809      2.00000
      3       1.8223      2.00000
      4       2.5804      2.00000
      5       7.9924      0.00000
      6       8.8293      0.00000
      7      10.5735      0.00000
      8      13.6302      0.00000
      9      13.9778      0.00000
     10      15.9422      0.00000
     11      17.9953      0.00000
     12      19.4291      0.00000

 k-point   267 :      -0.3810    0.3810    0.1429
  band No.  band energies     occupation 
      1      -2.9660      2.00000
      2      -1.3137      2.00000
      3       1.6097      2.00000
      4       2.5226      2.00000
      5       8.1123      0.00000
      6       9.5615      0.00000
      7      10.4073      0.00000
      8      12.8247      0.00000
      9      13.8428      0.00000
     10      16.4908      0.00000
     11      17.3637      0.00000
     12      19.5473      0.00000

 k-point   268 :      -0.3333    0.3810    0.1429
  band No.  band energies     occupation 
      1      -2.8179      2.00000
      2      -1.4651      2.00000
      3       1.4540      2.00000
      4       2.5630      2.00000
      5       8.2436      0.00000
      6      10.0731      0.00000
      7      10.6046      0.00000
      8      11.8628      0.00000
      9      13.8050      0.00000
     10      16.0834      0.00000
     11      17.7567      0.00000
     12      19.5667      0.00000

 k-point   269 :      -0.2857    0.3810    0.1429
  band No.  band energies     occupation 
      1      -2.9492      2.00000
      2      -1.3247      2.00000
      3       1.3880      2.00000
      4       2.6833      2.00000
      5       8.4136      0.00000
      6       9.9793      0.00000
      7      10.9085      0.00000
      8      11.5654      0.00000
      9      13.6653      0.00000
     10      15.3329      0.00000
     11      18.5449      0.00000
     12      19.5923      0.00000

 k-point   270 :      -0.2381    0.3810    0.1429
  band No.  band energies     occupation 
      1      -3.2482      2.00000
      2      -1.0206      2.00000
      3       1.4424      2.00000
      4       2.8677      2.00000
      5       8.6231      0.00000
      6       9.6878      0.00000
      7      10.2963      0.00000
      8      12.5539      0.00000
      9      13.3099      0.00000
     10      14.7930      0.00000
     11      19.1510      0.00000
     12      19.5367      0.00000

 k-point   271 :      -0.4286    0.4286    0.1429
  band No.  band energies     occupation 
      1      -3.0642      2.00000
      2      -1.2157      2.00000
      3       1.9921      2.00000
      4       2.3921      2.00000
      5       7.6898      0.00000
      6       8.0644      0.00000
      7      11.5032      0.00000
      8      13.9210      0.00000
      9      14.5076      0.00000
     10      16.3238      0.00000
     11      17.7269      0.00000
     12      19.2488      0.00000

 k-point   272 :      -0.3810    0.4286    0.1429
  band No.  band energies     occupation 
      1      -2.7278      2.00000
      2      -1.5435      2.00000
      3       1.7630      2.00000
      4       2.2887      2.00000
      5       7.9154      0.00000
      6       8.6463      0.00000
      7      11.3075      0.00000
      8      12.9584      0.00000
      9      14.7210      0.00000
     10      16.4829      0.00000
     11      17.5173      0.00000
     12      19.1985      0.00000

 k-point   273 :      -0.3333    0.4286    0.1429
  band No.  band energies     occupation 
      1      -2.5238      2.00000
      2      -1.7305      2.00000
      3       1.5260      2.00000
      4       2.3400      2.00000
      5       8.0437      0.00000
      6       9.4769      0.00000
      7      11.1348      0.00000
      8      11.9700      0.00000
      9      14.7100      0.00000
     10      16.0534      0.00000
     11      17.9025      0.00000
     12      19.3562      0.00000

 k-point   274 :      -0.2857    0.4286    0.1429
  band No.  band energies     occupation 
      1      -2.6497      2.00000
      2      -1.5974      2.00000
      3       1.3840      2.00000
      4       2.4793      2.00000
      5       8.2078      0.00000
      6      10.2998      0.00000
      7      10.9752      0.00000
      8      11.1552      0.00000
      9      14.3714      0.00000
     10      15.5432      0.00000
     11      18.4069      0.00000
     12      19.6704      0.00000

 k-point   275 :      -0.3810    0.4762    0.1429
  band No.  band energies     occupation 
      1      -2.4665      2.00000
      2      -1.8450      2.00000
      3       2.0195      2.00000
      4       2.1507      2.00000
      5       7.7251      0.00000
      6       7.8483      0.00000
      7      12.2884      0.00000
      8      13.1189      0.00000
      9      15.3914      0.00000
     10      16.2718      0.00000
     11      17.7435      0.00000
     12      18.5369      0.00000

 k-point   276 :      -0.3333    0.4762    0.1429
  band No.  band energies     occupation 
      1      -2.2633      2.00000
      2      -2.0122      2.00000
      3       1.7527      2.00000
      4       2.1803      2.00000
      5       7.8900      0.00000
      6       8.5850      0.00000
      7      12.0520      0.00000
      8      12.1616      0.00000
      9      15.4473      0.00000
     10      15.9951      0.00000
     11      17.9794      0.00000
     12      18.6128      0.00000

 k-point   277 :      -0.4286    0.3810    0.1905
  band No.  band energies     occupation 
      1      -3.4517      2.00000
      2      -0.7895      2.00000
      3       1.7116      2.00000
      4       2.7675      2.00000
      5       8.6673      0.00000
      6       9.2184      0.00000
      7       9.7185      0.00000
      8      13.3510      0.00000
      9      13.7380      0.00000
     10      15.1475      0.00000
     11      18.8038      0.00000
     12      19.4059      0.00000

 k-point   278 :      -0.3810    0.3810    0.1905
  band No.  band energies     occupation 
      1      -3.1172      2.00000
      2      -1.1429      2.00000
      3       1.5612      2.00000
      4       2.5834      2.00000
      5       8.9334      0.00000
      6       9.3869      0.00000
      7       9.9074      0.00000
      8      12.6741      0.00000
      9      13.7031      0.00000
     10      15.6422      0.00000
     11      18.2699      0.00000
     12      19.4968      0.00000

 k-point   279 :      -0.3333    0.3810    0.1905
  band No.  band energies     occupation 
      1      -2.8746      2.00000
      2      -1.3992      2.00000
      3       1.4925      2.00000
      4       2.4840      2.00000
      5       9.0351      0.00000
      6       9.2809      0.00000
      7      10.6830      0.00000
      8      11.6894      0.00000
      9      13.8173      0.00000
     10      16.3012      0.00000
     11      17.5408      0.00000
     12      19.4837      0.00000

 k-point   280 :      -0.3810    0.4286    0.1905
  band No.  band energies     occupation 
      1      -2.9327      2.00000
      2      -1.3089      2.00000
      3       1.6864      2.00000
      4       2.3169      2.00000
      5       8.6222      0.00000
      6       8.9503      0.00000
      7      10.3679      0.00000
      8      12.7982      0.00000
      9      14.3911      0.00000
     10      16.0827      0.00000
     11      17.9724      0.00000
     12      19.3858      0.00000

 k-point   281 :      -0.3333    0.4286    0.1905
  band No.  band energies     occupation 
      1      -2.6357      2.00000
      2      -1.5926      2.00000
      3       1.5763      2.00000
      4       2.1821      2.00000
      5       8.8567      0.00000
      6       9.5796      0.00000
      7      10.2281      0.00000
      8      11.7829      0.00000
      9      14.7055      0.00000
     10      16.3697      0.00000
     11      17.6357      0.00000
     12      19.2961      0.00000

 k-point   282 :      -0.2857    0.4286    0.1905
  band No.  band energies     occupation 
      1      -2.5619      2.00000
      2      -1.6598      2.00000
      3       1.4910      2.00000
      4       2.2030      2.00000
      5       8.9989      0.00000
      6       9.8863      0.00000
      7      10.5704      0.00000
      8      10.9217      0.00000
      9      14.7053      0.00000
     10      16.2202      0.00000
     11      17.7672      0.00000
     12      19.3548      0.00000

 k-point   283 :      -0.2381    0.4286    0.1905
  band No.  band energies     occupation 
      1      -2.7891      2.00000
      2      -1.4404      2.00000
      3       1.4731      2.00000
      4       2.3489      2.00000
      5       9.1665      0.00000
      6       9.6382      0.00000
      7      10.0807      0.00000
      8      11.6433      0.00000
      9      14.3735      0.00000
     10      15.8167      0.00000
     11      18.2034      0.00000
     12      19.5382      0.00000

 k-point   284 :      -0.3333    0.4762    0.1905
  band No.  band energies     occupation 
      1      -2.3920      2.00000
      2      -1.8457      2.00000
      3       1.7733      2.00000
      4       1.9822      2.00000
      5       8.6505      0.00000
      6       8.7593      0.00000
      7      11.1119      0.00000
      8      11.9262      0.00000
      9      15.3843      0.00000
     10      16.2237      0.00000
     11      17.8365      0.00000
     12      18.6234      0.00000

 k-point   285 :      -0.2857    0.4762    0.1905
  band No.  band energies     occupation 
      1      -2.2821      2.00000
      2      -1.9328      2.00000
      3       1.6252      2.00000
      4       1.9997      2.00000
      5       8.8322      0.00000
      6       9.5560      0.00000
      7      10.9160      0.00000
      8      10.9940      0.00000
      9      15.4169      0.00000
     10      16.0824      0.00000
     11      17.9499      0.00000
     12      18.6734      0.00000

 k-point   286 :      -0.2857    0.4762    0.2381
  band No.  band energies     occupation 
      1      -2.3262      2.00000
      2      -1.8744      2.00000
      3       1.6330      2.00000
      4       1.9275      2.00000
      5       9.5989      0.00000
      6       9.6384      0.00000
      7      10.1659      0.00000
      8      10.8109      0.00000
      9      15.3971      0.00000
     10      16.1623      0.00000
     11      17.9010      0.00000
     12      18.6742      0.00000


--------------------------------------------------------------------------------------------------------


 soft charge-density along one line, spin component           1
         0         1         2         3         4         5         6         7         8         9
 total charge-density along one line
 
 pseudopotential strength for first ion, spin component:           1
 18.459  25.753  -0.000  -0.000  -0.000  -0.000  -0.000  -0.000
 25.753  35.935  -0.000  -0.000  -0.000  -0.000  -0.000  -0.000
 -0.000  -0.000   4.183  -0.000  -0.000   7.796  -0.000  -0.000
 -0.000  -0.000  -0.000   4.183  -0.000  -0.000   7.796  -0.000
 -0.000  -0.000  -0.000  -0.000   4.183  -0.000  -0.000   7.796
 -0.000  -0.000   7.796  -0.000  -0.000  14.538  -0.000  -0.000
 -0.000  -0.000  -0.000   7.796  -0.000  -0.000  14.538  -0.000
 -0.000  -0.000  -0.000  -0.000   7.796  -0.000  -0.000  14.538
 total augmentation occupancy for first ion, spin component:           1
  5.835  -2.221  -0.000  -0.000  -0.000   0.000   0.000   0.000
 -2.221   0.955   0.000  -0.000   0.000  -0.000   0.000   0.000
 -0.000  -0.000   3.278  -0.000  -0.000  -0.798  -0.000   0.000
  0.000  -0.000  -0.000   3.278  -0.000  -0.000  -0.798   0.000
  0.000  -0.000  -0.000   0.000   3.278  -0.000  -0.000  -0.798
 -0.000   0.000  -0.798  -0.000  -0.000   0.202   0.000   0.000
  0.000   0.000  -0.000  -0.798  -0.000   0.000   0.202   0.000
 -0.000   0.000   0.000   0.000  -0.798  -0.000  -0.000   0.202


------------------------ aborting loop because EDIFF is reached ----------------------------------------


 


 total charge     
 
# of ion       s       p       d       tot
------------------------------------------
    1        0.755   0.930   0.000   1.685
    2        0.755   0.930   0.000   1.685
--------------------------------------------------
tot          1.511   1.860   0.000   3.371
 
    CHARGE:  cpu time    0.0509: real time    0.0509
    FORLOC:  cpu time    0.0002: real time    0.0002
    FORNL :  cpu time    0.0260: real time    0.0260
    STRESS:  cpu time    0.3547: real time    0.3549
    FORCOR:  cpu time    0.0051: real time    0.0051
    FORHAR:  cpu time    0.0011: real time    0.0011
    MIXING:  cpu time    0.0003: real time    0.0003
    OFIELD:  cpu time    0.0000: real time    0.0000

  FORCE on cell =-STRESS in cart. coord.  units (eV):
  Direction    XX          YY          ZZ          XY          YZ          ZX
  --------------------------------------------------------------------------------------
  Alpha Z     3.23733     3.23733     3.23733
  Ewald     -75.21821   -75.21821   -75.21821     0.00000     0.00000    -0.00000
  Hartree     5.12207     5.12207     5.12207     0.00000     0.00000     0.00000
  E(xc)     -25.16975   -25.16975   -25.16975    -0.00000    -0.00000    -0.00000
  Local     -29.88924   -29.88924   -29.88924     0.00002     0.00002     0.00002
  n-local    78.18860    79.78227    73.99525     2.21793    -1.28882     0.47908
  augment   -11.60755   -11.60755   -11.60755    -0.00002    -0.00002    -0.00002
  Kinetic    58.02213    55.40903    53.89995     3.56899    -0.72946     1.05355
  Fock        0.00000     0.00000     0.00000     0.00000     0.00000     0.00000
  -------------------------------------------------------------------------------------
  Total      -0.42628    -0.42628    -0.42628     0.00000     0.00000    -0.00000
  in kB     -16.42025   -16.42025   -16.42025     0.00000     0.00000    -0.00000
  external pressure =      -16.42 kB  Pullay stress =        0.00 kB


 VOLUME and BASIS-vectors are now :
 -----------------------------------------------------------------------------
  energy-cutoff  :      240.00
  volume of cell :       41.59
      direct lattice vectors                 reciprocal lattice vectors
     0.000000000  2.750000000  2.750000000    -0.181818182  0.181818182  0.181818182
     2.750000000  0.000000000  2.750000000     0.181818182 -0.181818182  0.181818182
     2.750000000  2.750000000  0.000000000     0.181818182  0.181818182 -0.181818182

  length of vectors
     3.889087297  3.889087297  3.889087297     0.314918329  0.314918329  0.314918329


 FORCES acting on ions
    electron-ion (+dipol)            ewald-force                    non-local-force                 convergence-correction
 -----------------------------------------------------------------------------------------------
   0.924E-06 0.924E-06 0.987E-06   -.224E-14 0.478E-15 0.477E-15   -.451E-16 -.160E-15 -.212E-15   -.458E-07 -.458E-07 -.458E-07
   -.924E-06 -.924E-06 -.987E-06   0.208E-14 -.115E-14 -.887E-15   -.486E-16 0.187E-15 0.232E-15   0.458E-07 0.458E-07 0.458E-07
 -----------------------------------------------------------------------------------------------
   0.107E-12 -.888E-14 -.179E-13   -.158E-15 -.674E-15 -.410E-15   -.937E-16 0.278E-16 0.208E-16   -.537E-15 -.132E-14 -.577E-15
 
 
 POSITION                                       TOTAL-FORCE (eV/Angst)
 -----------------------------------------------------------------------------------
      4.81250      4.81250      4.81250        -0.000000     -0.000000     -0.000000
      0.68750      0.68750      0.68750         0.000000      0.000000      0.000000
 -----------------------------------------------------------------------------------
    total drift:                                0.000000     -0.000000     -0.000000


--------------------------------------------------------------------------------------------------------



  FREE ENERGIE OF THE ION-ELECTRON SYSTEM (eV)
  ---------------------------------------------------
  free  energy   TOTEN  =       -10.82356265 eV

  energy  without entropy=      -10.82356265  energy(sigma->0) =      -10.82356265
 


--------------------------------------------------------------------------------------------------------


    POTLOK:  cpu time    0.0068: real time    0.0068


--------------------------------------------------------------------------------------------------------


 writing wavefunctions
     LOOP+:  cpu time   15.2180: real time   15.6915
    4ORBIT:  cpu time    0.0000: real time    0.0000
 


 total charge     
 
# of ion       s       p       d       tot
------------------------------------------
    1        0.755   0.930   0.000   1.685
    2        0.755   0.930   0.000   1.685
--------------------------------------------------
tot          1.511   1.860   0.000   3.371
 

 total amount of memory used by VASP MPI-rank0    39256. kBytes
=======================================================================

   base      :      30000. kBytes
   nonl-proj :       6600. kBytes
   fftplans  :        250. kBytes
   grid      :        643. kBytes
   one-center:          6. kBytes
   wavefun   :       1757. kBytes
 
  
  
 General timing and accounting informations for this job:
 ========================================================
  
                  Total CPU time used (sec):       17.463
                            User time (sec):       16.919
                          System time (sec):        0.544
                         Elapsed time (sec):       18.416
  
                   Maximum memory used (kb):       78600.
                   Average memory used (kb):           0.
  
                          Minor page faults:        29078
                          Major page faults:            0
                 Voluntary context switches:         1319
