   8   8   0   0
  0.2469169E+02  0.5174038E-09  0.5174038E-09  0.8520222E-09  0.5000000E-15
  1.000000000000000E-004
  CAR 
 BC3-optical                             
     86.12104384    -23.52420477 2400     -2.40298321      1.00000000
    -23.524  0.0000E+00  0.0000E+00
    -23.479  0.0000E+00  0.0000E+00
    -23.433  0.0000E+00  0.0000E+00
    -23.387  0.0000E+00  0.0000E+00
    -23.341  0.0000E+00  0.0000E+00
    -23.296  0.0000E+00  0.0000E+00
    -23.250  0.0000E+00  0.0000E+00
    -23.204  0.0000E+00  0.0000E+00
    -23.159  0.0000E+00  0.0000E+00
    -23.113  0.0000E+00  0.0000E+00
    -23.067  0.0000E+00  0.0000E+00
    -23.021  0.0000E+00  0.0000E+00
    -22.976  0.0000E+00  0.0000E+00
    -22.930  0.0000E+00  0.0000E+00
    -22.884  0.0000E+00  0.0000E+00
    -22.839  0.0000E+00  0.0000E+00
    -22.793  0.0000E+00  0.0000E+00
    -22.747  0.0000E+00  0.0000E+00
    -22.702  0.0000E+00  0.0000E+00
    -22.656  0.0000E+00  0.0000E+00
    -22.610  0.0000E+00  0.0000E+00
    -22.564  0.0000E+00  0.0000E+00
    -22.519  0.0000E+00  0.0000E+00
    -22.473  0.0000E+00  0.0000E+00
    -22.427  0.0000E+00  0.0000E+00
    -22.382  0.0000E+00  0.0000E+00
    -22.336  0.0000E+00  0.0000E+00
    -22.290  0.0000E+00  0.0000E+00
    -22.244  0.0000E+00  0.0000E+00
    -22.199  0.0000E+00  0.0000E+00
    -22.153  0.0000E+00  0.0000E+00
    -22.107  0.0000E+00  0.0000E+00
    -22.062  0.0000E+00  0.0000E+00
    -22.016  0.0000E+00  0.0000E+00
    -21.970  0.0000E+00  0.0000E+00
    -21.925  0.0000E+00  0.0000E+00
    -21.879  0.0000E+00  0.0000E+00
    -21.833  0.0000E+00  0.0000E+00
    -21.787  0.0000E+00  0.0000E+00
    -21.742  0.0000E+00  0.0000E+00
    -21.696  0.0000E+00  0.0000E+00
    -21.650  0.0000E+00  0.0000E+00
    -21.605  0.0000E+00  0.0000E+00
    -21.559  0.0000E+00  0.0000E+00
    -21.513  0.0000E+00  0.0000E+00
    -21.467  0.0000E+00  0.0000E+00
    -21.422  0.0000E+00  0.0000E+00
    -21.376  0.0000E+00  0.0000E+00
    -21.330  0.0000E+00  0.0000E+00
    -21.285  0.0000E+00  0.0000E+00
    -21.239  0.0000E+00  0.0000E+00
    -21.193  0.0000E+00  0.0000E+00
    -21.148  0.0000E+00  0.0000E+00
    -21.102  0.0000E+00  0.0000E+00
    -21.056  0.0000E+00  0.0000E+00
    -21.010  0.0000E+00  0.0000E+00
    -20.965  0.0000E+00  0.0000E+00
    -20.919  0.0000E+00  0.0000E+00
    -20.873  0.0000E+00  0.0000E+00
    -20.828  0.0000E+00  0.0000E+00
    -20.782  0.0000E+00  0.0000E+00
    -20.736  0.0000E+00  0.0000E+00
    -20.691  0.0000E+00  0.0000E+00
    -20.645  0.0000E+00  0.0000E+00
    -20.599  0.0000E+00  0.0000E+00
    -20.553  0.0000E+00  0.0000E+00
    -20.508  0.0000E+00  0.0000E+00
    -20.462  0.0000E+00  0.0000E+00
    -20.416  0.0000E+00  0.0000E+00
    -20.371  0.0000E+00  0.0000E+00
    -20.325  0.0000E+00  0.0000E+00
    -20.279  0.0000E+00  0.0000E+00
    -20.233  0.0000E+00  0.0000E+00
    -20.188  0.0000E+00  0.0000E+00
    -20.142  0.0000E+00  0.0000E+00
    -20.096  0.0000E+00  0.0000E+00
    -20.051  0.0000E+00  0.0000E+00
    -20.005  0.0000E+00  0.0000E+00
    -19.959  0.0000E+00  0.0000E+00
    -19.914  0.0000E+00  0.0000E+00
    -19.868  0.0000E+00  0.0000E+00
    -19.822  0.0000E+00  0.0000E+00
    -19.776  0.0000E+00  0.0000E+00
    -19.731  0.0000E+00  0.0000E+00
    -19.685  0.0000E+00  0.0000E+00
    -19.639  0.0000E+00  0.0000E+00
    -19.594  0.0000E+00  0.0000E+00
    -19.548  0.0000E+00  0.0000E+00
    -19.502  0.0000E+00  0.0000E+00
    -19.456  0.0000E+00  0.0000E+00
    -19.411  0.0000E+00  0.0000E+00
    -19.365  0.0000E+00  0.0000E+00
    -19.319  0.0000E+00  0.0000E+00
    -19.274  0.0000E+00  0.0000E+00
    -19.228  0.0000E+00  0.0000E+00
    -19.182  0.0000E+00  0.0000E+00
    -19.137  0.0000E+00  0.0000E+00
    -19.091  0.0000E+00  0.0000E+00
    -19.045  0.0000E+00  0.0000E+00
    -18.999  0.0000E+00  0.0000E+00
    -18.954  0.0000E+00  0.0000E+00
    -18.908  0.0000E+00  0.0000E+00
    -18.862  0.0000E+00  0.0000E+00
    -18.817  0.0000E+00  0.0000E+00
    -18.771  0.0000E+00  0.0000E+00
    -18.725  0.0000E+00  0.0000E+00
    -18.680  0.0000E+00  0.0000E+00
    -18.634  0.0000E+00  0.0000E+00
    -18.588  0.2135E-11  0.9756E-13
    -18.542  0.1169E+00  0.5341E-02
    -18.497  0.1993E+01  0.9641E-01
    -18.451  0.1676E+01  0.1730E+00
    -18.405  0.1988E+01  0.2639E+00
    -18.360  0.1644E+01  0.3390E+00
    -18.314  0.2635E+01  0.4595E+00
    -18.268  0.1191E+01  0.5139E+00
    -18.222  0.3453E+01  0.6717E+00
    -18.177  0.2057E+01  0.7657E+00
    -18.131  0.1783E+01  0.8472E+00
    -18.085  0.3937E+01  0.1027E+01
    -18.040  0.3427E+01  0.1184E+01
    -17.994  0.1983E+01  0.1274E+01
    -17.948  0.9798E+01  0.1722E+01
    -17.903  0.3852E+01  0.1898E+01
    -17.857  0.2221E+01  0.2000E+01
    -17.811  0.4657E-02  0.2000E+01
    -17.765  0.0000E+00  0.2000E+01
    -17.720  0.0000E+00  0.2000E+01
    -17.674  0.0000E+00  0.2000E+01
    -17.628  0.0000E+00  0.2000E+01
    -17.583  0.0000E+00  0.2000E+01
    -17.537  0.0000E+00  0.2000E+01
    -17.491  0.0000E+00  0.2000E+01
    -17.445  0.0000E+00  0.2000E+01
    -17.400  0.0000E+00  0.2000E+01
    -17.354  0.0000E+00  0.2000E+01
    -17.308  0.0000E+00  0.2000E+01
    -17.263  0.0000E+00  0.2000E+01
    -17.217  0.0000E+00  0.2000E+01
    -17.171  0.0000E+00  0.2000E+01
    -17.126  0.0000E+00  0.2000E+01
    -17.080  0.0000E+00  0.2000E+01
    -17.034  0.0000E+00  0.2000E+01
    -16.988  0.0000E+00  0.2000E+01
    -16.943  0.0000E+00  0.2000E+01
    -16.897  0.0000E+00  0.2000E+01
    -16.851  0.0000E+00  0.2000E+01
    -16.806  0.0000E+00  0.2000E+01
    -16.760  0.0000E+00  0.2000E+01
    -16.714  0.0000E+00  0.2000E+01
    -16.669  0.0000E+00  0.2000E+01
    -16.623  0.0000E+00  0.2000E+01
    -16.577  0.0000E+00  0.2000E+01
    -16.531  0.0000E+00  0.2000E+01
    -16.486  0.0000E+00  0.2000E+01
    -16.440  0.0000E+00  0.2000E+01
    -16.394  0.0000E+00  0.2000E+01
    -16.349  0.0000E+00  0.2000E+01
    -16.303  0.6532E-05  0.2000E+01
    -16.257  0.8963E+00  0.2041E+01
    -16.211  0.3508E+01  0.2201E+01
    -16.166  0.2599E+01  0.2320E+01
    -16.120  0.1204E+01  0.2375E+01
    -16.074  0.5273E+01  0.2616E+01
    -16.029  0.3162E+01  0.2761E+01
    -15.983  0.4311E+01  0.2958E+01
    -15.937  0.9125E+00  0.2999E+01
    -15.892  0.4136E+00  0.3018E+01
    -15.846  0.5374E+01  0.3264E+01
    -15.800  0.4543E-03  0.3264E+01
    -15.754  0.1978E-07  0.3264E+01
    -15.709  0.3253E+01  0.3413E+01
    -15.663  0.4040E+01  0.3597E+01
    -15.617  0.1230E-02  0.3597E+01
    -15.572  0.2212E+01  0.3698E+01
    -15.526  0.1435E+01  0.3764E+01
    -15.480  0.1877E+01  0.3850E+01
    -15.434  0.2688E+01  0.3973E+01
    -15.389  0.2727E+01  0.4097E+01
    -15.343  0.1053E+00  0.4102E+01
    -15.297  0.7178E+01  0.4430E+01
    -15.252  0.9682E-02  0.4431E+01
    -15.206  0.3411E+01  0.4586E+01
    -15.160  0.2674E+01  0.4709E+01
    -15.115  0.3865E+01  0.4885E+01
    -15.069  0.4285E+01  0.5081E+01
    -15.023  0.4072E+01  0.5267E+01
    -14.977  0.2645E+01  0.5388E+01
    -14.932  0.6020E+00  0.5416E+01
    -14.886  0.4883E+01  0.5639E+01
    -14.840  0.6592E-05  0.5639E+01
    -14.795  0.1087E+01  0.5689E+01
    -14.749  0.4382E+01  0.5889E+01
    -14.703  0.8078E-01  0.5893E+01
    -14.658  0.1809E+01  0.5975E+01
    -14.612  0.5416E+00  0.6000E+01
    -14.566  0.0000E+00  0.6000E+01
    -14.520  0.0000E+00  0.6000E+01
    -14.475  0.0000E+00  0.6000E+01
    -14.429  0.0000E+00  0.6000E+01
    -14.383  0.0000E+00  0.6000E+01
    -14.338  0.0000E+00  0.6000E+01
    -14.292  0.0000E+00  0.6000E+01
    -14.246  0.0000E+00  0.6000E+01
    -14.200  0.0000E+00  0.6000E+01
    -14.155  0.0000E+00  0.6000E+01
    -14.109  0.0000E+00  0.6000E+01
    -14.063  0.0000E+00  0.6000E+01
    -14.018  0.0000E+00  0.6000E+01
    -13.972  0.0000E+00  0.6000E+01
    -13.926  0.0000E+00  0.6000E+01
    -13.881  0.0000E+00  0.6000E+01
    -13.835  0.0000E+00  0.6000E+01
    -13.789  0.0000E+00  0.6000E+01
    -13.743  0.0000E+00  0.6000E+01
    -13.698  0.0000E+00  0.6000E+01
    -13.652  0.0000E+00  0.6000E+01
    -13.606  0.0000E+00  0.6000E+01
    -13.561  0.0000E+00  0.6000E+01
    -13.515  0.0000E+00  0.6000E+01
    -13.469  0.0000E+00  0.6000E+01
    -13.423  0.0000E+00  0.6000E+01
    -13.378  0.0000E+00  0.6000E+01
    -13.332  0.0000E+00  0.6000E+01
    -13.286  0.0000E+00  0.6000E+01
    -13.241  0.0000E+00  0.6000E+01
    -13.195  0.0000E+00  0.6000E+01
    -13.149  0.0000E+00  0.6000E+01
    -13.104  0.0000E+00  0.6000E+01
    -13.058  0.0000E+00  0.6000E+01
    -13.012  0.0000E+00  0.6000E+01
    -12.966  0.0000E+00  0.6000E+01
    -12.921  0.0000E+00  0.6000E+01
    -12.875  0.1105E-04  0.6000E+01
    -12.829  0.9551E+00  0.6044E+01
    -12.784  0.1780E+01  0.6125E+01
    -12.738  0.3367E+00  0.6140E+01
    -12.692  0.3213E+01  0.6287E+01
    -12.647  0.2623E+01  0.6407E+01
    -12.601  0.4038E+01  0.6592E+01
    -12.555  0.1178E+01  0.6646E+01
    -12.509  0.3198E+01  0.6792E+01
    -12.464  0.1949E+00  0.6801E+01
    -12.418  0.5264E+01  0.7041E+01
    -12.372  0.4226E+00  0.7060E+01
    -12.327  0.6525E+01  0.7359E+01
    -12.281  0.8210E+01  0.7734E+01
    -12.235  0.4696E-01  0.7736E+01
    -12.189  0.1723E+01  0.7815E+01
    -12.144  0.1005E+00  0.7819E+01
    -12.098  0.7366E-03  0.7819E+01
    -12.052  0.1821E+01  0.7903E+01
    -12.007  0.1818E+01  0.7986E+01
    -11.961  0.6737E-02  0.7986E+01
    -11.915  0.1973E+01  0.8076E+01
    -11.870  0.3497E+01  0.8236E+01
    -11.824  0.1467E+01  0.8303E+01
    -11.778  0.2180E+01  0.8403E+01
    -11.732  0.4065E-01  0.8405E+01
    -11.687  0.1783E+01  0.8486E+01
    -11.641  0.7643E-05  0.8486E+01
    -11.595  0.8521E-11  0.8486E+01
    -11.550  0.6604E+00  0.8516E+01
    -11.504  0.2160E+01  0.8615E+01
    -11.458  0.2351E+00  0.8626E+01
    -11.412  0.7276E+01  0.8958E+01
    -11.367  0.1819E+01  0.9041E+01
    -11.321  0.5208E-02  0.9042E+01
    -11.275  0.3483E-07  0.9042E+01
    -11.230  0.3089E+01  0.9183E+01
    -11.184  0.8616E+00  0.9222E+01
    -11.138  0.3556E-04  0.9222E+01
    -11.093  0.3123E+01  0.9365E+01
    -11.047  0.4170E+01  0.9556E+01
    -11.001  0.3390E+01  0.9711E+01
    -10.955  0.2562E+00  0.9722E+01
    -10.910  0.8497E-02  0.9723E+01
    -10.864  0.1815E+01  0.9806E+01
    -10.818  0.1542E+01  0.9876E+01
    -10.773  0.2814E+00  0.9889E+01
    -10.727  0.8830E-01  0.9893E+01
    -10.681  0.5955E+01  0.1017E+02
    -10.636  0.1250E+01  0.1022E+02
    -10.590  0.0000E+00  0.1022E+02
    -10.544  0.1457E-02  0.1022E+02
    -10.498  0.9100E+00  0.1026E+02
    -10.453  0.2002E-03  0.1026E+02
    -10.407  0.0000E+00  0.1026E+02
    -10.361  0.1621E-03  0.1026E+02
    -10.316  0.3626E+01  0.1043E+02
    -10.270  0.1995E-01  0.1043E+02
    -10.224  0.2144E-12  0.1043E+02
    -10.178  0.3536E+00  0.1045E+02
    -10.133  0.1470E+01  0.1051E+02
    -10.087  0.0000E+00  0.1051E+02
    -10.041  0.0000E+00  0.1051E+02
     -9.996  0.0000E+00  0.1051E+02
     -9.950  0.3999E-07  0.1051E+02
     -9.904  0.2753E+00  0.1053E+02
     -9.859  0.2862E-01  0.1053E+02
     -9.813  0.0000E+00  0.1053E+02
     -9.767  0.6777E-01  0.1053E+02
     -9.721  0.6768E+01  0.1084E+02
     -9.676  0.4574E+00  0.1086E+02
     -9.630  0.0000E+00  0.1086E+02
     -9.584  0.7707E-06  0.1086E+02
     -9.539  0.2263E+01  0.1096E+02
     -9.493  0.1679E+00  0.1097E+02
     -9.447  0.1785E+01  0.1105E+02
     -9.401  0.3811E-01  0.1106E+02
     -9.356  0.3613E+01  0.1122E+02
     -9.310  0.1807E+01  0.1130E+02
     -9.264  0.4910E-01  0.1131E+02
     -9.219  0.0000E+00  0.1131E+02
     -9.173  0.2019E-01  0.1131E+02
     -9.127  0.2416E+01  0.1142E+02
     -9.082  0.6608E+01  0.1172E+02
     -9.036  0.4171E+00  0.1174E+02
     -8.990  0.1501E+01  0.1181E+02
     -8.944  0.6924E+01  0.1212E+02
     -8.899  0.1769E+01  0.1220E+02
     -8.853  0.4010E+00  0.1222E+02
     -8.807  0.1111E+01  0.1227E+02
     -8.762  0.2536E+01  0.1239E+02
     -8.716  0.7106E+00  0.1242E+02
     -8.670  0.1427E+01  0.1249E+02
     -8.625  0.5969E+00  0.1251E+02
     -8.579  0.0000E+00  0.1251E+02
     -8.533  0.2818E-12  0.1251E+02
     -8.487  0.3723E+00  0.1253E+02
     -8.442  0.3707E+01  0.1270E+02
     -8.396  0.5876E+01  0.1297E+02
     -8.350  0.5567E+01  0.1322E+02
     -8.305  0.5992E+01  0.1350E+02
     -8.259  0.2904E+01  0.1363E+02
     -8.213  0.1957E+00  0.1364E+02
     -8.167  0.0000E+00  0.1364E+02
     -8.122  0.2110E-06  0.1364E+02
     -8.076  0.1644E+01  0.1371E+02
     -8.030  0.1844E+00  0.1372E+02
     -7.985  0.1818E+01  0.1381E+02
     -7.939  0.5587E+01  0.1406E+02
     -7.893  0.1706E+01  0.1414E+02
     -7.848  0.7468E+00  0.1417E+02
     -7.802  0.8098E+00  0.1421E+02
     -7.756  0.3002E+01  0.1435E+02
     -7.710  0.4766E-05  0.1435E+02
     -7.665  0.2000E+01  0.1444E+02
     -7.619  0.6934E+01  0.1476E+02
     -7.573  0.3213E+01  0.1490E+02
     -7.528  0.6085E+01  0.1518E+02
     -7.482  0.0000E+00  0.1518E+02
     -7.436  0.0000E+00  0.1518E+02
     -7.390  0.2194E-03  0.1518E+02
     -7.345  0.3676E+01  0.1535E+02
     -7.299  0.3070E+01  0.1549E+02
     -7.253  0.5245E+01  0.1573E+02
     -7.208  0.2863E+01  0.1586E+02
     -7.162  0.3674E+01  0.1603E+02
     -7.116  0.2790E+00  0.1604E+02
     -7.071  0.3678E+00  0.1606E+02
     -7.025  0.4528E+01  0.1626E+02
     -6.979  0.4849E+01  0.1649E+02
     -6.933  0.6214E+00  0.1651E+02
     -6.888  0.1668E-02  0.1651E+02
     -6.842  0.1909E+01  0.1660E+02
     -6.796  0.4130E+01  0.1679E+02
     -6.751  0.1252E+01  0.1685E+02
     -6.705  0.1764E+01  0.1693E+02
     -6.659  0.3970E+01  0.1711E+02
     -6.614  0.1146E+01  0.1716E+02
     -6.568  0.5081E+01  0.1739E+02
     -6.522  0.6226E+01  0.1768E+02
     -6.476  0.7338E+01  0.1801E+02
     -6.431  0.1012E+01  0.1806E+02
     -6.385  0.1820E+01  0.1814E+02
     -6.339  0.3240E+01  0.1829E+02
     -6.294  0.3939E+01  0.1847E+02
     -6.248  0.7967E+01  0.1884E+02
     -6.202  0.2687E+01  0.1896E+02
     -6.156  0.5306E+01  0.1920E+02
     -6.111  0.3773E+01  0.1937E+02
     -6.065  0.3803E-01  0.1938E+02
     -6.019  0.6065E+00  0.1940E+02
     -5.974  0.5351E+00  0.1943E+02
     -5.928  0.4305E+01  0.1962E+02
     -5.882  0.2150E+01  0.1972E+02
     -5.837  0.2592E+01  0.1984E+02
     -5.791  0.1054E+01  0.1989E+02
     -5.745  0.0000E+00  0.1989E+02
     -5.699  0.7944E-03  0.1989E+02
     -5.654  0.7090E+01  0.2021E+02
     -5.608  0.2282E+00  0.2022E+02
     -5.562  0.1797E+01  0.2031E+02
     -5.517  0.1759E-04  0.2031E+02
     -5.471  0.2769E-01  0.2031E+02
     -5.425  0.5413E+01  0.2055E+02
     -5.379  0.2906E-01  0.2056E+02
     -5.334  0.5805E-01  0.2056E+02
     -5.288  0.6267E+01  0.2084E+02
     -5.242  0.1595E+01  0.2092E+02
     -5.197  0.5470E+01  0.2117E+02
     -5.151  0.2107E+01  0.2126E+02
     -5.105  0.1461E+01  0.2133E+02
     -5.060  0.1313E+02  0.2193E+02
     -5.014  0.1061E+02  0.2242E+02
     -4.968  0.1236E+02  0.2298E+02
     -4.922  0.3156E+01  0.2312E+02
     -4.877  0.1515E+01  0.2319E+02
     -4.831  0.7995E+01  0.2356E+02
     -4.785  0.4890E+01  0.2378E+02
     -4.740  0.5358E+01  0.2403E+02
     -4.694  0.8180E-03  0.2403E+02
     -4.648  0.7297E-07  0.2403E+02
     -4.603  0.1575E+01  0.2410E+02
     -4.557  0.3828E+01  0.2427E+02
     -4.511  0.6747E-01  0.2428E+02
     -4.465  0.3076E+01  0.2442E+02
     -4.420  0.7865E+01  0.2478E+02
     -4.374  0.1821E+01  0.2486E+02
     -4.328  0.3610E+01  0.2503E+02
     -4.283  0.3925E-01  0.2503E+02
     -4.237  0.1820E+01  0.2511E+02
     -4.191  0.3256E-01  0.2511E+02
     -4.145  0.1794E+01  0.2519E+02
     -4.100  0.1058E+01  0.2524E+02
     -4.054  0.5244E+01  0.2548E+02
     -4.008  0.6794E+01  0.2579E+02
     -3.963  0.2060E+01  0.2589E+02
     -3.917  0.3077E+01  0.2603E+02
     -3.871  0.2924E+01  0.2616E+02
     -3.826  0.6193E+01  0.2644E+02
     -3.780  0.5814E-02  0.2644E+02
     -3.734  0.3640E+01  0.2661E+02
     -3.688  0.1224E+00  0.2662E+02
     -3.643  0.2300E+01  0.2672E+02
     -3.597  0.1125E+02  0.2724E+02
     -3.551  0.6920E+01  0.2755E+02
     -3.506  0.2209E+01  0.2765E+02
     -3.460  0.5456E+01  0.2790E+02
     -3.414  0.1056E+01  0.2795E+02
     -3.368  0.3291E+01  0.2810E+02
     -3.323  0.7537E+01  0.2845E+02
     -3.277  0.4244E+01  0.2864E+02
     -3.231  0.7954E+01  0.2900E+02
     -3.186  0.2384E+01  0.2911E+02
     -3.140  0.2352E+01  0.2922E+02
     -3.094  0.5739E-01  0.2922E+02
     -3.049  0.5164E-05  0.2922E+02
     -3.003  0.2683E+01  0.2934E+02
     -2.957  0.9643E+00  0.2939E+02
     -2.911  0.3630E+01  0.2955E+02
     -2.866  0.1667E+01  0.2963E+02
     -2.820  0.1722E+00  0.2964E+02
     -2.774  0.2314E-10  0.2964E+02
     -2.729  0.7618E+00  0.2967E+02
     -2.683  0.1292E+01  0.2973E+02
     -2.637  0.1593E+01  0.2981E+02
     -2.592  0.1812E+01  0.2989E+02
     -2.546  0.1393E+00  0.2989E+02
     -2.500  0.1695E+01  0.2997E+02
     -2.454  0.5823E+00  0.3000E+02
     -2.409  0.2547E-01  0.3000E+02
     -2.363  0.0000E+00  0.3000E+02
     -2.317  0.0000E+00  0.3000E+02
     -2.272  0.0000E+00  0.3000E+02
     -2.226  0.0000E+00  0.3000E+02
     -2.180  0.0000E+00  0.3000E+02
     -2.134  0.0000E+00  0.3000E+02
     -2.089  0.0000E+00  0.3000E+02
     -2.043  0.0000E+00  0.3000E+02
     -1.997  0.0000E+00  0.3000E+02
     -1.952  0.0000E+00  0.3000E+02
     -1.906  0.0000E+00  0.3000E+02
     -1.860  0.5642E-07  0.3000E+02
     -1.815  0.8024E+00  0.3004E+02
     -1.769  0.1910E+01  0.3012E+02
     -1.723  0.2238E-01  0.3012E+02
     -1.677  0.2094E+00  0.3013E+02
     -1.632  0.1614E+01  0.3021E+02
     -1.586  0.2230E+01  0.3031E+02
     -1.540  0.3963E+01  0.3049E+02
     -1.495  0.1101E+01  0.3054E+02
     -1.449  0.4491E+01  0.3075E+02
     -1.403  0.9787E+00  0.3079E+02
     -1.357  0.3968E-13  0.3079E+02
     -1.312  0.4368E+00  0.3081E+02
     -1.266  0.5022E+01  0.3104E+02
     -1.220  0.1654E-01  0.3104E+02
     -1.175  0.5290E+01  0.3128E+02
     -1.129  0.2340E+01  0.3139E+02
     -1.083  0.3611E+01  0.3156E+02
     -1.038  0.1517E+01  0.3162E+02
     -0.992  0.0000E+00  0.3162E+02
     -0.946  0.0000E+00  0.3162E+02
     -0.900  0.9924E-06  0.3163E+02
     -0.855  0.1729E+01  0.3170E+02
     -0.809  0.1918E+01  0.3179E+02
     -0.763  0.1155E-03  0.3179E+02
     -0.718  0.0000E+00  0.3179E+02
     -0.672  0.1602E-08  0.3179E+02
     -0.626  0.2371E+00  0.3180E+02
     -0.581  0.3712E+01  0.3197E+02
     -0.535  0.1749E-02  0.3197E+02
     -0.489  0.0000E+00  0.3197E+02
     -0.443  0.0000E+00  0.3197E+02
     -0.398  0.0000E+00  0.3197E+02
     -0.352  0.0000E+00  0.3197E+02
     -0.306  0.0000E+00  0.3197E+02
     -0.261  0.0000E+00  0.3197E+02
     -0.215  0.0000E+00  0.3197E+02
     -0.169  0.0000E+00  0.3197E+02
     -0.123  0.0000E+00  0.3197E+02
     -0.078  0.9453E-06  0.3197E+02
     -0.032  0.1157E+01  0.3203E+02
      0.014  0.5895E-01  0.3203E+02
      0.059  0.0000E+00  0.3203E+02
      0.105  0.0000E+00  0.3203E+02
      0.151  0.0000E+00  0.3203E+02
      0.196  0.0000E+00  0.3203E+02
      0.242  0.0000E+00  0.3203E+02
      0.288  0.0000E+00  0.3203E+02
      0.334  0.0000E+00  0.3203E+02
      0.379  0.0000E+00  0.3203E+02
      0.425  0.0000E+00  0.3203E+02
      0.471  0.2157E-08  0.3203E+02
      0.516  0.2365E+01  0.3214E+02
      0.562  0.1282E+01  0.3219E+02
      0.608  0.0000E+00  0.3219E+02
      0.654  0.0000E+00  0.3219E+02
      0.699  0.7052E-11  0.3219E+02
      0.745  0.6419E+00  0.3222E+02
      0.791  0.1181E+01  0.3228E+02
      0.836  0.0000E+00  0.3228E+02
      0.882  0.0000E+00  0.3228E+02
      0.928  0.0000E+00  0.3228E+02
      0.973  0.0000E+00  0.3228E+02
      1.019  0.5806E-04  0.3228E+02
      1.065  0.7405E+01  0.3262E+02
      1.111  0.2267E+01  0.3272E+02
      1.156  0.2379E+01  0.3283E+02
      1.202  0.2964E+01  0.3296E+02
      1.248  0.3269E+00  0.3298E+02
      1.293  0.3499E+01  0.3314E+02
      1.339  0.1795E+01  0.3322E+02
      1.385  0.7244E+00  0.3325E+02
      1.430  0.4767E+01  0.3347E+02
      1.476  0.6776E-02  0.3347E+02
      1.522  0.4924E-01  0.3347E+02
      1.568  0.5394E+01  0.3372E+02
      1.613  0.3402E-01  0.3372E+02
      1.659  0.3639E+01  0.3389E+02
      1.705  0.6236E-03  0.3389E+02
      1.750  0.5311E-07  0.3389E+02
      1.796  0.1786E+01  0.3397E+02
      1.842  0.3412E+00  0.3399E+02
      1.888  0.8560E+00  0.3403E+02
      1.933  0.4834E+01  0.3425E+02
      1.979  0.3183E+01  0.3439E+02
      2.025  0.5854E+00  0.3442E+02
      2.070  0.1214E+01  0.3447E+02
      2.116  0.1563E+01  0.3455E+02
      2.162  0.1874E+01  0.3463E+02
      2.207  0.1693E+01  0.3471E+02
      2.253  0.1622E+01  0.3478E+02
      2.299  0.3811E+01  0.3496E+02
      2.345  0.3690E-01  0.3496E+02
      2.390  0.1413E+01  0.3502E+02
      2.436  0.4528E+01  0.3523E+02
      2.482  0.1352E+01  0.3529E+02
      2.527  0.9211E-01  0.3530E+02
      2.573  0.3117E+01  0.3544E+02
      2.619  0.4084E+01  0.3562E+02
      2.665  0.8061E-04  0.3562E+02
      2.710  0.3316E-05  0.3563E+02
      2.756  0.1762E+01  0.3571E+02
      2.802  0.1053E+01  0.3575E+02
      2.847  0.5572E+01  0.3601E+02
      2.893  0.3656E+01  0.3618E+02
      2.939  0.3454E+01  0.3633E+02
      2.984  0.8976E-01  0.3634E+02
      3.030  0.3557E+01  0.3650E+02
      3.076  0.1257E-04  0.3650E+02
      3.122  0.1271E+01  0.3656E+02
      3.167  0.2375E+01  0.3667E+02
      3.213  0.1728E+01  0.3675E+02
      3.259  0.1919E+01  0.3683E+02
      3.304  0.1364E+01  0.3690E+02
      3.350  0.8369E+01  0.3728E+02
      3.396  0.3031E+01  0.3742E+02
      3.441  0.0000E+00  0.3742E+02
      3.487  0.8660E-02  0.3742E+02
      3.533  0.3637E+01  0.3758E+02
      3.579  0.4970E-03  0.3758E+02
      3.624  0.1569E-06  0.3758E+02
      3.670  0.3159E+01  0.3773E+02
      3.716  0.4871E+00  0.3775E+02
      3.761  0.1016E+01  0.3780E+02
      3.807  0.4901E+01  0.3802E+02
      3.853  0.3199E+01  0.3817E+02
      3.899  0.7886E-01  0.3817E+02
      3.944  0.4150E+01  0.3836E+02
      3.990  0.3064E+01  0.3850E+02
      4.036  0.7174E-03  0.3850E+02
      4.081  0.1821E+01  0.3858E+02
      4.127  0.3452E+01  0.3874E+02
      4.173  0.1965E+00  0.3875E+02
      4.218  0.1027E-04  0.3875E+02
      4.264  0.3548E+01  0.3891E+02
      4.310  0.1917E+01  0.3900E+02
      4.356  0.2493E+00  0.3901E+02
      4.401  0.1598E+01  0.3908E+02
      4.447  0.5450E+01  0.3933E+02
      4.493  0.1725E+01  0.3941E+02
      4.538  0.4011E+00  0.3943E+02
      4.584  0.5204E+01  0.3967E+02
      4.630  0.2682E+00  0.3968E+02
      4.676  0.7534E+00  0.3971E+02
      4.721  0.2736E+01  0.3984E+02
      4.767  0.5442E+01  0.4009E+02
      4.813  0.4061E+01  0.4027E+02
      4.858  0.3418E+01  0.4043E+02
      4.904  0.3626E+01  0.4060E+02
      4.950  0.2041E-01  0.4060E+02
      4.995  0.1189E+01  0.4065E+02
      5.041  0.4148E+01  0.4084E+02
      5.087  0.1323E+00  0.4085E+02
      5.133  0.2212E+01  0.4095E+02
      5.178  0.7605E+01  0.4130E+02
      5.224  0.6587E+01  0.4160E+02
      5.270  0.6216E-02  0.4160E+02
      5.315  0.1941E+00  0.4161E+02
      5.361  0.3556E+01  0.4177E+02
      5.407  0.1720E+01  0.4185E+02
      5.452  0.9064E-10  0.4185E+02
      5.498  0.1904E+01  0.4193E+02
      5.544  0.5389E+01  0.4218E+02
      5.590  0.3241E+01  0.4233E+02
      5.635  0.5604E+01  0.4258E+02
      5.681  0.3312E+01  0.4274E+02
      5.727  0.1350E+01  0.4280E+02
      5.772  0.1883E+01  0.4288E+02
      5.818  0.2893E+01  0.4302E+02
      5.864  0.8851E+00  0.4306E+02
      5.910  0.5460E+01  0.4331E+02
      5.955  0.3984E+01  0.4349E+02
      6.001  0.5432E+01  0.4374E+02
      6.047  0.2726E+01  0.4386E+02
      6.092  0.3578E+01  0.4402E+02
      6.138  0.4536E+01  0.4423E+02
      6.184  0.3713E+01  0.4440E+02
      6.229  0.9366E+00  0.4444E+02
      6.275  0.2258E+01  0.4455E+02
      6.321  0.5517E+01  0.4480E+02
      6.367  0.5087E+01  0.4503E+02
      6.412  0.2332E+01  0.4514E+02
      6.458  0.4319E-02  0.4514E+02
      6.504  0.6513E+01  0.4544E+02
      6.549  0.1153E+02  0.4596E+02
      6.595  0.9840E+01  0.4641E+02
      6.641  0.1775E+01  0.4649E+02
      6.687  0.7313E+00  0.4653E+02
      6.732  0.3893E+00  0.4655E+02
      6.778  0.1528E+02  0.4724E+02
      6.824  0.2954E+01  0.4738E+02
      6.869  0.8144E+00  0.4742E+02
      6.915  0.4757E+01  0.4763E+02
      6.961  0.9015E+01  0.4805E+02
      7.006  0.3066E+01  0.4819E+02
      7.052  0.5140E+00  0.4821E+02
      7.098  0.1197E+02  0.4876E+02
      7.144  0.4436E+01  0.4896E+02
      7.189  0.3451E+01  0.4912E+02
      7.235  0.5165E+01  0.4935E+02
      7.281  0.8977E+01  0.4976E+02
      7.326  0.5281E+01  0.5000E+02
      7.372  0.2274E+00  0.5002E+02
      7.418  0.2765E+01  0.5014E+02
      7.463  0.7659E+01  0.5049E+02
      7.509  0.1489E+02  0.5117E+02
      7.555  0.6323E+01  0.5146E+02
      7.601  0.9029E+01  0.5187E+02
      7.646  0.2219E+01  0.5198E+02
      7.692  0.3877E+01  0.5215E+02
      7.738  0.1279E+01  0.5221E+02
      7.783  0.1076E+01  0.5226E+02
      7.829  0.8822E+01  0.5266E+02
      7.875  0.2471E+01  0.5278E+02
      7.921  0.4748E+01  0.5299E+02
      7.966  0.2726E+01  0.5312E+02
      8.012  0.1289E+02  0.5371E+02
      8.058  0.5292E+01  0.5395E+02
      8.103  0.7972E+01  0.5431E+02
      8.149  0.7540E+01  0.5466E+02
      8.195  0.8568E+01  0.5505E+02
      8.240  0.1228E+02  0.5561E+02
      8.286  0.4258E+01  0.5581E+02
      8.332  0.1094E+01  0.5586E+02
      8.378  0.9354E+01  0.5628E+02
      8.423  0.9718E+01  0.5673E+02
      8.469  0.4449E+01  0.5693E+02
      8.515  0.7073E+00  0.5696E+02
      8.560  0.7512E+01  0.5731E+02
      8.606  0.8874E+01  0.5771E+02
      8.652  0.1165E+02  0.5824E+02
      8.698  0.1160E+02  0.5877E+02
      8.743  0.9617E+01  0.5921E+02
      8.789  0.4424E+01  0.5942E+02
      8.835  0.1887E+01  0.5950E+02
      8.880  0.5407E+01  0.5975E+02
      8.926  0.2694E+01  0.5987E+02
      8.972  0.4592E+01  0.6008E+02
      9.017  0.1556E+01  0.6015E+02
      9.063  0.7921E+01  0.6052E+02
      9.109  0.1029E+02  0.6099E+02
      9.155  0.5576E+01  0.6124E+02
      9.200  0.5823E+01  0.6151E+02
      9.246  0.1048E+02  0.6199E+02
      9.292  0.7313E+01  0.6232E+02
      9.337  0.3645E+01  0.6249E+02
      9.383  0.5821E+01  0.6275E+02
      9.429  0.8714E+01  0.6315E+02
      9.474  0.9554E+01  0.6359E+02
      9.520  0.1328E+02  0.6420E+02
      9.566  0.3911E+01  0.6437E+02
      9.612  0.1835E-01  0.6438E+02
      9.657  0.6520E+00  0.6440E+02
      9.703  0.1008E+02  0.6487E+02
      9.749  0.1084E+02  0.6536E+02
      9.794  0.7782E+01  0.6572E+02
      9.840  0.5534E+01  0.6597E+02
      9.886  0.3405E+01  0.6613E+02
      9.932  0.7256E+01  0.6646E+02
      9.977  0.2997E+01  0.6659E+02
     10.023  0.2535E+01  0.6671E+02
     10.069  0.2139E+01  0.6681E+02
     10.114  0.2393E+01  0.6692E+02
     10.160  0.5457E+01  0.6717E+02
     10.206  0.1926E+01  0.6725E+02
     10.251  0.6798E+01  0.6756E+02
     10.297  0.7639E+01  0.6791E+02
     10.343  0.7009E+00  0.6795E+02
     10.389  0.5580E+01  0.6820E+02
     10.434  0.1046E+02  0.6868E+02
     10.480  0.5415E+01  0.6893E+02
     10.526  0.3743E+01  0.6910E+02
     10.571  0.5076E+01  0.6933E+02
     10.617  0.9444E+01  0.6976E+02
     10.663  0.1871E+01  0.6985E+02
     10.709  0.6170E+00  0.6987E+02
     10.754  0.4512E+01  0.7008E+02
     10.800  0.4985E+01  0.7031E+02
     10.846  0.6260E+01  0.7060E+02
     10.891  0.9752E-01  0.7060E+02
     10.937  0.8216E+01  0.7098E+02
     10.983  0.8752E+00  0.7102E+02
     11.028  0.9064E+01  0.7143E+02
     11.074  0.9296E+01  0.7185E+02
     11.120  0.4648E+01  0.7207E+02
     11.166  0.5227E+01  0.7231E+02
     11.211  0.2321E-02  0.7231E+02
     11.257  0.1820E+01  0.7239E+02
     11.303  0.3129E+01  0.7253E+02
     11.348  0.5896E+01  0.7280E+02
     11.394  0.1513E+01  0.7287E+02
     11.440  0.7088E+01  0.7319E+02
     11.485  0.2189E-03  0.7319E+02
     11.531  0.5751E+00  0.7322E+02
     11.577  0.4173E+01  0.7341E+02
     11.623  0.4369E+01  0.7361E+02
     11.668  0.8761E+00  0.7365E+02
     11.714  0.8439E+01  0.7404E+02
     11.760  0.6086E+01  0.7432E+02
     11.805  0.1644E+01  0.7439E+02
     11.851  0.4963E+01  0.7462E+02
     11.897  0.9588E+01  0.7506E+02
     11.943  0.9311E+01  0.7548E+02
     11.988  0.7327E+01  0.7582E+02
     12.034  0.4903E+01  0.7604E+02
     12.080  0.5169E+01  0.7628E+02
     12.125  0.1341E+02  0.7689E+02
     12.171  0.1625E+02  0.7763E+02
     12.217  0.8670E+01  0.7803E+02
     12.262  0.4491E+00  0.7805E+02
     12.308  0.6832E+01  0.7836E+02
     12.354  0.9198E+01  0.7878E+02
     12.400  0.7055E+01  0.7910E+02
     12.445  0.3816E+01  0.7928E+02
     12.491  0.8772E-01  0.7928E+02
     12.537  0.3909E+01  0.7946E+02
     12.582  0.1121E+02  0.7997E+02
     12.628  0.2165E+01  0.8007E+02
     12.674  0.1152E+02  0.8060E+02
     12.720  0.7419E+01  0.8094E+02
     12.765  0.1139E+01  0.8099E+02
     12.811  0.1013E+01  0.8104E+02
     12.857  0.9101E+01  0.8145E+02
     12.902  0.9054E+00  0.8149E+02
     12.948  0.8908E+01  0.8190E+02
     12.994  0.7565E+01  0.8225E+02
     13.039  0.1005E+02  0.8271E+02
     13.085  0.6877E+01  0.8302E+02
     13.131  0.5914E+01  0.8329E+02
     13.177  0.3040E+01  0.8343E+02
     13.222  0.4996E+01  0.8366E+02
     13.268  0.8607E+01  0.8405E+02
     13.314  0.1080E+02  0.8454E+02
     13.359  0.2373E+01  0.8465E+02
     13.405  0.2341E+01  0.8476E+02
     13.451  0.3130E+01  0.8490E+02
     13.496  0.5234E+01  0.8514E+02
     13.542  0.2414E+01  0.8525E+02
     13.588  0.6347E+01  0.8554E+02
     13.634  0.5497E+01  0.8579E+02
     13.679  0.6934E+01  0.8611E+02
     13.725  0.4481E+01  0.8632E+02
     13.771  0.7192E+01  0.8664E+02
     13.816  0.5989E+01  0.8692E+02
     13.862  0.6493E+01  0.8721E+02
     13.908  0.1185E+02  0.8776E+02
     13.954  0.7675E+01  0.8811E+02
     13.999  0.7151E+01  0.8843E+02
     14.045  0.5918E+01  0.8870E+02
     14.091  0.6898E+01  0.8902E+02
     14.136  0.6255E+01  0.8931E+02
     14.182  0.5193E+01  0.8954E+02