<?xml version="1.0" encoding="ISO-8859-1"?>
<modeling>
 <generator>
  <i name="program" type="string">vasp </i>
  <i name="version" type="string">5.4.4.18Apr17-6-g9f103f2a35  </i>
  <i name="subversion" type="string">(build Mar 30 2023 15:39:25) complex            parallel </i>
  <i name="platform" type="string">LinuxIFC </i>
  <i name="date" type="string">2023 06 28 </i>
  <i name="time" type="string">01:57:55 </i>
 </generator>
 <incar>
  <i type="string" name="SYSTEM"> BC3-optical</i>
  <i type="int" name="ISTART">     1</i>
  <i type="string" name="PREC">accurate</i>
  <i type="string" name="ALGO"> Exact</i>
  <i type="int" name="ICHARG">     2</i>
  <i name="EDIFF">      0.00000001</i>
  <i name="ENCUT">    450.00000000</i>
  <i type="int" name="NBANDS">   352</i>
  <i type="int" name="NEDOS">  2400</i>
  <i type="logical" name="LREAL"> F  </i>
  <i type="int" name="ISMEAR">     0</i>
  <i name="SIGMA">      0.01000000</i>
  <i type="int" name="NWRITE">     3</i>
  <i type="logical" name="LOPTICS"> T  </i>
  <v type="int" name="KPOINT_BSE">    -1     0     0     0</v>
  <i name="CSHIFT">      0.10000000</i>
  <i name="CSHIFT">      0.10000000</i>
 </incar>
 <structure name="primitive_cell" >
  <crystal>
   <varray name="basis" >
    <v>       4.48084843       2.58701885       0.00000000 </v>
    <v>      -4.48084843       2.58701885       0.00000000 </v>
    <v>       0.00000000       0.00000000       8.52022140 </v>
   </varray>
   <i name="volume">    197.53348383 </i>
   <varray name="rec_basis" >
    <v>       0.11158601       0.19327265       0.00000000 </v>
    <v>      -0.11158601       0.19327265       0.00000000 </v>
    <v>       0.00000000       0.00000000       0.11736784 </v>
   </varray>
  </crystal>
  <varray name="positions" >
   <v>       0.33333300      -0.33333400       0.25000000 </v>
   <v>       0.15869124       0.31738348       0.25000000 </v>
   <v>      -0.31738448      -0.15869224       0.25000000 </v>
   <v>       0.15869124      -0.15869224       0.25000000 </v>
   <v>      -0.15869224       0.15869124       0.25000000 </v>
   <v>       0.31738348       0.15869124       0.25000000 </v>
   <v>      -0.15869224      -0.31738448       0.25000000 </v>
   <v>      -0.33333400       0.33333300       0.25000000 </v>
  </varray>
 </structure>
 <varray name="primitive_index" >
  <v type="int" >        1 </v>
  <v type="int" >        3 </v>
  <v type="int" >        7 </v>
  <v type="int" >        5 </v>
  <v type="int" >        6 </v>
  <v type="int" >        4 </v>
  <v type="int" >        8 </v>
  <v type="int" >        2 </v>
 </varray>
 <kpoints>
  <generation param="Gamma">
   <v type="int" name="divisions">      12       12        1 </v>
   <v name="usershift">      0.00000000       0.00000000       0.00000000 </v>
   <v name="genvec1">      0.08333333       0.00000000       0.00000000 </v>
   <v name="genvec2">      0.00000000       0.08333333       0.00000000 </v>
   <v name="genvec3">      0.00000000       0.00000000       1.00000000 </v>
   <v name="shift">      0.00000000       0.00000000       0.00000000 </v>
  </generation>
  <varray name="kpointlist" >
   <v>       0.00000000       0.00000000       0.00000000 </v>
   <v>       0.08333333       0.00000000       0.00000000 </v>
   <v>       0.16666667       0.00000000       0.00000000 </v>
   <v>       0.25000000      -0.00000000       0.00000000 </v>
   <v>       0.33333333      -0.00000000       0.00000000 </v>
   <v>       0.41666667       0.00000000       0.00000000 </v>
   <v>       0.50000000      -0.00000000       0.00000000 </v>
   <v>       0.08333333       0.08333333       0.00000000 </v>
   <v>       0.16666667       0.08333333       0.00000000 </v>
   <v>       0.25000000       0.08333333       0.00000000 </v>
   <v>       0.33333333       0.08333333       0.00000000 </v>
   <v>       0.41666667       0.08333333       0.00000000 </v>
   <v>       0.16666667       0.16666667       0.00000000 </v>
   <v>       0.25000000       0.16666667       0.00000000 </v>
   <v>       0.33333333       0.16666667       0.00000000 </v>
   <v>       0.41666667       0.16666667       0.00000000 </v>
   <v>       0.25000000       0.25000000       0.00000000 </v>
   <v>       0.33333333       0.25000000       0.00000000 </v>
   <v>       0.33333333       0.33333333       0.00000000 </v>
  </varray>
  <varray name="weights" >
   <v>       0.00694444 </v>
   <v>       0.04166667 </v>
   <v>       0.04166667 </v>
   <v>       0.04166667 </v>
   <v>       0.04166667 </v>
   <v>       0.04166667 </v>
   <v>       0.02083333 </v>
   <v>       0.04166667 </v>
   <v>       0.08333333 </v>
   <v>       0.08333333 </v>
   <v>       0.08333333 </v>
   <v>       0.08333333 </v>
   <v>       0.04166667 </v>
   <v>       0.08333333 </v>
   <v>       0.08333333 </v>
   <v>       0.04166667 </v>
   <v>       0.04166667 </v>
   <v>       0.08333333 </v>
   <v>       0.01388889 </v>
  </varray>
 </kpoints>
 <parameters>
  <separator name="general" >
   <i type="string" name="SYSTEM">BC3-optical</i>
   <i type="logical" name="LCOMPAT"> F  </i>
  </separator>
  <separator name="electronic" >
   <i type="string" name="PREC">accura</i>
   <i name="ENMAX">    450.00000000</i>
   <i name="ENAUG">    644.87300000</i>
   <i name="EDIFF">      0.00000001</i>
   <i type="int" name="IALGO">    90</i>
   <i type="int" name="IWAVPR">    10</i>
   <i type="int" name="NBANDS">   360</i>
   <i name="NELECT">     30.00000000</i>
   <i type="int" name="TURBO">     0</i>
   <i type="int" name="IRESTART">     0</i>
   <i type="int" name="NREBOOT">     0</i>
   <i type="int" name="NMIN">     0</i>
   <i name="EREF">      0.00000000</i>
   <separator name="electronic smearing" >
    <i type="int" name="ISMEAR">     0</i>
    <i name="SIGMA">      0.01000000</i>
    <i name="KSPACING">      0.50000000</i>
    <i type="logical" name="KGAMMA"> T  </i>
   </separator>
   <separator name="electronic projectors" >
    <i type="logical" name="LREAL"> F  </i>
    <v name="ROPT">      0.00000000      0.00000000</v>
    <i type="int" name="LMAXPAW">  -100</i>
    <i type="int" name="LMAXMIX">     2</i>
    <i type="logical" name="NLSPLINE"> F  </i>
   </separator>
   <separator name="electronic startup" >
    <i type="int" name="ISTART">     1</i>
    <i type="int" name="ICHARG">     2</i>
    <i type="int" name="INIWAV">     1</i>
   </separator>
   <separator name="electronic spin" >
    <i type="int" name="ISPIN">     1</i>
    <i type="logical" name="LNONCOLLINEAR"> F  </i>
    <v name="MAGMOM">      1.00000000      1.00000000      1.00000000      1.00000000      1.00000000      1.00000000      1.00000000      1.00000000</v>
    <i name="NUPDOWN">     -1.00000000</i>
    <i type="logical" name="LSORBIT"> F  </i>
    <v name="SAXIS">      0.00000000      0.00000000      1.00000000</v>
    <i type="logical" name="LSPIRAL"> F  </i>
    <v name="QSPIRAL">      0.00000000      0.00000000      0.00000000</v>
    <i type="logical" name="LZEROZ"> F  </i>
   </separator>
   <separator name="electronic exchange-correlation" >
    <i type="logical" name="LASPH"> F  </i>
    <i type="logical" name="LMETAGGA"> F  </i>
   </separator>
   <separator name="electronic convergence" >
    <i type="int" name="NELM">    60</i>
    <i type="int" name="NELMDL">     0</i>
    <i type="int" name="NELMIN">     2</i>
    <i name="ENINI">    450.00000000</i>
    <separator name="electronic convergence detail" >
     <i type="logical" name="LDIAG"> T  </i>
     <i type="logical" name="LSUBROT"> F  </i>
     <i name="WEIMIN">      0.00000000</i>
     <i name="EBREAK">      0.00000000</i>
     <i name="DEPER">      0.30000000</i>
     <i type="int" name="NRMM">     4</i>
     <i name="TIME">      0.40000000</i>
    </separator>
   </separator>
   <separator name="electronic mixer" >
    <i name="AMIX">      0.40000000</i>
    <i name="BMIX">      1.00000000</i>
    <i name="AMIN">      0.10000000</i>
    <i name="AMIX_MAG">      1.60000000</i>
    <i name="BMIX_MAG">      1.00000000</i>
    <separator name="electronic mixer details" >
     <i type="int" name="IMIX">     4</i>
     <i type="logical" name="MIXFIRST"> F  </i>
     <i type="int" name="MAXMIX">   -45</i>
     <i name="WC">    100.00000000</i>
     <i type="int" name="INIMIX">     1</i>
     <i type="int" name="MIXPRE">     1</i>
     <i type="int" name="MREMOVE">     5</i>
    </separator>
   </separator>
   <separator name="electronic dipolcorrection" >
    <i type="logical" name="LDIPOL"> F  </i>
    <i type="logical" name="LMONO"> F  </i>
    <i type="int" name="IDIPOL">     0</i>
    <i name="EPSILON">      1.00000000</i>
    <v name="DIPOL">   -100.00000000   -100.00000000   -100.00000000</v>
    <i name="EFIELD">      0.00000000</i>
   </separator>
  </separator>
  <separator name="grids" >
   <i type="int" name="NGX">    36</i>
   <i type="int" name="NGY">    36</i>
   <i type="int" name="NGZ">    60</i>
   <i type="int" name="NGXF">    72</i>
   <i type="int" name="NGYF">    72</i>
   <i type="int" name="NGZF">   120</i>
   <i type="logical" name="ADDGRID"> F  </i>
  </separator>
  <separator name="ionic" >
   <i type="int" name="NSW">     0</i>
   <i type="int" name="IBRION">    -1</i>
   <i type="int" name="MDALGO">     0</i>
   <i type="int" name="ISIF">     2</i>
   <i name="PSTRESS">      0.00000000</i>
   <i name="EDIFFG">      0.00000010</i>
   <i type="int" name="NFREE">     0</i>
   <i name="POTIM">      0.50000000</i>
   <i name="SMASS">     -3.00000000</i>
   <i name="SCALEE">      1.00000000</i>
  </separator>
  <separator name="ionic md" >
   <i name="TEBEG">      0.00010000</i>
   <i name="TEEND">      0.00010000</i>
   <i type="int" name="NBLOCK">     1</i>
   <i type="int" name="KBLOCK">     1</i>
   <i type="int" name="NPACO">   256</i>
   <i name="APACO">     16.00000000</i>
  </separator>
  <separator name="symmetry" >
   <i type="int" name="ISYM">     2</i>
   <i name="SYMPREC">      0.00001000</i>
  </separator>
  <separator name="dos" >
   <i type="int" name="LORBIT">     0</i>
   <v name="RWIGS">     -1.00000000     -1.00000000</v>
   <i type="int" name="NEDOS">  2400</i>
   <i name="EMIN">     10.00000000</i>
   <i name="EMAX">    -10.00000000</i>
   <i name="EFERMI">      0.00000000</i>
  </separator>
  <separator name="writing" >
   <i type="int" name="NWRITE">     3</i>
   <i type="logical" name="LWAVE"> T  </i>
   <i type="logical" name="LDOWNSAMPLE"> F  </i>
   <i type="logical" name="LCHARG"> T  </i>
   <i type="logical" name="LPARD"> F  </i>
   <i type="logical" name="LVTOT"> F  </i>
   <i type="logical" name="LVHAR"> F  </i>
   <i type="logical" name="LELF"> F  </i>
   <i type="logical" name="LOPTICS"> T  </i>
   <v name="STM">      0.00000000      0.00000000      0.00000000      0.00000000      0.00000000      0.00000000      0.00000000</v>
  </separator>
  <separator name="performance" >
   <i type="int" name="NPAR">    12</i>
   <i type="int" name="NSIM">     4</i>
   <i type="int" name="NBLK">    -1</i>
   <i type="logical" name="LPLANE"> T  </i>
   <i type="logical" name="LSCALAPACK"> T  </i>
   <i type="logical" name="LSCAAWARE"> F  </i>
   <i type="logical" name="LSCALU"> F  </i>
   <i type="logical" name="LASYNC"> F  </i>
   <i type="logical" name="LORBITALREAL"> F  </i>
  </separator>
  <separator name="miscellaneous" >
   <i type="int" name="IDIOT">     3</i>
   <i type="int" name="ISPECIAL">     0</i>
   <i type="logical" name="LMUSIC"> F  </i>
   <v name="POMASS">     10.81100000     12.01100000</v>
   <v name="DARWINR">      0.00000000      0.00000000</v>
   <v name="DARWINV">      1.00000000      1.00000000</v>
   <i type="logical" name="LCORR"> T  </i>
  </separator>
  <i type="logical" name="GGA_COMPAT"> T  </i>
  <i type="logical" name="LBERRY"> F  </i>
  <i type="int" name="ICORELEVEL">     0</i>
  <i type="logical" name="LDAU"> F  </i>
  <i type="int" name="I_CONSTRAINED_M">     0</i>
  <separator name="electronic exchange-correlation" >
   <i type="string" name="GGA">--</i>
   <i type="int" name="VOSKOWN">     0</i>
   <i type="logical" name="LHFCALC"> F  </i>
   <i type="string" name="PRECFOCK"></i>
   <i type="logical" name="LSYMGRAD"> F  </i>
   <i type="logical" name="LHFONE"> F  </i>
   <i type="logical" name="LRHFCALC"> F  </i>
   <i type="logical" name="LTHOMAS"> F  </i>
   <i type="logical" name="LMODELHF"> F  </i>
   <i name="ENCUT4O">     -1.00000000</i>
   <i type="int" name="EXXOEP">     0</i>
   <i type="int" name="FOURORBIT">     0</i>
   <i name="AEXX">      0.00000000</i>
   <i name="HFALPHA">      0.00000000</i>
   <i name="MCALPHA">      0.00000000</i>
   <i name="ALDAX">      1.00000000</i>
   <i name="AGGAX">      1.00000000</i>
   <i name="ALDAC">      1.00000000</i>
   <i name="AGGAC">      1.00000000</i>
   <i type="int" name="NKREDX">     1</i>
   <i type="int" name="NKREDY">     1</i>
   <i type="int" name="NKREDZ">     1</i>
   <i type="logical" name="SHIFTRED"> F  </i>
   <i type="logical" name="ODDONLY"> F  </i>
   <i type="logical" name="EVENONLY"> F  </i>
   <i type="int" name="LMAXFOCK">     0</i>
   <i type="int" name="NMAXFOCKAE">     0</i>
   <i type="logical" name="LFOCKAEDFT"> F  </i>
   <i name="HFSCREEN">      0.00000000</i>
   <i name="HFSCREENC">      0.00000000</i>
   <i type="int" name="NBANDSGWLOW">     0</i>
  </separator>
  <separator name="vdW DFT" >
   <i type="logical" name="LUSE_VDW"> F  </i>
   <i name="Zab_VDW">     -0.84910000</i>
   <i name="PARAM1">      0.12340000</i>
   <i name="PARAM2">      1.00000000</i>
   <i name="PARAM3">      0.00000000</i>
  </separator>
  <separator name="model GW" >
   <i type="int" name="MODEL_GW">     0</i>
   <i name="MODEL_EPS0">     14.81501129</i>
   <i name="MODEL_ALPHA">      1.00000000</i>
  </separator>
  <separator name="linear response parameters" >
   <i type="logical" name="LEPSILON"> F  </i>
   <i type="logical" name="LRPA"> F  </i>
   <i type="logical" name="LNABLA"> F  </i>
   <i type="logical" name="LVEL"> F  </i>
   <i type="int" name="KINTER">     0</i>
   <i name="CSHIFT">      0.10000000</i>
   <i name="OMEGAMAX">     -1.00000000</i>
   <i name="DEG_THRESHOLD">      0.00200000</i>
   <i name="RTIME">     -0.10000000</i>
   <i name="WPLASMAI">      0.00000000</i>
   <v name="DFIELD">      0.00000000      0.00000000      0.00000000</v>
   <v name="WPLASMA">      0.00000000      0.00000000      0.00000000      0.00000000      0.00000000      0.00000000      0.00000000      0.00000000      0.00000000</v>
  </separator>
  <separator name="orbital magnetization" >
   <i type="logical" name="NUCIND"> F  </i>
   <v name="MAGPOS">      0.00000000      0.00000000      0.00000000</v>
   <i type="logical" name="LNICSALL"> T  </i>
   <i type="logical" name="ORBITALMAG"> F  </i>
   <i type="logical" name="LMAGBLOCH"> F  </i>
   <i type="logical" name="LCHIMAG"> F  </i>
   <i type="logical" name="LGAUGE"> T  </i>
   <i type="int" name="MAGATOM">     0</i>
   <v name="MAGDIPOL">      0.00000000      0.00000000      0.00000000</v>
   <v name="AVECCONST">      0.00000000      0.00000000      0.00000000</v>
  </separator>
  <separator name="response functions" >
   <i type="logical" name="LADDER"> F  </i>
   <i type="logical" name="LRPAFORCE"> F  </i>
   <i type="logical" name="LFXC"> F  </i>
   <i type="logical" name="LHARTREE"> T  </i>
   <i type="int" name="IBSE">     0</i>
   <v type="int" name="KPOINT">    -1     0     0     0</v>
   <i type="logical" name="LTCTE"> F  </i>
   <i type="logical" name="LTETE"> F  </i>
   <i type="logical" name="LTRIPLET"> F  </i>
   <i type="logical" name="LFXCEPS"> F  </i>
   <i type="logical" name="LFXHEG"> F  </i>
   <i type="int" name="NATURALO">     2</i>
   <i type="logical" name="L2ORDER"> F  </i>
   <i type="logical" name="LMP2LT"> F  </i>
   <i type="logical" name="LUSEW"> F  </i>
   <i name="ENCUTGW">     -2.00000000</i>
   <i name="ENCUTGWSOFT">     -2.00000000</i>
   <i name="ENCUTLF">     -1.00000000</i>
   <i type="int" name="LMAXMP2">    -1</i>
   <i name="SCISSOR">      0.00000000</i>
   <i type="int" name="NOMEGA">     0</i>
   <i type="int" name="NOMEGAR">     0</i>
   <i type="int" name="NBANDSGW">    -1</i>
   <i type="int" name="NBANDSO">    -1</i>
   <i type="int" name="NBANDSV">    -1</i>
   <i type="int" name="NELM">     1</i>
   <i type="int" name="NELMHF">     1</i>
   <i type="int" name="DIM">     3</i>
   <i type="int" name="ANTIRES">     0</i>
   <i name="OMEGAMAX">    -30.00000000</i>
   <i name="OMEGAMIN">    -30.00000000</i>
   <i name="OMEGATL">   -200.00000000</i>
   <i type="int" name="OMEGAGRID">   140</i>
   <i name="CSHIFT">      0.10000000</i>
   <i type="logical" name="SELFENERGY"> F  </i>
   <i type="logical" name="LSPECTRAL"> F  </i>
   <i type="logical" name="LSPECTRALGW"> F  </i>
   <i type="logical" name="LSINGLES"> F  </i>
   <i type="logical" name="LFERMIGW"> F  </i>
   <i type="logical" name="ODDONLYGW"> F  </i>
   <i type="logical" name="EVENONLYGW"> F  </i>
   <i type="int" name="NKREDLFX">     1</i>
   <i type="int" name="NKREDLFY">     1</i>
   <i type="int" name="NKREDLFZ">     1</i>
   <i type="int" name="MAXMEM">  2800</i>
   <i type="int" name="TELESCOPE">     0</i>
   <i type="int" name="TAUPAR">     1</i>
   <i type="int" name="OMEGAPAR">    -1</i>
   <i name="LAMBDA">      1.00000000</i>
  </separator>
  <separator name="External order field" >
   <i name="OFIELD_KAPPA">      0.00000000</i>
   <v name="OFIELD_K">      0.00000000      0.00000000      0.00000000</v>
   <i name="OFIELD_Q6_NEAR">      0.00000000</i>
   <i name="OFIELD_Q6_FAR">      0.00000000</i>
   <i name="OFIELD_A">      0.00000000</i>
  </separator>
 </parameters>
 <atominfo>
  <atoms>       8 </atoms>
  <types>       2 </types>
  <array name="atoms" >
   <dimension dim="1">ion</dimension>
   <field type="string">element</field>
   <field type="int">atomtype</field>
   <set>
    <rc><c>B </c><c>   1</c></rc>
    <rc><c>B </c><c>   1</c></rc>
    <rc><c>C </c><c>   2</c></rc>
    <rc><c>C </c><c>   2</c></rc>
    <rc><c>C </c><c>   2</c></rc>
    <rc><c>C </c><c>   2</c></rc>
    <rc><c>C </c><c>   2</c></rc>
    <rc><c>C </c><c>   2</c></rc>
   </set>
  </array>
  <array name="atomtypes" >
   <dimension dim="1">type</dimension>
   <field type="int">atomspertype</field>
   <field type="string">element</field>
   <field>mass</field>
   <field>valence</field>
   <field type="string">pseudopotential</field>
   <set>
    <rc><c>   2</c><c>B </c><c>     10.81100000</c><c>      3.00000000</c><c>  PAW_PBE B 06Sep2000                   </c></rc>
    <rc><c>   6</c><c>C </c><c>     12.01100000</c><c>      4.00000000</c><c>  PAW_PBE C 08Apr2002                   </c></rc>
   </set>
  </array>
 </atominfo>
 <structure name="initialpos" >
  <crystal>
   <varray name="basis" >
    <v>       4.48084843       2.58701885       0.00000000 </v>
    <v>      -4.48084843       2.58701885       0.00000000 </v>
    <v>       0.00000000       0.00000000       8.52022140 </v>
   </varray>
   <i name="volume">    197.53348383 </i>
   <varray name="rec_basis" >
    <v>       0.11158601       0.19327265       0.00000000 </v>
    <v>      -0.11158601       0.19327265       0.00000000 </v>
    <v>       0.00000000       0.00000000       0.11736784 </v>
   </varray>
  </crystal>
  <varray name="positions" >
   <v>       0.33333300       0.66666600       0.25000000 </v>
   <v>       0.66666600       0.33333300       0.25000000 </v>
   <v>       0.15869124       0.31738348       0.25000000 </v>
   <v>       0.31738348       0.15869124       0.25000000 </v>
   <v>       0.15869124       0.84130776       0.25000000 </v>
   <v>       0.84130776       0.15869124       0.25000000 </v>
   <v>       0.68261552       0.84130776       0.25000000 </v>
   <v>       0.84130776       0.68261552       0.25000000 </v>
  </varray>
 </structure>
 <calculation>
  <scstep>
   <time name="diag">  528.27  528.30</time>
   <time name="total">  528.37  528.40</time>
   <energy>
    <i name="alphaZ">     25.67921176 </i>
    <i name="ewald">    700.27145080 </i>
    <i name="hartreedc">  -1524.76618073 </i>
    <i name="XCdc">     91.14273073 </i>
    <i name="pawpsdc">    738.13200929 </i>
    <i name="pawaedc">   -739.83780425 </i>
    <i name="eentropy">     -0.00000000 </i>
    <i name="bandstr">   -389.26594481 </i>
    <i name="atom">   1025.20389953 </i>
    <i name="e_fr_energy">    -73.44062769 </i>
    <i name="e_wo_entrp">    -73.44062769 </i>
    <i name="e_0_energy">    -73.44062769 </i>
   </energy>
  </scstep>
  <scstep>
   <time name="diag">  553.01  553.03</time>
   <time name="total">  553.12  553.14</time>
   <energy>
    <i name="e_fr_energy">    -68.99901163 </i>
    <i name="e_wo_entrp">    -68.99901163 </i>
    <i name="e_0_energy">    -68.99901163 </i>
   </energy>
  </scstep>
  <scstep>
   <time name="diag">  538.41  538.44</time>
   <time name="total">  538.52  538.55</time>
   <energy>
    <i name="e_fr_energy">    -67.35394036 </i>
    <i name="e_wo_entrp">    -67.35394036 </i>
    <i name="e_0_energy">    -67.35394036 </i>
   </energy>
  </scstep>
  <scstep>
   <time name="diag">  548.29  548.32</time>
   <time name="total">  548.40  548.43</time>
   <energy>
    <i name="e_fr_energy">    -67.24757337 </i>
    <i name="e_wo_entrp">    -67.24757337 </i>
    <i name="e_0_energy">    -67.24757337 </i>
   </energy>
  </scstep>
  <scstep>
   <time name="diag">  567.15  567.18</time>
   <time name="total">  567.26  567.29</time>
   <energy>
    <i name="e_fr_energy">    -67.22049319 </i>
    <i name="e_wo_entrp">    -67.22049319 </i>
    <i name="e_0_energy">    -67.22049319 </i>
   </energy>
  </scstep>
  <scstep>
   <time name="diag">  554.99  555.01</time>
   <time name="total">  555.10  555.12</time>
   <energy>
    <i name="e_fr_energy">    -67.21907962 </i>
    <i name="e_wo_entrp">    -67.21907962 </i>
    <i name="e_0_energy">    -67.21907962 </i>
   </energy>
  </scstep>
  <scstep>
   <time name="diag">  546.46  546.49</time>
   <time name="total">  546.57  546.60</time>
   <energy>
    <i name="e_fr_energy">    -67.22295241 </i>
    <i name="e_wo_entrp">    -67.22295241 </i>
    <i name="e_0_energy">    -67.22295241 </i>
   </energy>
  </scstep>
  <scstep>
   <time name="diag">  548.40  548.43</time>
   <time name="total">  548.51  548.53</time>
   <energy>
    <i name="e_fr_energy">    -67.22702477 </i>
    <i name="e_wo_entrp">    -67.22702477 </i>
    <i name="e_0_energy">    -67.22702477 </i>
   </energy>
  </scstep>
  <scstep>
   <time name="diag">  532.79  532.82</time>
   <time name="total">  532.90  532.92</time>
   <energy>
    <i name="e_fr_energy">    -67.22770203 </i>
    <i name="e_wo_entrp">    -67.22770203 </i>
    <i name="e_0_energy">    -67.22770203 </i>
   </energy>
  </scstep>
  <scstep>
   <time name="diag">  545.56  545.58</time>
   <time name="total">  545.67  545.69</time>
   <energy>
    <i name="e_fr_energy">    -67.22771724 </i>
    <i name="e_wo_entrp">    -67.22771724 </i>
    <i name="e_0_energy">    -67.22771724 </i>
   </energy>
  </scstep>
  <scstep>
   <time name="diag">  544.50  544.52</time>
   <time name="total">  544.61  544.64</time>
   <energy>
    <i name="e_fr_energy">    -67.22773009 </i>
    <i name="e_wo_entrp">    -67.22773009 </i>
    <i name="e_0_energy">    -67.22773009 </i>
   </energy>
  </scstep>
  <scstep>
   <time name="diag">  545.27  545.30</time>
   <time name="total">  545.38  545.41</time>
   <energy>
    <i name="e_fr_energy">    -67.22773016 </i>
    <i name="e_wo_entrp">    -67.22773016 </i>
    <i name="e_0_energy">    -67.22773016 </i>
   </energy>
  </scstep>
  <scstep>
   <time name="diag">  545.21  545.23</time>
   <time name="total">  545.32  545.34</time>
   <energy>
    <i name="e_fr_energy">    -67.22773024 </i>
    <i name="e_wo_entrp">    -67.22773024 </i>
    <i name="e_0_energy">    -67.22773024 </i>
   </energy>
  </scstep>
  <scstep>
   <time name="diag">  544.14  544.17</time>
   <time name="total">  544.19  544.22</time>
   <energy>
    <i name="alphaZ">     25.67921176 </i>
    <i name="ewald">    700.27145080 </i>
    <i name="hartreedc">  -1646.75291199 </i>
    <i name="XCdc">     96.02426133 </i>
    <i name="pawpsdc">   2894.38113021 </i>
    <i name="pawaedc">  -2896.90834130 </i>
    <i name="eentropy">     -0.00000000 </i>
    <i name="bandstr">   -265.12643058 </i>
    <i name="atom">   1025.20389953 </i>
    <i name="e_fr_energy">    -67.22773025 </i>
    <i name="e_wo_entrp">    -67.22773025 </i>
    <i name="e_0_energy">    -67.22773025 </i>
   </energy>
  </scstep>
  <structure>
   <crystal>
    <varray name="basis" >
     <v>       4.48084843       2.58701885       0.00000000 </v>
     <v>      -4.48084843       2.58701885       0.00000000 </v>
     <v>       0.00000000       0.00000000       8.52022140 </v>
    </varray>
    <i name="volume">    197.53348383 </i>
    <varray name="rec_basis" >
     <v>       0.11158601       0.19327265       0.00000000 </v>
     <v>      -0.11158601       0.19327265       0.00000000 </v>
     <v>       0.00000000       0.00000000       0.11736784 </v>
    </varray>
   </crystal>
   <varray name="positions" >
    <v>       0.33333300       0.66666600       0.25000000 </v>
    <v>       0.66666600       0.33333300       0.25000000 </v>
    <v>       0.15869124       0.31738348       0.25000000 </v>
    <v>       0.31738348       0.15869124       0.25000000 </v>
    <v>       0.15869124       0.84130776       0.25000000 </v>
    <v>       0.84130776       0.15869124       0.25000000 </v>
    <v>       0.68261552       0.84130776       0.25000000 </v>
    <v>       0.84130776       0.68261552       0.25000000 </v>
   </varray>
  </structure>
  <varray name="forces" >
   <v>      -0.00000000       0.00000000       0.00000000 </v>
   <v>      -0.00000000       0.00000000       0.00000000 </v>
   <v>      -0.00064694       0.00112054       0.00000000 </v>
   <v>       0.00064694       0.00112054       0.00000000 </v>
   <v>       0.00129389       0.00000000      -0.00000000 </v>
   <v>      -0.00129389       0.00000000       0.00000000 </v>
   <v>      -0.00064694      -0.00112054      -0.00000000 </v>
   <v>       0.00064694      -0.00112054      -0.00000000 </v>
  </varray>
  <varray name="stress" >
   <v>      -0.53277498       0.00000000       0.00000000 </v>
   <v>       0.00000000      -0.53277490      -0.00000000 </v>
   <v>      -0.00000000      -0.00000000      -1.27118546 </v>
  </varray>
  <energy>
   <i name="e_fr_energy">    -67.22773025 </i>
   <i name="e_wo_entrp">    -67.22773025 </i>
   <i name="e_0_energy">     -0.00000000 </i>
  </energy>
  <time name="totalsc"> 7649.25 7651.69</time>
  <eigenvalues>
   <array>
    <dimension dim="1">band</dimension>
    <dimension dim="2">kpoint</dimension>
    <dimension dim="3">spin</dimension>
    <field>eigene</field>
    <field>occ</field>
    <set>
     <set comment="spin 1">
      <set comment="kpoint 1">
       <r>  -18.5403    1.0000 </r>
       <r>  -14.6488    1.0000 </r>
       <r>  -14.6488    1.0000 </r>
       <r>  -12.2992    1.0000 </r>
       <r>  -12.2992    1.0000 </r>
       <r>  -11.2307    1.0000 </r>
       <r>   -9.9135    1.0000 </r>
       <r>   -7.3452    1.0000 </r>
       <r>   -7.1249    1.0000 </r>
       <r>   -4.9710    1.0000 </r>
       <r>   -4.9710    1.0000 </r>
       <r>   -3.1493    1.0000 </r>
       <r>   -3.1492    1.0000 </r>
       <r>   -2.4667    1.0000 </r>
       <r>   -2.4666    1.0000 </r>
       <r>   -0.6315    0.0000 </r>
       <r>    1.1011    0.0000 </r>
       <r>    1.1012    0.0000 </r>
       <r>    1.7906    0.0000 </r>
       <r>    1.9217    0.0000 </r>
       <r>    4.5207    0.0000 </r>
       <r>    5.9130    0.0000 </r>
       <r>    6.3151    0.0000 </r>
       <r>    6.3151    0.0000 </r>
       <r>    7.6726    0.0000 </r>
       <r>    8.0796    0.0000 </r>
       <r>    8.0797    0.0000 </r>
       <r>    8.9955    0.0000 </r>
       <r>    9.1419    0.0000 </r>
       <r>    9.1419    0.0000 </r>
       <r>    9.2976    0.0000 </r>
       <r>    9.2976    0.0000 </r>
       <r>    9.5160    0.0000 </r>
       <r>   10.3273    0.0000 </r>
       <r>   10.6836    0.0000 </r>
       <r>   10.6836    0.0000 </r>
       <r>   11.3540    0.0000 </r>
       <r>   11.3541    0.0000 </r>
       <r>   11.3922    0.0000 </r>
       <r>   11.3995    0.0000 </r>
       <r>   11.9841    0.0000 </r>
       <r>   13.0008    0.0000 </r>
       <r>   13.0008    0.0000 </r>
       <r>   13.0285    0.0000 </r>
       <r>   13.1319    0.0000 </r>
       <r>   13.1319    0.0000 </r>
       <r>   13.1825    0.0000 </r>
       <r>   13.5279    0.0000 </r>
       <r>   15.6135    0.0000 </r>
       <r>   15.8008    0.0000 </r>
       <r>   15.8008    0.0000 </r>
       <r>   16.4913    0.0000 </r>
       <r>   18.2923    0.0000 </r>
       <r>   18.2923    0.0000 </r>
       <r>   18.8601    0.0000 </r>
       <r>   18.8602    0.0000 </r>
       <r>   19.1473    0.0000 </r>
       <r>   19.2290    0.0000 </r>
       <r>   19.5333    0.0000 </r>
       <r>   19.5333    0.0000 </r>
       <r>   19.7217    0.0000 </r>
       <r>   19.9888    0.0000 </r>
       <r>   19.9888    0.0000 </r>
       <r>   20.0167    0.0000 </r>
       <r>   20.4546    0.0000 </r>
       <r>   21.0813    0.0000 </r>
       <r>   21.3027    0.0000 </r>
       <r>   21.3027    0.0000 </r>
       <r>   22.8793    0.0000 </r>
       <r>   23.2968    0.0000 </r>
       <r>   23.2968    0.0000 </r>
       <r>   23.4397    0.0000 </r>
       <r>   23.4397    0.0000 </r>
       <r>   23.5738    0.0000 </r>
       <r>   24.0936    0.0000 </r>
       <r>   24.0936    0.0000 </r>
       <r>   24.4126    0.0000 </r>
       <r>   24.4126    0.0000 </r>
       <r>   24.5372    0.0000 </r>
       <r>   24.6374    0.0000 </r>
       <r>   24.8763    0.0000 </r>
       <r>   25.2174    0.0000 </r>
       <r>   25.2174    0.0000 </r>
       <r>   26.6516    0.0000 </r>
       <r>   26.6516    0.0000 </r>
       <r>   26.7538    0.0000 </r>
       <r>   26.7538    0.0000 </r>
       <r>   26.8463    0.0000 </r>
       <r>   27.0341    0.0000 </r>
       <r>   27.1216    0.0000 </r>
       <r>   27.7308    0.0000 </r>
       <r>   27.7308    0.0000 </r>
       <r>   27.7998    0.0000 </r>
       <r>   27.7998    0.0000 </r>
       <r>   27.8401    0.0000 </r>
       <r>   28.2967    0.0000 </r>
       <r>   28.2967    0.0000 </r>
       <r>   28.7936    0.0000 </r>
       <r>   28.7936    0.0000 </r>
       <r>   28.9524    0.0000 </r>
       <r>   29.6489    0.0000 </r>
       <r>   30.2897    0.0000 </r>
       <r>   31.1920    0.0000 </r>
       <r>   31.1920    0.0000 </r>
       <r>   31.4239    0.0000 </r>
       <r>   31.4816    0.0000 </r>
       <r>   31.4816    0.0000 </r>
       <r>   31.8841    0.0000 </r>
       <r>   32.0865    0.0000 </r>
       <r>   32.0865    0.0000 </r>
       <r>   32.4044    0.0000 </r>
       <r>   32.6844    0.0000 </r>
       <r>   33.2983    0.0000 </r>
       <r>   33.2983    0.0000 </r>
       <r>   33.3127    0.0000 </r>
       <r>   33.3127    0.0000 </r>
       <r>   33.4606    0.0000 </r>
       <r>   34.0099    0.0000 </r>
       <r>   34.9816    0.0000 </r>
       <r>   34.9816    0.0000 </r>
       <r>   35.0442    0.0000 </r>
       <r>   35.0442    0.0000 </r>
       <r>   35.2268    0.0000 </r>
       <r>   35.2268    0.0000 </r>
       <r>   35.8334    0.0000 </r>
       <r>   35.8655    0.0000 </r>
       <r>   35.8655    0.0000 </r>
       <r>   36.0454    0.0000 </r>
       <r>   36.6964    0.0000 </r>
       <r>   36.6964    0.0000 </r>
       <r>   37.0546    0.0000 </r>
       <r>   37.3010    0.0000 </r>
       <r>   37.3124    0.0000 </r>
       <r>   37.3124    0.0000 </r>
       <r>   37.3416    0.0000 </r>
       <r>   37.3416    0.0000 </r>
       <r>   37.3663    0.0000 </r>
       <r>   37.4564    0.0000 </r>
       <r>   37.4564    0.0000 </r>
       <r>   37.6595    0.0000 </r>
       <r>   37.8898    0.0000 </r>
       <r>   37.9469    0.0000 </r>
       <r>   38.2105    0.0000 </r>
       <r>   38.2105    0.0000 </r>
       <r>   38.5577    0.0000 </r>
       <r>   38.8474    0.0000 </r>
       <r>   38.8474    0.0000 </r>
       <r>   40.8943    0.0000 </r>
       <r>   42.2089    0.0000 </r>
       <r>   42.2089    0.0000 </r>
       <r>   42.3915    0.0000 </r>
       <r>   43.7541    0.0000 </r>
       <r>   43.7541    0.0000 </r>
       <r>   43.9385    0.0000 </r>
       <r>   43.9385    0.0000 </r>
       <r>   44.3103    0.0000 </r>
       <r>   44.3103    0.0000 </r>
       <r>   44.3566    0.0000 </r>
       <r>   44.4926    0.0000 </r>
       <r>   44.4926    0.0000 </r>
       <r>   44.7977    0.0000 </r>
       <r>   45.3264    0.0000 </r>
       <r>   45.3264    0.0000 </r>
       <r>   45.6092    0.0000 </r>
       <r>   45.6092    0.0000 </r>
       <r>   46.0655    0.0000 </r>
       <r>   46.5987    0.0000 </r>
       <r>   46.8263    0.0000 </r>
       <r>   47.8871    0.0000 </r>
       <r>   47.9682    0.0000 </r>
       <r>   48.7262    0.0000 </r>
       <r>   48.7262    0.0000 </r>
       <r>   48.9385    0.0000 </r>
       <r>   49.0206    0.0000 </r>
       <r>   49.0207    0.0000 </r>
       <r>   49.1895    0.0000 </r>
       <r>   49.3789    0.0000 </r>
       <r>   49.5076    0.0000 </r>
       <r>   49.5077    0.0000 </r>
       <r>   49.7124    0.0000 </r>
       <r>   49.7124    0.0000 </r>
       <r>   50.1370    0.0000 </r>
       <r>   50.3457    0.0000 </r>
       <r>   50.3458    0.0000 </r>
       <r>   50.5718    0.0000 </r>
       <r>   50.6150    0.0000 </r>
       <r>   50.6150    0.0000 </r>
       <r>   51.5785    0.0000 </r>
       <r>   51.5785    0.0000 </r>
       <r>   51.7184    0.0000 </r>
       <r>   52.0203    0.0000 </r>
       <r>   52.4951    0.0000 </r>
       <r>   52.4951    0.0000 </r>
       <r>   52.5049    0.0000 </r>
       <r>   52.5049    0.0000 </r>
       <r>   52.8867    0.0000 </r>
       <r>   53.4918    0.0000 </r>
       <r>   53.4918    0.0000 </r>
       <r>   53.4926    0.0000 </r>
       <r>   53.8300    0.0000 </r>
       <r>   53.8300    0.0000 </r>
       <r>   53.9143    0.0000 </r>
       <r>   54.2916    0.0000 </r>
       <r>   54.3186    0.0000 </r>
       <r>   54.3186    0.0000 </r>
       <r>   54.4694    0.0000 </r>
       <r>   54.4695    0.0000 </r>
       <r>   54.6490    0.0000 </r>
       <r>   54.9433    0.0000 </r>
       <r>   54.9433    0.0000 </r>
       <r>   55.2684    0.0000 </r>
       <r>   55.3383    0.0000 </r>
       <r>   55.6000    0.0000 </r>
       <r>   55.7091    0.0000 </r>
       <r>   55.8562    0.0000 </r>
       <r>   55.8562    0.0000 </r>
       <r>   55.9784    0.0000 </r>
       <r>   55.9785    0.0000 </r>
       <r>   56.0273    0.0000 </r>
       <r>   56.4062    0.0000 </r>
       <r>   56.4062    0.0000 </r>
       <r>   57.0541    0.0000 </r>
       <r>   57.0541    0.0000 </r>
       <r>   57.1684    0.0000 </r>
       <r>   57.1813    0.0000 </r>
       <r>   57.1813    0.0000 </r>
       <r>   57.4345    0.0000 </r>
       <r>   57.4759    0.0000 </r>
       <r>   57.4759    0.0000 </r>
       <r>   57.6909    0.0000 </r>
       <r>   57.6909    0.0000 </r>
       <r>   57.8660    0.0000 </r>
       <r>   57.8786    0.0000 </r>
       <r>   57.9830    0.0000 </r>
       <r>   57.9830    0.0000 </r>
       <r>   58.0113    0.0000 </r>
       <r>   58.0225    0.0000 </r>
       <r>   58.1490    0.0000 </r>
       <r>   58.1490    0.0000 </r>
       <r>   58.1727    0.0000 </r>
       <r>   58.3631    0.0000 </r>
       <r>   58.3631    0.0000 </r>
       <r>   58.3839    0.0000 </r>
       <r>   58.3839    0.0000 </r>
       <r>   58.8988    0.0000 </r>
       <r>   58.8988    0.0000 </r>
       <r>   59.0563    0.0000 </r>
       <r>   59.7119    0.0000 </r>
       <r>   59.7119    0.0000 </r>
       <r>   59.9710    0.0000 </r>
       <r>   60.2200    0.0000 </r>
       <r>   60.6108    0.0000 </r>
       <r>   60.6108    0.0000 </r>
       <r>   60.9781    0.0000 </r>
       <r>   61.1585    0.0000 </r>
       <r>   61.1585    0.0000 </r>
       <r>   62.1187    0.0000 </r>
       <r>   62.1187    0.0000 </r>
       <r>   62.7654    0.0000 </r>
       <r>   63.2527    0.0000 </r>
       <r>   63.6720    0.0000 </r>
       <r>   63.6720    0.0000 </r>
       <r>   65.3916    0.0000 </r>
       <r>   65.3916    0.0000 </r>
       <r>   65.7610    0.0000 </r>
       <r>   65.7610    0.0000 </r>
       <r>   65.9659    0.0000 </r>
       <r>   66.0271    0.0000 </r>
       <r>   66.1788    0.0000 </r>
       <r>   66.1788    0.0000 </r>
       <r>   66.2120    0.0000 </r>
       <r>   66.2537    0.0000 </r>
       <r>   66.3494    0.0000 </r>
       <r>   66.3494    0.0000 </r>
       <r>   66.5925    0.0000 </r>
       <r>   66.7507    0.0000 </r>
       <r>   66.7508    0.0000 </r>
       <r>   66.8896    0.0000 </r>
       <r>   67.0713    0.0000 </r>
       <r>   67.0713    0.0000 </r>
       <r>   67.2113    0.0000 </r>
       <r>   67.2989    0.0000 </r>
       <r>   67.2989    0.0000 </r>
       <r>   67.3851    0.0000 </r>
       <r>   67.6908    0.0000 </r>
       <r>   67.6908    0.0000 </r>
       <r>   68.2115    0.0000 </r>
       <r>   68.2115    0.0000 </r>
       <r>   68.5114    0.0000 </r>
       <r>   68.5114    0.0000 </r>
       <r>   68.6015    0.0000 </r>
       <r>   68.6015    0.0000 </r>
       <r>   68.6157    0.0000 </r>
       <r>   68.6247    0.0000 </r>
       <r>   68.6344    0.0000 </r>
       <r>   68.9972    0.0000 </r>
       <r>   69.2825    0.0000 </r>
       <r>   69.3119    0.0000 </r>
       <r>   69.3119    0.0000 </r>
       <r>   69.4176    0.0000 </r>
       <r>   69.4177    0.0000 </r>
       <r>   69.5744    0.0000 </r>
       <r>   69.9786    0.0000 </r>
       <r>   69.9786    0.0000 </r>
       <r>   70.2573    0.0000 </r>
       <r>   70.7134    0.0000 </r>
       <r>   70.7134    0.0000 </r>
       <r>   71.1024    0.0000 </r>
       <r>   71.2748    0.0000 </r>
       <r>   71.7878    0.0000 </r>
       <r>   72.4061    0.0000 </r>
       <r>   72.4061    0.0000 </r>
       <r>   72.4156    0.0000 </r>
       <r>   72.6734    0.0000 </r>
       <r>   72.7043    0.0000 </r>
       <r>   72.7043    0.0000 </r>
       <r>   72.7429    0.0000 </r>
       <r>   72.7472    0.0000 </r>
       <r>   72.7472    0.0000 </r>
       <r>   73.3727    0.0000 </r>
       <r>   73.3727    0.0000 </r>
       <r>   73.3751    0.0000 </r>
       <r>   73.3751    0.0000 </r>
       <r>   73.4653    0.0000 </r>
       <r>   73.4653    0.0000 </r>
       <r>   73.6715    0.0000 </r>
       <r>   73.9920    0.0000 </r>
       <r>   74.0075    0.0000 </r>
       <r>   74.0075    0.0000 </r>
       <r>   74.4828    0.0000 </r>
       <r>   75.0597    0.0000 </r>
       <r>   75.0597    0.0000 </r>
       <r>   75.1478    0.0000 </r>
       <r>   75.8349    0.0000 </r>
       <r>   76.6256    0.0000 </r>
       <r>   76.6256    0.0000 </r>
       <r>   76.8710    0.0000 </r>
       <r>   77.0277    0.0000 </r>
       <r>   77.5077    0.0000 </r>
       <r>   77.7840    0.0000 </r>
       <r>   77.7840    0.0000 </r>
       <r>   77.8734    0.0000 </r>
       <r>   77.8734    0.0000 </r>
       <r>   77.9113    0.0000 </r>
       <r>   77.9113    0.0000 </r>
       <r>   78.0212    0.0000 </r>
       <r>   78.3211    0.0000 </r>
       <r>   78.3211    0.0000 </r>
       <r>   78.6119    0.0000 </r>
       <r>   78.6120    0.0000 </r>
       <r>   78.6572    0.0000 </r>
       <r>   78.9605    0.0000 </r>
       <r>   78.9606    0.0000 </r>
       <r>   79.3666    0.0000 </r>
       <r>   79.4510    0.0000 </r>
       <r>   79.4510    0.0000 </r>
       <r>   79.9352    0.0000 </r>
       <r>   79.9352    0.0000 </r>
       <r>   80.0121    0.0000 </r>
       <r>   80.0897    0.0000 </r>
      </set>
      <set comment="kpoint 2">
       <r>  -18.5132    1.0000 </r>
       <r>  -14.7809    1.0000 </r>
       <r>  -14.6912    1.0000 </r>
       <r>  -12.3384    1.0000 </r>
       <r>  -12.2008    1.0000 </r>
       <r>  -11.0961    1.0000 </r>
       <r>   -9.7531    1.0000 </r>
       <r>   -7.3040    1.0000 </r>
       <r>   -7.1822    1.0000 </r>
       <r>   -5.0944    1.0000 </r>
       <r>   -4.9934    1.0000 </r>
       <r>   -3.2737    1.0000 </r>
       <r>   -3.1697    1.0000 </r>
       <r>   -2.6092    1.0000 </r>
       <r>   -2.5354    1.0000 </r>
       <r>   -0.8361    0.0000 </r>
       <r>    1.1605    0.0000 </r>
       <r>    1.4116    0.0000 </r>
       <r>    1.9153    0.0000 </r>
       <r>    1.9734    0.0000 </r>
       <r>    4.5728    0.0000 </r>
       <r>    5.9692    0.0000 </r>
       <r>    6.3866    0.0000 </r>
       <r>    6.4781    0.0000 </r>
       <r>    7.6627    0.0000 </r>
       <r>    8.0377    0.0000 </r>
       <r>    8.2336    0.0000 </r>
       <r>    8.2352    0.0000 </r>
       <r>    8.6808    0.0000 </r>
       <r>    8.7555    0.0000 </r>
       <r>    9.8480    0.0000 </r>
       <r>    9.8619    0.0000 </r>
       <r>    9.9124    0.0000 </r>
       <r>   10.3759    0.0000 </r>
       <r>   10.3995    0.0000 </r>
       <r>   10.4193    0.0000 </r>
       <r>   10.9077    0.0000 </r>
       <r>   11.4137    0.0000 </r>
       <r>   11.6687    0.0000 </r>
       <r>   12.0448    0.0000 </r>
       <r>   12.1516    0.0000 </r>
       <r>   12.3345    0.0000 </r>
       <r>   12.5608    0.0000 </r>
       <r>   12.8381    0.0000 </r>
       <r>   13.0972    0.0000 </r>
       <r>   13.6279    0.0000 </r>
       <r>   13.8001    0.0000 </r>
       <r>   14.2603    0.0000 </r>
       <r>   15.5623    0.0000 </r>
       <r>   15.6614    0.0000 </r>
       <r>   15.7181    0.0000 </r>
       <r>   16.2792    0.0000 </r>
       <r>   18.0211    0.0000 </r>
       <r>   18.0716    0.0000 </r>
       <r>   18.6452    0.0000 </r>
       <r>   18.9834    0.0000 </r>
       <r>   18.9928    0.0000 </r>
       <r>   19.3961    0.0000 </r>
       <r>   19.4430    0.0000 </r>
       <r>   19.8594    0.0000 </r>
       <r>   19.9227    0.0000 </r>
       <r>   19.9355    0.0000 </r>
       <r>   20.0222    0.0000 </r>
       <r>   20.0695    0.0000 </r>
       <r>   20.4469    0.0000 </r>
       <r>   20.9480    0.0000 </r>
       <r>   21.1306    0.0000 </r>
       <r>   21.1701    0.0000 </r>
       <r>   22.3006    0.0000 </r>
       <r>   22.5129    0.0000 </r>
       <r>   23.0923    0.0000 </r>
       <r>   23.5592    0.0000 </r>
       <r>   23.5744    0.0000 </r>
       <r>   23.6015    0.0000 </r>
       <r>   23.8165    0.0000 </r>
       <r>   24.0248    0.0000 </r>
       <r>   24.2674    0.0000 </r>
       <r>   24.5217    0.0000 </r>
       <r>   24.8306    0.0000 </r>
       <r>   24.9676    0.0000 </r>
       <r>   25.0475    0.0000 </r>
       <r>   25.5521    0.0000 </r>
       <r>   25.6964    0.0000 </r>
       <r>   25.7980    0.0000 </r>
       <r>   25.9189    0.0000 </r>
       <r>   26.1275    0.0000 </r>
       <r>   26.3973    0.0000 </r>
       <r>   26.9094    0.0000 </r>
       <r>   26.9234    0.0000 </r>
       <r>   27.0815    0.0000 </r>
       <r>   27.0849    0.0000 </r>
       <r>   27.5813    0.0000 </r>
       <r>   27.8918    0.0000 </r>
       <r>   28.1065    0.0000 </r>
       <r>   28.6632    0.0000 </r>
       <r>   28.9184    0.0000 </r>
       <r>   29.0466    0.0000 </r>
       <r>   29.1763    0.0000 </r>
       <r>   29.2646    0.0000 </r>
       <r>   29.6366    0.0000 </r>
       <r>   29.6478    0.0000 </r>
       <r>   30.1213    0.0000 </r>
       <r>   30.1818    0.0000 </r>
       <r>   30.7678    0.0000 </r>
       <r>   31.1259    0.0000 </r>
       <r>   31.8749    0.0000 </r>
       <r>   31.9108    0.0000 </r>
       <r>   32.0148    0.0000 </r>
       <r>   32.0886    0.0000 </r>
       <r>   32.5461    0.0000 </r>
       <r>   32.6542    0.0000 </r>
       <r>   32.9444    0.0000 </r>
       <r>   33.0816    0.0000 </r>
       <r>   33.3384    0.0000 </r>
       <r>   33.4640    0.0000 </r>
       <r>   33.5848    0.0000 </r>
       <r>   33.6087    0.0000 </r>
       <r>   33.8445    0.0000 </r>
       <r>   34.0075    0.0000 </r>
       <r>   34.0686    0.0000 </r>
       <r>   34.1281    0.0000 </r>
       <r>   34.2291    0.0000 </r>
       <r>   35.1281    0.0000 </r>
       <r>   35.9146    0.0000 </r>
       <r>   35.9610    0.0000 </r>
       <r>   35.9882    0.0000 </r>
       <r>   36.2332    0.0000 </r>
       <r>   36.3840    0.0000 </r>
       <r>   36.5942    0.0000 </r>
       <r>   36.7596    0.0000 </r>
       <r>   36.8647    0.0000 </r>
       <r>   37.0219    0.0000 </r>
       <r>   37.1188    0.0000 </r>
       <r>   37.2090    0.0000 </r>
       <r>   37.4568    0.0000 </r>
       <r>   37.5348    0.0000 </r>
       <r>   37.8830    0.0000 </r>
       <r>   37.9740    0.0000 </r>
       <r>   38.0606    0.0000 </r>
       <r>   38.1707    0.0000 </r>
       <r>   38.3342    0.0000 </r>
       <r>   38.4488    0.0000 </r>
       <r>   38.9582    0.0000 </r>
       <r>   39.0151    0.0000 </r>
       <r>   39.1512    0.0000 </r>
       <r>   39.7411    0.0000 </r>
       <r>   39.8913    0.0000 </r>
       <r>   40.4036    0.0000 </r>
       <r>   41.6591    0.0000 </r>
       <r>   41.7874    0.0000 </r>
       <r>   42.0183    0.0000 </r>
       <r>   43.0529    0.0000 </r>
       <r>   43.1371    0.0000 </r>
       <r>   43.1853    0.0000 </r>
       <r>   43.3711    0.0000 </r>
       <r>   43.6680    0.0000 </r>
       <r>   43.9100    0.0000 </r>
       <r>   44.3356    0.0000 </r>
       <r>   44.4581    0.0000 </r>
       <r>   44.7940    0.0000 </r>
       <r>   44.8728    0.0000 </r>
       <r>   45.0487    0.0000 </r>
       <r>   45.2335    0.0000 </r>
       <r>   46.1032    0.0000 </r>
       <r>   46.2269    0.0000 </r>
       <r>   46.3651    0.0000 </r>
       <r>   46.4216    0.0000 </r>
       <r>   46.8963    0.0000 </r>
       <r>   47.1013    0.0000 </r>
       <r>   48.0085    0.0000 </r>
       <r>   48.2044    0.0000 </r>
       <r>   48.2685    0.0000 </r>
       <r>   48.4867    0.0000 </r>
       <r>   48.4867    0.0000 </r>
       <r>   48.6077    0.0000 </r>
       <r>   49.4193    0.0000 </r>
       <r>   49.4674    0.0000 </r>
       <r>   49.4813    0.0000 </r>
       <r>   49.4971    0.0000 </r>
       <r>   50.1891    0.0000 </r>
       <r>   50.2489    0.0000 </r>
       <r>   50.3481    0.0000 </r>
       <r>   50.4411    0.0000 </r>
       <r>   50.7495    0.0000 </r>
       <r>   50.7703    0.0000 </r>
       <r>   51.0252    0.0000 </r>
       <r>   51.0836    0.0000 </r>
       <r>   51.2201    0.0000 </r>
       <r>   51.2372    0.0000 </r>
       <r>   51.3233    0.0000 </r>
       <r>   52.0790    0.0000 </r>
       <r>   52.1310    0.0000 </r>
       <r>   52.3383    0.0000 </r>
       <r>   52.5341    0.0000 </r>
       <r>   52.6621    0.0000 </r>
       <r>   52.7051    0.0000 </r>
       <r>   52.7968    0.0000 </r>
       <r>   52.9839    0.0000 </r>
       <r>   53.1591    0.0000 </r>
       <r>   53.4564    0.0000 </r>
       <r>   53.6301    0.0000 </r>
       <r>   53.6776    0.0000 </r>
       <r>   53.8575    0.0000 </r>
       <r>   54.1638    0.0000 </r>
       <r>   54.4158    0.0000 </r>
       <r>   54.5037    0.0000 </r>
       <r>   54.6902    0.0000 </r>
       <r>   54.7543    0.0000 </r>
       <r>   54.8263    0.0000 </r>
       <r>   54.8421    0.0000 </r>
       <r>   54.8679    0.0000 </r>
       <r>   55.0431    0.0000 </r>
       <r>   55.0736    0.0000 </r>
       <r>   55.3025    0.0000 </r>
       <r>   55.4662    0.0000 </r>
       <r>   55.5311    0.0000 </r>
       <r>   55.6692    0.0000 </r>
       <r>   56.1756    0.0000 </r>
       <r>   56.1912    0.0000 </r>
       <r>   56.2449    0.0000 </r>
       <r>   56.3750    0.0000 </r>
       <r>   56.4639    0.0000 </r>
       <r>   56.5464    0.0000 </r>
       <r>   56.5747    0.0000 </r>
       <r>   56.8251    0.0000 </r>
       <r>   56.8859    0.0000 </r>
       <r>   57.0189    0.0000 </r>
       <r>   57.0577    0.0000 </r>
       <r>   57.1652    0.0000 </r>
       <r>   57.2095    0.0000 </r>
       <r>   57.4579    0.0000 </r>
       <r>   57.6391    0.0000 </r>
       <r>   57.6791    0.0000 </r>
       <r>   57.7261    0.0000 </r>
       <r>   58.0939    0.0000 </r>
       <r>   58.1463    0.0000 </r>
       <r>   58.2340    0.0000 </r>
       <r>   58.6067    0.0000 </r>
       <r>   58.7254    0.0000 </r>
       <r>   58.7317    0.0000 </r>
       <r>   59.1755    0.0000 </r>
       <r>   59.4085    0.0000 </r>
       <r>   59.5037    0.0000 </r>
       <r>   60.0199    0.0000 </r>
       <r>   60.0306    0.0000 </r>
       <r>   60.2943    0.0000 </r>
       <r>   60.3322    0.0000 </r>
       <r>   60.4211    0.0000 </r>
       <r>   60.5725    0.0000 </r>
       <r>   60.5849    0.0000 </r>
       <r>   60.7327    0.0000 </r>
       <r>   61.0217    0.0000 </r>
       <r>   61.0341    0.0000 </r>
       <r>   61.3763    0.0000 </r>
       <r>   61.5507    0.0000 </r>
       <r>   61.6702    0.0000 </r>
       <r>   62.1374    0.0000 </r>
       <r>   62.2604    0.0000 </r>
       <r>   62.7760    0.0000 </r>
       <r>   63.5386    0.0000 </r>
       <r>   63.8106    0.0000 </r>
       <r>   64.0655    0.0000 </r>
       <r>   64.1332    0.0000 </r>
       <r>   64.1393    0.0000 </r>
       <r>   64.1615    0.0000 </r>
       <r>   64.2112    0.0000 </r>
       <r>   64.4574    0.0000 </r>
       <r>   65.0710    0.0000 </r>
       <r>   65.2099    0.0000 </r>
       <r>   65.3051    0.0000 </r>
       <r>   65.6032    0.0000 </r>
       <r>   65.6439    0.0000 </r>
       <r>   65.8292    0.0000 </r>
       <r>   66.3752    0.0000 </r>
       <r>   66.4268    0.0000 </r>
       <r>   66.4561    0.0000 </r>
       <r>   66.6966    0.0000 </r>
       <r>   66.7485    0.0000 </r>
       <r>   66.8655    0.0000 </r>
       <r>   66.8769    0.0000 </r>
       <r>   67.1461    0.0000 </r>
       <r>   67.1550    0.0000 </r>
       <r>   67.4064    0.0000 </r>
       <r>   67.5691    0.0000 </r>
       <r>   67.6359    0.0000 </r>
       <r>   67.8043    0.0000 </r>
       <r>   67.8925    0.0000 </r>
       <r>   68.2152    0.0000 </r>
       <r>   68.3085    0.0000 </r>
       <r>   68.5106    0.0000 </r>
       <r>   68.5845    0.0000 </r>
       <r>   69.0390    0.0000 </r>
       <r>   69.1340    0.0000 </r>
       <r>   69.1491    0.0000 </r>
       <r>   69.3886    0.0000 </r>
       <r>   69.7238    0.0000 </r>
       <r>   69.7471    0.0000 </r>
       <r>   69.8479    0.0000 </r>
       <r>   69.8762    0.0000 </r>
       <r>   70.1228    0.0000 </r>
       <r>   70.3301    0.0000 </r>
       <r>   70.4921    0.0000 </r>
       <r>   70.4967    0.0000 </r>
       <r>   70.6342    0.0000 </r>
       <r>   70.6996    0.0000 </r>
       <r>   70.9202    0.0000 </r>
       <r>   70.9263    0.0000 </r>
       <r>   71.0767    0.0000 </r>
       <r>   71.3548    0.0000 </r>
       <r>   71.4285    0.0000 </r>
       <r>   71.4422    0.0000 </r>
       <r>   71.4481    0.0000 </r>
       <r>   71.5697    0.0000 </r>
       <r>   71.6282    0.0000 </r>
       <r>   72.8180    0.0000 </r>
       <r>   72.9641    0.0000 </r>
       <r>   72.9941    0.0000 </r>
       <r>   73.0840    0.0000 </r>
       <r>   73.5707    0.0000 </r>
       <r>   73.6158    0.0000 </r>
       <r>   73.7438    0.0000 </r>
       <r>   73.7774    0.0000 </r>
       <r>   74.0381    0.0000 </r>
       <r>   74.0873    0.0000 </r>
       <r>   74.2790    0.0000 </r>
       <r>   74.5998    0.0000 </r>
       <r>   74.6212    0.0000 </r>
       <r>   74.6645    0.0000 </r>
       <r>   74.8909    0.0000 </r>
       <r>   74.9799    0.0000 </r>
       <r>   75.3516    0.0000 </r>
       <r>   75.5207    0.0000 </r>
       <r>   75.9478    0.0000 </r>
       <r>   76.2251    0.0000 </r>
       <r>   76.3269    0.0000 </r>
       <r>   76.4378    0.0000 </r>
       <r>   76.6432    0.0000 </r>
       <r>   77.0400    0.0000 </r>
       <r>   77.0610    0.0000 </r>
       <r>   77.2144    0.0000 </r>
       <r>   77.3628    0.0000 </r>
       <r>   77.4198    0.0000 </r>
       <r>   77.5806    0.0000 </r>
       <r>   77.7200    0.0000 </r>
       <r>   77.9108    0.0000 </r>
       <r>   78.2082    0.0000 </r>
       <r>   78.2427    0.0000 </r>
       <r>   78.2612    0.0000 </r>
       <r>   78.2907    0.0000 </r>
       <r>   78.6760    0.0000 </r>
       <r>   78.7094    0.0000 </r>
       <r>   78.7275    0.0000 </r>
       <r>   79.0150    0.0000 </r>
       <r>   79.1421    0.0000 </r>
       <r>   79.1515    0.0000 </r>
       <r>   79.2345    0.0000 </r>
       <r>   79.2612    0.0000 </r>
       <r>   79.3174    0.0000 </r>
       <r>   79.5721    0.0000 </r>
       <r>   79.6689    0.0000 </r>
      </set>
      <set comment="kpoint 3">
       <r>  -18.4341    1.0000 </r>
       <r>  -15.1059    1.0000 </r>
       <r>  -14.7954    1.0000 </r>
       <r>  -12.4549    1.0000 </r>
       <r>  -11.9317    1.0000 </r>
       <r>  -10.7149    1.0000 </r>
       <r>   -9.3237    1.0000 </r>
       <r>   -7.3645    1.0000 </r>
       <r>   -7.1816    1.0000 </r>
       <r>   -5.4404    1.0000 </r>
       <r>   -5.0296    1.0000 </r>
       <r>   -3.6157    1.0000 </r>
       <r>   -3.2240    1.0000 </r>
       <r>   -3.0165    1.0000 </r>
       <r>   -2.7272    1.0000 </r>
       <r>   -1.1839    0.0000 </r>
       <r>    1.3238    0.0000 </r>
       <r>    1.8881    0.0000 </r>
       <r>    2.1281    0.0000 </r>
       <r>    2.4358    0.0000 </r>
       <r>    4.7294    0.0000 </r>
       <r>    6.1240    0.0000 </r>
       <r>    6.5551    0.0000 </r>
       <r>    6.9440    0.0000 </r>
       <r>    6.9598    0.0000 </r>
       <r>    7.9146    0.0000 </r>
       <r>    8.1729    0.0000 </r>
       <r>    8.2020    0.0000 </r>
       <r>    8.5790    0.0000 </r>
       <r>    8.7436    0.0000 </r>
       <r>    9.0740    0.0000 </r>
       <r>    9.9077    0.0000 </r>
       <r>    9.9160    0.0000 </r>
       <r>   10.4672    0.0000 </r>
       <r>   10.5716    0.0000 </r>
       <r>   10.5788    0.0000 </r>
       <r>   10.9114    0.0000 </r>
       <r>   11.5894    0.0000 </r>
       <r>   11.8802    0.0000 </r>
       <r>   12.1077    0.0000 </r>
       <r>   12.1424    0.0000 </r>
       <r>   12.3419    0.0000 </r>
       <r>   12.6423    0.0000 </r>
       <r>   13.0075    0.0000 </r>
       <r>   13.4775    0.0000 </r>
       <r>   14.1695    0.0000 </r>
       <r>   14.3858    0.0000 </r>
       <r>   15.1545    0.0000 </r>
       <r>   15.2765    0.0000 </r>
       <r>   15.3889    0.0000 </r>
       <r>   15.7997    0.0000 </r>
       <r>   16.1743    0.0000 </r>
       <r>   17.3574    0.0000 </r>
       <r>   17.5941    0.0000 </r>
       <r>   17.8616    0.0000 </r>
       <r>   19.0273    0.0000 </r>
       <r>   19.0831    0.0000 </r>
       <r>   19.1612    0.0000 </r>
       <r>   19.5522    0.0000 </r>
       <r>   19.8344    0.0000 </r>
       <r>   19.9231    0.0000 </r>
       <r>   20.1859    0.0000 </r>
       <r>   20.2006    0.0000 </r>
       <r>   20.2953    0.0000 </r>
       <r>   20.4610    0.0000 </r>
       <r>   20.6854    0.0000 </r>
       <r>   20.9076    0.0000 </r>
       <r>   20.9177    0.0000 </r>
       <r>   20.9658    0.0000 </r>
       <r>   21.2974    0.0000 </r>
       <r>   23.1084    0.0000 </r>
       <r>   23.7417    0.0000 </r>
       <r>   23.7808    0.0000 </r>
       <r>   23.9368    0.0000 </r>
       <r>   24.0480    0.0000 </r>
       <r>   24.1155    0.0000 </r>
       <r>   24.2288    0.0000 </r>
       <r>   24.2478    0.0000 </r>
       <r>   24.4571    0.0000 </r>
       <r>   24.5114    0.0000 </r>
       <r>   24.6934    0.0000 </r>
       <r>   24.7126    0.0000 </r>
       <r>   25.1039    0.0000 </r>
       <r>   25.1717    0.0000 </r>
       <r>   25.2293    0.0000 </r>
       <r>   26.4776    0.0000 </r>
       <r>   26.6052    0.0000 </r>
       <r>   26.9337    0.0000 </r>
       <r>   27.0663    0.0000 </r>
       <r>   27.5561    0.0000 </r>
       <r>   27.7010    0.0000 </r>
       <r>   28.0595    0.0000 </r>
       <r>   28.1032    0.0000 </r>
       <r>   28.1118    0.0000 </r>
       <r>   28.1885    0.0000 </r>
       <r>   29.1207    0.0000 </r>
       <r>   29.1320    0.0000 </r>
       <r>   29.6998    0.0000 </r>
       <r>   29.7331    0.0000 </r>
       <r>   29.7997    0.0000 </r>
       <r>   30.2525    0.0000 </r>
       <r>   30.3510    0.0000 </r>
       <r>   30.5885    0.0000 </r>
       <r>   30.9582    0.0000 </r>
       <r>   30.9705    0.0000 </r>
       <r>   31.5020    0.0000 </r>
       <r>   31.7567    0.0000 </r>
       <r>   31.9397    0.0000 </r>
       <r>   32.6385    0.0000 </r>
       <r>   32.7569    0.0000 </r>
       <r>   32.8169    0.0000 </r>
       <r>   32.8397    0.0000 </r>
       <r>   32.9283    0.0000 </r>
       <r>   33.0869    0.0000 </r>
       <r>   33.1632    0.0000 </r>
       <r>   33.2361    0.0000 </r>
       <r>   33.7486    0.0000 </r>
       <r>   33.7648    0.0000 </r>
       <r>   33.9660    0.0000 </r>
       <r>   34.0186    0.0000 </r>
       <r>   34.2044    0.0000 </r>
       <r>   34.6047    0.0000 </r>
       <r>   34.9498    0.0000 </r>
       <r>   35.2437    0.0000 </r>
       <r>   35.4874    0.0000 </r>
       <r>   36.2302    0.0000 </r>
       <r>   36.5183    0.0000 </r>
       <r>   36.7573    0.0000 </r>
       <r>   36.8777    0.0000 </r>
       <r>   37.0315    0.0000 </r>
       <r>   37.0646    0.0000 </r>
       <r>   37.4346    0.0000 </r>
       <r>   37.5842    0.0000 </r>
       <r>   37.9624    0.0000 </r>
       <r>   38.0094    0.0000 </r>
       <r>   38.1555    0.0000 </r>
       <r>   38.4170    0.0000 </r>
       <r>   38.8542    0.0000 </r>
       <r>   38.8811    0.0000 </r>
       <r>   39.1132    0.0000 </r>
       <r>   39.2447    0.0000 </r>
       <r>   39.8819    0.0000 </r>
       <r>   39.9875    0.0000 </r>
       <r>   40.0175    0.0000 </r>
       <r>   40.2079    0.0000 </r>
       <r>   40.3686    0.0000 </r>
       <r>   40.5672    0.0000 </r>
       <r>   40.9918    0.0000 </r>
       <r>   41.4309    0.0000 </r>
       <r>   41.5055    0.0000 </r>
       <r>   41.6760    0.0000 </r>
       <r>   41.6996    0.0000 </r>
       <r>   41.7220    0.0000 </r>
       <r>   41.9303    0.0000 </r>
       <r>   42.6752    0.0000 </r>
       <r>   42.7148    0.0000 </r>
       <r>   43.5865    0.0000 </r>
       <r>   43.8867    0.0000 </r>
       <r>   44.2380    0.0000 </r>
       <r>   44.5378    0.0000 </r>
       <r>   44.5403    0.0000 </r>
       <r>   44.7224    0.0000 </r>
       <r>   44.7919    0.0000 </r>
       <r>   45.3049    0.0000 </r>
       <r>   45.7839    0.0000 </r>
       <r>   46.2576    0.0000 </r>
       <r>   46.9417    0.0000 </r>
       <r>   47.1444    0.0000 </r>
       <r>   47.2395    0.0000 </r>
       <r>   47.3560    0.0000 </r>
       <r>   47.5831    0.0000 </r>
       <r>   47.7528    0.0000 </r>
       <r>   48.0740    0.0000 </r>
       <r>   48.1983    0.0000 </r>
       <r>   48.7077    0.0000 </r>
       <r>   48.8128    0.0000 </r>
       <r>   48.9407    0.0000 </r>
       <r>   49.0230    0.0000 </r>
       <r>   49.0710    0.0000 </r>
       <r>   49.1833    0.0000 </r>
       <r>   49.6233    0.0000 </r>
       <r>   50.0096    0.0000 </r>
       <r>   50.4447    0.0000 </r>
       <r>   50.7960    0.0000 </r>
       <r>   50.8175    0.0000 </r>
       <r>   51.0702    0.0000 </r>
       <r>   51.0973    0.0000 </r>
       <r>   51.2646    0.0000 </r>
       <r>   51.6052    0.0000 </r>
       <r>   51.7024    0.0000 </r>
       <r>   51.7616    0.0000 </r>
       <r>   51.7799    0.0000 </r>
       <r>   51.8773    0.0000 </r>
       <r>   52.1730    0.0000 </r>
       <r>   52.2752    0.0000 </r>
       <r>   52.3139    0.0000 </r>
       <r>   52.4321    0.0000 </r>
       <r>   52.4735    0.0000 </r>
       <r>   52.9221    0.0000 </r>
       <r>   52.9401    0.0000 </r>
       <r>   53.1255    0.0000 </r>
       <r>   53.2064    0.0000 </r>
       <r>   53.2902    0.0000 </r>
       <r>   53.3798    0.0000 </r>
       <r>   53.6811    0.0000 </r>
       <r>   53.9041    0.0000 </r>
       <r>   53.9563    0.0000 </r>
       <r>   54.2682    0.0000 </r>
       <r>   54.5095    0.0000 </r>
       <r>   54.6353    0.0000 </r>
       <r>   54.6388    0.0000 </r>
       <r>   54.6881    0.0000 </r>
       <r>   54.9549    0.0000 </r>
       <r>   55.2356    0.0000 </r>
       <r>   55.5023    0.0000 </r>
       <r>   55.5858    0.0000 </r>
       <r>   55.6711    0.0000 </r>
       <r>   56.0427    0.0000 </r>
       <r>   56.1326    0.0000 </r>
       <r>   56.4570    0.0000 </r>
       <r>   56.4874    0.0000 </r>
       <r>   56.6230    0.0000 </r>
       <r>   56.7015    0.0000 </r>
       <r>   56.7793    0.0000 </r>
       <r>   56.7801    0.0000 </r>
       <r>   56.8025    0.0000 </r>
       <r>   57.0056    0.0000 </r>
       <r>   57.0066    0.0000 </r>
       <r>   57.2368    0.0000 </r>
       <r>   57.3407    0.0000 </r>
       <r>   57.4834    0.0000 </r>
       <r>   57.8336    0.0000 </r>
       <r>   57.9182    0.0000 </r>
       <r>   58.1056    0.0000 </r>
       <r>   58.2455    0.0000 </r>
       <r>   58.4224    0.0000 </r>
       <r>   58.4813    0.0000 </r>
       <r>   59.4516    0.0000 </r>
       <r>   59.4563    0.0000 </r>
       <r>   59.8112    0.0000 </r>
       <r>   59.9746    0.0000 </r>
       <r>   60.0811    0.0000 </r>
       <r>   60.0917    0.0000 </r>
       <r>   60.2638    0.0000 </r>
       <r>   61.1602    0.0000 </r>
       <r>   61.3572    0.0000 </r>
       <r>   61.3716    0.0000 </r>
       <r>   61.5326    0.0000 </r>
       <r>   61.5417    0.0000 </r>
       <r>   61.6584    0.0000 </r>
       <r>   61.7090    0.0000 </r>
       <r>   61.7498    0.0000 </r>
       <r>   61.8022    0.0000 </r>
       <r>   61.9057    0.0000 </r>
       <r>   62.0189    0.0000 </r>
       <r>   62.0238    0.0000 </r>
       <r>   62.3300    0.0000 </r>
       <r>   62.5653    0.0000 </r>
       <r>   62.9404    0.0000 </r>
       <r>   63.0027    0.0000 </r>
       <r>   63.0147    0.0000 </r>
       <r>   63.1569    0.0000 </r>
       <r>   63.1792    0.0000 </r>
       <r>   63.6481    0.0000 </r>
       <r>   63.8384    0.0000 </r>
       <r>   64.5425    0.0000 </r>
       <r>   64.5654    0.0000 </r>
       <r>   64.5866    0.0000 </r>
       <r>   64.6965    0.0000 </r>
       <r>   64.7318    0.0000 </r>
       <r>   64.9493    0.0000 </r>
       <r>   65.1634    0.0000 </r>
       <r>   65.2316    0.0000 </r>
       <r>   65.2661    0.0000 </r>
       <r>   65.9334    0.0000 </r>
       <r>   65.9874    0.0000 </r>
       <r>   66.1768    0.0000 </r>
       <r>   66.2473    0.0000 </r>
       <r>   66.2570    0.0000 </r>
       <r>   66.3764    0.0000 </r>
       <r>   66.4075    0.0000 </r>
       <r>   66.7719    0.0000 </r>
       <r>   67.2470    0.0000 </r>
       <r>   67.4248    0.0000 </r>
       <r>   67.5070    0.0000 </r>
       <r>   67.6463    0.0000 </r>
       <r>   67.9536    0.0000 </r>
       <r>   68.1121    0.0000 </r>
       <r>   68.1307    0.0000 </r>
       <r>   68.4140    0.0000 </r>
       <r>   68.4233    0.0000 </r>
       <r>   68.9782    0.0000 </r>
       <r>   69.2038    0.0000 </r>
       <r>   69.2284    0.0000 </r>
       <r>   69.4678    0.0000 </r>
       <r>   69.5242    0.0000 </r>
       <r>   69.9148    0.0000 </r>
       <r>   69.9249    0.0000 </r>
       <r>   70.1112    0.0000 </r>
       <r>   70.1375    0.0000 </r>
       <r>   70.2368    0.0000 </r>
       <r>   70.2394    0.0000 </r>
       <r>   71.1069    0.0000 </r>
       <r>   71.3740    0.0000 </r>
       <r>   71.8423    0.0000 </r>
       <r>   71.8744    0.0000 </r>
       <r>   72.1543    0.0000 </r>
       <r>   72.4509    0.0000 </r>
       <r>   72.5701    0.0000 </r>
       <r>   72.6800    0.0000 </r>
       <r>   72.8245    0.0000 </r>
       <r>   72.8464    0.0000 </r>
       <r>   72.8694    0.0000 </r>
       <r>   72.9487    0.0000 </r>
       <r>   73.2455    0.0000 </r>
       <r>   73.2690    0.0000 </r>
       <r>   73.4245    0.0000 </r>
       <r>   73.5394    0.0000 </r>
       <r>   73.7491    0.0000 </r>
       <r>   74.0139    0.0000 </r>
       <r>   74.1464    0.0000 </r>
       <r>   74.1779    0.0000 </r>
       <r>   74.2703    0.0000 </r>
       <r>   74.2903    0.0000 </r>
       <r>   74.4060    0.0000 </r>
       <r>   74.4292    0.0000 </r>
       <r>   74.9345    0.0000 </r>
       <r>   75.1801    0.0000 </r>
       <r>   75.2354    0.0000 </r>
       <r>   75.5101    0.0000 </r>
       <r>   75.6743    0.0000 </r>
       <r>   75.8107    0.0000 </r>
       <r>   76.0990    0.0000 </r>
       <r>   76.3046    0.0000 </r>
       <r>   76.3550    0.0000 </r>
       <r>   76.4491    0.0000 </r>
       <r>   76.5580    0.0000 </r>
       <r>   76.7580    0.0000 </r>
       <r>   76.7796    0.0000 </r>
       <r>   76.8412    0.0000 </r>
       <r>   76.8907    0.0000 </r>
       <r>   77.0644    0.0000 </r>
       <r>   77.2053    0.0000 </r>
       <r>   77.2098    0.0000 </r>
       <r>   77.2651    0.0000 </r>
       <r>   77.5168    0.0000 </r>
       <r>   77.9975    0.0000 </r>
       <r>   78.0429    0.0000 </r>
       <r>   78.1376    0.0000 </r>
       <r>   78.3209    0.0000 </r>
       <r>   78.4194    0.0000 </r>
       <r>   78.8013    0.0000 </r>
       <r>   78.8751    0.0000 </r>
       <r>   78.8780    0.0000 </r>
       <r>   78.9060    0.0000 </r>
       <r>   79.1304    0.0000 </r>
       <r>   79.2140    0.0000 </r>
       <r>   79.2184    0.0000 </r>
       <r>   79.6083    0.0000 </r>
       <r>   79.6841    0.0000 </r>
      </set>
      <set comment="kpoint 4">
       <r>  -18.3111    1.0000 </r>
       <r>  -15.5025    1.0000 </r>
       <r>  -14.9178    1.0000 </r>
       <r>  -12.6026    1.0000 </r>
       <r>  -11.5471    1.0000 </r>
       <r>  -10.1724    1.0000 </r>
       <r>   -8.7139    1.0000 </r>
       <r>   -7.6782    1.0000 </r>
       <r>   -6.9823    1.0000 </r>
       <r>   -5.9473    1.0000 </r>
       <r>   -5.0207    1.0000 </r>
       <r>   -4.0930    1.0000 </r>
       <r>   -3.6340    1.0000 </r>
       <r>   -3.2941    1.0000 </r>
       <r>   -3.0028    1.0000 </r>
       <r>   -1.4707    0.0000 </r>
       <r>    1.5522    0.0000 </r>
       <r>    2.2445    0.0000 </r>
       <r>    2.3849    0.0000 </r>
       <r>    3.3190    0.0000 </r>
       <r>    4.9927    0.0000 </r>
       <r>    6.0211    0.0000 </r>
       <r>    6.3584    0.0000 </r>
       <r>    6.7511    0.0000 </r>
       <r>    7.6029    0.0000 </r>
       <r>    7.8092    0.0000 </r>
       <r>    7.9266    0.0000 </r>
       <r>    8.1647    0.0000 </r>
       <r>    8.2206    0.0000 </r>
       <r>    8.9264    0.0000 </r>
       <r>    9.3180    0.0000 </r>
       <r>    9.4674    0.0000 </r>
       <r>    9.4698    0.0000 </r>
       <r>   10.1391    0.0000 </r>
       <r>   10.1768    0.0000 </r>
       <r>   11.1044    0.0000 </r>
       <r>   11.3401    0.0000 </r>
       <r>   11.7682    0.0000 </r>
       <r>   11.8214    0.0000 </r>
       <r>   12.3380    0.0000 </r>
       <r>   12.3959    0.0000 </r>
       <r>   12.5104    0.0000 </r>
       <r>   13.2333    0.0000 </r>
       <r>   13.2608    0.0000 </r>
       <r>   14.2225    0.0000 </r>
       <r>   14.4784    0.0000 </r>
       <r>   14.8590    0.0000 </r>
       <r>   15.0380    0.0000 </r>
       <r>   15.3045    0.0000 </r>
       <r>   16.0072    0.0000 </r>
       <r>   16.0964    0.0000 </r>
       <r>   16.2607    0.0000 </r>
       <r>   16.4635    0.0000 </r>
       <r>   17.1509    0.0000 </r>
       <r>   17.2038    0.0000 </r>
       <r>   18.7148    0.0000 </r>
       <r>   18.8973    0.0000 </r>
       <r>   18.9961    0.0000 </r>
       <r>   19.1637    0.0000 </r>
       <r>   19.3560    0.0000 </r>
       <r>   19.6341    0.0000 </r>
       <r>   19.6521    0.0000 </r>
       <r>   19.8567    0.0000 </r>
       <r>   20.1793    0.0000 </r>
       <r>   20.2805    0.0000 </r>
       <r>   20.6624    0.0000 </r>
       <r>   20.7056    0.0000 </r>
       <r>   21.0592    0.0000 </r>
       <r>   21.0780    0.0000 </r>
       <r>   21.4988    0.0000 </r>
       <r>   21.9505    0.0000 </r>
       <r>   22.9605    0.0000 </r>
       <r>   23.2358    0.0000 </r>
       <r>   23.2529    0.0000 </r>
       <r>   23.3291    0.0000 </r>
       <r>   23.5515    0.0000 </r>
       <r>   24.0815    0.0000 </r>
       <r>   24.5135    0.0000 </r>
       <r>   24.5438    0.0000 </r>
       <r>   24.5896    0.0000 </r>
       <r>   24.7054    0.0000 </r>
       <r>   25.0584    0.0000 </r>
       <r>   25.2804    0.0000 </r>
       <r>   25.5470    0.0000 </r>
       <r>   25.6479    0.0000 </r>
       <r>   25.6602    0.0000 </r>
       <r>   26.4057    0.0000 </r>
       <r>   26.7615    0.0000 </r>
       <r>   27.3091    0.0000 </r>
       <r>   28.0925    0.0000 </r>
       <r>   28.1525    0.0000 </r>
       <r>   28.1598    0.0000 </r>
       <r>   28.1715    0.0000 </r>
       <r>   28.3197    0.0000 </r>
       <r>   28.6563    0.0000 </r>
       <r>   28.6892    0.0000 </r>
       <r>   29.1922    0.0000 </r>
       <r>   29.5560    0.0000 </r>
       <r>   29.8650    0.0000 </r>
       <r>   29.9607    0.0000 </r>
       <r>   30.0805    0.0000 </r>
       <r>   30.1473    0.0000 </r>
       <r>   30.6552    0.0000 </r>
       <r>   30.9060    0.0000 </r>
       <r>   31.0702    0.0000 </r>
       <r>   31.7272    0.0000 </r>
       <r>   31.9407    0.0000 </r>
       <r>   31.9744    0.0000 </r>
       <r>   32.2557    0.0000 </r>
       <r>   32.4165    0.0000 </r>
       <r>   32.5241    0.0000 </r>
       <r>   32.5549    0.0000 </r>
       <r>   33.0529    0.0000 </r>
       <r>   33.4802    0.0000 </r>
       <r>   33.5835    0.0000 </r>
       <r>   33.8017    0.0000 </r>
       <r>   33.9561    0.0000 </r>
       <r>   34.1088    0.0000 </r>
       <r>   34.2691    0.0000 </r>
       <r>   34.6196    0.0000 </r>
       <r>   34.9734    0.0000 </r>
       <r>   35.1859    0.0000 </r>
       <r>   35.7166    0.0000 </r>
       <r>   35.7976    0.0000 </r>
       <r>   35.8135    0.0000 </r>
       <r>   36.4358    0.0000 </r>
       <r>   36.7285    0.0000 </r>
       <r>   36.8859    0.0000 </r>
       <r>   37.2446    0.0000 </r>
       <r>   37.2882    0.0000 </r>
       <r>   37.7699    0.0000 </r>
       <r>   37.8238    0.0000 </r>
       <r>   37.9895    0.0000 </r>
       <r>   38.6388    0.0000 </r>
       <r>   39.0195    0.0000 </r>
       <r>   39.0640    0.0000 </r>
       <r>   39.1075    0.0000 </r>
       <r>   39.2829    0.0000 </r>
       <r>   39.3790    0.0000 </r>
       <r>   39.5941    0.0000 </r>
       <r>   39.6123    0.0000 </r>
       <r>   39.7353    0.0000 </r>
       <r>   39.9602    0.0000 </r>
       <r>   40.1138    0.0000 </r>
       <r>   40.1251    0.0000 </r>
       <r>   40.2040    0.0000 </r>
       <r>   40.9925    0.0000 </r>
       <r>   41.3002    0.0000 </r>
       <r>   41.6598    0.0000 </r>
       <r>   41.7458    0.0000 </r>
       <r>   41.8535    0.0000 </r>
       <r>   41.9176    0.0000 </r>
       <r>   42.3695    0.0000 </r>
       <r>   42.4999    0.0000 </r>
       <r>   42.6064    0.0000 </r>
       <r>   42.8776    0.0000 </r>
       <r>   43.1819    0.0000 </r>
       <r>   43.5598    0.0000 </r>
       <r>   43.6217    0.0000 </r>
       <r>   43.9314    0.0000 </r>
       <r>   44.3277    0.0000 </r>
       <r>   44.6186    0.0000 </r>
       <r>   44.9663    0.0000 </r>
       <r>   45.2003    0.0000 </r>
       <r>   45.3725    0.0000 </r>
       <r>   45.4747    0.0000 </r>
       <r>   45.6654    0.0000 </r>
       <r>   46.2222    0.0000 </r>
       <r>   46.3786    0.0000 </r>
       <r>   46.4762    0.0000 </r>
       <r>   46.8449    0.0000 </r>
       <r>   46.8456    0.0000 </r>
       <r>   46.9597    0.0000 </r>
       <r>   47.2318    0.0000 </r>
       <r>   47.9891    0.0000 </r>
       <r>   48.4743    0.0000 </r>
       <r>   48.4990    0.0000 </r>
       <r>   48.5620    0.0000 </r>
       <r>   48.8907    0.0000 </r>
       <r>   49.2050    0.0000 </r>
       <r>   49.4216    0.0000 </r>
       <r>   49.4744    0.0000 </r>
       <r>   49.9091    0.0000 </r>
       <r>   50.0110    0.0000 </r>
       <r>   50.0163    0.0000 </r>
       <r>   50.0237    0.0000 </r>
       <r>   50.3216    0.0000 </r>
       <r>   50.4912    0.0000 </r>
       <r>   50.7075    0.0000 </r>
       <r>   50.9413    0.0000 </r>
       <r>   51.1774    0.0000 </r>
       <r>   51.4010    0.0000 </r>
       <r>   51.4275    0.0000 </r>
       <r>   51.7283    0.0000 </r>
       <r>   51.9061    0.0000 </r>
       <r>   52.1448    0.0000 </r>
       <r>   52.1935    0.0000 </r>
       <r>   52.2059    0.0000 </r>
       <r>   52.3367    0.0000 </r>
       <r>   52.8108    0.0000 </r>
       <r>   52.8464    0.0000 </r>
       <r>   52.8583    0.0000 </r>
       <r>   53.2313    0.0000 </r>
       <r>   53.3892    0.0000 </r>
       <r>   53.6028    0.0000 </r>
       <r>   53.8192    0.0000 </r>
       <r>   54.1504    0.0000 </r>
       <r>   54.1964    0.0000 </r>
       <r>   54.2534    0.0000 </r>
       <r>   54.6405    0.0000 </r>
       <r>   54.7045    0.0000 </r>
       <r>   54.8967    0.0000 </r>
       <r>   55.5596    0.0000 </r>
       <r>   55.5953    0.0000 </r>
       <r>   55.6232    0.0000 </r>
       <r>   55.7245    0.0000 </r>
       <r>   55.7832    0.0000 </r>
       <r>   56.0551    0.0000 </r>
       <r>   56.2202    0.0000 </r>
       <r>   56.6941    0.0000 </r>
       <r>   56.7797    0.0000 </r>
       <r>   56.8429    0.0000 </r>
       <r>   56.9545    0.0000 </r>
       <r>   57.0374    0.0000 </r>
       <r>   57.0739    0.0000 </r>
       <r>   57.2597    0.0000 </r>
       <r>   57.2689    0.0000 </r>
       <r>   57.3143    0.0000 </r>
       <r>   57.5226    0.0000 </r>
       <r>   57.6238    0.0000 </r>
       <r>   57.6990    0.0000 </r>
       <r>   58.1801    0.0000 </r>
       <r>   58.3513    0.0000 </r>
       <r>   58.4951    0.0000 </r>
       <r>   58.9111    0.0000 </r>
       <r>   58.9616    0.0000 </r>
       <r>   59.0730    0.0000 </r>
       <r>   59.0905    0.0000 </r>
       <r>   59.2435    0.0000 </r>
       <r>   59.3175    0.0000 </r>
       <r>   59.3460    0.0000 </r>
       <r>   59.5267    0.0000 </r>
       <r>   59.8521    0.0000 </r>
       <r>   60.3769    0.0000 </r>
       <r>   60.4876    0.0000 </r>
       <r>   60.5735    0.0000 </r>
       <r>   60.6337    0.0000 </r>
       <r>   60.8215    0.0000 </r>
       <r>   61.0742    0.0000 </r>
       <r>   61.3795    0.0000 </r>
       <r>   61.4507    0.0000 </r>
       <r>   61.9936    0.0000 </r>
       <r>   62.0355    0.0000 </r>
       <r>   62.4073    0.0000 </r>
       <r>   62.7477    0.0000 </r>
       <r>   62.8774    0.0000 </r>
       <r>   62.9101    0.0000 </r>
       <r>   62.9686    0.0000 </r>
       <r>   63.0202    0.0000 </r>
       <r>   63.2591    0.0000 </r>
       <r>   63.4523    0.0000 </r>
       <r>   63.5608    0.0000 </r>
       <r>   63.8675    0.0000 </r>
       <r>   64.0999    0.0000 </r>
       <r>   64.2451    0.0000 </r>
       <r>   64.2916    0.0000 </r>
       <r>   64.4979    0.0000 </r>
       <r>   64.8736    0.0000 </r>
       <r>   64.8905    0.0000 </r>
       <r>   65.3184    0.0000 </r>
       <r>   65.3569    0.0000 </r>
       <r>   65.4974    0.0000 </r>
       <r>   65.5078    0.0000 </r>
       <r>   65.8375    0.0000 </r>
       <r>   66.0478    0.0000 </r>
       <r>   66.6053    0.0000 </r>
       <r>   66.7800    0.0000 </r>
       <r>   67.0447    0.0000 </r>
       <r>   67.1222    0.0000 </r>
       <r>   67.1644    0.0000 </r>
       <r>   67.1948    0.0000 </r>
       <r>   67.2874    0.0000 </r>
       <r>   67.3091    0.0000 </r>
       <r>   67.3210    0.0000 </r>
       <r>   67.6097    0.0000 </r>
       <r>   67.6327    0.0000 </r>
       <r>   67.9254    0.0000 </r>
       <r>   68.0574    0.0000 </r>
       <r>   68.4062    0.0000 </r>
       <r>   68.5319    0.0000 </r>
       <r>   68.6782    0.0000 </r>
       <r>   68.8060    0.0000 </r>
       <r>   68.9033    0.0000 </r>
       <r>   69.0115    0.0000 </r>
       <r>   69.1052    0.0000 </r>
       <r>   69.9656    0.0000 </r>
       <r>   70.0190    0.0000 </r>
       <r>   70.1170    0.0000 </r>
       <r>   70.2312    0.0000 </r>
       <r>   70.3726    0.0000 </r>
       <r>   70.5162    0.0000 </r>
       <r>   70.6736    0.0000 </r>
       <r>   70.9386    0.0000 </r>
       <r>   71.1242    0.0000 </r>
       <r>   71.1300    0.0000 </r>
       <r>   71.5827    0.0000 </r>
       <r>   71.6238    0.0000 </r>
       <r>   71.8319    0.0000 </r>
       <r>   71.8925    0.0000 </r>
       <r>   72.1150    0.0000 </r>
       <r>   72.5556    0.0000 </r>
       <r>   72.6591    0.0000 </r>
       <r>   72.6674    0.0000 </r>
       <r>   73.0362    0.0000 </r>
       <r>   73.6625    0.0000 </r>
       <r>   73.9171    0.0000 </r>
       <r>   74.0245    0.0000 </r>
       <r>   74.2636    0.0000 </r>
       <r>   74.4468    0.0000 </r>
       <r>   74.5663    0.0000 </r>
       <r>   74.8116    0.0000 </r>
       <r>   74.8239    0.0000 </r>
       <r>   74.8809    0.0000 </r>
       <r>   74.9425    0.0000 </r>
       <r>   75.1121    0.0000 </r>
       <r>   75.3392    0.0000 </r>
       <r>   75.4222    0.0000 </r>
       <r>   75.4505    0.0000 </r>
       <r>   75.4797    0.0000 </r>
       <r>   75.6271    0.0000 </r>
       <r>   75.8989    0.0000 </r>
       <r>   76.0321    0.0000 </r>
       <r>   76.0329    0.0000 </r>
       <r>   76.1514    0.0000 </r>
       <r>   76.2063    0.0000 </r>
       <r>   76.3108    0.0000 </r>
       <r>   76.5557    0.0000 </r>
       <r>   76.7035    0.0000 </r>
       <r>   76.7086    0.0000 </r>
       <r>   76.8598    0.0000 </r>
       <r>   76.8683    0.0000 </r>
       <r>   77.4037    0.0000 </r>
       <r>   77.4365    0.0000 </r>
       <r>   77.7307    0.0000 </r>
       <r>   77.7350    0.0000 </r>
       <r>   78.0056    0.0000 </r>
       <r>   78.1892    0.0000 </r>
       <r>   78.3683    0.0000 </r>
       <r>   78.3809    0.0000 </r>
       <r>   78.4913    0.0000 </r>
       <r>   78.4998    0.0000 </r>
       <r>   78.5501    0.0000 </r>
       <r>   78.5692    0.0000 </r>
       <r>   79.0840    0.0000 </r>
       <r>   79.1396    0.0000 </r>
       <r>   79.4761    0.0000 </r>
       <r>   79.8465    0.0000 </r>
       <r>   80.0026    0.0000 </r>
       <r>   80.1924    0.0000 </r>
       <r>   80.4085    0.0000 </r>
      </set>
      <set comment="kpoint 5">
       <r>  -18.1625    1.0000 </r>
       <r>  -15.8797    1.0000 </r>
       <r>  -15.0239    1.0000 </r>
       <r>  -12.7316    1.0000 </r>
       <r>  -11.1092    1.0000 </r>
       <r>   -9.5491    1.0000 </r>
       <r>   -8.0852    1.0000 </r>
       <r>   -8.0108    1.0000 </r>
       <r>   -6.7177    1.0000 </r>
       <r>   -6.5247    1.0000 </r>
       <r>   -4.9417    1.0000 </r>
       <r>   -4.6103    1.0000 </r>
       <r>   -4.3954    1.0000 </r>
       <r>   -3.3602    1.0000 </r>
       <r>   -3.3072    1.0000 </r>
       <r>   -1.6689    0.0000 </r>
       <r>    1.7888    0.0000 </r>
       <r>    2.5685    0.0000 </r>
       <r>    2.7430    0.0000 </r>
       <r>    4.2903    0.0000 </r>
       <r>    5.1738    0.0000 </r>
       <r>    5.3723    0.0000 </r>
       <r>    6.6300    0.0000 </r>
       <r>    6.9218    0.0000 </r>
       <r>    7.4317    0.0000 </r>
       <r>    7.5747    0.0000 </r>
       <r>    7.6596    0.0000 </r>
       <r>    8.1261    0.0000 </r>
[...]
       <r>    68.6619    17.1806   574.8831 </r>
       <r>    68.7076    13.9324   575.5199 </r>
       <r>    68.7533     2.5826   575.6380 </r>
       <r>    68.7990     3.9819   575.8199 </r>
       <r>    68.8447    10.7540   576.3115 </r>
       <r>    68.8904    13.4673   576.9270 </r>
       <r>    68.9361     8.9669   577.3368 </r>
       <r>    68.9818    16.8534   578.1071 </r>
       <r>    69.0275     8.4235   578.4921 </r>
       <r>    69.0732     7.1625   578.8194 </r>
       <r>    69.1189     8.3704   579.2020 </r>
       <r>    69.1647    14.4108   579.8606 </r>
       <r>    69.2104    17.3103   580.6518 </r>
       <r>    69.2561    18.0255   581.4756 </r>
       <r>    69.3018    10.0587   581.9354 </r>
       <r>    69.3475    12.6433   582.5132 </r>
       <r>    69.3932    10.1614   582.9776 </r>
       <r>    69.4389    13.3471   583.5877 </r>
       <r>    69.4846    17.4610   584.3857 </r>
       <r>    69.5303     4.2441   584.5797 </r>
       <r>    69.5760     9.9981   585.0367 </r>
       <r>    69.6217    11.0133   585.5400 </r>
       <r>    69.6674    13.0802   586.1378 </r>
       <r>    69.7131    11.0898   586.6447 </r>
       <r>    69.7588    20.8817   587.5991 </r>
       <r>    69.8045     8.1674   587.9724 </r>
       <r>    69.8502    14.6420   588.6416 </r>
       <r>    69.8959     6.7420   588.9497 </r>
       <r>    69.9416     9.1486   589.3678 </r>
       <r>    69.9873    16.2499   590.1105 </r>
       <r>    70.0330    15.0530   590.7985 </r>
       <r>    70.0787     9.5733   591.2361 </r>
       <r>    70.1244    10.4359   591.7131 </r>
       <r>    70.1702     7.0700   592.0362 </r>
       <r>    70.2159    11.6899   592.5705 </r>
       <r>    70.2616     9.8466   593.0205 </r>
       <r>    70.3073     9.8530   593.4708 </r>
       <r>    70.3530     4.5170   593.6773 </r>
       <r>    70.3987    11.9478   594.2233 </r>
       <r>    70.4444    13.7932   594.8538 </r>
       <r>    70.4901    10.5658   595.3367 </r>
       <r>    70.5358     9.2208   595.7581 </r>
       <r>    70.5815    11.3424   596.2765 </r>
       <r>    70.6272    15.0229   596.9631 </r>
       <r>    70.6729    14.6208   597.6313 </r>
       <r>    70.7186    11.5709   598.1602 </r>
       <r>    70.7643    14.6445   598.8295 </r>
       <r>    70.8100     8.0550   599.1977 </r>
       <r>    70.8557     0.7694   599.2328 </r>
       <r>    70.9014    10.6853   599.7212 </r>
       <r>    70.9471    16.4799   600.4744 </r>
       <r>    70.9928    10.0416   600.9333 </r>
       <r>    71.0385    14.2200   601.5833 </r>
       <r>    71.0842    20.7035   602.5295 </r>
       <r>    71.1299    17.4965   603.3292 </r>
       <r>    71.1757     4.9448   603.5552 </r>
       <r>    71.2214     7.3513   603.8912 </r>
       <r>    71.2671    12.1337   604.4457 </r>
       <r>    71.3128    11.8840   604.9889 </r>
       <r>    71.3585    12.2264   605.5477 </r>
       <r>    71.4042     9.2424   605.9701 </r>
       <r>    71.4499    16.4105   606.7201 </r>
       <r>    71.4956    22.8668   607.7653 </r>
       <r>    71.5413    13.5366   608.3839 </r>
       <r>    71.5870     5.4580   608.6334 </r>
       <r>    71.6327    24.7452   609.7644 </r>
       <r>    71.6784     8.8956   610.1709 </r>
       <r>    71.7241    15.2466   610.8678 </r>
       <r>    71.7698    11.8698   611.4103 </r>
       <r>    71.8155     8.6557   611.8059 </r>
       <r>    71.8612    12.7160   612.3871 </r>
       <r>    71.9069    20.4267   613.3207 </r>
       <r>    71.9526     7.6957   613.6724 </r>
       <r>    71.9983     8.0938   614.0423 </r>
       <r>    72.0440     6.2137   614.3263 </r>
       <r>    72.0897    10.9445   614.8265 </r>
       <r>    72.1354    10.3718   615.3006 </r>
       <r>    72.1812    12.9420   615.8921 </r>
       <r>    72.2269    13.4451   616.5066 </r>
       <r>    72.2726     4.6271   616.7180 </r>
       <r>    72.3183     4.3966   616.9190 </r>
       <r>    72.3640     6.3161   617.2077 </r>
       <r>    72.4097     3.2206   617.3549 </r>
       <r>    72.4554    17.9035   618.1731 </r>
       <r>    72.5011    12.9714   618.7660 </r>
       <r>    72.5468    17.2303   619.5535 </r>
       <r>    72.5925    16.8709   620.3246 </r>
       <r>    72.6382    10.1802   620.7898 </r>
       <r>    72.6839    13.7290   621.4173 </r>
       <r>    72.7296    18.2803   622.2528 </r>
       <r>    72.7753    16.7645   623.0190 </r>
       <r>    72.8210     9.7887   623.4664 </r>
       <r>    72.8667    17.5980   624.2707 </r>
       <r>    72.9124    12.7558   624.8537 </r>
       <r>    72.9581     9.6423   625.2944 </r>
       <r>    73.0038    17.1695   626.0791 </r>
       <r>    73.0495    10.9784   626.5809 </r>
       <r>    73.0952     8.8248   626.9842 </r>
       <r>    73.1409    12.0269   627.5339 </r>
       <r>    73.1867     8.8642   627.9391 </r>
       <r>    73.2324     8.0988   628.3092 </r>
       <r>    73.2781    12.0621   628.8605 </r>
       <r>    73.3238    11.9233   629.4055 </r>
       <r>    73.3695    19.5886   630.3007 </r>
       <r>    73.4152     7.8907   630.6614 </r>
       <r>    73.4609     7.5175   631.0050 </r>
       <r>    73.5066     5.6234   631.2620 </r>
       <r>    73.5523    15.3851   631.9651 </r>
       <r>    73.5980    17.2457   632.7534 </r>
       <r>    73.6437    15.6827   633.4701 </r>
       <r>    73.6894    10.4428   633.9474 </r>
       <r>    73.7351    14.4798   634.6092 </r>
       <r>    73.7808    10.1077   635.0712 </r>
       <r>    73.8265     2.8494   635.2014 </r>
       <r>    73.8722    15.8218   635.9245 </r>
       <r>    73.9179    14.5467   636.5894 </r>
       <r>    73.9636    11.8829   637.1325 </r>
       <r>    74.0093     8.8469   637.5368 </r>
       <r>    74.0550    10.6983   638.0258 </r>
       <r>    74.1007    16.0750   638.7605 </r>
       <r>    74.1464     9.4049   639.1903 </r>
       <r>    74.1922    11.7644   639.7280 </r>
       <r>    74.2379     5.8192   639.9940 </r>
       <r>    74.2836    20.7705   640.9433 </r>
       <r>    74.3293    22.2744   641.9613 </r>
       <r>    74.3750    13.5411   642.5802 </r>
       <r>    74.4207     7.9862   642.9452 </r>
       <r>    74.4664    10.3063   643.4163 </r>
       <r>    74.5121    12.8001   644.0013 </r>
       <r>    74.5578    11.9816   644.5489 </r>
       <r>    74.6035    18.0544   645.3741 </r>
       <r>    74.6492    17.8554   646.1902 </r>
       <r>    74.6949     8.0683   646.5589 </r>
       <r>    74.7406     9.2546   646.9819 </r>
       <r>    74.7863    11.7934   647.5209 </r>
       <r>    74.8320     7.2544   647.8525 </r>
       <r>    74.8777    11.7958   648.3916 </r>
       <r>    74.9234    20.3417   649.3213 </r>
       <r>    74.9691    18.0329   650.1455 </r>
       <r>    75.0148    17.9582   650.9663 </r>
       <r>    75.0605     4.7956   651.1854 </r>
       <r>    75.1062    10.8070   651.6794 </r>
       <r>    75.1519    20.5904   652.6204 </r>
       <r>    75.1977    15.7963   653.3424 </r>
       <r>    75.2434     6.2296   653.6271 </r>
       <r>    75.2891    16.2626   654.3704 </r>
       <r>    75.3348     6.8646   654.6841 </r>
       <r>    75.3805     6.1517   654.9653 </r>
       <r>    75.4262    21.3408   655.9407 </r>
       <r>    75.4719    17.4745   656.7393 </r>
       <r>    75.5176    10.2500   657.2078 </r>
       <r>    75.5633    11.8129   657.7477 </r>
       <r>    75.6090    14.6293   658.4163 </r>
       <r>    75.6547    10.2015   658.8826 </r>
       <r>    75.7004    17.4837   659.6817 </r>
       <r>    75.7461    13.0000   660.2758 </r>
       <r>    75.7918     7.4237   660.6151 </r>
       <r>    75.8375    14.8138   661.2922 </r>
       <r>    75.8832    10.5234   661.7732 </r>
       <r>    75.9289    11.1414   662.2824 </r>
       <r>    75.9746    12.6474   662.8604 </r>
       <r>    76.0203     8.5130   663.2495 </r>
       <r>    76.0660    18.2311   664.0828 </r>
       <r>    76.1117    16.0898   664.8181 </r>
       <r>    76.1574    12.4285   665.3862 </r>
       <r>    76.2032     9.2401   665.8085 </r>
       <r>    76.2489    15.0811   666.4978 </r>
       <r>    76.2946     5.9796   666.7711 </r>
       <r>    76.3403    12.7482   667.3537 </r>
       <r>    76.3860     6.0853   667.6318 </r>
       <r>    76.4317     7.7349   667.9854 </r>
       <r>    76.4774     9.8966   668.4377 </r>
       <r>    76.5231    11.0911   668.9446 </r>
       <r>    76.5688    11.3561   669.4636 </r>
       <r>    76.6145    11.2385   669.9773 </r>
       <r>    76.6602    18.1489   670.8068 </r>
       <r>    76.7059     4.1957   670.9985 </r>
       <r>    76.7516     6.2980   671.2864 </r>
       <r>    76.7973     8.2692   671.6643 </r>
       <r>    76.8430    13.4790   672.2804 </r>
       <r>    76.8887    24.2535   673.3888 </r>
       <r>    76.9344    10.8923   673.8867 </r>
       <r>    76.9801    10.3853   674.3613 </r>
       <r>    77.0258    15.4866   675.0691 </r>
       <r>    77.0715    12.2635   675.6296 </r>
       <r>    77.1172     9.2022   676.0502 </r>
       <r>    77.1629    14.1657   676.6977 </r>
       <r>    77.2087    14.9444   677.3807 </r>
       <r>    77.2544    26.3048   678.5829 </r>
       <r>    77.3001    10.8419   679.0785 </r>
       <r>    77.3458    14.3168   679.7328 </r>
       <r>    77.3915    11.6751   680.2664 </r>
       <r>    77.4372    16.9858   681.0427 </r>
       <r>    77.4829    10.8583   681.5390 </r>
       <r>    77.5286    16.7643   682.3052 </r>
       <r>    77.5743    15.6830   683.0220 </r>
       <r>    77.6200     2.8384   683.1517 </r>
       <r>    77.6657     7.1237   683.4773 </r>
       <r>    77.7114    12.1280   684.0316 </r>
       <r>    77.7571    25.5308   685.1985 </r>
       <r>    77.8028    16.0498   685.9320 </r>
       <r>    77.8485    16.0050   686.6635 </r>
       <r>    77.8942    10.9663   687.1647 </r>
       <r>    77.9399     9.3856   687.5937 </r>
       <r>    77.9856     2.7533   687.7196 </r>
       <r>    78.0313    19.6428   688.6173 </r>
       <r>    78.0770     5.7485   688.8800 </r>
       <r>    78.1227    18.8405   689.7411 </r>
       <r>    78.1684    24.7860   690.8740 </r>
       <r>    78.2142    11.1130   691.3819 </r>
       <r>    78.2599    13.2592   691.9879 </r>
       <r>    78.3056    18.1899   692.8193 </r>
       <r>    78.3513    10.9704   693.3207 </r>
       <r>    78.3970    11.3755   693.8406 </r>
       <r>    78.4427     5.9422   694.1122 </r>
       <r>    78.4884    10.6605   694.5994 </r>
       <r>    78.5341     8.9093   695.0066 </r>
       <r>    78.5798    12.5734   695.5812 </r>
       <r>    78.6255    10.1810   696.0466 </r>
       <r>    78.6712    21.6342   697.0353 </r>
       <r>    78.7169    19.3594   697.9202 </r>
       <r>    78.7626     9.9405   698.3745 </r>
       <r>    78.8083     5.7861   698.6389 </r>
       <r>    78.8540     6.5265   698.9372 </r>
       <r>    78.8997    18.1943   699.7688 </r>
       <r>    78.9454    17.6772   700.5767 </r>
       <r>    78.9911     8.5179   700.9660 </r>
       <r>    79.0368    10.8480   701.4618 </r>
       <r>    79.0825    17.1172   702.2442 </r>
       <r>    79.1282     9.1274   702.6613 </r>
       <r>    79.1740    25.2644   703.8160 </r>
       <r>    79.2197    12.9431   704.4076 </r>
       <r>    79.2654    11.1792   704.9185 </r>
       <r>    79.3111    11.1969   705.4303 </r>
       <r>    79.3568     5.2010   705.6680 </r>
       <r>    79.4025     8.8314   706.0716 </r>
       <r>    79.4482    28.5711   707.3774 </r>
       <r>    79.4939     8.9769   707.7877 </r>
       <r>    79.5396    10.1422   708.2513 </r>
       <r>    79.5853    13.2762   708.8581 </r>
       <r>    79.6310     8.3571   709.2400 </r>
       <r>    79.6767    16.6558   710.0013 </r>
       <r>    79.7224     8.8291   710.4048 </r>
       <r>    79.7681    20.9104   711.3605 </r>
       <r>    79.8138     7.9882   711.7256 </r>
       <r>    79.8595     9.4514   712.1576 </r>
       <r>    79.9052     9.8807   712.6092 </r>
       <r>    79.9509     4.5535   712.8173 </r>
       <r>    79.9966    21.8846   713.8175 </r>
       <r>    80.0423    12.9158   714.4078 </r>
       <r>    80.0880     5.2966   714.6499 </r>
       <r>    80.1337    10.3946   715.1250 </r>
       <r>    80.1795    10.2877   715.5952 </r>
       <r>    80.2252    11.1417   716.1044 </r>
       <r>    80.2709     0.4510   716.1250 </r>
       <r>    80.3166     6.5110   716.4226 </r>
       <r>    80.3623    15.5386   717.1328 </r>
       <r>    80.4080     7.7143   717.4853 </r>
       <r>    80.4537    18.4630   718.3292 </r>
       <r>    80.4994     2.5865   718.4474 </r>
       <r>    80.5451     3.5068   718.6077 </r>
       <r>    80.5908     1.9308   718.6959 </r>
       <r>    80.6365     7.5646   719.0417 </r>
       <r>    80.6822     3.7494   719.2130 </r>
       <r>    80.7279     4.4554   719.4167 </r>
       <r>    80.7736     0.0000   719.4167 </r>
       <r>    80.8193     0.0022   719.4168 </r>
       <r>    80.8650     4.6384   719.6288 </r>
       <r>    80.9107     3.5643   719.7917 </r>
       <r>    80.9564     0.8770   719.8317 </r>
       <r>    81.0021     1.8580   719.9167 </r>
       <r>    81.0478     0.0000   719.9167 </r>
       <r>    81.0935     0.0000   719.9167 </r>
       <r>    81.1392     1.1223   719.9680 </r>
       <r>    81.1850     0.7010   720.0000 </r>
       <r>    81.2307     0.0000   720.0000 </r>
       <r>    81.2764     0.0000   720.0000 </r>
       <r>    81.3221     0.0000   720.0000 </r>
       <r>    81.3678     0.0000   720.0000 </r>
       <r>    81.4135     0.0000   720.0000 </r>
       <r>    81.4592     0.0000   720.0000 </r>
       <r>    81.5049     0.0000   720.0000 </r>
       <r>    81.5506     0.0000   720.0000 </r>
       <r>    81.5963     0.0000   720.0000 </r>
       <r>    81.6420     0.0000   720.0000 </r>
       <r>    81.6877     0.0000   720.0000 </r>
       <r>    81.7334     0.0000   720.0000 </r>
       <r>    81.7791     0.0000   720.0000 </r>
       <r>    81.8248     0.0000   720.0000 </r>
       <r>    81.8705     0.0000   720.0000 </r>
       <r>    81.9162     0.0000   720.0000 </r>
       <r>    81.9619     0.0000   720.0000 </r>
       <r>    82.0076     0.0000   720.0000 </r>
       <r>    82.0533     0.0000   720.0000 </r>
       <r>    82.0990     0.0000   720.0000 </r>
       <r>    82.1447     0.0000   720.0000 </r>
       <r>    82.1905     0.0000   720.0000 </r>
       <r>    82.2362     0.0000   720.0000 </r>
       <r>    82.2819     0.0000   720.0000 </r>
       <r>    82.3276     0.0000   720.0000 </r>
       <r>    82.3733     0.0000   720.0000 </r>
       <r>    82.4190     0.0000   720.0000 </r>
       <r>    82.4647     0.0000   720.0000 </r>
       <r>    82.5104     0.0000   720.0000 </r>
       <r>    82.5561     0.0000   720.0000 </r>
       <r>    82.6018     0.0000   720.0000 </r>
       <r>    82.6475     0.0000   720.0000 </r>
       <r>    82.6932     0.0000   720.0000 </r>
       <r>    82.7389     0.0000   720.0000 </r>
       <r>    82.7846     0.0000   720.0000 </r>
       <r>    82.8303     0.0000   720.0000 </r>
       <r>    82.8760     0.0000   720.0000 </r>
       <r>    82.9217     0.0000   720.0000 </r>
       <r>    82.9674     0.0000   720.0000 </r>
       <r>    83.0131     0.0000   720.0000 </r>
       <r>    83.0588     0.0000   720.0000 </r>
       <r>    83.1045     0.0000   720.0000 </r>
       <r>    83.1502     0.0000   720.0000 </r>
       <r>    83.1960     0.0000   720.0000 </r>
       <r>    83.2417     0.0000   720.0000 </r>
       <r>    83.2874     0.0000   720.0000 </r>
       <r>    83.3331     0.0000   720.0000 </r>
       <r>    83.3788     0.0000   720.0000 </r>
       <r>    83.4245     0.0000   720.0000 </r>
       <r>    83.4702     0.0000   720.0000 </r>
       <r>    83.5159     0.0000   720.0000 </r>
       <r>    83.5616     0.0000   720.0000 </r>
       <r>    83.6073     0.0000   720.0000 </r>
       <r>    83.6530     0.0000   720.0000 </r>
       <r>    83.6987     0.0000   720.0000 </r>
       <r>    83.7444     0.0000   720.0000 </r>
       <r>    83.7901     0.0000   720.0000 </r>
       <r>    83.8358     0.0000   720.0000 </r>
       <r>    83.8815     0.0000   720.0000 </r>
       <r>    83.9272     0.0000   720.0000 </r>
       <r>    83.9729     0.0000   720.0000 </r>
       <r>    84.0186     0.0000   720.0000 </r>
       <r>    84.0643     0.0000   720.0000 </r>
       <r>    84.1100     0.0000   720.0000 </r>
       <r>    84.1557     0.0000   720.0000 </r>
       <r>    84.2015     0.0000   720.0000 </r>
       <r>    84.2472     0.0000   720.0000 </r>
       <r>    84.2929     0.0000   720.0000 </r>
       <r>    84.3386     0.0000   720.0000 </r>
       <r>    84.3843     0.0000   720.0000 </r>
       <r>    84.4300     0.0000   720.0000 </r>
       <r>    84.4757     0.0000   720.0000 </r>
       <r>    84.5214     0.0000   720.0000 </r>
       <r>    84.5671     0.0000   720.0000 </r>
       <r>    84.6128     0.0000   720.0000 </r>
       <r>    84.6585     0.0000   720.0000 </r>
       <r>    84.7042     0.0000   720.0000 </r>
       <r>    84.7499     0.0000   720.0000 </r>
       <r>    84.7956     0.0000   720.0000 </r>
       <r>    84.8413     0.0000   720.0000 </r>
       <r>    84.8870     0.0000   720.0000 </r>
       <r>    84.9327     0.0000   720.0000 </r>
       <r>    84.9784     0.0000   720.0000 </r>
       <r>    85.0241     0.0000   720.0000 </r>
       <r>    85.0698     0.0000   720.0000 </r>
       <r>    85.1155     0.0000   720.0000 </r>
       <r>    85.1612     0.0000   720.0000 </r>
       <r>    85.2070     0.0000   720.0000 </r>
       <r>    85.2527     0.0000   720.0000 </r>
       <r>    85.2984     0.0000   720.0000 </r>
       <r>    85.3441     0.0000   720.0000 </r>
       <r>    85.3898     0.0000   720.0000 </r>
       <r>    85.4355     0.0000   720.0000 </r>
       <r>    85.4812     0.0000   720.0000 </r>
       <r>    85.5269     0.0000   720.0000 </r>
       <r>    85.5726     0.0000   720.0000 </r>
       <r>    85.6183     0.0000   720.0000 </r>
       <r>    85.6640     0.0000   720.0000 </r>
       <r>    85.7097     0.0000   720.0000 </r>
       <r>    85.7554     0.0000   720.0000 </r>
       <r>    85.8011     0.0000   720.0000 </r>
       <r>    85.8468     0.0000   720.0000 </r>
       <r>    85.8925     0.0000   720.0000 </r>
       <r>    85.9382     0.0000   720.0000 </r>
       <r>    85.9839     0.0000   720.0000 </r>
       <r>    86.0296     0.0000   720.0000 </r>
       <r>    86.0753     0.0000   720.0000 </r>
       <r>    86.1210     0.0000   720.0000 </r>
      </set>
     </set>
    </array>
   </total>
  </dos>
 </calculation>
 <structure name="finalpos" >
  <crystal>
   <varray name="basis" >
    <v>       4.48084843       2.58701885       0.00000000 </v>
    <v>      -4.48084843       2.58701885       0.00000000 </v>
    <v>       0.00000000       0.00000000       8.52022140 </v>
   </varray>
   <i name="volume">    197.53348383 </i>
   <varray name="rec_basis" >
    <v>       0.11158601       0.19327265       0.00000000 </v>
    <v>      -0.11158601       0.19327265       0.00000000 </v>
    <v>       0.00000000       0.00000000       0.11736784 </v>
   </varray>
  </crystal>
  <varray name="positions" >
   <v>       0.33333300       0.66666600       0.25000000 </v>
   <v>       0.66666600       0.33333300       0.25000000 </v>
   <v>       0.15869124       0.31738348       0.25000000 </v>
   <v>       0.31738348       0.15869124       0.25000000 </v>
   <v>       0.15869124       0.84130776       0.25000000 </v>
   <v>       0.84130776       0.15869124       0.25000000 </v>
   <v>       0.68261552       0.84130776       0.25000000 </v>
   <v>       0.84130776       0.68261552       0.25000000 </v>
  </varray>
 </structure>
</modeling>
