fcc Ni DOS                              
           1
     1.765000    1.765000    0.000000
     0.000000    1.765000    1.765000
     1.765000    0.000000    1.765000
   Ni
   1
Direct configuration=     1
   0.00000000  0.00000000  0.00000000
