 vasp.5.4.4.18Apr17-6-g9f103f2a35 (build Mar 30 2023 15:39:25) complex          
  
 executed on             LinuxIFC date 2023.05.26  16:17:17
 running on   12 total cores
 distrk:  each k-point on   12 cores,    1 groups
 distr:  one band on NCORES_PER_BAND=   1 cores,   12 groups


--------------------------------------------------------------------------------------------------------


 INCAR:
 POTCAR:    PAW_PBE B 06Sep2000                   
 POTCAR:    PAW_PBE C 08Apr2002                   

 ----------------------------------------------------------------------------- 
|                                                                             |
|           W    W    AA    RRRRR   N    N  II  N    N   GGGG   !!!           |
|           W    W   A  A   R    R  NN   N  II  NN   N  G    G  !!!           |
|           W    W  A    A  R    R  N N  N  II  N N  N  G       !!!           |
|           W WW W  AAAAAA  RRRRR   N  N N  II  N  N N  G  GGG   !            |
|           WW  WW  A    A  R   R   N   NN  II  N   NN  G    G                |
|           W    W  A    A  R    R  N    N  II  N    N   GGGG   !!!           |
|                                                                             |
|      For optimal performance we recommend to set                            |
|        NCORE= 4 - approx SQRT( number of cores)                             |
|      NCORE specifies how many cores store one orbital (NPAR=cpu/NCORE).     |
|      This setting can  greatly improve the performance of VASP for DFT.     |
|      The default,   NCORE=1            might be grossly inefficient         |
|      on modern multi-core architectures or massively parallel machines.     |
|      Do your own testing !!!!                                               |
|      Unfortunately you need to use the default for GW and RPA calculations. |
|      (for HF NCORE is supported but not extensively tested yet)             |
|                                                                             |
 ----------------------------------------------------------------------------- 

 POTCAR:    PAW_PBE B 06Sep2000                   
   SHA256 =  a32ced30f5ae56fd4d10b4325ff17eb3e4e38ee0f4288bc219fb012fddfa6e97 B/
   COPYR  = (c) Copyright 06Sep2000 Georg Kresse                                
   COPYR  = This file is part of the software VASP. Any use, copying, and all ot
   COPYR  = If you do not have a valid VASP license, you may not use, copy or di
   VRHFIN =B: s2p1                                                              
   LEXCH  = PE                                                                  
   EATOM  =    71.1703 eV,    5.2309 Ry                                         
                                                                                
   TITEL  = PAW_PBE B 06Sep2000                                                 
   LULTRA =        F    use ultrasoft PP ?                                      
   IUNSCR =        1    unscreen: 0-lin 1-nonlin 2-no                           
   RPACOR =    1.200    partial core radius                                     
   POMASS =   10.811; ZVAL   =    3.000    mass and valenz                      
   RCORE  =    1.700    outmost cutoff radius                                   
   RWIGS  =    1.710; RWIGS  =    0.905    wigner-seitz radius (au A)           
   ENMAX  =  318.614; ENMIN  =  238.960 eV                                      
   ICORE  =        2    local potential                                         
   LCOR   =        T    correct aug charges                                     
   LPAW   =        T    paw PP                                                  
   EAUG   =  535.514                                                            
   DEXC   =    0.000                                                            
   RMAX   =    1.732    core radius for proj-oper                               
   RAUG   =    1.300    factor for augmentation sphere                          
   RDEP   =    1.757    radius for radial grids                                 
   RDEPT  =    1.436    core radius for aug-charge                              
                                                                                
   Atomic configuration                                                         
    4 entries                                                                   
     n  l   j            E        occ.                                          
     1  0  0.50      -180.5896   2.0000                                         
     2  0  0.50        -9.4431   2.0000                                         
     2  1  0.50        -3.6068   1.0000                                         
     3  2  1.50        -4.0817   0.0000                                         
   Description                                                                  
     l       E           TYP  RCUT    TYP  RCUT                                 
     0     -9.4430752     23  1.500                                             
     0      0.8675899     23  1.500                                             
     1     -3.6067955     23  1.700                                             
     1      6.1086146     23  1.700                                             
     2     -4.0817478      7  1.700                                             
  local pseudopotential read in
  partial core-charges read in
  partial kinetic energy density read in
  atomic valenz-charges read in
  non local Contribution for L=           0  read in
    real space projection operators read in
  non local Contribution for L=           0  read in
    real space projection operators read in
  non local Contribution for L=           1  read in
    real space projection operators read in
  non local Contribution for L=           1  read in
    real space projection operators read in
    PAW grid and wavefunctions read in
 
   number of l-projection  operators is LMAX  =           4
   number of lm-projection operators is LMMAX =           8
 
 POTCAR:    PAW_PBE C 08Apr2002                   
   SHA256 =  253f7b50bb8d59471dbedb8285d89021f4a42ed1a2c5d38a03a736e69125dd95 C/
   COPYR  = (c) Copyright 08Apr2002 Georg Kresse                                
   COPYR  = This file is part of the software VASP. Any use, copying, and all ot
   COPYR  = If you do not have a valid VASP license, you may not use, copy or di
   VRHFIN =C: s2p2                                                              
   LEXCH  = PE                                                                  
   EATOM  =   147.1560 eV,   10.8157 Ry                                         
                                                                                
   TITEL  = PAW_PBE C 08Apr2002                                                 
   LULTRA =        F    use ultrasoft PP ?                                      
   IUNSCR =        1    unscreen: 0-lin 1-nonlin 2-no                           
   RPACOR =    1.200    partial core radius                                     
   POMASS =   12.011; ZVAL   =    4.000    mass and valenz                      
   RCORE  =    1.500    outmost cutoff radius                                   
   RWIGS  =    1.630; RWIGS  =    0.863    wigner-seitz radius (au A)           
   ENMAX  =  400.000; ENMIN  =  300.000 eV                                      
   ICORE  =        2    local potential                                         
   LCOR   =        T    correct aug charges                                     
   LPAW   =        T    paw PP                                                  
   EAUG   =  644.873                                                            
   DEXC   =    0.000                                                            
   RMAX   =    1.529    core radius for proj-oper                               
   RAUG   =    1.300    factor for augmentation sphere                          
   RDEP   =    1.501    radius for radial grids                                 
   RDEPT  =    1.300    core radius for aug-charge                              
                                                                                
   Atomic configuration                                                         
    4 entries                                                                   
     n  l   j            E        occ.                                          
     1  0  0.50      -273.3789   2.0000                                         
     2  0  0.50       -13.7508   2.0000                                         
     2  1  0.50        -5.2854   2.0000                                         
     3  2  1.50        -5.4423   0.0000                                         
   Description                                                                  
     l       E           TYP  RCUT    TYP  RCUT                                 
     0    -13.7508458     23  1.200                                             
     0     -8.2022199     23  1.200                                             
     1     -5.2854383     23  1.500                                             
     1     34.0145650     23  1.500                                             
     2     -5.4423304      7  1.500                                             
  local pseudopotential read in
  partial core-charges read in
  partial kinetic energy density read in
  atomic valenz-charges read in
  non local Contribution for L=           0  read in
    real space projection operators read in
  non local Contribution for L=           0  read in
    real space projection operators read in
  non local Contribution for L=           1  read in
    real space projection operators read in
  non local Contribution for L=           1  read in
    real space projection operators read in
    PAW grid and wavefunctions read in
 
   number of l-projection  operators is LMAX  =           4
   number of lm-projection operators is LMMAX =           8
 
  PAW_PBE B 06Sep2000                   :
 energy of atom  1       EATOM=  -71.1703
 kinetic energy error for atom=    0.0015 (will be added to EATOM!!)
  PAW_PBE C 08Apr2002                   :
 energy of atom  2       EATOM= -147.1560
 kinetic energy error for atom=    0.0116 (will be added to EATOM!!)
 
 
 POSCAR: BC3 with lattice parameter 5.174Ang, len
  positions in cartesian coordinates
  No initial velocities read in
 exchange correlation table for  LEXCH =        8
   RHO(1)=    0.500       N(1)  =     2000
   RHO(2)=  100.500       N(2)  =     4000
 


--------------------------------------------------------------------------------------------------------


 ion  position               nearest neighbor table
   1  0.175  0.175  0.000-   3 1.56   4 1.56   6 1.57
   2  0.508  0.508  0.000-   8 1.56   7 1.56   5 1.57
   3  0.000  0.000  0.000-   5 1.42   7 1.42   1 1.56
   4  0.524  0.000  0.000-   5 1.42   8 1.42   1 1.56
   5  0.683  0.159  0.000-   4 1.42   3 1.42   2 1.57
   6  1.000  0.524  0.000-   8 1.42   7 1.42   1 1.57
   7  0.159  0.683  0.000-   6 1.42   3 1.42   2 1.56
   8  0.682  0.683  0.000-   6 1.42   4 1.42   2 1.56
 
  LATTYP: Found a base centered orthorhombic cell.
 ALAT       =     5.1740000000
 B/A-ratio  =     1.7321221492
 C/A-ratio  =     3.8654812524
  
  Lattice vectors:
  
 A1 = (   2.5870000000,   4.4810000000,   0.0000000000)
 A2 = (   2.5870000000,  -4.4810000000,   0.0000000000)
 A3 = (   0.0000000000,   0.0000000000, -20.0000000000)


Analysis of symmetry for initial positions (statically):
=====================================================================
 Subroutine PRICEL returns:
 Original cell was already a primitive cell.
 

 Routine SETGRP: Setting up the symmetry group for a 
 base centered orthorhombic supercell.


 Subroutine GETGRP returns: Found  8 space group operations
 (whereof  2 operations were pure point group operations)
 out of a pool of  8 trial point group operations.


The static configuration has the point symmetry C_1h.
 The point group associated with its full space group is D_2h.


Analysis of symmetry for dynamics (positions and initial velocities):
=====================================================================
 Subroutine PRICEL returns:
 Original cell was already a primitive cell.
 

 Routine SETGRP: Setting up the symmetry group for a 
 base centered orthorhombic supercell.


 Subroutine GETGRP returns: Found  8 space group operations
 (whereof  2 operations were pure point group operations)
 out of a pool of  8 trial point group operations.


The dynamic configuration has the point symmetry C_1h.
 The point group associated with its full space group is D_2h.


 Subroutine INISYM returns: Found  8 space group operations
 (whereof  2 operations are pure point group operations),
 and found     1 'primitive' translations

 
 
 KPOINTS: K-points for BC3                        

Automatic generation of k-mesh.
Space group operators:
 irot       det(A)        alpha          n_x          n_y          n_z        tau_x        tau_y        tau_z
    1     1.000000     0.000000     1.000000     0.000000     0.000000     0.000000     0.000000     0.000000
    2    -1.000000   180.000000     0.000000     0.000000     1.000000     0.000000     0.000000     0.000000
    3    -1.000000     0.000000     1.000000     0.000000     0.000000     0.682498    -0.317451     0.000000
    4     1.000000   180.000000     0.000000     0.000000     1.000000     0.682498    -0.317451     0.000000
    5     1.000000   179.999999     0.000000     1.000000     0.000000     0.523773     0.000000     0.000000
    6    -1.000000   179.999999     0.000000     1.000000     0.000000     0.158726     0.682549     0.000000
    7     1.000000   180.000000     1.000000     0.000000     0.000000     0.158726     0.682549     0.000000
    8    -1.000000   180.000000     1.000000     0.000000     0.000000     0.523773     0.000000     0.000000
 
 Subroutine IBZKPT returns following result:
 ===========================================
 
 Found     43 irreducible k-points:
 
 Following reciprocal coordinates:
            Coordinates               Weight
  0.000000  0.000000  0.000000      1.000000
  0.083333  0.000000  0.000000      4.000000
  0.166667 -0.000000  0.000000      4.000000
  0.250000 -0.000000  0.000000      4.000000
  0.333333  0.000000  0.000000      4.000000
  0.416667  0.000000  0.000000      4.000000
  0.500000 -0.000000  0.000000      2.000000
  0.000000  0.083333  0.000000      2.000000
  0.166667  0.083333  0.000000      2.000000
  0.250000  0.083333  0.000000      4.000000
  0.333333  0.083333  0.000000      4.000000
  0.416667  0.083333  0.000000      4.000000
  0.500000  0.083333  0.000000      4.000000
 -0.416667  0.083333  0.000000      4.000000
 -0.333333  0.083333  0.000000      4.000000
 -0.250000  0.083333  0.000000      4.000000
 -0.166667  0.083333  0.000000      4.000000
 -0.083333  0.083333  0.000000      4.000000
  0.000000  0.166667  0.000000      2.000000
  0.333333  0.166667  0.000000      2.000000
  0.416667  0.166667  0.000000      4.000000
  0.500000  0.166667  0.000000      4.000000
 -0.416667  0.166667  0.000000      4.000000
 -0.333333  0.166667  0.000000      4.000000
 -0.250000  0.166667  0.000000      4.000000
 -0.166667  0.166667  0.000000      4.000000
 -0.083333  0.166667  0.000000      4.000000
  0.000000  0.250000  0.000000      2.000000
  0.500000  0.250000  0.000000      2.000000
 -0.416667  0.250000  0.000000      4.000000
 -0.333333  0.250000  0.000000      4.000000
 -0.250000  0.250000  0.000000      4.000000
 -0.166667  0.250000  0.000000      4.000000
 -0.083333  0.250000  0.000000      4.000000
  0.000000  0.333333  0.000000      2.000000
 -0.333333  0.333333  0.000000      2.000000
 -0.250000  0.333333  0.000000      4.000000
 -0.166667  0.333333  0.000000      4.000000
 -0.083333  0.333333  0.000000      4.000000
  0.000000  0.416667  0.000000      2.000000
 -0.166667  0.416667  0.000000      2.000000
 -0.083333  0.416667  0.000000      4.000000
  0.000000  0.500000  0.000000      1.000000
 
 Following cartesian coordinates:
            Coordinates               Weight
  0.000000  0.000000  0.000000      1.000000
  0.016106 -0.009299  0.000000      4.000000
  0.032212 -0.018597  0.000000      4.000000
  0.048319 -0.027896  0.000000      4.000000
  0.064425 -0.037194  0.000000      4.000000
  0.080531 -0.046493  0.000000      4.000000
  0.096637 -0.055791  0.000000      2.000000
  0.000000  0.018597  0.000000      2.000000
  0.032212 -0.000000  0.000000      2.000000
  0.048319 -0.009299  0.000000      4.000000
  0.064425 -0.018597  0.000000      4.000000
  0.080531 -0.027896  0.000000      4.000000
  0.096637 -0.037194  0.000000      4.000000
 -0.080531  0.065090  0.000000      4.000000
 -0.064425  0.055791  0.000000      4.000000
 -0.048319  0.046493  0.000000      4.000000
 -0.032212  0.037194  0.000000      4.000000
 -0.016106  0.027896  0.000000      4.000000
  0.000000  0.037194  0.000000      2.000000
  0.064425  0.000000  0.000000      2.000000
  0.080531 -0.009299  0.000000      4.000000
  0.096637 -0.018597  0.000000      4.000000
 -0.080531  0.083687  0.000000      4.000000
 -0.064425  0.074388  0.000000      4.000000
 -0.048319  0.065090  0.000000      4.000000
 -0.032212  0.055791  0.000000      4.000000
 -0.016106  0.046493  0.000000      4.000000
  0.000000  0.055791  0.000000      2.000000
  0.096637  0.000000  0.000000      2.000000
 -0.080531  0.102284  0.000000      4.000000
 -0.064425  0.092985  0.000000      4.000000
 -0.048319  0.083687  0.000000      4.000000
 -0.032212  0.074388  0.000000      4.000000
 -0.016106  0.065090  0.000000      4.000000
  0.000000  0.074388  0.000000      2.000000
 -0.064425  0.111582  0.000000      2.000000
 -0.048319  0.102284  0.000000      4.000000
 -0.032212  0.092985  0.000000      4.000000
 -0.016106  0.083687  0.000000      4.000000
  0.000000  0.092985  0.000000      2.000000
 -0.032212  0.111582  0.000000      2.000000
 -0.016106  0.102284  0.000000      4.000000
  0.000000  0.111582  0.000000      1.000000
 


--------------------------------------------------------------------------------------------------------




 Dimension of arrays:
   k-points           NKPTS =     43   k-points in BZ     NKDIM =     43   number of bands    NBANDS=     24
   number of dos      NEDOS =    301   number of ions     NIONS =      8
   non local maximal  LDIM  =      4   non local SUM 2l+1 LMDIM =      8
   total plane-waves  NPLWV = 181440
   max r-space proj   IRMAX =      1   max aug-charges    IRDMAX=   6301
   dimension x,y,z NGX =    36 NGY =   36 NGZ =  140
   dimension x,y,z NGXF=    72 NGYF=   72 NGZF=  280
   support grid    NGXF=    72 NGYF=   72 NGZF=  280
   ions per type =               2   6
   NGX,Y,Z   is equivalent  to a cutoff of  11.57, 11.57, 11.64 a.u.
   NGXF,Y,Z  is equivalent  to a cutoff of  23.13, 23.13, 23.27 a.u.

 SYSTEM =  BC3                                     
 POSCAR =  BC3 with lattice parameter 5.174Ang, len

 Startparameter for this run:
   NWRITE =      2    write-flag & timer
   PREC   = accura    normal or accurate (medium, high low for compatibility)
   ISTART =      0    job   : 0-new  1-cont  2-samecut
   ICHARG =      2    charge: 1-file 2-atom 10-const
   ISPIN  =      1    spin polarized calculation?
   LNONCOLLINEAR =      F non collinear calculations
   LSORBIT =      F    spin-orbit coupling
   INIWAV =      1    electr: 0-lowe 1-rand  2-diag
   LASPH  =      F    aspherical Exc in radial PAW
   METAGGA=      F    non-selfconsistent MetaGGA calc.

 Electronic Relaxation 1
   ENCUT  =  450.0 eV  33.07 Ry    5.75 a.u.   8.95  8.95 34.59*2*pi/ulx,y,z
   ENINI  =  450.0     initial cutoff
   ENAUG  =  644.9 eV  augmentation charge cutoff
   NELM   =     60;   NELMIN=  2; NELMDL= -5     # of ELM steps 
   EDIFF  = 0.1E-05   stopping-criterion for ELM
   LREAL  =      F    real-space projection
   NLSPLINE    = F    spline interpolate recip. space projectors
   LCOMPAT=      F    compatible to vasp.4.4
   GGA_COMPAT  = T    GGA compatible to vasp.4.4-vasp.4.6
   LMAXPAW     = -100 max onsite density
   LMAXMIX     =    2 max onsite mixed and CHGCAR
   VOSKOWN=      0    Vosko Wilk Nusair interpolation
   ROPT   =    0.00000   0.00000
 Ionic relaxation
   EDIFFG = -.1E-02   stopping-criterion for IOM
   NSW    =    128    number of steps for IOM
   NBLOCK =      1;   KBLOCK =    128    inner block; outer block 
   IBRION =      2    ionic relax: 0-MD 1-quasi-New 2-CG
   NFREE  =      1    steps in history (QN), initial steepest desc. (CG)
   ISIF   =      3    stress and relaxation
   IWAVPR =     11    prediction:  0-non 1-charg 2-wave 3-comb
   ISYM   =      2    0-nonsym 1-usesym 2-fastsym
   LCORR  =      T    Harris-Foulkes like correction to forces

   POTIM  = 0.5000    time-step for ionic-motion
   TEIN   =    0.0    initial temperature
   TEBEG  =    0.0;   TEEND  =   0.0 temperature during run
   SMASS  =  -3.00    Nose mass-parameter (am)
   estimated Nose-frequenzy (Omega)   =  0.10E-29 period in steps =****** mass=  -0.612E-27a.u.
   SCALEE = 1.0000    scale energy and forces
   NPACO  =    256;   APACO  = 16.0  distance and # of slots for P.C.
   PSTRESS=    0.0 pullay stress

  Mass of Ions in am
   POMASS =  10.81 12.01
  Ionic Valenz
   ZVAL   =   3.00  4.00
  Atomic Wigner-Seitz radii
   RWIGS  =  -1.00 -1.00
  virtual crystal weights 
   VCA    =   1.00  1.00
   NELECT =      30.0000    total number of electrons
   NUPDOWN=      -1.0000    fix difference up-down

 DOS related values:
   EMIN   =  10.00;   EMAX   =-10.00  energy-range for DOS
   EFERMI =   0.00
   ISMEAR =     0;   SIGMA  =   0.10  broadening in eV -4-tet -1-fermi 0-gaus

 Electronic relaxation 2 (details)
   IALGO  =     38    algorithm
   LDIAG  =      T    sub-space diagonalisation (order eigenvalues)
   LSUBROT=      F    optimize rotation matrix (better conditioning)
   TURBO    =      0    0=normal 1=particle mesh
   IRESTART =      0    0=no restart 2=restart with 2 vectors
   NREBOOT  =      0    no. of reboots
   NMIN     =      0    reboot dimension
   EREF     =   0.00    reference energy to select bands
   IMIX   =      4    mixing-type and parameters
     AMIX     =   0.40;   BMIX     =  1.00
     AMIX_MAG =   1.60;   BMIX_MAG =  1.00
     AMIN     =   0.10
     WC   =   100.;   INIMIX=   1;  MIXPRE=   1;  MAXMIX= -45

 Intra band minimization:
   WEIMIN = 0.0010     energy-eigenvalue tresh-hold
   EBREAK =  0.10E-07  absolut break condition
   DEPER  =   0.30     relativ break condition  

   TIME   =   0.40     timestep for ELM

  volume/ion in A,a.u.               =      57.96       391.15
  Fermi-wavevector in a.u.,A,eV,Ry     =   0.657211  1.241949  5.876713  0.431926
  Thomas-Fermi vector in A             =   1.728647
 
 Write flags
   LWAVE        =      T    write WAVECAR
   LDOWNSAMPLE  =      F    k-point downsampling of WAVECAR
   LCHARG       =      T    write CHGCAR
   LVTOT        =      F    write LOCPOT, total local potential
   LVHAR        =      F    write LOCPOT, Hartree potential only
   LELF         =      F    write electronic localiz. function (ELF)
   LORBIT       =      0    0 simple, 1 ext, 2 COOP (PROOUT), +10 PAW based schemes


 Dipole corrections
   LMONO  =      F    monopole corrections only (constant potential shift)
   LDIPOL =      F    correct potential (dipole corrections)
   IDIPOL =      0    1-x, 2-y, 3-z, 4-all directions 
   EPSILON=  1.0000000 bulk dielectric constant

 Exchange correlation treatment:
   GGA     =    --    GGA type
   LEXCH   =     8    internal setting for exchange type
   VOSKOWN=      0    Vosko Wilk Nusair interpolation
   LHFCALC =     F    Hartree Fock is set to
   LHFONE  =     F    Hartree Fock one center treatment
   AEXX    =    0.0000 exact exchange contribution

 Linear response parameters
   LEPSILON=     F    determine dielectric tensor
   LRPA    =     F    only Hartree local field effects (RPA)
   LNABLA  =     F    use nabla operator in PAW spheres
   LVEL    =     F    velocity operator in full k-point grid
   LINTERFAST=   F  fast interpolation
   KINTER  =     0    interpolate to denser k-point grid
   CSHIFT  =0.1000    complex shift for real part using Kramers Kronig
   OMEGAMAX=  -1.0    maximum frequency
   DEG_THRESHOLD= 0.2000000E-02 threshold for treating states as degnerate
   RTIME   =   -0.100 relaxation time in fs
  (WPLASMAI=    0.000 imaginary part of plasma frequency in eV, 0.658/RTIME)
   DFIELD  = 0.0000000 0.0000000 0.0000000 field for delta impulse in time
 
 Orbital magnetization related:
   ORBITALMAG=     F  switch on orbital magnetization
   LCHIMAG   =     F  perturbation theory with respect to B field
   DQ        =  0.001000  dq finite difference perturbation B field
   LLRAUG    =     F  two centre corrections for induced B field



--------------------------------------------------------------------------------------------------------


 conjugate gradient relaxation of ions
 charge density and potential will be updated during run
 non-spin polarized calculation
 Variant of blocked Davidson
 Davidson routine will perform the subspace rotation
 perform sub-space diagonalisation
    after iterative eigenvector-optimisation
 modified Broyden-mixing scheme, WC =      100.0
 initial mixing is a Kerker type mixing with AMIX =  0.4000 and BMIX =      1.0000
 Hartree-type preconditioning will be used
 using additional bands            9
 reciprocal scheme for non local part
 use partial core corrections
 calculate Harris-corrections to forces 
   (improved forces if not selfconsistent)
 use gradient corrections 
 use of overlap-Matrix (Vanderbilt PP)
 Gauss-broadening in eV      SIGMA  =   0.10


--------------------------------------------------------------------------------------------------------


  energy-cutoff  :      450.00
  volume of cell :      463.69
      direct lattice vectors                 reciprocal lattice vectors
     5.174000000  0.000000000  0.000000000     0.193274063 -0.111582236  0.000000000
     2.587000000  4.481000000  0.000000000     0.000000000  0.223164472  0.000000000
     0.000000000  0.000000000 20.000000000     0.000000000  0.000000000  0.050000000

  length of vectors
     5.174000000  5.174159835 20.000000000     0.223171366  0.223164472  0.050000000


 
 k-points in units of 2pi/SCALE and weight: K-points for BC3                        
   0.00000000  0.00000000  0.00000000       0.007
   0.01610617 -0.00929852  0.00000000       0.028
   0.03221234 -0.01859704  0.00000000       0.028
   0.04831852 -0.02789556  0.00000000       0.028
   0.06442469 -0.03719408  0.00000000       0.028
   0.08053086 -0.04649260  0.00000000       0.028
   0.09663703 -0.05579112  0.00000000       0.014
   0.00000000  0.01859704  0.00000000       0.014
   0.03221234 -0.00000000  0.00000000       0.014
   0.04831852 -0.00929852  0.00000000       0.028
   0.06442469 -0.01859704  0.00000000       0.028
   0.08053086 -0.02789556  0.00000000       0.028
   0.09663703 -0.03719408  0.00000000       0.028
  -0.08053086  0.06508964  0.00000000       0.028
  -0.06442469  0.05579112  0.00000000       0.028
  -0.04831852  0.04649260  0.00000000       0.028
  -0.03221234  0.03719408  0.00000000       0.028
  -0.01610617  0.02789556  0.00000000       0.028
   0.00000000  0.03719408  0.00000000       0.014
   0.06442469  0.00000000  0.00000000       0.014
   0.08053086 -0.00929852  0.00000000       0.028
   0.09663703 -0.01859704  0.00000000       0.028
  -0.08053086  0.08368668  0.00000000       0.028
  -0.06442469  0.07438816  0.00000000       0.028
  -0.04831852  0.06508964  0.00000000       0.028
  -0.03221234  0.05579112  0.00000000       0.028
  -0.01610617  0.04649260  0.00000000       0.028
   0.00000000  0.05579112  0.00000000       0.014
   0.09663703  0.00000000  0.00000000       0.014
  -0.08053086  0.10228372  0.00000000       0.028
  -0.06442469  0.09298520  0.00000000       0.028
  -0.04831852  0.08368668  0.00000000       0.028
  -0.03221234  0.07438816  0.00000000       0.028
  -0.01610617  0.06508964  0.00000000       0.028
   0.00000000  0.07438816  0.00000000       0.014
  -0.06442469  0.11158224  0.00000000       0.014
  -0.04831852  0.10228372  0.00000000       0.028
  -0.03221234  0.09298520  0.00000000       0.028
  -0.01610617  0.08368668  0.00000000       0.028
   0.00000000  0.09298520  0.00000000       0.014
  -0.03221234  0.11158224  0.00000000       0.014
  -0.01610617  0.10228372  0.00000000       0.028
   0.00000000  0.11158224  0.00000000       0.007
 
 k-points in reciprocal lattice and weights: K-points for BC3                        
   0.00000000  0.00000000  0.00000000       0.007
   0.08333333  0.00000000  0.00000000       0.028
   0.16666667 -0.00000000  0.00000000       0.028
   0.25000000 -0.00000000  0.00000000       0.028
   0.33333333  0.00000000  0.00000000       0.028
   0.41666667  0.00000000  0.00000000       0.028
   0.50000000 -0.00000000  0.00000000       0.014
   0.00000000  0.08333333  0.00000000       0.014
   0.16666667  0.08333333  0.00000000       0.014
   0.25000000  0.08333333  0.00000000       0.028
   0.33333333  0.08333333  0.00000000       0.028
   0.41666667  0.08333333  0.00000000       0.028
   0.50000000  0.08333333  0.00000000       0.028
  -0.41666667  0.08333333  0.00000000       0.028
  -0.33333333  0.08333333  0.00000000       0.028
  -0.25000000  0.08333333  0.00000000       0.028
  -0.16666667  0.08333333  0.00000000       0.028
  -0.08333333  0.08333333  0.00000000       0.028
   0.00000000  0.16666667  0.00000000       0.014
   0.33333333  0.16666667  0.00000000       0.014
   0.41666667  0.16666667  0.00000000       0.028
   0.50000000  0.16666667  0.00000000       0.028
  -0.41666667  0.16666667  0.00000000       0.028
  -0.33333333  0.16666667  0.00000000       0.028
  -0.25000000  0.16666667  0.00000000       0.028
  -0.16666667  0.16666667  0.00000000       0.028
  -0.08333333  0.16666667  0.00000000       0.028
   0.00000000  0.25000000  0.00000000       0.014
   0.50000000  0.25000000  0.00000000       0.014
  -0.41666667  0.25000000  0.00000000       0.028
  -0.33333333  0.25000000  0.00000000       0.028
  -0.25000000  0.25000000  0.00000000       0.028
  -0.16666667  0.25000000  0.00000000       0.028
  -0.08333333  0.25000000  0.00000000       0.028
   0.00000000  0.33333333  0.00000000       0.014
  -0.33333333  0.33333333  0.00000000       0.014
  -0.25000000  0.33333333  0.00000000       0.028
  -0.16666667  0.33333333  0.00000000       0.028
  -0.08333333  0.33333333  0.00000000       0.028
   0.00000000  0.41666667  0.00000000       0.014
  -0.16666667  0.41666667  0.00000000       0.014
  -0.08333333  0.41666667  0.00000000       0.028
   0.00000000  0.50000000  0.00000000       0.007
 
 position of ions in fractional coordinates (direct lattice) 
   0.17457326  0.17462620  0.00000000
   0.50792519  0.50792234  0.00000000
   0.00000000  0.00000000  0.00000000
   0.52377271  0.00000000  0.00000000
   0.68255138  0.15866994  0.00000000
   0.99994706  0.52387860  0.00000000
   0.15872573  0.68254854  0.00000000
   0.68249844  0.68254854  0.00000000
 
 position of ions in cartesian coordinates  (Angst):
   1.35500000  0.78250000  0.00000000
   3.94200000  2.27600000  0.00000000
   0.00000000  0.00000000  0.00000000
   2.71000000  0.00000000  0.00000000
   3.94200000  0.71100000  0.00000000
   6.52900000  2.34750000  0.00000000
   2.58700000  3.05850000  0.00000000
   5.29700000  3.05850000  0.00000000
 


--------------------------------------------------------------------------------------------------------


 k-point  1 :   0.0000 0.0000 0.0000  plane waves:    9963
 k-point  2 :   0.0833 0.0000 0.0000  plane waves:   10003
 k-point  3 :   0.1667-0.0000 0.0000  plane waves:   10033
 k-point  4 :   0.2500-0.0000 0.0000  plane waves:   10038
 k-point  5 :   0.3333 0.0000 0.0000  plane waves:   10034
 k-point  6 :   0.4167 0.0000 0.0000  plane waves:   10064
 k-point  7 :   0.5000-0.0000 0.0000  plane waves:   10056
 k-point  8 :   0.0000 0.0833 0.0000  plane waves:   10005
 k-point  9 :   0.1667 0.0833 0.0000  plane waves:   10017
 k-point 10 :   0.2500 0.0833 0.0000  plane waves:   10029
 k-point 11 :   0.3333 0.0833 0.0000  plane waves:   10035
 k-point 12 :   0.4167 0.0833 0.0000  plane waves:   10045
 k-point 13 :   0.5000 0.0833 0.0000  plane waves:   10070
 k-point 14 :  -0.4167 0.0833 0.0000  plane waves:   10070
 k-point 15 :  -0.3333 0.0833 0.0000  plane waves:   10045
 k-point 16 :  -0.2500 0.0833 0.0000  plane waves:   10033
 k-point 17 :  -0.1667 0.0833 0.0000  plane waves:   10029
 k-point 18 :  -0.0833 0.0833 0.0000  plane waves:   10013
 k-point 19 :   0.0000 0.1667 0.0000  plane waves:   10033
 k-point 20 :   0.3333 0.1667 0.0000  plane waves:   10035
 k-point 21 :   0.4167 0.1667 0.0000  plane waves:   10077
 k-point 22 :   0.5000 0.1667 0.0000  plane waves:   10073
 k-point 23 :  -0.4167 0.1667 0.0000  plane waves:   10077
 k-point 24 :  -0.3333 0.1667 0.0000  plane waves:   10073
 k-point 25 :  -0.2500 0.1667 0.0000  plane waves:   10075
 k-point 26 :  -0.1667 0.1667 0.0000  plane waves:   10035
 k-point 27 :  -0.0833 0.1667 0.0000  plane waves:   10029
 k-point 28 :   0.0000 0.2500 0.0000  plane waves:   10040
 k-point 29 :   0.5000 0.2500 0.0000  plane waves:   10069
 k-point 30 :  -0.4167 0.2500 0.0000  plane waves:   10098
 k-point 31 :  -0.3333 0.2500 0.0000  plane waves:   10098
 k-point 32 :  -0.2500 0.2500 0.0000  plane waves:   10069
 k-point 33 :  -0.1667 0.2500 0.0000  plane waves:   10075
 k-point 34 :  -0.0833 0.2500 0.0000  plane waves:   10035
 k-point 35 :   0.0000 0.3333 0.0000  plane waves:   10034
 k-point 36 :  -0.3333 0.3333 0.0000  plane waves:   10065
 k-point 37 :  -0.2500 0.3333 0.0000  plane waves:   10098
 k-point 38 :  -0.1667 0.3333 0.0000  plane waves:   10073
 k-point 39 :  -0.0833 0.3333 0.0000  plane waves:   10045
 k-point 40 :   0.0000 0.4167 0.0000  plane waves:   10064
 k-point 41 :  -0.1667 0.4167 0.0000  plane waves:   10075
 k-point 42 :  -0.0833 0.4167 0.0000  plane waves:   10068
 k-point 43 :   0.0000 0.5000 0.0000  plane waves:   10056

 maximum and minimum number of plane-waves per node :     10098     9963

 maximum number of plane-waves:     10098
 maximum index in each direction: 
   IXMAX=    9   IYMAX=    8   IZMAX=   34
   IXMIN=   -9   IYMIN=   -9   IZMIN=  -34


 serial   3D FFT for wavefunctions
 parallel 3D FFT for charge:
    minimum data exchange during FFTs selected (reduces bandwidth)


 total amount of memory used by VASP MPI-rank0   119832. kBytes
=======================================================================

   base      :      30000. kBytes
   nonl-proj :      56905. kBytes
   fftplans  :       4815. kBytes
   grid      :      14086. kBytes
   one-center:         24. kBytes
   wavefun   :      14002. kBytes
 
     INWAV:  cpu time    0.0000: real time    0.0000
 Broyden mixing: mesh for mixing (old mesh)
   NGX = 17   NGY = 17   NGZ = 69
  (NGX  = 72   NGY  = 72   NGZ  =280)
  gives a total of  19941 points

 initial charge density was supplied:
 charge density of overlapping atoms calculated
 number of electron      30.0000000 magnetization 
 keeping initial charge density in first step


--------------------------------------------------------------------------------------------------------


 Maximum index for augmentation-charges          407 (set IRDMAX)


--------------------------------------------------------------------------------------------------------


 First call to EWALD:  gamma=   0.229
 Maximum number of real-space cells 4x 4x 1
 Maximum number of reciprocal cells 2x 2x 6

    FEWALD:  cpu time    0.0022: real time    0.0025


--------------------------------------- Iteration      1(   1)  ---------------------------------------


    POTLOK:  cpu time    0.1473: real time    0.1478
    SETDIJ:  cpu time    0.0024: real time    0.0024
     EDDAV:  cpu time    6.8392: real time    6.8395
       DOS:  cpu time    0.0008: real time    0.0008
    --------------------------------------------
      LOOP:  cpu time    6.9897: real time    6.9905

 eigenvalue-minimisations  :  2184
 total energy-change (2. order) : 0.2085967E+03  (-0.9776678E+03)
 number of electron      30.0000000 magnetization 
 augmentation part       30.0000000 magnetization 

 Free energy of the ion-electron system (eV)
  ---------------------------------------------------
  alpha Z        PSCENC =        10.93933817
  Ewald energy   TEWEN  =      4060.05404224
  -Hartree energ DENC   =     -4796.78910906
  -exchange      EXHF   =         0.00000000
  -V(xc)+E(xc)   XCENC  =        91.14028263
  PAW double counting   =       738.13200929     -739.83780425
  entropy T*S    EENTRO =        -0.02384867
  eigenvalues    EBANDS =      -180.22212375
  atomic energy  EATOM  =      1025.20389953
  Solvation  Ediel_sol  =         0.00000000
  ---------------------------------------------------
  free energy    TOTEN  =       208.59668613 eV

  energy without entropy =      208.62053480  energy(sigma->0) =      208.60861046


--------------------------------------------------------------------------------------------------------




--------------------------------------- Iteration      1(   2)  ---------------------------------------


     EDDAV:  cpu time    9.4448: real time    9.4461
       DOS:  cpu time    0.0008: real time    0.0008
    --------------------------------------------
      LOOP:  cpu time    9.4456: real time    9.4468

 eigenvalue-minimisations  :  3360
 total energy-change (2. order) :-0.2480001E+03  (-0.2336263E+03)
 number of electron      30.0000000 magnetization 
 augmentation part       30.0000000 magnetization 

 Free energy of the ion-electron system (eV)
  ---------------------------------------------------
  alpha Z        PSCENC =        10.93933817
  Ewald energy   TEWEN  =      4060.05404224
  -Hartree energ DENC   =     -4796.78910906
  -exchange      EXHF   =         0.00000000
  -V(xc)+E(xc)   XCENC  =        91.14028263
  PAW double counting   =       738.13200929     -739.83780425
  entropy T*S    EENTRO =        -0.00558283
  eigenvalues    EBANDS =      -428.24050230
  atomic energy  EATOM  =      1025.20389953
  Solvation  Ediel_sol  =         0.00000000
  ---------------------------------------------------
  free energy    TOTEN  =       -39.40342657 eV

  energy without entropy =      -39.39784375  energy(sigma->0) =      -39.40063516


--------------------------------------------------------------------------------------------------------




--------------------------------------- Iteration      1(   3)  ---------------------------------------


     EDDAV:  cpu time    7.8596: real time    7.8601
       DOS:  cpu time    0.0004: real time    0.0004
    --------------------------------------------
      LOOP:  cpu time    7.8600: real time    7.8605

 eigenvalue-minimisations  :  2652
 total energy-change (2. order) :-0.3319296E+02  (-0.3277689E+02)
 number of electron      30.0000000 magnetization 
 augmentation part       30.0000000 magnetization 

 Free energy of the ion-electron system (eV)
  ---------------------------------------------------
  alpha Z        PSCENC =        10.93933817
  Ewald energy   TEWEN  =      4060.05404224
  -Hartree energ DENC   =     -4796.78910906
  -exchange      EXHF   =         0.00000000
  -V(xc)+E(xc)   XCENC  =        91.14028263
  PAW double counting   =       738.13200929     -739.83780425
  entropy T*S    EENTRO =        -0.00000000
  eigenvalues    EBANDS =      -461.43904337
  atomic energy  EATOM  =      1025.20389953
  Solvation  Ediel_sol  =         0.00000000
  ---------------------------------------------------
  free energy    TOTEN  =       -72.59638481 eV

  energy without entropy =      -72.59638481  energy(sigma->0) =      -72.59638481


--------------------------------------------------------------------------------------------------------




--------------------------------------- Iteration      1(   4)  ---------------------------------------


     EDDAV:  cpu time    8.5275: real time    8.5275
       DOS:  cpu time    0.0004: real time    0.0004
    --------------------------------------------
      LOOP:  cpu time    8.5279: real time    8.5279

 eigenvalue-minimisations  :  2952
 total energy-change (2. order) :-0.8192804E+00  (-0.8172551E+00)
 number of electron      30.0000000 magnetization 
 augmentation part       30.0000000 magnetization 

 Free energy of the ion-electron system (eV)
  ---------------------------------------------------
  alpha Z        PSCENC =        10.93933817
  Ewald energy   TEWEN  =      4060.05404224
  -Hartree energ DENC   =     -4796.78910906
  -exchange      EXHF   =         0.00000000
  -V(xc)+E(xc)   XCENC  =        91.14028263
  PAW double counting   =       738.13200929     -739.83780425
  entropy T*S    EENTRO =        -0.00000000
  eigenvalues    EBANDS =      -462.25832375
  atomic energy  EATOM  =      1025.20389953
  Solvation  Ediel_sol  =         0.00000000
  ---------------------------------------------------
  free energy    TOTEN  =       -73.41566520 eV

  energy without entropy =      -73.41566520  energy(sigma->0) =      -73.41566520


--------------------------------------------------------------------------------------------------------




--------------------------------------- Iteration      1(   5)  ---------------------------------------


     EDDAV:  cpu time    7.9070: real time    7.9076
       DOS:  cpu time    0.0004: real time    0.0004
    CHARGE:  cpu time    0.5784: real time    0.5784
    MIXING:  cpu time    0.0043: real time    0.0043
    --------------------------------------------
      LOOP:  cpu time    8.4900: real time    8.4906

 eigenvalue-minimisations  :  2676
 total energy-change (2. order) :-0.2164985E-01  (-0.2162145E-01)
 number of electron      30.0000000 magnetization 
 augmentation part        0.5815916 magnetization 

 Broyden mixing:
  rms(total) = 0.13115E+01    rms(broyden)= 0.13110E+01
  rms(prec ) = 0.14187E+01
  weight for this iteration     100.00

 Free energy of the ion-electron system (eV)
  ---------------------------------------------------
  alpha Z        PSCENC =        10.93933817
  Ewald energy   TEWEN  =      4060.05404224
  -Hartree energ DENC   =     -4796.78910906
  -exchange      EXHF   =         0.00000000
  -V(xc)+E(xc)   XCENC  =        91.14028263
  PAW double counting   =       738.13200929     -739.83780425
  entropy T*S    EENTRO =        -0.00000000
  eigenvalues    EBANDS =      -462.27997360
  atomic energy  EATOM  =      1025.20389953
  Solvation  Ediel_sol  =         0.00000000
  ---------------------------------------------------
  free energy    TOTEN  =       -73.43731504 eV

  energy without entropy =      -73.43731504  energy(sigma->0) =      -73.43731504


--------------------------------------------------------------------------------------------------------




--------------------------------------- Iteration      1(   6)  ---------------------------------------


    POTLOK:  cpu time    0.1325: real time    0.1327
    SETDIJ:  cpu time    0.0022: real time    0.0022
     EDDAV:  cpu time    8.5725: real time    8.5722
       DOS:  cpu time    0.0004: real time    0.0004
    CHARGE:  cpu time    0.5711: real time    0.5710
    MIXING:  cpu time    0.0046: real time    0.0045
    --------------------------------------------
      LOOP:  cpu time    9.2833: real time    9.2831

 eigenvalue-minimisations  :  2976
 total energy-change (2. order) : 0.4459009E+01  (-0.5282534E+00)
 number of electron      30.0000001 magnetization 
 augmentation part        0.5388013 magnetization 

 Broyden mixing:
  rms(total) = 0.73975E+00    rms(broyden)= 0.73969E+00
  rms(prec ) = 0.79300E+00
  weight for this iteration     100.00

 eigenvalues of (default mixing * dielectric matrix)
  average eigenvalue GAMMA=   1.9790
  1.9790

 Free energy of the ion-electron system (eV)
  ---------------------------------------------------
  alpha Z        PSCENC =        10.93933817
  Ewald energy   TEWEN  =      4060.05404224
  -Hartree energ DENC   =     -4843.57865380
  -exchange      EXHF   =         0.00000000
  -V(xc)+E(xc)   XCENC  =        93.15417353
  PAW double counting   =      1378.48923953    -1380.75373320
  entropy T*S    EENTRO =        -0.00000000
  eigenvalues    EBANDS =      -412.48661213
  atomic energy  EATOM  =      1025.20389953
  Solvation  Ediel_sol  =         0.00000000
  ---------------------------------------------------
  free energy    TOTEN  =       -68.97830614 eV

  energy without entropy =      -68.97830614  energy(sigma->0) =      -68.97830614


--------------------------------------------------------------------------------------------------------




--------------------------------------- Iteration      1(   7)  ---------------------------------------


    POTLOK:  cpu time    0.1323: real time    0.1325
    SETDIJ:  cpu time    0.0022: real time    0.0022
     EDDAV:  cpu time    8.6981: real time    8.6978
       DOS:  cpu time    0.0005: real time    0.0005
    CHARGE:  cpu time    0.5713: real time    0.5712
    MIXING:  cpu time    0.0046: real time    0.0046
    --------------------------------------------
      LOOP:  cpu time    9.4089: real time    9.4088

 eigenvalue-minimisations  :  3036
 total energy-change (2. order) : 0.1645584E+01  (-0.3970491E+00)
 number of electron      30.0000002 magnetization 
 augmentation part        0.5030694 magnetization 

 Broyden mixing:
  rms(total) = 0.21536E+00    rms(broyden)= 0.21526E+00
  rms(prec ) = 0.22850E+00
  weight for this iteration     100.00

 eigenvalues of (default mixing * dielectric matrix)
  average eigenvalue GAMMA=   1.9256
  1.4639  2.3874

 Free energy of the ion-electron system (eV)
  ---------------------------------------------------
  alpha Z        PSCENC =        10.93933817
  Ewald energy   TEWEN  =      4060.05404224
  -Hartree energ DENC   =     -4896.45364121
  -exchange      EXHF   =         0.00000000
  -V(xc)+E(xc)   XCENC  =        95.38676284
  PAW double counting   =      2463.87990170    -2466.56055027
  entropy T*S    EENTRO =        -0.00000000
  eigenvalues    EBANDS =      -359.78247525
  atomic energy  EATOM  =      1025.20389953
  Solvation  Ediel_sol  =         0.00000000
  ---------------------------------------------------
  free energy    TOTEN  =       -67.33272224 eV

  energy without entropy =      -67.33272224  energy(sigma->0) =      -67.33272224


--------------------------------------------------------------------------------------------------------




--------------------------------------- Iteration      1(   8)  ---------------------------------------


    POTLOK:  cpu time    0.1328: real time    0.1344
    SETDIJ:  cpu time    0.0023: real time    0.0023
     EDDAV:  cpu time    9.0455: real time    9.0453
       DOS:  cpu time    0.0005: real time    0.0005
    CHARGE:  cpu time    0.5730: real time    0.5730
    MIXING:  cpu time    0.0048: real time    0.0048
    --------------------------------------------
      LOOP:  cpu time    9.7588: real time    9.7603

 eigenvalue-minimisations  :  3192
 total energy-change (2. order) : 0.8012171E-01  (-0.2161769E-01)
 number of electron      30.0000002 magnetization 
 augmentation part        0.4969162 magnetization 

 Broyden mixing:
  rms(total) = 0.58015E-01    rms(broyden)= 0.57998E-01
  rms(prec ) = 0.73032E-01
  weight for this iteration     100.00

 eigenvalues of (default mixing * dielectric matrix)
  average eigenvalue GAMMA=   1.8316
  1.1527  2.1710  2.1710

 Free energy of the ion-electron system (eV)
  ---------------------------------------------------
  alpha Z        PSCENC =        10.93933817
  Ewald energy   TEWEN  =      4060.05404224
  -Hartree energ DENC   =     -4911.01522538
  -exchange      EXHF   =         0.00000000
  -V(xc)+E(xc)   XCENC  =        95.78160393
  PAW double counting   =      2857.44956199    -2860.06378127
  entropy T*S    EENTRO =        -0.00000001
  eigenvalues    EBANDS =      -345.60203973
  atomic energy  EATOM  =      1025.20389953
  Solvation  Ediel_sol  =         0.00000000
  ---------------------------------------------------
  free energy    TOTEN  =       -67.25260053 eV

  energy without entropy =      -67.25260052  energy(sigma->0) =      -67.25260053


--------------------------------------------------------------------------------------------------------




--------------------------------------- Iteration      1(   9)  ---------------------------------------


    POTLOK:  cpu time    0.1328: real time    0.1334
    SETDIJ:  cpu time    0.0022: real time    0.0022
     EDDAV:  cpu time    7.6257: real time    7.6262
       DOS:  cpu time    0.0005: real time    0.0005
    CHARGE:  cpu time    0.5719: real time    0.5719
    MIXING:  cpu time    0.0047: real time    0.0047
    --------------------------------------------
      LOOP:  cpu time    8.3378: real time    8.3389

 eigenvalue-minimisations  :  2544
 total energy-change (2. order) : 0.1783900E-01  (-0.1684421E-02)
 number of electron      30.0000002 magnetization 
 augmentation part        0.4975079 magnetization 

 Broyden mixing:
  rms(total) = 0.17496E-01    rms(broyden)= 0.17493E-01
  rms(prec ) = 0.35842E-01
  weight for this iteration     100.00

 eigenvalues of (default mixing * dielectric matrix)
  average eigenvalue GAMMA=   1.8490
  1.1081  2.3932  2.3932  1.5014

 Free energy of the ion-electron system (eV)
  ---------------------------------------------------
  alpha Z        PSCENC =        10.93933817
  Ewald energy   TEWEN  =      4060.05404224
  -Hartree energ DENC   =     -4917.14446143
  -exchange      EXHF   =         0.00000000
  -V(xc)+E(xc)   XCENC  =        95.82780471
  PAW double counting   =      2907.19181847    -2909.73458342
  entropy T*S    EENTRO =        -0.00000001
  eigenvalues    EBANDS =      -339.57261980
  atomic energy  EATOM  =      1025.20389953
  Solvation  Ediel_sol  =         0.00000000
  ---------------------------------------------------
  free energy    TOTEN  =       -67.23476154 eV

  energy without entropy =      -67.23476152  energy(sigma->0) =      -67.23476153


--------------------------------------------------------------------------------------------------------




--------------------------------------- Iteration      1(  10)  ---------------------------------------


    POTLOK:  cpu time    0.1335: real time    0.1338
    SETDIJ:  cpu time    0.0022: real time    0.0022
     EDDAV:  cpu time    7.8316: real time    7.8313
       DOS:  cpu time    0.0006: real time    0.0006
    CHARGE:  cpu time    0.5793: real time    0.5793
    MIXING:  cpu time    0.0048: real time    0.0048
    --------------------------------------------
      LOOP:  cpu time    8.5520: real time    8.5519

 eigenvalue-minimisations  :  2640
 total energy-change (2. order) : 0.1144367E-01  (-0.1042646E-02)
 number of electron      30.0000002 magnetization 
 augmentation part        0.4963260 magnetization 

 Broyden mixing:
  rms(total) = 0.12651E-01    rms(broyden)= 0.12648E-01
  rms(prec ) = 0.22465E-01
  weight for this iteration     100.00

 eigenvalues of (default mixing * dielectric matrix)
  average eigenvalue GAMMA=   1.9450
  2.7595  2.7595  0.9743  1.2920  1.9394

 Free energy of the ion-electron system (eV)
  ---------------------------------------------------
  alpha Z        PSCENC =        10.93933817
  Ewald energy   TEWEN  =      4060.05404224
  -Hartree energ DENC   =     -4925.98726297
  -exchange      EXHF   =         0.00000000
  -V(xc)+E(xc)   XCENC  =        95.94982478
  PAW double counting   =      2918.36921086    -2920.89399634
  entropy T*S    EENTRO =        -0.00000004
  eigenvalues    EBANDS =      -330.85837410
  atomic energy  EATOM  =      1025.20389953
  Solvation  Ediel_sol  =         0.00000000
  ---------------------------------------------------
  free energy    TOTEN  =       -67.22331786 eV

  energy without entropy =      -67.22331783  energy(sigma->0) =      -67.22331785


--------------------------------------------------------------------------------------------------------




--------------------------------------- Iteration      1(  11)  ---------------------------------------


    POTLOK:  cpu time    0.1339: real time    0.1339
    SETDIJ:  cpu time    0.0021: real time    0.0021
     EDDAV:  cpu time    7.2094: real time    7.2092
       DOS:  cpu time    0.0006: real time    0.0006
    CHARGE:  cpu time    0.5873: real time    0.5872
    MIXING:  cpu time    0.0047: real time    0.0047
    --------------------------------------------
      LOOP:  cpu time    7.9380: real time    7.9379

 eigenvalue-minimisations  :  2364
 total energy-change (2. order) : 0.6757711E-03  (-0.4784215E-03)
 number of electron      30.0000002 magnetization 
 augmentation part        0.4957760 magnetization 

 Broyden mixing:
  rms(total) = 0.57340E-02    rms(broyden)= 0.57302E-02
  rms(prec ) = 0.11224E-01
  weight for this iteration     100.00

 eigenvalues of (default mixing * dielectric matrix)
  average eigenvalue GAMMA=   2.1530
  4.5535  2.4896  2.0756  0.9443  1.2252  1.6298

 Free energy of the ion-electron system (eV)
  ---------------------------------------------------
  alpha Z        PSCENC =        10.93933817
  Ewald energy   TEWEN  =      4060.05404224
  -Hartree energ DENC   =     -4932.48234174
  -exchange      EXHF   =         0.00000000
  -V(xc)+E(xc)   XCENC  =        96.00750302
  PAW double counting   =      2893.21454990    -2895.74332428
  entropy T*S    EENTRO =        -0.00000006
  eigenvalues    EBANDS =      -324.41630888
  atomic energy  EATOM  =      1025.20389953
  Solvation  Ediel_sol  =         0.00000000
  ---------------------------------------------------
  free energy    TOTEN  =       -67.22264209 eV

  energy without entropy =      -67.22264204  energy(sigma->0) =      -67.22264207


--------------------------------------------------------------------------------------------------------




--------------------------------------- Iteration      1(  12)  ---------------------------------------


    POTLOK:  cpu time    0.1341: real time    0.1363
    SETDIJ:  cpu time    0.0022: real time    0.0022
     EDDAV:  cpu time    7.0712: real time    7.0710
       DOS:  cpu time    0.0006: real time    0.0006
    CHARGE:  cpu time    0.5796: real time    0.5796
    MIXING:  cpu time    0.0048: real time    0.0048
    --------------------------------------------
      LOOP:  cpu time    7.7924: real time    7.7943

 eigenvalue-minimisations  :  2304
 total energy-change (2. order) :-0.2208206E-03  (-0.1421591E-03)
 number of electron      30.0000002 magnetization 
 augmentation part        0.4956136 magnetization 

 Broyden mixing:
  rms(total) = 0.35896E-02    rms(broyden)= 0.35880E-02
  rms(prec ) = 0.63342E-02
  weight for this iteration     100.00

 eigenvalues of (default mixing * dielectric matrix)
  average eigenvalue GAMMA=   2.3564
  5.9187  2.8341  2.3563  1.9399  0.9733  1.1570  1.3153

 Free energy of the ion-electron system (eV)
  ---------------------------------------------------
  alpha Z        PSCENC =        10.93933817
  Ewald energy   TEWEN  =      4060.05404224
  -Hartree energ DENC   =     -4936.29181906
  -exchange      EXHF   =         0.00000000
  -V(xc)+E(xc)   XCENC  =        96.03121286
  PAW double counting   =      2891.79806755    -2894.32503886
  entropy T*S    EENTRO =        -0.00000007
  eigenvalues    EBANDS =      -320.63256528
  atomic energy  EATOM  =      1025.20389953
  Solvation  Ediel_sol  =         0.00000000
  ---------------------------------------------------
  free energy    TOTEN  =       -67.22286291 eV

  energy without entropy =      -67.22286285  energy(sigma->0) =      -67.22286288


--------------------------------------------------------------------------------------------------------




--------------------------------------- Iteration      1(  13)  ---------------------------------------


    POTLOK:  cpu time    0.1316: real time    0.1318
    SETDIJ:  cpu time    0.0021: real time    0.0021
     EDDAV:  cpu time    6.6370: real time    6.6368
       DOS:  cpu time    0.0006: real time    0.0006
    CHARGE:  cpu time    0.5795: real time    0.5795
    MIXING:  cpu time    0.0051: real time    0.0051
    --------------------------------------------
      LOOP:  cpu time    7.3559: real time    7.3558

 eigenvalue-minimisations  :  2100
 total energy-change (2. order) :-0.4244982E-02  (-0.4906886E-04)
 number of electron      30.0000002 magnetization 
 augmentation part        0.4954867 magnetization 

 Broyden mixing:
  rms(total) = 0.20980E-02    rms(broyden)= 0.20976E-02
  rms(prec ) = 0.31089E-02
  weight for this iteration     100.00

 eigenvalues of (default mixing * dielectric matrix)
  average eigenvalue GAMMA=   2.5000
  6.6404  3.7399  2.5187  2.1430  1.6235  1.3224  1.0029  1.0093

 Free energy of the ion-electron system (eV)
  ---------------------------------------------------
  alpha Z        PSCENC =        10.93933817
  Ewald energy   TEWEN  =      4060.05404224
  -Hartree energ DENC   =     -4937.72936982
  -exchange      EXHF   =         0.00000000
  -V(xc)+E(xc)   XCENC  =        96.02432132
  PAW double counting   =      2891.29875535    -2893.82723790
  entropy T*S    EENTRO =        -0.00000007
  eigenvalues    EBANDS =      -319.19085671
  atomic energy  EATOM  =      1025.20389953
  Solvation  Ediel_sol  =         0.00000000
  ---------------------------------------------------
  free energy    TOTEN  =       -67.22710790 eV

  energy without entropy =      -67.22710782  energy(sigma->0) =      -67.22710786


--------------------------------------------------------------------------------------------------------




--------------------------------------- Iteration      1(  14)  ---------------------------------------


    POTLOK:  cpu time    0.1321: real time    0.1322
    SETDIJ:  cpu time    0.0021: real time    0.0021
     EDDAV:  cpu time    7.2159: real time    7.2157
       DOS:  cpu time    0.0006: real time    0.0006
    CHARGE:  cpu time    0.5836: real time    0.5837
    MIXING:  cpu time    0.0052: real time    0.0052
    --------------------------------------------
      LOOP:  cpu time    7.9395: real time    7.9394

 eigenvalue-minimisations  :  2364
 total energy-change (2. order) :-0.2569994E-02  (-0.3617660E-04)
 number of electron      30.0000002 magnetization 
 augmentation part        0.4955032 magnetization 

 Broyden mixing:
  rms(total) = 0.12674E-02    rms(broyden)= 0.12674E-02
  rms(prec ) = 0.15798E-02
  weight for this iteration     100.00

 eigenvalues of (default mixing * dielectric matrix)
  average eigenvalue GAMMA=   2.5701
  7.8034  3.7816  2.4847  2.4847  2.0096  0.9772  0.9859  1.3021  1.3021

 Free energy of the ion-electron system (eV)
  ---------------------------------------------------
  alpha Z        PSCENC =        10.93933817
  Ewald energy   TEWEN  =      4060.05404224
  -Hartree energ DENC   =     -4938.05855563
  -exchange      EXHF   =         0.00000000
  -V(xc)+E(xc)   XCENC  =        96.01658259
  PAW double counting   =      2896.18205144    -2898.70849884
  entropy T*S    EENTRO =        -0.00000007
  eigenvalues    EBANDS =      -318.85853733
  atomic energy  EATOM  =      1025.20389953
  Solvation  Ediel_sol  =         0.00000000
  ---------------------------------------------------
  free energy    TOTEN  =       -67.22967789 eV

  energy without entropy =      -67.22967782  energy(sigma->0) =      -67.22967786


--------------------------------------------------------------------------------------------------------




--------------------------------------- Iteration      1(  15)  ---------------------------------------


    POTLOK:  cpu time    0.1322: real time    0.1325
    SETDIJ:  cpu time    0.0022: real time    0.0022
     EDDAV:  cpu time    6.9446: real time    6.9443
       DOS:  cpu time    0.0006: real time    0.0006
    CHARGE:  cpu time    0.5784: real time    0.5783
    MIXING:  cpu time    0.0052: real time    0.0052
    --------------------------------------------
      LOOP:  cpu time    7.6632: real time    7.6632

 eigenvalue-minimisations  :  2244
 total energy-change (2. order) :-0.5138682E-03  (-0.3374421E-05)
 number of electron      30.0000002 magnetization 
 augmentation part        0.4954602 magnetization 

 Broyden mixing:
  rms(total) = 0.44023E-03    rms(broyden)= 0.44012E-03
  rms(prec ) = 0.69750E-03
  weight for this iteration     100.00

 eigenvalues of (default mixing * dielectric matrix)
  average eigenvalue GAMMA=   2.6381
  8.0538  4.6972  2.6341  2.6341  2.1455  1.8362  1.2515  1.1894  0.9695  0.9695

 Free energy of the ion-electron system (eV)
  ---------------------------------------------------
  alpha Z        PSCENC =        10.93933817
  Ewald energy   TEWEN  =      4060.05404224
  -Hartree energ DENC   =     -4938.41290438
  -exchange      EXHF   =         0.00000000
  -V(xc)+E(xc)   XCENC  =        96.02012149
  PAW double counting   =      2893.64244071    -2896.16949947
  entropy T*S    EENTRO =        -0.00000007
  eigenvalues    EBANDS =      -318.50762998
  atomic energy  EATOM  =      1025.20389953
  Solvation  Ediel_sol  =         0.00000000
  ---------------------------------------------------
  free energy    TOTEN  =       -67.23019176 eV

  energy without entropy =      -67.23019169  energy(sigma->0) =      -67.23019172


--------------------------------------------------------------------------------------------------------




--------------------------------------- Iteration      1(  16)  ---------------------------------------


    POTLOK:  cpu time    0.1350: real time    0.1361
    SETDIJ:  cpu time    0.0022: real time    0.0022
     EDDAV:  cpu time    6.6457: real time    6.6454
       DOS:  cpu time    0.0005: real time    0.0005
    CHARGE:  cpu time    0.5850: real time    0.5875
    MIXING:  cpu time    0.0054: real time    0.0054
    --------------------------------------------
      LOOP:  cpu time    7.3738: real time    7.3771

 eigenvalue-minimisations  :  2112
 total energy-change (2. order) :-0.3326856E-03  (-0.3543931E-05)
 number of electron      30.0000002 magnetization 
 augmentation part        0.4954576 magnetization 

 Broyden mixing:
  rms(total) = 0.18508E-03    rms(broyden)= 0.18505E-03
  rms(prec ) = 0.33259E-03
  weight for this iteration     100.00

 eigenvalues of (default mixing * dielectric matrix)
  average eigenvalue GAMMA=   2.5849
  8.3085  5.0227  2.9877  2.4407  2.2707  1.9926  1.2782  1.2782  0.9984  0.9792
  0.8768

 Free energy of the ion-electron system (eV)
  ---------------------------------------------------
  alpha Z        PSCENC =        10.93933817
  Ewald energy   TEWEN  =      4060.05404224
  -Hartree energ DENC   =     -4938.41818148
  -exchange      EXHF   =         0.00000000
  -V(xc)+E(xc)   XCENC  =        96.01874834
  PAW double counting   =      2893.42463339    -2895.95181031
  entropy T*S    EENTRO =        -0.00000007
  eigenvalues    EBANDS =      -318.50119425
  atomic energy  EATOM  =      1025.20389953
  Solvation  Ediel_sol  =         0.00000000
  ---------------------------------------------------
  free energy    TOTEN  =       -67.23052444 eV

  energy without entropy =      -67.23052438  energy(sigma->0) =      -67.23052441


--------------------------------------------------------------------------------------------------------




--------------------------------------- Iteration      1(  17)  ---------------------------------------


    POTLOK:  cpu time    0.1341: real time    0.1352
    SETDIJ:  cpu time    0.0021: real time    0.0021
     EDDAV:  cpu time    7.4011: real time    7.4010
       DOS:  cpu time    0.0006: real time    0.0006
    CHARGE:  cpu time    0.5805: real time    0.5805
    MIXING:  cpu time    0.0056: real time    0.0056
    --------------------------------------------
      LOOP:  cpu time    8.1240: real time    8.1249

 eigenvalue-minimisations  :  2448
 total energy-change (2. order) :-0.5145227E-04  (-0.3148920E-06)
 number of electron      30.0000002 magnetization 
 augmentation part        0.4954611 magnetization 

 Broyden mixing:
  rms(total) = 0.14789E-03    rms(broyden)= 0.14786E-03
  rms(prec ) = 0.25360E-03
  weight for this iteration     100.00

 eigenvalues of (default mixing * dielectric matrix)
  average eigenvalue GAMMA=   2.6593
  8.4014  5.3102  3.3221  3.0227  2.4030  2.0568  1.9729  1.2271  1.2271  0.9693
  0.9997  0.9997

 Free energy of the ion-electron system (eV)
  ---------------------------------------------------
  alpha Z        PSCENC =        10.93933817
  Ewald energy   TEWEN  =      4060.05404224
  -Hartree energ DENC   =     -4938.45101224
  -exchange      EXHF   =         0.00000000
  -V(xc)+E(xc)   XCENC  =        96.01868752
  PAW double counting   =      2893.66012623    -2896.18708310
  entropy T*S    EENTRO =        -0.00000007
  eigenvalues    EBANDS =      -318.46857418
  atomic energy  EATOM  =      1025.20389953
  Solvation  Ediel_sol  =         0.00000000
  ---------------------------------------------------
  free energy    TOTEN  =       -67.23057590 eV

  energy without entropy =      -67.23057583  energy(sigma->0) =      -67.23057586


--------------------------------------------------------------------------------------------------------




--------------------------------------- Iteration      1(  18)  ---------------------------------------


    POTLOK:  cpu time    0.1329: real time    0.1330
    SETDIJ:  cpu time    0.0022: real time    0.0022
     EDDAV:  cpu time    6.9311: real time    6.9313
       DOS:  cpu time    0.0006: real time    0.0006
    CHARGE:  cpu time    0.5758: real time    0.5758
    MIXING:  cpu time    0.0063: real time    0.0063
    --------------------------------------------
      LOOP:  cpu time    7.6488: real time    7.6492

 eigenvalue-minimisations  :  2232
 total energy-change (2. order) :-0.3776154E-04  (-0.3146157E-06)
 number of electron      30.0000002 magnetization 
 augmentation part        0.4954541 magnetization 

 Broyden mixing:
  rms(total) = 0.11944E-03    rms(broyden)= 0.11943E-03
  rms(prec ) = 0.15472E-03
  weight for this iteration     100.00

 eigenvalues of (default mixing * dielectric matrix)
  average eigenvalue GAMMA=   2.5677
  8.3602  5.4657  3.7031  2.8454  2.4702  2.1765  1.8933  1.2512  1.2512  0.9801
  0.9801  1.0015  1.0015

 Free energy of the ion-electron system (eV)
  ---------------------------------------------------
  alpha Z        PSCENC =        10.93933817
  Ewald energy   TEWEN  =      4060.05404224
  -Hartree energ DENC   =     -4938.52075166
  -exchange      EXHF   =         0.00000000
  -V(xc)+E(xc)   XCENC  =        96.01887658
  PAW double counting   =      2893.47208737    -2895.99915993
  entropy T*S    EENTRO =        -0.00000007
  eigenvalues    EBANDS =      -318.39894590
  atomic energy  EATOM  =      1025.20389953
  Solvation  Ediel_sol  =         0.00000000
  ---------------------------------------------------
  free energy    TOTEN  =       -67.23061366 eV

  energy without entropy =      -67.23061359  energy(sigma->0) =      -67.23061362


--------------------------------------------------------------------------------------------------------




--------------------------------------- Iteration      1(  19)  ---------------------------------------


    POTLOK:  cpu time    0.1329: real time    0.1329
    SETDIJ:  cpu time    0.0021: real time    0.0021
     EDDAV:  cpu time    6.0755: real time    6.0752
       DOS:  cpu time    0.0006: real time    0.0006
    CHARGE:  cpu time    0.5824: real time    0.5823
    MIXING:  cpu time    0.0058: real time    0.0058
    --------------------------------------------
      LOOP:  cpu time    6.7992: real time    6.7989

 eigenvalue-minimisations  :  1824
 total energy-change (2. order) :-0.6038025E-05  (-0.1467013E-07)
 number of electron      30.0000002 magnetization 
 augmentation part        0.4954563 magnetization 

 Broyden mixing:
  rms(total) = 0.51227E-04    rms(broyden)= 0.51222E-04
  rms(prec ) = 0.84286E-04
  weight for this iteration     100.00

 eigenvalues of (default mixing * dielectric matrix)
  average eigenvalue GAMMA=   2.7158
  8.3792  6.2073  4.5439  3.3320  2.6976  2.4411  2.1094  1.9108  1.2608  1.1777
  0.9767  0.9863  0.9993  0.9993

 Free energy of the ion-electron system (eV)
  ---------------------------------------------------
  alpha Z        PSCENC =        10.93933817
  Ewald energy   TEWEN  =      4060.05404224
  -Hartree energ DENC   =     -4938.53502685
  -exchange      EXHF   =         0.00000000
  -V(xc)+E(xc)   XCENC  =        96.01883672
  PAW double counting   =      2893.58781937    -2896.11478731
  entropy T*S    EENTRO =        -0.00000007
  eigenvalues    EBANDS =      -318.38474151
  atomic energy  EATOM  =      1025.20389953
  Solvation  Ediel_sol  =         0.00000000
  ---------------------------------------------------
  free energy    TOTEN  =       -67.23061970 eV

  energy without entropy =      -67.23061963  energy(sigma->0) =      -67.23061966


--------------------------------------------------------------------------------------------------------




--------------------------------------- Iteration      1(  20)  ---------------------------------------


    POTLOK:  cpu time    0.1338: real time    0.1398
    SETDIJ:  cpu time    0.0022: real time    0.0022
     EDDAV:  cpu time    5.4740: real time    5.4894
       DOS:  cpu time    0.0005: real time    0.0005
    CHARGE:  cpu time    0.5817: real time    0.5817
    MIXING:  cpu time    0.0063: real time    0.0063
    --------------------------------------------
      LOOP:  cpu time    6.1985: real time    6.2199

 eigenvalue-minimisations  :  1548
 total energy-change (2. order) :-0.1282108E-04  (-0.8373087E-08)
 number of electron      30.0000002 magnetization 
 augmentation part        0.4954567 magnetization 

 Broyden mixing:
  rms(total) = 0.37146E-04    rms(broyden)= 0.37145E-04
  rms(prec ) = 0.39903E-04
  weight for this iteration     100.00

 eigenvalues of (default mixing * dielectric matrix)
  average eigenvalue GAMMA=   2.7689
  8.4521  7.2862  4.9472  3.4373  2.6495  2.6495  2.1934  1.9216  1.5201  1.3137
  0.9650  0.9928  0.9928  1.1060  1.1060

 Free energy of the ion-electron system (eV)
  ---------------------------------------------------
  alpha Z        PSCENC =        10.93933817
  Ewald energy   TEWEN  =      4060.05404224
  -Hartree energ DENC   =     -4938.55288989
  -exchange      EXHF   =         0.00000000
  -V(xc)+E(xc)   XCENC  =        96.01874255
  PAW double counting   =      2893.61035874    -2896.13734902
  entropy T*S    EENTRO =        -0.00000007
  eigenvalues    EBANDS =      -318.36677476
  atomic energy  EATOM  =      1025.20389953
  Solvation  Ediel_sol  =         0.00000000
  ---------------------------------------------------
  free energy    TOTEN  =       -67.23063252 eV

  energy without entropy =      -67.23063245  energy(sigma->0) =      -67.23063248


--------------------------------------------------------------------------------------------------------




--------------------------------------- Iteration      1(  21)  ---------------------------------------


    POTLOK:  cpu time    0.1341: real time    0.1343
    SETDIJ:  cpu time    0.0021: real time    0.0021
     EDDAV:  cpu time    5.8363: real time    5.8361
       DOS:  cpu time    0.0005: real time    0.0005
    CHARGE:  cpu time    0.5758: real time    0.5758
    MIXING:  cpu time    0.0062: real time    0.0062
    --------------------------------------------
      LOOP:  cpu time    6.5550: real time    6.5550

 eigenvalue-minimisations  :  1716
 total energy-change (2. order) :-0.2000403E-05  (-0.1049805E-08)
 number of electron      30.0000002 magnetization 
 augmentation part        0.4954566 magnetization 

 Broyden mixing:
  rms(total) = 0.13709E-04    rms(broyden)= 0.13709E-04
  rms(prec ) = 0.15697E-04
  weight for this iteration     100.00

 eigenvalues of (default mixing * dielectric matrix)
  average eigenvalue GAMMA=   2.8812
  9.2361  8.4713  5.2680  3.7422  2.8686  2.6281  2.4317  2.1302  1.8892  1.2719
  1.1609  0.9627  0.9887  0.9887  1.0308  1.0308

 Free energy of the ion-electron system (eV)
  ---------------------------------------------------
  alpha Z        PSCENC =        10.93933817
  Ewald energy   TEWEN  =      4060.05404224
  -Hartree energ DENC   =     -4938.55465866
  -exchange      EXHF   =         0.00000000
  -V(xc)+E(xc)   XCENC  =        96.01876137
  PAW double counting   =      2893.55609616    -2896.08311240
  entropy T*S    EENTRO =        -0.00000007
  eigenvalues    EBANDS =      -318.36500086
  atomic energy  EATOM  =      1025.20389953
  Solvation  Ediel_sol  =         0.00000000
  ---------------------------------------------------
  free energy    TOTEN  =       -67.23063452 eV

  energy without entropy =      -67.23063445  energy(sigma->0) =      -67.23063448


--------------------------------------------------------------------------------------------------------




--------------------------------------- Iteration      1(  22)  ---------------------------------------


    POTLOK:  cpu time    0.1348: real time    0.1349
    SETDIJ:  cpu time    0.0021: real time    0.0021
     EDDAV:  cpu time    5.5156: real time    5.5154
       DOS:  cpu time    0.0006: real time    0.0006
    --------------------------------------------
      LOOP:  cpu time    5.6531: real time    5.6529

 eigenvalue-minimisations  :  1572
 total energy-change (2. order) :-0.7668593E-06  (-0.1027076E-08)
 number of electron      30.0000002 magnetization 
 augmentation part        0.4954566 magnetization 

 Free energy of the ion-electron system (eV)
  ---------------------------------------------------
  alpha Z        PSCENC =        10.93933817
  Ewald energy   TEWEN  =      4060.05404224
  -Hartree energ DENC   =     -4938.55780291
  -exchange      EXHF   =         0.00000000
  -V(xc)+E(xc)   XCENC  =        96.01879661
  PAW double counting   =      2893.56536640    -2896.09237600
  entropy T*S    EENTRO =        -0.00000007
  eigenvalues    EBANDS =      -318.36189926
  atomic energy  EATOM  =      1025.20389953
  Solvation  Ediel_sol  =         0.00000000
  ---------------------------------------------------
  free energy    TOTEN  =       -67.23063528 eV

  energy without entropy =      -67.23063522  energy(sigma->0) =      -67.23063525


--------------------------------------------------------------------------------------------------------




 average (electrostatic) potential at core
  the test charge radii are     0.7672  0.6991
  (the norm of the test charge is              1.0000)
       1 -35.0198       2 -35.0198       3 -57.5232       4 -57.5232       5 -57.5234
       6 -57.5234       7 -57.5232       8 -57.5232
 
 
 
 E-fermi :  -3.9245     XC(G=0):  -2.1090     alpha+bet : -1.7756


 k-point     1 :       0.0000    0.0000    0.0000
  band No.  band energies     occupation 
      1     -20.3127      2.00000
      2     -16.4220      2.00000
      3     -16.4214      2.00000
      4     -14.0746      2.00000
      5     -14.0742      2.00000
      6     -13.0042      2.00000
      7     -11.6917      2.00000
      8      -9.1190      2.00000
      9      -8.8972      2.00000
     10      -6.7472      2.00000
     11      -6.7462      2.00000
     12      -4.9229      2.00000
     13      -4.9228      2.00000
     14      -4.2433      1.99999
     15      -4.2408      1.99999
     16      -2.4086      0.00000
     17      -0.6760      0.00000
     18      -0.6755      0.00000
     19      -0.0190      0.00000
     20       0.4144      0.00000
     21       1.2709      0.00000
     22       1.4916      0.00000
     23       2.5014      0.00000
     24       2.8639      0.00000

 k-point     2 :       0.0833    0.0000    0.0000
  band No.  band energies     occupation 
      1     -20.2856      2.00000
      2     -16.5541      2.00000
      3     -16.4640      2.00000
      4     -14.1137      2.00000
      5     -13.9758      2.00000
      6     -12.8697      2.00000
      7     -11.5312      2.00000
      8      -9.0779      2.00000
      9      -8.9547      2.00000
     10      -6.8703      2.00000
     11      -6.7690      2.00000
     12      -5.0474      2.00000
     13      -4.9435      2.00000
     14      -4.3854      2.00000
     15      -4.3103      2.00000
     16      -2.6133      0.00000
     17      -0.6164      0.00000
     18      -0.3659      0.00000
     19       0.1027      0.00000
     20       0.4661      0.00000
     21       1.3269      0.00000
     22       1.5436      0.00000
     23       2.5537      0.00000
     24       2.9162      0.00000

 k-point     3 :       0.1667   -0.0000    0.0000
  band No.  band energies     occupation 
      1     -20.2064      2.00000
      2     -16.8794      2.00000
      3     -16.5684      2.00000
      4     -14.2303      2.00000
      5     -13.7064      2.00000
      6     -12.4886      2.00000
      7     -11.1014      2.00000
      8      -9.1372      2.00000
      9      -8.9554      2.00000
     10      -7.2161      2.00000
     11      -6.8049      2.00000
     12      -5.3898      2.00000
     13      -4.9978      2.00000
     14      -4.7926      2.00000
     15      -4.5023      2.00000
     16      -2.9611      0.00000
     17      -0.4530      0.00000
     18       0.0997      0.00000
     19       0.6188      0.00000
     20       0.6208      0.00000
     21       1.5007      0.00000
     22       1.6995      0.00000
     23       2.7106      0.00000
     24       3.0723      0.00000

 k-point     4 :       0.2500   -0.0000    0.0000
  band No.  band energies     occupation 
      1     -20.0832      2.00000
      2     -17.2763      2.00000
      3     -16.6909      2.00000
      4     -14.3780      2.00000
      5     -13.3216      2.00000
      6     -11.9461      2.00000
      7     -10.4912      2.00000
      8      -9.4512      2.00000
      9      -8.7560      2.00000
     10      -7.7229      2.00000
     11      -6.7957      2.00000
     12      -5.8672      2.00000
     13      -5.4102      2.00000
     14      -5.0680      2.00000
     15      -4.7782      2.00000
     16      -3.2477      0.00000
     17      -0.2244      0.00000
     18       0.4484      0.00000
     19       0.8773      0.00000
     20       1.4214      0.00000
     21       1.8545      0.00000
     22       1.9592      0.00000
     23       2.9734      0.00000
     24       3.3309      0.00000

 k-point     5 :       0.3333    0.0000    0.0000
  band No.  band energies     occupation 
      1     -19.9344      2.00000
      2     -17.6540      2.00000
      3     -16.7972      2.00000
      4     -14.5071      2.00000
      5     -12.8833      2.00000
      6     -11.3231      2.00000
      7      -9.8587      2.00000
      8      -9.7873      2.00000
      9      -8.4912      2.00000
     10      -8.3003      2.00000
     11      -6.7162      2.00000
     12      -6.3848      2.00000
     13      -6.1718      2.00000
     14      -5.1341      2.00000
     15      -5.0832      2.00000
     16      -3.4459      0.00000
     17       0.0126      0.00000
     18       0.7733      0.00000
     19       1.2347      0.00000
     20       1.9832      0.00000
     21       2.3225      0.00000
     22       2.6378      0.00000
     23       3.3479      0.00000
     24       3.6845      0.00000

 k-point     6 :       0.4167    0.0000    0.0000
  band No.  band energies     occupation 
      1     -19.7987      2.00000
[...]
     19       2.8771      0.00000
     20       2.9465      0.00000
     21       3.2658      0.00000
     22       3.4150      0.00000
     23       3.5509      0.00000
     24       3.7153      0.00000

 k-point    31 :      -0.3333    0.2500    0.0000
  band No.  band energies     occupation 
      1     -19.6560      2.00000
      2     -17.8246      2.00000
      3     -17.4657      2.00000
      4     -13.6540      2.00000
      5     -12.9816      2.00000
      6     -11.1248      2.00000
      7      -9.3987      2.00000
      8      -8.7446      2.00000
      9      -8.2384      2.00000
     10      -7.8782      2.00000
     11      -7.5782      2.00000
     12      -6.8338      2.00000
     13      -6.7360      2.00000
     14      -6.2146      2.00000
     15      -6.1927      2.00000
     16      -2.3502      0.00000
     17      -1.2315      0.00000
     18       2.3398      0.00000
     19       2.8752      0.00000
     20       2.9477      0.00000
     21       3.2682      0.00000
     22       3.4141      0.00000
     23       3.5506      0.00000
     24       3.7166      0.00000

 k-point    32 :      -0.2500    0.2500    0.0000
  band No.  band energies     occupation 
      1     -19.7352      2.00000
      2     -17.7624      2.00000
      3     -17.3068      2.00000
      4     -13.7677      2.00000
      5     -13.1446      2.00000
      6     -10.7785      2.00000
      7     -10.0188      2.00000
      8      -8.9988      2.00000
      9      -8.1328      2.00000
     10      -8.0987      2.00000
     11      -7.3279      2.00000
     12      -6.6119      2.00000
     13      -6.5432      2.00000
     14      -6.0011      2.00000
     15      -5.8526      2.00000
     16      -2.6053      0.00000
     17      -1.0081      0.00000
     18       1.8322      0.00000
     19       2.4123      0.00000
     20       2.8950      0.00000
     21       2.9775      0.00000
     22       3.0306      0.00000
     23       3.6365      0.00000
     24       3.6635      0.00000

 k-point    33 :      -0.1667    0.2500    0.0000
  band No.  band energies     occupation 
      1     -19.8549      2.00000
      2     -17.6384      2.00000
      3     -17.0530      2.00000
      4     -14.0368      2.00000
      5     -13.2004      2.00000
      6     -10.8741      2.00000
      7     -10.1222      2.00000
      8      -9.5360      2.00000
      9      -8.3595      2.00000
     10      -8.0159      2.00000
     11      -7.0601      2.00000
     12      -6.3320      2.00000
     13      -6.1988      2.00000
     14      -5.6114      2.00000
     15      -5.4024      2.00000
     16      -2.9385      0.00000
     17      -0.6962      0.00000
     18       1.4244      0.00000
     19       1.8055      0.00000
     20       2.2699      0.00000
     21       2.4794      0.00000
     22       2.6539      0.00000
     23       3.5662      0.00000
     24       3.9762      0.00000

 k-point    34 :      -0.0833    0.2500    0.0000
  band No.  band energies     occupation 
      1     -19.9730      2.00000
      2     -17.4680      2.00000
      3     -16.7953      2.00000
      4     -14.2880      2.00000
      5     -13.2013      2.00000
      6     -11.4841      2.00000
      7     -10.0478      2.00000
      8      -9.7002      2.00000
      9      -8.5800      2.00000
     10      -7.9207      2.00000
     11      -6.8337      2.00000
     12      -6.1060      2.00000
     13      -5.7563      2.00000
     14      -5.2141      2.00000
     15      -5.0102      2.00000
     16      -3.1944      0.00000
     17      -0.3718      0.00000
     18       1.0249      0.00000
     19       1.1176      0.00000
     20       1.8308      0.00000
     21       2.1677      0.00000
     22       2.2500      0.00000
     23       3.2553      0.00000
     24       3.6659      0.00000

 k-point    35 :       0.0000    0.3333    0.0000
  band No.  band energies     occupation 
      1     -19.9132      2.00000
      2     -17.6477      2.00000
      3     -16.7576      2.00000
      4     -14.4742      2.00000
      5     -12.8721      2.00000
      6     -11.3049      2.00000
      7      -9.8277      2.00000
      8      -9.7494      2.00000
      9      -8.4692      2.00000
     10      -8.2757      2.00000
     11      -6.6883      2.00000
     12      -6.3716      2.00000
     13      -6.1231      2.00000
     14      -5.0924      2.00000
     15      -5.0750      2.00000
     16      -3.4119      0.00000
     17       0.0237      0.00000
     18       0.8008      0.00000
     19       1.2703      0.00000
     20       2.0403      0.00000
     21       2.3234      0.00000
     22       2.6865      0.00000
     23       3.4180      0.00000
     24       3.6930      0.00000

 k-point    36 :      -0.3333    0.3333    0.0000
  band No.  band energies     occupation 
      1     -19.6262      2.00000
      2     -17.7119      2.00000
      3     -17.6749      2.00000
      4     -13.2736      2.00000
      5     -13.2437      2.00000
      6     -11.3014      2.00000
      7      -8.8161      2.00000
      8      -8.7753      2.00000
      9      -8.4356      2.00000
     10      -7.7905      2.00000
     11      -7.6535      2.00000
     12      -6.6577      2.00000
     13      -6.6276      2.00000
     14      -6.5785      2.00000
     15      -6.5538      2.00000
     16      -1.8049      0.00000
     17      -1.7741      0.00000
     18       2.8785      0.00000
     19       2.9055      0.00000
     20       2.9074      0.00000
     21       3.4597      0.00000
     22       3.4717      0.00000
     23       3.6271      0.00000
     24       3.9832      0.00000

 k-point    37 :      -0.2500    0.3333    0.0000
  band No.  band energies     occupation 
      1     -19.6543      2.00000
      2     -17.8423      2.00000
      3     -17.4494      2.00000
      4     -13.6411      2.00000
      5     -12.9988      2.00000
      6     -11.1201      2.00000
      7      -9.4142      2.00000
      8      -8.7333      2.00000
      9      -8.2281      2.00000
     10      -7.8767      2.00000
     11      -7.5788      2.00000
     12      -6.8211      2.00000
     13      -6.7494      2.00000
     14      -6.2130      2.00000
     15      -6.2018      2.00000
     16      -2.3385      0.00000
     17      -1.2463      0.00000
     18       2.3396      0.00000
     19       2.8676      0.00000
     20       2.9460      0.00000
     21       3.2646      0.00000
     22       3.4139      0.00000
     23       3.5523      0.00000
     24       3.7135      0.00000

 k-point    38 :      -0.1667    0.3333    0.0000
  band No.  band energies     occupation 
      1     -19.7300      2.00000
      2     -17.8666      2.00000
      3     -17.1650      2.00000
      4     -14.0617      2.00000
      5     -12.8404      2.00000
      6     -10.7181      2.00000
      7     -10.0900      2.00000
      8      -8.9999      2.00000
      9      -8.3142      2.00000
     10      -8.0781      2.00000
     11      -7.1905      2.00000
     12      -6.7361      2.00000
     13      -6.7177      2.00000
     14      -5.7474      2.00000
     15      -5.7216      2.00000
     16      -2.8682      0.00000
     17      -0.7121      0.00000
     18       1.8822      0.00000
     19       2.1386      0.00000
     20       2.7189      0.00000
     21       2.9466      0.00000
     22       3.0951      0.00000
     23       3.5327      0.00000
     24       3.8744      0.00000

 k-point    39 :      -0.0833    0.3333    0.0000
  band No.  band energies     occupation 
      1     -19.8257      2.00000
      2     -17.7937      2.00000
      3     -16.8979      2.00000
      4     -14.3825      2.00000
      5     -12.7745      2.00000
      6     -10.8525      2.00000
      7     -10.1388      2.00000
      8      -9.3688      2.00000
      9      -8.4170      2.00000
     10      -8.2943      2.00000
     11      -6.7822      2.00000
     12      -6.5954      2.00000
     13      -6.4999      2.00000
     14      -5.3166      2.00000
     15      -5.3086      2.00000
     16      -3.2850      0.00000
     17      -0.2252      0.00000
     18       1.3480      0.00000
     19       1.5253      0.00000
     20       2.3208      0.00000
     21       2.5830      0.00000
     22       3.1397      0.00000
     23       3.3439      0.00000
     24       3.6795      0.00000

 k-point    40 :       0.0000    0.4167    0.0000
  band No.  band energies     occupation 
      1     -19.7764      2.00000
      2     -17.9319      2.00000
      3     -16.8286      2.00000
      4     -14.5594      2.00000
      5     -12.4718      2.00000
      6     -10.6629      2.00000
      7     -10.2218      2.00000
      8      -9.3158      2.00000
      9      -8.5351      2.00000
     10      -8.1752      2.00000
     11      -6.9661      2.00000
     12      -6.8352      2.00000
     13      -6.5721      2.00000
     14      -5.3364      2.00000
     15      -5.1391      2.00000
     16      -3.5281      0.00000
     17       0.2039      0.00000
     18       1.0496      0.00000
     19       1.7280      0.00000
     20       2.5176      0.00000
     21       2.7905      0.00000
     22       2.9410      0.00000
     23       3.5333      0.00000
     24       3.7431      0.00000

 k-point    41 :      -0.1667    0.4167    0.0000
  band No.  band energies     occupation 
      1     -19.6770      2.00000
      2     -17.9573      2.00000
      3     -17.2022      2.00000
      4     -14.0758      2.00000
      5     -12.6555      2.00000
      6     -10.9002      2.00000
      7      -9.7222      2.00000
      8      -9.0889      2.00000
      9      -7.9713      2.00000
     10      -7.9214      2.00000
     11      -7.6815      2.00000
     12      -6.9401      2.00000
     13      -6.7783      2.00000
     14      -5.8578      2.00000
     15      -5.7907      2.00000
     16      -2.8433      0.00000
     17      -0.7111      0.00000
     18       2.2727      0.00000
     19       2.4353      0.00000
     20       2.4436      0.00000
     21       3.1840      0.00000
     22       3.2750      0.00000
     23       3.5170      0.00000
     24       3.5177      0.00000

 k-point    42 :      -0.0833    0.4167    0.0000
  band No.  band energies     occupation 
      1     -19.7213      2.00000
      2     -17.9932      2.00000
      3     -16.9518      2.00000
      4     -14.4344      2.00000
      5     -12.4484      2.00000
      6     -10.5456      2.00000
      7     -10.2010      2.00000
      8      -9.3106      2.00000
      9      -8.2275      2.00000
     10      -8.0324      2.00000
     11      -7.3997      2.00000
     12      -6.9696      2.00000
     13      -6.6089      2.00000
     14      -5.5268      2.00000
     15      -5.3590      2.00000
     16      -3.3291      0.00000
     17      -0.1288      0.00000
     18       1.5444      0.00000
     19       2.0329      0.00000
     20       2.6396      0.00000
     21       2.8220      0.00000
     22       3.1020      0.00000
     23       3.4006      0.00000
     24       3.7244      0.00000

 k-point    43 :       0.0000    0.5000    0.0000
  band No.  band energies     occupation 
      1     -19.7170      2.00000
      2     -18.0419      2.00000
      3     -16.8532      2.00000
      4     -14.5887      2.00000
      5     -12.2883      2.00000
      6     -10.4060      2.00000
      7     -10.2268      2.00000
      8      -9.5919      2.00000
      9      -8.0059      2.00000
     10      -7.9585      2.00000
     11      -7.7151      2.00000
     12      -7.0640      2.00000
     13      -6.5091      2.00000
     14      -5.4490      2.00000
     15      -5.1556      2.00000
     16      -3.5664      0.00001
     17       0.2717      0.00000
     18       1.1450      0.00000
     19       2.2839      0.00000
     20       2.2866      0.00000
     21       3.0377      0.00000
     22       3.0886      0.00000
     23       3.3611      0.00000
     24       3.3613      0.00000


--------------------------------------------------------------------------------------------------------


 soft charge-density along one line, spin component           1
         0         1         2         3         4         5         6         7         8         9
 total charge-density along one line
 
 pseudopotential strength for first ion, spin component:           1
  6.758  10.314  -0.000   0.000  -0.000  -0.000   0.000  -0.000
 10.314  15.737  -0.000   0.000  -0.000  -0.000   0.000  -0.000
 -0.000  -0.000  -2.328   0.000  -0.000  -3.999   0.000  -0.000
  0.000   0.000   0.000  -2.334  -0.000   0.000  -4.006  -0.000
 -0.000  -0.000  -0.000  -0.000  -2.328  -0.000  -0.000  -3.999
 -0.000  -0.000  -3.999   0.000  -0.000  -6.672   0.000  -0.000
  0.000   0.000   0.000  -4.006  -0.000   0.000  -6.681  -0.000
 -0.000  -0.000  -0.000  -0.000  -3.999  -0.000  -0.000  -6.673
 total augmentation occupancy for first ion, spin component:           1
  3.710  -0.950  -0.001  -0.000   0.000   0.000   0.000   0.000
 -0.950   0.263  -0.000   0.000   0.000   0.000  -0.000   0.000
 -0.001  -0.000   4.123  -0.000   0.000  -1.099   0.000  -0.000
  0.000   0.000  -0.000   0.889   0.000   0.000  -0.222   0.000
 -0.000   0.000   0.000   0.000   4.137  -0.000   0.000  -1.103
  0.000   0.000  -1.099   0.000  -0.000   0.304  -0.000   0.000
  0.000   0.000   0.000  -0.222   0.000  -0.000   0.056   0.000
  0.000   0.000  -0.000   0.000  -1.103   0.000   0.000   0.305


------------------------ aborting loop because EDIFF is reached ----------------------------------------


    CHARGE:  cpu time    0.5768: real time    0.5781
    FORLOC:  cpu time    0.0100: real time    0.0101
    FORNL :  cpu time    0.7313: real time    0.7341
    STRESS:  cpu time    4.7629: real time    4.7683
    FORCOR:  cpu time    0.1410: real time    0.1411
    FORHAR:  cpu time    0.0377: real time    0.0377
    MIXING:  cpu time    0.0045: real time    0.0045
    OFIELD:  cpu time    0.0000: real time    0.0000

  FORCE on cell =-STRESS in cart. coord.  units (eV):
  Direction    XX          YY          ZZ          XY          YZ          ZX
  --------------------------------------------------------------------------------------
  Alpha Z    11.14961    11.14961    11.14961
  Ewald    4857.42293  4854.43639 -5753.07326    -0.00000     0.00000     0.00000
  Hartree  4779.42978  4779.34220 -4720.52458    -0.00000    -0.00000    -0.00000
  E(xc)    -107.45541  -107.46200  -111.28952     0.00000    -0.00000     0.00000
  Local   -9949.93354 -9947.55118 10140.44043     0.00003    -0.00000     0.00000
  n-local   -21.65822   -21.66135   -10.34299    -0.28723     0.00000    -0.00000
  augment    -1.80549    -1.80085    -1.79393    -0.00003    -0.00000     0.00000
  Kinetic   433.25636   433.44735   445.30532     3.49654    -0.00000     0.00000
  Fock        0.00000     0.00000     0.00000     0.00000     0.00000     0.00000
  -------------------------------------------------------------------------------------
  Total       0.40601    -0.09984    -0.12893     0.00000     0.00000     0.00000
  in kB       1.42985    -0.35161    -0.45403     0.00000     0.00000     0.00000
  external pressure =        0.21 kB  Pullay stress =        0.00 kB


 VOLUME and BASIS-vectors are now :
 -----------------------------------------------------------------------------
  energy-cutoff  :      450.00
  volume of cell :      454.95
      direct lattice vectors                 reciprocal lattice vectors
     5.171043779  0.000000000  0.000000000     0.193384555 -0.111613860  0.000000000
     2.585521890  4.479730395  0.000000000    -0.000000000  0.223227719  0.000000000
     0.000000000  0.000000000 19.639607251     0.000000000  0.000000000  0.050917515

  length of vectors
     5.171043779  5.172321322 19.639607251     0.223282869  0.223227719  0.050917515


 FORCES acting on ions
    electron-ion (+dipol)            ewald-force                    non-local-force                 convergence-correction
 -----------------------------------------------------------------------------------------------
   0.213E-05 0.222E+00 0.175E-06   -.570E-11 -.207E+00 -.219E-19   0.260E-16 0.206E-01 0.000E+00   -.508E-08 -.883E-05 0.481E-12
   -.161E-05 -.222E+00 -.180E-06   0.242E-12 0.207E+00 0.723E-20   0.236E-16 -.206E-01 0.000E+00   0.521E-08 0.883E-05 0.485E-12
   -.448E+02 -.248E+02 -.369E-06   0.483E+02 0.267E+02 0.521E-19   -.344E+01 -.206E+01 -.517E-25   0.369E-03 0.212E-03 0.638E-12
   0.448E+02 -.248E+02 0.382E-06   -.483E+02 0.267E+02 -.267E-19   0.344E+01 -.206E+01 0.000E+00   -.369E-03 0.212E-03 0.722E-12
   -.371E-05 -.515E+02 -.526E-06   0.102E-10 0.556E+02 -.169E-19   0.000E+00 -.401E+01 0.000E+00   0.175E-07 0.409E-03 0.679E-12
   -.280E-05 0.515E+02 0.457E-06   0.726E-11 -.556E+02 0.314E-20   0.000E+00 0.401E+01 0.000E+00   -.176E-07 -.409E-03 0.664E-12
   -.448E+02 0.248E+02 -.471E-06   0.483E+02 -.267E+02 -.711E-20   -.344E+01 0.206E+01 0.646E-26   0.369E-03 -.212E-03 0.605E-12
   0.448E+02 0.248E+02 0.327E-06   -.483E+02 -.267E+02 0.101E-19   0.344E+01 0.206E+01 0.103E-24   -.369E-03 -.212E-03 0.740E-12
 -----------------------------------------------------------------------------------------------
   -.889E-05 -.422E-05 -.205E-06   0.711E-14 0.142E-13 0.000E+00   0.000E+00 -.178E-14 0.582E-25   -.562E-09 -.767E-09 0.501E-11
 
 
 POSITION                                       TOTAL-FORCE (eV/Angst)
 -----------------------------------------------------------------------------------
      1.35423      0.78093     -0.00000        -0.000000      0.035484      0.000000
      3.93975      2.27671     -0.00000         0.000000     -0.035484     -0.000000
     -0.00188      0.00188     -0.00000         0.072283     -0.186609      0.000000
      2.71033      0.00188     -0.00000        -0.072283     -0.186609      0.000000
      3.93975      0.71164     -0.00000        -0.000000      0.071775      0.000000
      1.35423      2.34600      0.00000         0.000000     -0.071775      0.000000
      2.58365      3.05575     -0.00000         0.072283      0.186609      0.000000
      5.29585      3.05575      0.00000        -0.072283      0.186609      0.000000
 -----------------------------------------------------------------------------------
    total drift:                               -0.000009     -0.000004     -0.000000


--------------------------------------------------------------------------------------------------------



  FREE ENERGIE OF THE ION-ELECTRON SYSTEM (eV)
  ---------------------------------------------------
  free  energy   TOTEN  =       -67.23230936 eV

  energy  without entropy=      -67.23230923  energy(sigma->0) =      -67.23230929
 
 d Force = 0.5979942E-05[ 0.595E-05, 0.601E-05]  d Energy = 0.2604558E-04-0.201E-04
 d Force = 0.1049027E-02[ 0.105E-02, 0.105E-02]  d Ewald  = 0.9282293E+00-0.927E+00


--------------------------------------------------------------------------------------------------------


    POTLOK:  cpu time    0.1360: real time    0.1360


--------------------------------------------------------------------------------------------------------


 Conjugate gradient step on ions:
 trial-energy change:   -0.000026  1 .order   -0.000028   -0.000027   -0.000028
  (g-gl).g = 0.968E-02      g.g   = 0.958E-02  gl.gl    = 0.363E-03
 g(Force)  = 0.843E-02   g(Stress)= 0.115E-02 ortho     =-0.101E-05
 gamma     =  26.67520
 trial     =   0.00286
 opt step  =   0.01145  (harmonic =   0.01145) maximal distance =0.00007860
 next E    =   -67.232400   (d E  =  -0.00012)


--------------------------------------------------------------------------------------------------------


    WAVPRE:  cpu time    0.0362: real time    0.0389
    FEWALD:  cpu time    0.0006: real time    0.0008
    GENKIN:  cpu time    0.1488: real time    0.1488
    ORTHCH:  cpu time    0.3697: real time    0.3698
     LOOP+:  cpu time   37.0772: real time   37.1056
