<?xml version="1.0" encoding="ISO-8859-1"?>
<modeling>
 <generator>
  <i name="program" type="string">vasp </i>
  <i name="version" type="string">5.4.4.18Apr17-6-g9f103f2a35  </i>
  <i name="subversion" type="string">(build Mar 30 2023 15:39:25) complex            parallel </i>
  <i name="platform" type="string">LinuxIFC </i>
  <i name="date" type="string">2023 05 26 </i>
  <i name="time" type="string">16:17:17 </i>
 </generator>
 <incar>
  <i type="string" name="SYSTEM"> BC3</i>
  <i type="int" name="ISTART">     0</i>
  <i type="string" name="PREC">accurate</i>
  <i type="string" name="ALGO">  Normal</i>
  <i type="int" name="ICHARG">     2</i>
  <i type="int" name="IBRION">     2</i>
  <i name="EDIFF">      0.00000100</i>
  <i name="EDIFFG">     -0.00100000</i>
  <i type="int" name="NSW">   128</i>
  <i type="int" name="ISIF">     3</i>
  <i name="ENCUT">    450.00000000</i>
  <i type="int" name="ISMEAR">     0</i>
  <i name="SIGMA">      0.10000000</i>
  <v type="int" name="KPOINT_BSE">    -1     0     0     0</v>
 </incar>
 <structure name="primitive_cell" >
  <crystal>
   <varray name="basis" >
    <v>       5.17400000       0.00000000       0.00000000 </v>
    <v>       2.58700000       4.48100000       0.00000000 </v>
    <v>       0.00000000       0.00000000      20.00000000 </v>
   </varray>
   <i name="volume">    463.69388000 </i>
   <varray name="rec_basis" >
    <v>       0.19327406      -0.11158224       0.00000000 </v>
    <v>       0.00000000       0.22316447       0.00000000 </v>
    <v>       0.00000000       0.00000000       0.05000000 </v>
   </varray>
  </crystal>
  <varray name="positions" >
   <v>       0.17457326       0.17462620       0.00000000 </v>
   <v>       0.00000000       0.00000000       0.00000000 </v>
   <v>      -0.47622729       0.00000000       0.00000000 </v>
   <v>      -0.00005294      -0.47612140       0.00000000 </v>
   <v>      -0.31744862       0.15866994       0.00000000 </v>
   <v>      -0.31750156      -0.31745146       0.00000000 </v>
   <v>       0.15872573      -0.31745146       0.00000000 </v>
   <v>      -0.49207481      -0.49207766       0.00000000 </v>
  </varray>
 </structure>
 <varray name="primitive_index" >
  <v type="int" >        1 </v>
  <v type="int" >        3 </v>
  <v type="int" >        4 </v>
  <v type="int" >        6 </v>
  <v type="int" >        5 </v>
  <v type="int" >        8 </v>
  <v type="int" >        7 </v>
  <v type="int" >        2 </v>
 </varray>
 <kpoints>
  <generation param="Gamma">
   <v type="int" name="divisions">      12       12        1 </v>
   <v name="usershift">      0.00000000       0.00000000       0.00000000 </v>
   <v name="genvec1">      0.08333333       0.00000000       0.00000000 </v>
   <v name="genvec2">      0.00000000       0.08333333       0.00000000 </v>
   <v name="genvec3">      0.00000000       0.00000000       1.00000000 </v>
   <v name="shift">      0.00000000       0.00000000       0.00000000 </v>
  </generation>
  <varray name="kpointlist" >
   <v>       0.00000000       0.00000000       0.00000000 </v>
   <v>       0.08333333       0.00000000       0.00000000 </v>
   <v>       0.16666667      -0.00000000       0.00000000 </v>
   <v>       0.25000000      -0.00000000       0.00000000 </v>
   <v>       0.33333333       0.00000000       0.00000000 </v>
   <v>       0.41666667       0.00000000       0.00000000 </v>
   <v>       0.50000000      -0.00000000       0.00000000 </v>
   <v>       0.00000000       0.08333333       0.00000000 </v>
   <v>       0.16666667       0.08333333       0.00000000 </v>
   <v>       0.25000000       0.08333333       0.00000000 </v>
   <v>       0.33333333       0.08333333       0.00000000 </v>
   <v>       0.41666667       0.08333333       0.00000000 </v>
   <v>       0.50000000       0.08333333       0.00000000 </v>
   <v>      -0.41666667       0.08333333       0.00000000 </v>
   <v>      -0.33333333       0.08333333       0.00000000 </v>
   <v>      -0.25000000       0.08333333       0.00000000 </v>
   <v>      -0.16666667       0.08333333       0.00000000 </v>
   <v>      -0.08333333       0.08333333       0.00000000 </v>
   <v>       0.00000000       0.16666667       0.00000000 </v>
   <v>       0.33333333       0.16666667       0.00000000 </v>
   <v>       0.41666667       0.16666667       0.00000000 </v>
   <v>       0.50000000       0.16666667       0.00000000 </v>
   <v>      -0.41666667       0.16666667       0.00000000 </v>
   <v>      -0.33333333       0.16666667       0.00000000 </v>
   <v>      -0.25000000       0.16666667       0.00000000 </v>
   <v>      -0.16666667       0.16666667       0.00000000 </v>
   <v>      -0.08333333       0.16666667       0.00000000 </v>
   <v>       0.00000000       0.25000000       0.00000000 </v>
   <v>       0.50000000       0.25000000       0.00000000 </v>
   <v>      -0.41666667       0.25000000       0.00000000 </v>
   <v>      -0.33333333       0.25000000       0.00000000 </v>
   <v>      -0.25000000       0.25000000       0.00000000 </v>
   <v>      -0.16666667       0.25000000       0.00000000 </v>
   <v>      -0.08333333       0.25000000       0.00000000 </v>
   <v>       0.00000000       0.33333333       0.00000000 </v>
   <v>      -0.33333333       0.33333333       0.00000000 </v>
   <v>      -0.25000000       0.33333333       0.00000000 </v>
   <v>      -0.16666667       0.33333333       0.00000000 </v>
   <v>      -0.08333333       0.33333333       0.00000000 </v>
   <v>       0.00000000       0.41666667       0.00000000 </v>
   <v>      -0.16666667       0.41666667       0.00000000 </v>
   <v>      -0.08333333       0.41666667       0.00000000 </v>
   <v>       0.00000000       0.50000000       0.00000000 </v>
  </varray>
  <varray name="weights" >
   <v>       0.00694444 </v>
   <v>       0.02777778 </v>
   <v>       0.02777778 </v>
   <v>       0.02777778 </v>
   <v>       0.02777778 </v>
   <v>       0.02777778 </v>
   <v>       0.01388889 </v>
   <v>       0.01388889 </v>
   <v>       0.01388889 </v>
   <v>       0.02777778 </v>
   <v>       0.02777778 </v>
   <v>       0.02777778 </v>
   <v>       0.02777778 </v>
   <v>       0.02777778 </v>
   <v>       0.02777778 </v>
   <v>       0.02777778 </v>
   <v>       0.02777778 </v>
   <v>       0.02777778 </v>
   <v>       0.01388889 </v>
   <v>       0.01388889 </v>
   <v>       0.02777778 </v>
   <v>       0.02777778 </v>
   <v>       0.02777778 </v>
   <v>       0.02777778 </v>
   <v>       0.02777778 </v>
   <v>       0.02777778 </v>
   <v>       0.02777778 </v>
   <v>       0.01388889 </v>
   <v>       0.01388889 </v>
   <v>       0.02777778 </v>
   <v>       0.02777778 </v>
   <v>       0.02777778 </v>
   <v>       0.02777778 </v>
   <v>       0.02777778 </v>
   <v>       0.01388889 </v>
   <v>       0.01388889 </v>
   <v>       0.02777778 </v>
   <v>       0.02777778 </v>
   <v>       0.02777778 </v>
   <v>       0.01388889 </v>
   <v>       0.01388889 </v>
   <v>       0.02777778 </v>
   <v>       0.00694444 </v>
  </varray>
 </kpoints>
 <parameters>
  <separator name="general" >
   <i type="string" name="SYSTEM">BC3</i>
   <i type="logical" name="LCOMPAT"> F  </i>
  </separator>
  <separator name="electronic" >
   <i type="string" name="PREC">accura</i>
   <i name="ENMAX">    450.00000000</i>
   <i name="ENAUG">    644.87300000</i>
   <i name="EDIFF">      0.00000100</i>
   <i type="int" name="IALGO">    38</i>
   <i type="int" name="IWAVPR">    11</i>
   <i type="int" name="NBANDS">    24</i>
   <i name="NELECT">     30.00000000</i>
   <i type="int" name="TURBO">     0</i>
   <i type="int" name="IRESTART">     0</i>
   <i type="int" name="NREBOOT">     0</i>
   <i type="int" name="NMIN">     0</i>
   <i name="EREF">      0.00000000</i>
   <separator name="electronic smearing" >
    <i type="int" name="ISMEAR">     0</i>
    <i name="SIGMA">      0.10000000</i>
    <i name="KSPACING">      0.50000000</i>
    <i type="logical" name="KGAMMA"> T  </i>
   </separator>
   <separator name="electronic projectors" >
    <i type="logical" name="LREAL"> F  </i>
    <v name="ROPT">      0.00000000      0.00000000</v>
    <i type="int" name="LMAXPAW">  -100</i>
    <i type="int" name="LMAXMIX">     2</i>
    <i type="logical" name="NLSPLINE"> F  </i>
   </separator>
   <separator name="electronic startup" >
    <i type="int" name="ISTART">     0</i>
    <i type="int" name="ICHARG">     2</i>
    <i type="int" name="INIWAV">     1</i>
   </separator>
   <separator name="electronic spin" >
    <i type="int" name="ISPIN">     1</i>
    <i type="logical" name="LNONCOLLINEAR"> F  </i>
    <v name="MAGMOM">      1.00000000      1.00000000      1.00000000      1.00000000      1.00000000      1.00000000      1.00000000      1.00000000</v>
    <i name="NUPDOWN">     -1.00000000</i>
    <i type="logical" name="LSORBIT"> F  </i>
    <v name="SAXIS">      0.00000000      0.00000000      1.00000000</v>
    <i type="logical" name="LSPIRAL"> F  </i>
    <v name="QSPIRAL">      0.00000000      0.00000000      0.00000000</v>
    <i type="logical" name="LZEROZ"> F  </i>
   </separator>
   <separator name="electronic exchange-correlation" >
    <i type="logical" name="LASPH"> F  </i>
    <i type="logical" name="LMETAGGA"> F  </i>
   </separator>
   <separator name="electronic convergence" >
    <i type="int" name="NELM">    60</i>
    <i type="int" name="NELMDL">    -5</i>
    <i type="int" name="NELMIN">     2</i>
    <i name="ENINI">    450.00000000</i>
    <separator name="electronic convergence detail" >
     <i type="logical" name="LDIAG"> T  </i>
     <i type="logical" name="LSUBROT"> F  </i>
     <i name="WEIMIN">      0.00100000</i>
     <i name="EBREAK">      0.00000001</i>
     <i name="DEPER">      0.30000000</i>
     <i type="int" name="NRMM">     4</i>
     <i name="TIME">      0.40000000</i>
    </separator>
   </separator>
   <separator name="electronic mixer" >
    <i name="AMIX">      0.40000000</i>
    <i name="BMIX">      1.00000000</i>
    <i name="AMIN">      0.10000000</i>
    <i name="AMIX_MAG">      1.60000000</i>
    <i name="BMIX_MAG">      1.00000000</i>
    <separator name="electronic mixer details" >
     <i type="int" name="IMIX">     4</i>
     <i type="logical" name="MIXFIRST"> F  </i>
     <i type="int" name="MAXMIX">   -45</i>
     <i name="WC">    100.00000000</i>
     <i type="int" name="INIMIX">     1</i>
     <i type="int" name="MIXPRE">     1</i>
     <i type="int" name="MREMOVE">     5</i>
    </separator>
   </separator>
   <separator name="electronic dipolcorrection" >
    <i type="logical" name="LDIPOL"> F  </i>
    <i type="logical" name="LMONO"> F  </i>
    <i type="int" name="IDIPOL">     0</i>
    <i name="EPSILON">      1.00000000</i>
    <v name="DIPOL">   -100.00000000   -100.00000000   -100.00000000</v>
    <i name="EFIELD">      0.00000000</i>
   </separator>
  </separator>
  <separator name="grids" >
   <i type="int" name="NGX">    36</i>
   <i type="int" name="NGY">    36</i>
   <i type="int" name="NGZ">   140</i>
   <i type="int" name="NGXF">    72</i>
   <i type="int" name="NGYF">    72</i>
   <i type="int" name="NGZF">   280</i>
   <i type="logical" name="ADDGRID"> F  </i>
  </separator>
  <separator name="ionic" >
   <i type="int" name="NSW">   128</i>
   <i type="int" name="IBRION">     2</i>
   <i type="int" name="MDALGO">     0</i>
   <i type="int" name="ISIF">     3</i>
   <i name="PSTRESS">      0.00000000</i>
   <i name="EDIFFG">     -0.00100000</i>
   <i type="int" name="NFREE">     1</i>
   <i name="POTIM">      0.50000000</i>
   <i name="SMASS">     -3.00000000</i>
   <i name="SCALEE">      1.00000000</i>
  </separator>
  <separator name="ionic md" >
   <i name="TEBEG">      0.00010000</i>
   <i name="TEEND">      0.00010000</i>
   <i type="int" name="NBLOCK">     1</i>
   <i type="int" name="KBLOCK">   128</i>
   <i type="int" name="NPACO">   256</i>
   <i name="APACO">     16.00000000</i>
  </separator>
  <separator name="symmetry" >
   <i type="int" name="ISYM">     2</i>
   <i name="SYMPREC">      0.00001000</i>
  </separator>
  <separator name="dos" >
   <i type="int" name="LORBIT">     0</i>
   <v name="RWIGS">     -1.00000000     -1.00000000</v>
   <i type="int" name="NEDOS">   301</i>
   <i name="EMIN">     10.00000000</i>
   <i name="EMAX">    -10.00000000</i>
   <i name="EFERMI">      0.00000000</i>
  </separator>
  <separator name="writing" >
   <i type="int" name="NWRITE">     2</i>
   <i type="logical" name="LWAVE"> T  </i>
   <i type="logical" name="LDOWNSAMPLE"> F  </i>
   <i type="logical" name="LCHARG"> T  </i>
   <i type="logical" name="LPARD"> F  </i>
   <i type="logical" name="LVTOT"> F  </i>
   <i type="logical" name="LVHAR"> F  </i>
   <i type="logical" name="LELF"> F  </i>
   <i type="logical" name="LOPTICS"> F  </i>
   <v name="STM">      0.00000000      0.00000000      0.00000000      0.00000000      0.00000000      0.00000000      0.00000000</v>
  </separator>
  <separator name="performance" >
   <i type="int" name="NPAR">    12</i>
   <i type="int" name="NSIM">     4</i>
   <i type="int" name="NBLK">    -1</i>
   <i type="logical" name="LPLANE"> T  </i>
   <i type="logical" name="LSCALAPACK"> T  </i>
   <i type="logical" name="LSCAAWARE"> F  </i>
   <i type="logical" name="LSCALU"> F  </i>
   <i type="logical" name="LASYNC"> F  </i>
   <i type="logical" name="LORBITALREAL"> F  </i>
  </separator>
  <separator name="miscellaneous" >
   <i type="int" name="IDIOT">     3</i>
   <i type="int" name="ISPECIAL">     0</i>
   <i type="logical" name="LMUSIC"> F  </i>
   <v name="POMASS">     10.81100000     12.01100000</v>
   <v name="DARWINR">      0.00000000      0.00000000</v>
   <v name="DARWINV">      1.00000000      1.00000000</v>
   <i type="logical" name="LCORR"> T  </i>
  </separator>
  <i type="logical" name="GGA_COMPAT"> T  </i>
  <i type="logical" name="LBERRY"> F  </i>
  <i type="int" name="ICORELEVEL">     0</i>
  <i type="logical" name="LDAU"> F  </i>
  <i type="int" name="I_CONSTRAINED_M">     0</i>
  <separator name="electronic exchange-correlation" >
   <i type="string" name="GGA">--</i>
   <i type="int" name="VOSKOWN">     0</i>
   <i type="logical" name="LHFCALC"> F  </i>
   <i type="string" name="PRECFOCK"></i>
   <i type="logical" name="LSYMGRAD"> F  </i>
   <i type="logical" name="LHFONE"> F  </i>
   <i type="logical" name="LRHFCALC"> F  </i>
   <i type="logical" name="LTHOMAS"> F  </i>
   <i type="logical" name="LMODELHF"> F  </i>
   <i name="ENCUT4O">     -1.00000000</i>
   <i type="int" name="EXXOEP">     0</i>
   <i type="int" name="FOURORBIT">     0</i>
   <i name="AEXX">      0.00000000</i>
   <i name="HFALPHA">      0.00000000</i>
   <i name="MCALPHA">      0.00000000</i>
   <i name="ALDAX">      1.00000000</i>
   <i name="AGGAX">      1.00000000</i>
   <i name="ALDAC">      1.00000000</i>
   <i name="AGGAC">      1.00000000</i>
   <i type="int" name="NKREDX">     1</i>
   <i type="int" name="NKREDY">     1</i>
   <i type="int" name="NKREDZ">     1</i>
   <i type="logical" name="SHIFTRED"> F  </i>
   <i type="logical" name="ODDONLY"> F  </i>
   <i type="logical" name="EVENONLY"> F  </i>
   <i type="int" name="LMAXFOCK">     0</i>
   <i type="int" name="NMAXFOCKAE">     0</i>
   <i type="logical" name="LFOCKAEDFT"> F  </i>
   <i name="HFSCREEN">      0.00000000</i>
   <i name="HFSCREENC">      0.00000000</i>
   <i type="int" name="NBANDSGWLOW">     0</i>
  </separator>
  <separator name="vdW DFT" >
   <i type="logical" name="LUSE_VDW"> F  </i>
   <i name="Zab_VDW">     -0.84910000</i>
   <i name="PARAM1">      0.12340000</i>
   <i name="PARAM2">      1.00000000</i>
   <i name="PARAM3">      0.00000000</i>
  </separator>
  <separator name="model GW" >
   <i type="int" name="MODEL_GW">     0</i>
   <i name="MODEL_EPS0">     34.77704100</i>
   <i name="MODEL_ALPHA">      1.00000000</i>
  </separator>
  <separator name="linear response parameters" >
   <i type="logical" name="LEPSILON"> F  </i>
   <i type="logical" name="LRPA"> F  </i>
   <i type="logical" name="LNABLA"> F  </i>
   <i type="logical" name="LVEL"> F  </i>
   <i type="int" name="KINTER">     0</i>
   <i name="CSHIFT">      0.10000000</i>
   <i name="OMEGAMAX">     -1.00000000</i>
   <i name="DEG_THRESHOLD">      0.00200000</i>
   <i name="RTIME">     -0.10000000</i>
   <i name="WPLASMAI">      0.00000000</i>
   <v name="DFIELD">      0.00000000      0.00000000      0.00000000</v>
   <v name="WPLASMA">      0.00000000      0.00000000      0.00000000      0.00000000      0.00000000      0.00000000      0.00000000      0.00000000      0.00000000</v>
  </separator>
  <separator name="orbital magnetization" >
   <i type="logical" name="NUCIND"> F  </i>
   <v name="MAGPOS">      0.00000000      0.00000000      0.00000000</v>
   <i type="logical" name="LNICSALL"> T  </i>
   <i type="logical" name="ORBITALMAG"> F  </i>
   <i type="logical" name="LMAGBLOCH"> F  </i>
   <i type="logical" name="LCHIMAG"> F  </i>
   <i type="logical" name="LGAUGE"> T  </i>
   <i type="int" name="MAGATOM">     0</i>
   <v name="MAGDIPOL">      0.00000000      0.00000000      0.00000000</v>
   <v name="AVECCONST">      0.00000000      0.00000000      0.00000000</v>
  </separator>
  <separator name="response functions" >
   <i type="logical" name="LADDER"> F  </i>
   <i type="logical" name="LRPAFORCE"> F  </i>
   <i type="logical" name="LFXC"> F  </i>
   <i type="logical" name="LHARTREE"> T  </i>
   <i type="int" name="IBSE">     0</i>
   <v type="int" name="KPOINT">    -1     0     0     0</v>
   <i type="logical" name="LTCTE"> F  </i>
   <i type="logical" name="LTETE"> F  </i>
   <i type="logical" name="LTRIPLET"> F  </i>
   <i type="logical" name="LFXCEPS"> F  </i>
   <i type="logical" name="LFXHEG"> F  </i>
   <i type="int" name="NATURALO">     2</i>
   <i type="logical" name="L2ORDER"> F  </i>
   <i type="logical" name="LMP2LT"> F  </i>
   <i type="logical" name="LUSEW"> F  </i>
   <i name="ENCUTGW">     -2.00000000</i>
   <i name="ENCUTGWSOFT">     -2.00000000</i>
   <i name="ENCUTLF">     -1.00000000</i>
   <i type="int" name="LMAXMP2">    -1</i>
   <i name="SCISSOR">      0.00000000</i>
   <i type="int" name="NOMEGA">     0</i>
   <i type="int" name="NOMEGAR">     0</i>
   <i type="int" name="NBANDSGW">    -1</i>
   <i type="int" name="NBANDSO">    -1</i>
   <i type="int" name="NBANDSV">    -1</i>
   <i type="int" name="NELM">     1</i>
   <i type="int" name="NELMHF">     1</i>
   <i type="int" name="DIM">     3</i>
   <i type="int" name="ANTIRES">     0</i>
   <i name="OMEGAMAX">    -30.00000000</i>
   <i name="OMEGAMIN">    -30.00000000</i>
   <i name="OMEGATL">   -200.00000000</i>
   <i type="int" name="OMEGAGRID">   140</i>
   <i name="CSHIFT">     -0.10000000</i>
   <i type="logical" name="SELFENERGY"> F  </i>
   <i type="logical" name="LSPECTRAL"> F  </i>
   <i type="logical" name="LSPECTRALGW"> F  </i>
   <i type="logical" name="LSINGLES"> F  </i>
   <i type="logical" name="LFERMIGW"> F  </i>
   <i type="logical" name="ODDONLYGW"> F  </i>
   <i type="logical" name="EVENONLYGW"> F  </i>
   <i type="int" name="NKREDLFX">     1</i>
   <i type="int" name="NKREDLFY">     1</i>
   <i type="int" name="NKREDLFZ">     1</i>
   <i type="int" name="MAXMEM">  2800</i>
   <i type="int" name="TELESCOPE">     0</i>
   <i type="int" name="TAUPAR">     1</i>
   <i type="int" name="OMEGAPAR">    -1</i>
   <i name="LAMBDA">      1.00000000</i>
  </separator>
  <separator name="External order field" >
   <i name="OFIELD_KAPPA">      0.00000000</i>
   <v name="OFIELD_K">      0.00000000      0.00000000      0.00000000</v>
   <i name="OFIELD_Q6_NEAR">      0.00000000</i>
   <i name="OFIELD_Q6_FAR">      0.00000000</i>
   <i name="OFIELD_A">      0.00000000</i>
  </separator>
 </parameters>
 <atominfo>
  <atoms>       8 </atoms>
  <types>       2 </types>
  <array name="atoms" >
   <dimension dim="1">ion</dimension>
   <field type="string">element</field>
   <field type="int">atomtype</field>
   <set>
    <rc><c>B </c><c>   1</c></rc>
    <rc><c>B </c><c>   1</c></rc>
    <rc><c>C </c><c>   2</c></rc>
    <rc><c>C </c><c>   2</c></rc>
    <rc><c>C </c><c>   2</c></rc>
    <rc><c>C </c><c>   2</c></rc>
    <rc><c>C </c><c>   2</c></rc>
    <rc><c>C </c><c>   2</c></rc>
   </set>
  </array>
  <array name="atomtypes" >
   <dimension dim="1">type</dimension>
   <field type="int">atomspertype</field>
   <field type="string">element</field>
   <field>mass</field>
   <field>valence</field>
   <field type="string">pseudopotential</field>
   <set>
    <rc><c>   2</c><c>B </c><c>     10.81100000</c><c>      3.00000000</c><c>  PAW_PBE B 06Sep2000                   </c></rc>
    <rc><c>   6</c><c>C </c><c>     12.01100000</c><c>      4.00000000</c><c>  PAW_PBE C 08Apr2002                   </c></rc>
   </set>
  </array>
 </atominfo>
 <structure name="initialpos" >
  <crystal>
   <varray name="basis" >
    <v>       5.17400000       0.00000000       0.00000000 </v>
    <v>       2.58700000       4.48100000       0.00000000 </v>
    <v>       0.00000000       0.00000000      20.00000000 </v>
   </varray>
   <i name="volume">    463.69388000 </i>
   <varray name="rec_basis" >
    <v>       0.19327406      -0.11158224       0.00000000 </v>
    <v>       0.00000000       0.22316447       0.00000000 </v>
    <v>       0.00000000       0.00000000       0.05000000 </v>
   </varray>
  </crystal>
  <varray name="positions" >
   <v>       0.17457326       0.17462620       0.00000000 </v>
   <v>       0.50792519       0.50792234       0.00000000 </v>
   <v>       0.00000000       0.00000000       0.00000000 </v>
   <v>       0.52377271       0.00000000       0.00000000 </v>
   <v>       0.68255138       0.15866994       0.00000000 </v>
   <v>       0.99994706       0.52387860       0.00000000 </v>
   <v>       0.15872573       0.68254854       0.00000000 </v>
   <v>       0.68249844       0.68254854       0.00000000 </v>
  </varray>
 </structure>
 <calculation>
  <scstep>
   <time name="dav">    6.84    6.84</time>
   <time name="total">    6.99    6.99</time>
   <energy>
    <i name="alphaZ">     10.93933817 </i>
    <i name="ewald">   4060.05404224 </i>
    <i name="hartreedc">  -4796.78910906 </i>
    <i name="XCdc">     91.14028263 </i>
    <i name="pawpsdc">    738.13200929 </i>
    <i name="pawaedc">   -739.83780425 </i>
    <i name="eentropy">     -0.02384867 </i>
    <i name="bandstr">   -180.22212375 </i>
    <i name="atom">   1025.20389953 </i>
    <i name="e_fr_energy">    208.59668613 </i>
    <i name="e_wo_entrp">    208.62053480 </i>
    <i name="e_0_energy">    208.60861046 </i>
   </energy>
  </scstep>
  <scstep>
   <time name="dav">    9.44    9.45</time>
   <time name="total">    9.45    9.45</time>
   <energy>
    <i name="e_fr_energy">    -39.40342657 </i>
    <i name="e_wo_entrp">    -39.39784375 </i>
    <i name="e_0_energy">    -39.40063516 </i>
   </energy>
  </scstep>
  <scstep>
   <time name="dav">    7.86    7.86</time>
   <time name="total">    7.86    7.86</time>
   <energy>
    <i name="e_fr_energy">    -72.59638481 </i>
    <i name="e_wo_entrp">    -72.59638481 </i>
    <i name="e_0_energy">    -72.59638481 </i>
   </energy>
  </scstep>
  <scstep>
   <time name="dav">    8.53    8.53</time>
   <time name="total">    8.53    8.53</time>
   <energy>
    <i name="e_fr_energy">    -73.41566520 </i>
    <i name="e_wo_entrp">    -73.41566520 </i>
    <i name="e_0_energy">    -73.41566520 </i>
   </energy>
  </scstep>
  <scstep>
   <time name="dav">    7.91    7.91</time>
   <time name="total">    8.49    8.49</time>
   <energy>
    <i name="e_fr_energy">    -73.43731504 </i>
    <i name="e_wo_entrp">    -73.43731504 </i>
    <i name="e_0_energy">    -73.43731504 </i>
   </energy>
  </scstep>
  <scstep>
   <time name="dav">    8.57    8.57</time>
   <time name="total">    9.28    9.28</time>
   <energy>
    <i name="e_fr_energy">    -68.97830614 </i>
    <i name="e_wo_entrp">    -68.97830614 </i>
    <i name="e_0_energy">    -68.97830614 </i>
   </energy>
  </scstep>
  <scstep>
   <time name="dav">    8.70    8.70</time>
   <time name="total">    9.41    9.41</time>
   <energy>
    <i name="e_fr_energy">    -67.33272224 </i>
    <i name="e_wo_entrp">    -67.33272224 </i>
    <i name="e_0_energy">    -67.33272224 </i>
   </energy>
  </scstep>
  <scstep>
   <time name="dav">    9.05    9.05</time>
   <time name="total">    9.76    9.76</time>
   <energy>
    <i name="e_fr_energy">    -67.25260053 </i>
    <i name="e_wo_entrp">    -67.25260052 </i>
    <i name="e_0_energy">    -67.25260053 </i>
   </energy>
  </scstep>
  <scstep>
   <time name="dav">    7.63    7.63</time>
   <time name="total">    8.34    8.34</time>
   <energy>
    <i name="e_fr_energy">    -67.23476154 </i>
    <i name="e_wo_entrp">    -67.23476152 </i>
    <i name="e_0_energy">    -67.23476153 </i>
   </energy>
  </scstep>
  <scstep>
   <time name="dav">    7.83    7.83</time>
   <time name="total">    8.55    8.55</time>
   <energy>
    <i name="e_fr_energy">    -67.22331786 </i>
    <i name="e_wo_entrp">    -67.22331783 </i>
    <i name="e_0_energy">    -67.22331785 </i>
   </energy>
  </scstep>
  <scstep>
   <time name="dav">    7.21    7.21</time>
   <time name="total">    7.94    7.94</time>
   <energy>
    <i name="e_fr_energy">    -67.22264209 </i>
    <i name="e_wo_entrp">    -67.22264204 </i>
    <i name="e_0_energy">    -67.22264207 </i>
   </energy>
  </scstep>
  <scstep>
   <time name="dav">    7.07    7.07</time>
   <time name="total">    7.79    7.79</time>
   <energy>
    <i name="e_fr_energy">    -67.22286291 </i>
    <i name="e_wo_entrp">    -67.22286285 </i>
    <i name="e_0_energy">    -67.22286288 </i>
   </energy>
  </scstep>
  <scstep>
   <time name="dav">    6.64    6.64</time>
   <time name="total">    7.36    7.36</time>
   <energy>
    <i name="e_fr_energy">    -67.22710790 </i>
    <i name="e_wo_entrp">    -67.22710782 </i>
    <i name="e_0_energy">    -67.22710786 </i>
   </energy>
  </scstep>
  <scstep>
   <time name="dav">    7.22    7.22</time>
   <time name="total">    7.94    7.94</time>
   <energy>
    <i name="e_fr_energy">    -67.22967789 </i>
    <i name="e_wo_entrp">    -67.22967782 </i>
    <i name="e_0_energy">    -67.22967786 </i>
   </energy>
  </scstep>
  <scstep>
   <time name="dav">    6.94    6.94</time>
   <time name="total">    7.66    7.66</time>
   <energy>
    <i name="e_fr_energy">    -67.23019176 </i>
    <i name="e_wo_entrp">    -67.23019169 </i>
    <i name="e_0_energy">    -67.23019172 </i>
   </energy>
  </scstep>
  <scstep>
   <time name="dav">    6.65    6.65</time>
   <time name="total">    7.37    7.38</time>
   <energy>
    <i name="e_fr_energy">    -67.23052444 </i>
    <i name="e_wo_entrp">    -67.23052438 </i>
    <i name="e_0_energy">    -67.23052441 </i>
   </energy>
  </scstep>
  <scstep>
   <time name="dav">    7.40    7.40</time>
   <time name="total">    8.12    8.12</time>
   <energy>
    <i name="e_fr_energy">    -67.23057590 </i>
    <i name="e_wo_entrp">    -67.23057583 </i>
    <i name="e_0_energy">    -67.23057586 </i>
   </energy>
  </scstep>
  <scstep>
   <time name="dav">    6.93    6.93</time>
   <time name="total">    7.65    7.65</time>
   <energy>
    <i name="e_fr_energy">    -67.23061366 </i>
    <i name="e_wo_entrp">    -67.23061359 </i>
    <i name="e_0_energy">    -67.23061362 </i>
   </energy>
  </scstep>
  <scstep>
   <time name="dav">    6.08    6.08</time>
   <time name="total">    6.80    6.80</time>
   <energy>
    <i name="e_fr_energy">    -67.23061970 </i>
    <i name="e_wo_entrp">    -67.23061963 </i>
    <i name="e_0_energy">    -67.23061966 </i>
   </energy>
  </scstep>
  <scstep>
   <time name="dav">    5.47    5.49</time>
   <time name="total">    6.20    6.22</time>
   <energy>
    <i name="e_fr_energy">    -67.23063252 </i>
    <i name="e_wo_entrp">    -67.23063245 </i>
    <i name="e_0_energy">    -67.23063248 </i>
   </energy>
  </scstep>
  <scstep>
   <time name="dav">    5.84    5.84</time>
   <time name="total">    6.55    6.56</time>
   <energy>
    <i name="e_fr_energy">    -67.23063452 </i>
    <i name="e_wo_entrp">    -67.23063445 </i>
    <i name="e_0_energy">    -67.23063448 </i>
   </energy>
  </scstep>
  <scstep>
   <time name="dav">    5.52    5.52</time>
   <time name="total">    5.65    5.65</time>
   <energy>
    <i name="alphaZ">     10.93933817 </i>
    <i name="ewald">   4060.05404224 </i>
    <i name="hartreedc">  -4938.55780291 </i>
    <i name="XCdc">     96.01879661 </i>
    <i name="pawpsdc">   2893.56536640 </i>
    <i name="pawaedc">  -2896.09237600 </i>
    <i name="eentropy">     -0.00000007 </i>
    <i name="bandstr">   -318.36189926 </i>
    <i name="atom">   1025.20389953 </i>
    <i name="e_fr_energy">    -67.23063528 </i>
    <i name="e_wo_entrp">    -67.23063522 </i>
    <i name="e_0_energy">    -67.23063525 </i>
   </energy>
  </scstep>
  <structure>
   <crystal>
    <varray name="basis" >
     <v>       5.17400000       0.00000000       0.00000000 </v>
     <v>       2.58700000       4.48100000       0.00000000 </v>
     <v>       0.00000000       0.00000000      20.00000000 </v>
    </varray>
    <i name="volume">    463.69388000 </i>
    <varray name="rec_basis" >
     <v>       0.19327406      -0.11158224       0.00000000 </v>
     <v>       0.00000000       0.22316447       0.00000000 </v>
     <v>       0.00000000       0.00000000       0.05000000 </v>
    </varray>
   </crystal>
   <varray name="positions" >
    <v>       0.17457326       0.17462620       0.00000000 </v>
    <v>       0.50792519       0.50792234       0.00000000 </v>
    <v>       0.00000000       0.00000000       0.00000000 </v>
    <v>       0.52377271       0.00000000       0.00000000 </v>
    <v>       0.68255138       0.15866994       0.00000000 </v>
    <v>       0.99994706       0.52387860       0.00000000 </v>
    <v>       0.15872573       0.68254854       0.00000000 </v>
    <v>       0.68249844       0.68254854       0.00000000 </v>
   </varray>
  </structure>
  <varray name="forces" >
   <v>      -0.00000000       0.00448289      -0.00000000 </v>
   <v>      -0.00000000      -0.00448289      -0.00000000 </v>
   <v>      -0.01821629      -0.01143951      -0.00000000 </v>
   <v>       0.01821629      -0.01143951      -0.00000000 </v>
   <v>      -0.00000000      -0.00894973      -0.00000000 </v>
   <v>      -0.00000000       0.00894973       0.00000000 </v>
   <v>      -0.01821629       0.01143951      -0.00000000 </v>
   <v>       0.01821629       0.01143951       0.00000000 </v>
  </varray>
  <varray name="stress" >
   <v>      -0.27518842       0.00000000       0.00000000 </v>
   <v>      -0.00000000      -0.32636908       0.00000000 </v>
   <v>       0.00000000       0.00000000      -0.61262373 </v>
  </varray>
  <energy>
   <i name="e_fr_energy">    -67.23063528 </i>
   <i name="e_wo_entrp">    -67.23063525 </i>
   <i name="e_0_energy">     -0.00000007 </i>
  </energy>
  <time name="totalsc">  182.55  182.82</time>
 </calculation>
 <calculation>
  <scstep>
   <time name="dav">    7.08    7.09</time>
   <time name="total">    7.81    7.82</time>
   <energy>
    <i name="alphaZ">     10.96255330 </i>
    <i name="ewald">   4059.27480449 </i>
    <i name="hartreedc">  -4938.72218940 </i>
    <i name="XCdc">     96.08803974 </i>
    <i name="pawpsdc">   2893.56777066 </i>
    <i name="pawaedc">  -2896.09477729 </i>
    <i name="eentropy">     -0.00000010 </i>
    <i name="bandstr">   -317.51095925 </i>
    <i name="atom">   1025.20389953 </i>
    <i name="e_fr_energy">    -67.23085833 </i>
    <i name="e_wo_entrp">    -67.23085823 </i>
    <i name="e_0_energy">    -67.23085828 </i>
   </energy>
  </scstep>
  <scstep>
   <time name="dav">    6.88    6.88</time>
   <time name="total">    7.59    7.60</time>
   <energy>
    <i name="e_fr_energy">    -67.23073164 </i>
    <i name="e_wo_entrp">    -67.23073156 </i>
    <i name="e_0_energy">    -67.23073160 </i>
   </energy>
  </scstep>
  <scstep>
   <time name="dav">    7.07    7.08</time>
   <time name="total">    7.79    7.80</time>
   <energy>
    <i name="e_fr_energy">    -67.23064965 </i>
    <i name="e_wo_entrp">    -67.23064958 </i>
    <i name="e_0_energy">    -67.23064961 </i>
   </energy>
  </scstep>
  <scstep>
   <time name="dav">    7.22    7.24</time>
   <time name="total">    7.93    7.95</time>
   <energy>
    <i name="e_fr_energy">    -67.23064793 </i>
    <i name="e_wo_entrp">    -67.23064786 </i>
    <i name="e_0_energy">    -67.23064789 </i>
   </energy>
  </scstep>
  <scstep>
   <time name="dav">    5.96    5.97</time>
   <time name="total">    6.68    6.68</time>
   <energy>
    <i name="e_fr_energy">    -67.23065206 </i>
    <i name="e_wo_entrp">    -67.23065199 </i>
    <i name="e_0_energy">    -67.23065203 </i>
   </energy>
  </scstep>
  <scstep>
   <time name="dav">    6.33    6.34</time>
   <time name="total">    7.04    7.05</time>
   <energy>
    <i name="e_fr_energy">    -67.23065641 </i>
    <i name="e_wo_entrp">    -67.23065634 </i>
    <i name="e_0_energy">    -67.23065637 </i>
   </energy>
  </scstep>
  <scstep>
   <time name="dav">    7.03    7.04</time>
   <time name="total">    7.76    7.77</time>
   <energy>
    <i name="e_fr_energy">    -67.23066595 </i>
    <i name="e_wo_entrp">    -67.23066588 </i>
    <i name="e_0_energy">    -67.23066592 </i>
   </energy>
  </scstep>
  <scstep>
   <time name="dav">    6.26    6.27</time>
   <time name="total">    6.98    6.99</time>
   <energy>
    <i name="e_fr_energy">    -67.23066939 </i>
    <i name="e_wo_entrp">    -67.23066932 </i>
    <i name="e_0_energy">    -67.23066935 </i>
   </energy>
  </scstep>
  <scstep>
   <time name="dav">    5.83    5.84</time>
   <time name="total">    6.55    6.56</time>
   <energy>
    <i name="e_fr_energy">    -67.23067189 </i>
    <i name="e_wo_entrp">    -67.23067182 </i>
    <i name="e_0_energy">    -67.23067185 </i>
   </energy>
  </scstep>
  <scstep>
   <time name="dav">    5.49    5.49</time>
   <time name="total">    6.20    6.21</time>
   <energy>
    <i name="e_fr_energy">    -67.23067365 </i>
    <i name="e_wo_entrp">    -67.23067358 </i>
    <i name="e_0_energy">    -67.23067362 </i>
   </energy>
  </scstep>
  <scstep>
   <time name="dav">    6.05    6.06</time>
   <time name="total">    6.19    6.20</time>
   <energy>
    <i name="alphaZ">     10.96255330 </i>
    <i name="ewald">   4059.27480449 </i>
    <i name="hartreedc">  -4937.87561942 </i>
    <i name="XCdc">     96.05959956 </i>
    <i name="pawpsdc">   2901.55875812 </i>
    <i name="pawaedc">  -2904.08961825 </i>
    <i name="eentropy">     -0.00000007 </i>
    <i name="bandstr">   -318.32505113 </i>
    <i name="atom">   1025.20389953 </i>
    <i name="e_fr_energy">    -67.23067386 </i>
    <i name="e_wo_entrp">    -67.23067379 </i>
    <i name="e_0_energy">    -67.23067383 </i>
   </energy>
  </scstep>
  <structure>
   <crystal>
    <varray name="basis" >
     <v>       5.17151504       0.00000000       0.00000000 </v>
     <v>       2.58575752       4.47844762       0.00000000 </v>
     <v>       0.00000000       0.00000000      19.97861615 </v>
    </varray>
    <i name="volume">    462.71192698 </i>
    <varray name="rec_basis" >
     <v>       0.19336693      -0.11164583       0.00000000 </v>
     <v>       0.00000000       0.22329166       0.00000000 </v>
     <v>       0.00000000       0.00000000       0.05005352 </v>
    </varray>
   </crystal>
   <varray name="positions" >
    <v>       0.17454912       0.17467446      -0.00000000 </v>
    <v>       0.50794932       0.50787408      -0.00000000 </v>
    <v>      -0.00010827      -0.00012316      -0.00000000 </v>
    <v>       0.52400414      -0.00012316      -0.00000000 </v>
    <v>       0.68259956       0.15857359      -0.00000000 </v>
    <v>       0.99989888       0.52397495       0.00000000 </v>
    <v>       0.15849430       0.68267170      -0.00000000 </v>
    <v>       0.68260671       0.68267170       0.00000000 </v>
   </varray>
  </structure>
  <varray name="forces" >
   <v>       0.00000000      -0.01796915       0.00000000 </v>
   <v>       0.00000000       0.01796915      -0.00000000 </v>
   <v>       0.04085769       0.03952774      -0.00000000 </v>
   <v>      -0.04085769       0.03952774      -0.00000000 </v>
   <v>      -0.00000000       0.02806569      -0.00000000 </v>
   <v>       0.00000000      -0.02806569       0.00000000 </v>
   <v>       0.04085769      -0.03952774       0.00000000 </v>
   <v>      -0.04085769      -0.03952774       0.00000000 </v>
  </varray>
  <varray name="stress" >
   <v>       0.67185572      -0.00000000       0.00000000 </v>
   <v>       0.00000000       0.84668953       0.00000000 </v>
   <v>       0.00000000       0.00000000      -0.59713934 </v>
  </varray>
  <energy>
   <i name="e_fr_energy">    -67.23067386 </i>
   <i name="e_wo_entrp">    -67.23067383 </i>
   <i name="e_0_energy">     -0.00000007 </i>
  </energy>
  <time name="totalsc">   85.71   85.87</time>
 </calculation>
 <calculation>
  <scstep>
   <time name="dav">    6.61    6.61</time>
   <time name="total">    7.32    7.33</time>
   <energy>
    <i name="alphaZ">     10.95210566 </i>
    <i name="ewald">   4059.62539134 </i>
    <i name="hartreedc">  -4937.80035711 </i>
    <i name="XCdc">     96.02845114 </i>
    <i name="pawpsdc">   2901.55646920 </i>
    <i name="pawaedc">  -2904.08732630 </i>
    <i name="eentropy">     -0.00000006 </i>
    <i name="bandstr">   -318.70941517 </i>
    <i name="atom">   1025.20389953 </i>
    <i name="e_fr_energy">    -67.23078178 </i>
    <i name="e_wo_entrp">    -67.23078172 </i>
    <i name="e_0_energy">    -67.23078175 </i>
   </energy>
  </scstep>
  <scstep>
   <time name="dav">    6.54    6.55</time>
   <time name="total">    7.25    7.26</time>
   <energy>
    <i name="e_fr_energy">    -67.23075569 </i>
    <i name="e_wo_entrp">    -67.23075563 </i>
    <i name="e_0_energy">    -67.23075566 </i>
   </energy>
  </scstep>
  <scstep>
   <time name="dav">    6.79    6.79</time>
   <time name="total">    7.50    7.51</time>
   <energy>
    <i name="e_fr_energy">    -67.23073888 </i>
    <i name="e_wo_entrp">    -67.23073882 </i>
    <i name="e_0_energy">    -67.23073885 </i>
   </energy>
  </scstep>
  <scstep>
   <time name="dav">    6.59    6.60</time>
   <time name="total">    7.31    7.32</time>
   <energy>
    <i name="e_fr_energy">    -67.23073758 </i>
    <i name="e_wo_entrp">    -67.23073751 </i>
    <i name="e_0_energy">    -67.23073754 </i>
   </energy>
  </scstep>
  <scstep>
   <time name="dav">    5.99    6.00</time>
   <time name="total">    6.13    6.13</time>
   <energy>
    <i name="alphaZ">     10.95210566 </i>
    <i name="ewald">   4059.62539134 </i>
    <i name="hartreedc">  -4938.12913606 </i>
    <i name="XCdc">     96.04076928 </i>
    <i name="pawpsdc">   2897.98117238 </i>
    <i name="pawaedc">  -2900.51030490 </i>
    <i name="eentropy">     -0.00000007 </i>
    <i name="bandstr">   -318.39463397 </i>
    <i name="atom">   1025.20389953 </i>
    <i name="e_fr_energy">    -67.23073682 </i>
    <i name="e_wo_entrp">    -67.23073676 </i>
    <i name="e_0_energy">    -67.23073679 </i>
   </energy>
  </scstep>
  <structure>
   <crystal>
    <varray name="basis" >
     <v>       5.17263247       0.00000000       0.00000000 </v>
     <v>       2.58631623       4.47959536       0.00000000 </v>
     <v>       0.00000000       0.00000000      19.98823192 </v>
    </varray>
    <i name="volume">    463.15332588 </i>
    <varray name="rec_basis" >
     <v>       0.19332516      -0.11161722       0.00000000 </v>
     <v>       0.00000000       0.22323445       0.00000000 </v>
     <v>       0.00000000       0.00000000       0.05002944 </v>
    </varray>
   </crystal>
   <varray name="positions" >
    <v>       0.17455998       0.17465275      -0.00000000 </v>
    <v>       0.50793846       0.50789579      -0.00000000 </v>
    <v>      -0.00005956      -0.00006775      -0.00000000 </v>
    <v>       0.52390002      -0.00006775      -0.00000000 </v>
    <v>       0.68257789       0.15861694      -0.00000000 </v>
    <v>       0.99992056       0.52393160       0.00000000 </v>
    <v>       0.15859842       0.68261628      -0.00000000 </v>
    <v>       0.68255800       0.68261628       0.00000000 </v>
   </varray>
  </structure>
  <varray name="forces" >
   <v>      -0.00000000      -0.00792595      -0.00000000 </v>
   <v>       0.00000000       0.00792595      -0.00000000 </v>
   <v>       0.01415441       0.01643636      -0.00000000 </v>
   <v>      -0.01415441       0.01643636      -0.00000000 </v>
   <v>      -0.00000000       0.01123746      -0.00000000 </v>
   <v>       0.00000000      -0.01123746       0.00000000 </v>
   <v>       0.01415441      -0.01643636      -0.00000000 </v>
   <v>      -0.01415441      -0.01643636      -0.00000000 </v>
  </varray>
  <varray name="stress" >
   <v>       0.24467493       0.00000000       0.00000000 </v>
   <v>       0.00000000       0.31749174       0.00000000 </v>
   <v>       0.00000000       0.00000000      -0.58577374 </v>
  </varray>
  <energy>
   <i name="e_fr_energy">    -67.23073682 </i>
   <i name="e_wo_entrp">    -67.23073679 </i>
   <i name="e_0_energy">     -0.00000007 </i>
  </energy>
  <time name="totalsc">   42.67   42.76</time>
 </calculation>
 <calculation>
  <scstep>
   <time name="dav">    7.65    7.66</time>
   <time name="total">    8.36    8.37</time>
   <energy>
    <i name="alphaZ">     10.96327934 </i>
    <i name="ewald">   4053.82935345 </i>
    <i name="hartreedc">  -4933.38172773 </i>
    <i name="XCdc">     96.07163766 </i>
    <i name="pawpsdc">   2897.98747747 </i>
    <i name="pawaedc">  -2900.51659009 </i>
    <i name="eentropy">     -0.00000011 </i>
    <i name="bandstr">   -317.38850000 </i>
    <i name="atom">   1025.20389953 </i>
    <i name="e_fr_energy">    -67.23117048 </i>
    <i name="e_wo_entrp">    -67.23117037 </i>
    <i name="e_0_energy">    -67.23117042 </i>
   </energy>
  </scstep>
  <scstep>
   <time name="dav">    6.69    6.70</time>
   <time name="total">    7.41    7.42</time>
   <energy>
    <i name="e_fr_energy">    -67.23099099 </i>
    <i name="e_wo_entrp">    -67.23099090 </i>
    <i name="e_0_energy">    -67.23099095 </i>
   </energy>
  </scstep>
  <scstep>
   <time name="dav">    6.65    6.66</time>
   <time name="total">    7.37    7.38</time>
   <energy>
    <i name="e_fr_energy">    -67.23089368 </i>
    <i name="e_wo_entrp">    -67.23089361 </i>
    <i name="e_0_energy">    -67.23089365 </i>
   </energy>
  </scstep>
  <scstep>
   <time name="dav">    7.49    7.50</time>
   <time name="total">    7.62    7.64</time>
   <energy>
    <i name="alphaZ">     10.96327934 </i>
    <i name="ewald">   4053.82935345 </i>
    <i name="hartreedc">  -4932.66278549 </i>
    <i name="XCdc">     96.04473717 </i>
    <i name="pawpsdc">   2898.05466082 </i>
    <i name="pawaedc">  -2900.58297653 </i>
    <i name="eentropy">     -0.00000007 </i>
    <i name="bandstr">   -318.08106142 </i>
    <i name="atom">   1025.20389953 </i>
    <i name="e_fr_energy">    -67.23089320 </i>
    <i name="e_wo_entrp">    -67.23089313 </i>
    <i name="e_0_energy">    -67.23089317 </i>
   </energy>
  </scstep>
  <structure>
   <crystal>
    <varray name="basis" >
     <v>       5.17253902       0.00000000       0.00000000 </v>
     <v>       2.58626951       4.47960358       0.00000000 </v>
     <v>       0.00000000       0.00000000      19.96818417 </v>
    </varray>
    <i name="volume">    462.68128398 </i>
    <varray name="rec_basis" >
     <v>       0.19332865      -0.11161702       0.00000000 </v>
     <v>      -0.00000000       0.22323404       0.00000000 </v>
     <v>       0.00000000       0.00000000       0.05007967 </v>
    </varray>
   </crystal>
   <varray name="positions" >
    <v>       0.17456945       0.17463381      -0.00000000 </v>
    <v>       0.50792899       0.50791473      -0.00000000 </v>
    <v>      -0.00008937      -0.00003935      -0.00000000 </v>
    <v>       0.52390143      -0.00003935      -0.00000000 </v>
    <v>       0.68257104       0.15863062      -0.00000000 </v>
    <v>       0.99992740       0.52391792       0.00000000 </v>
    <v>       0.15859701       0.68258789      -0.00000000 </v>
    <v>       0.68258781       0.68258789       0.00000000 </v>
   </varray>
  </structure>
  <varray name="forces" >
   <v>      -0.00000000      -0.00535136       0.00000000 </v>
   <v>       0.00000000       0.00535136      -0.00000000 </v>
   <v>       0.01747754       0.00450939       0.00000000 </v>
   <v>      -0.01747754       0.00450939      -0.00000000 </v>
   <v>       0.00000000       0.01473305       0.00000000 </v>
   <v>      -0.00000000      -0.01473305      -0.00000000 </v>
   <v>       0.01747754      -0.00450939       0.00000000 </v>
   <v>      -0.01747754      -0.00450939       0.00000000 </v>
  </varray>
  <varray name="stress" >
   <v>       0.34064936      -0.00000000       0.00000000 </v>
   <v>       0.00000000       0.30634369       0.00000000 </v>
   <v>       0.00000000       0.00000000      -0.74275546 </v>
  </varray>
  <energy>
   <i name="e_fr_energy">    -67.23089320 </i>
   <i name="e_wo_entrp">    -67.23089317 </i>
   <i name="e_0_energy">     -0.00000007 </i>
  </energy>
  <time name="totalsc">   37.83   37.89</time>
 </calculation>
 <calculation>
  <scstep>
   <time name="dav">    6.86    6.87</time>
   <time name="total">    7.57    7.59</time>
   <energy>
    <i name="alphaZ">     10.99693544 </i>
    <i name="ewald">   4036.44032392 </i>
    <i name="hartreedc">  -4918.30727812 </i>
    <i name="XCdc">     96.13543497 </i>
    <i name="pawpsdc">   2897.82026239 </i>
    <i name="pawaedc">  -2900.34919920 </i>
    <i name="eentropy">     -0.00000027 </i>
    <i name="bandstr">   -315.17411832 </i>
    <i name="atom">   1025.20389953 </i>
    <i name="e_fr_energy">    -67.23373966 </i>
    <i name="e_wo_entrp">    -67.23373939 </i>
    <i name="e_0_energy">    -67.23373952 </i>
   </energy>
  </scstep>
  <scstep>
   <time name="dav">    7.31    7.32</time>
   <time name="total">    8.02    8.03</time>
   <energy>
    <i name="e_fr_energy">    -67.23201012 </i>
    <i name="e_wo_entrp">    -67.23200997 </i>
    <i name="e_0_energy">    -67.23201004 </i>
   </energy>
  </scstep>
  <scstep>
   <time name="dav">    7.08    7.09</time>
   <time name="total">    7.79    7.80</time>
   <energy>
    <i name="e_fr_energy">    -67.23117004 </i>
    <i name="e_wo_entrp">    -67.23116996 </i>
    <i name="e_0_energy">    -67.23117000 </i>
   </energy>
  </scstep>
  <scstep>
   <time name="dav">    7.15    7.16</time>
   <time name="total">    7.85    7.87</time>
   <energy>
    <i name="e_fr_energy">    -67.23118839 </i>
    <i name="e_wo_entrp">    -67.23118831 </i>
    <i name="e_0_energy">    -67.23118835 </i>
   </energy>
  </scstep>
  <scstep>
   <time name="dav">    7.23    7.24</time>
   <time name="total">    7.94    7.95</time>
   <energy>
    <i name="e_fr_energy">    -67.23120791 </i>
    <i name="e_wo_entrp">    -67.23120783 </i>
    <i name="e_0_energy">    -67.23120787 </i>
   </energy>
  </scstep>
  <scstep>
   <time name="dav">    7.23    7.24</time>
   <time name="total">    7.94    7.95</time>
   <energy>
    <i name="e_fr_energy">    -67.23128585 </i>
    <i name="e_wo_entrp">    -67.23128578 </i>
    <i name="e_0_energy">    -67.23128581 </i>
   </energy>
  </scstep>
  <scstep>
   <time name="dav">    7.52    7.53</time>
   <time name="total">    8.23    8.24</time>
   <energy>
    <i name="e_fr_energy">    -67.23131744 </i>
    <i name="e_wo_entrp">    -67.23131737 </i>
    <i name="e_0_energy">    -67.23131740 </i>
   </energy>
  </scstep>
  <scstep>
   <time name="dav">    7.03    7.04</time>
   <time name="total">    7.76    7.76</time>
   <energy>
    <i name="e_fr_energy">    -67.23136154 </i>
    <i name="e_wo_entrp">    -67.23136147 </i>
    <i name="e_0_energy">    -67.23136150 </i>
   </energy>
  </scstep>
  <scstep>
   <time name="dav">    7.04    7.04</time>
   <time name="total">    7.76    7.76</time>
   <energy>
    <i name="e_fr_energy">    -67.23137151 </i>
    <i name="e_wo_entrp">    -67.23137144 </i>
    <i name="e_0_energy">    -67.23137147 </i>
   </energy>
  </scstep>
  <scstep>
   <time name="dav">    5.46    5.46</time>
   <time name="total">    6.19    6.19</time>
   <energy>
    <i name="e_fr_energy">    -67.23137527 </i>
    <i name="e_wo_entrp">    -67.23137519 </i>
    <i name="e_0_energy">    -67.23137523 </i>
   </energy>
  </scstep>
  <scstep>
   <time name="dav">    5.68    5.68</time>
   <time name="total">    6.40    6.40</time>
   <energy>
    <i name="e_fr_energy">    -67.23137659 </i>
    <i name="e_wo_entrp">    -67.23137652 </i>
    <i name="e_0_energy">    -67.23137655 </i>
   </energy>
  </scstep>
  <scstep>
   <time name="dav">    5.64    5.64</time>
   <time name="total">    5.77    5.77</time>
   <energy>
    <i name="alphaZ">     10.99693544 </i>
    <i name="ewald">   4036.44032392 </i>
    <i name="hartreedc">  -4915.20766163 </i>
    <i name="XCdc">     96.04273587 </i>
    <i name="pawpsdc">   2897.45648656 </i>
    <i name="pawaedc">  -2899.98624926 </i>
    <i name="eentropy">     -0.00000007 </i>
    <i name="bandstr">   -318.17784728 </i>
    <i name="atom">   1025.20389953 </i>
    <i name="e_fr_energy">    -67.23137692 </i>
    <i name="e_wo_entrp">    -67.23137685 </i>
    <i name="e_0_energy">    -67.23137689 </i>
   </energy>
  </scstep>
  <structure>
   <crystal>
    <varray name="basis" >
     <v>       5.17225869       0.00000000       0.00000000 </v>
     <v>       2.58612935       4.47962823       0.00000000 </v>
     <v>       0.00000000       0.00000000      19.90804093 </v>
    </varray>
    <i name="volume">    461.26524856 </i>
    <varray name="rec_basis" >
     <v>       0.19333913      -0.11161641       0.00000000 </v>
     <v>      -0.00000000       0.22323281       0.00000000 </v>
     <v>       0.00000000       0.00000000       0.05023096 </v>
    </varray>
   </crystal>
   <varray name="positions" >
    <v>       0.17459786       0.17457699      -0.00000000 </v>
    <v>       0.50790058       0.50797155      -0.00000000 </v>
    <v>      -0.00017878       0.00004582      -0.00000000 </v>
    <v>       0.52390567       0.00004582      -0.00000000 </v>
    <v>       0.68255052       0.15867166      -0.00000000 </v>
    <v>       0.99994792       0.52387687       0.00000000 </v>
    <v>       0.15859277       0.68250271      -0.00000000 </v>
    <v>       0.68267722       0.68250271       0.00000000 </v>
   </varray>
  </structure>
  <varray name="forces" >
   <v>       0.00000000       0.00224986       0.00000000 </v>
   <v>       0.00000000      -0.00224986      -0.00000000 </v>
   <v>       0.02770454      -0.03111282      -0.00000000 </v>
   <v>      -0.02770454      -0.03111282       0.00000000 </v>
   <v>       0.00000000       0.02553650      -0.00000000 </v>
   <v>       0.00000000      -0.02553650       0.00000000 </v>
   <v>       0.02770454       0.03111282       0.00000000 </v>
   <v>      -0.02770454       0.03111282       0.00000000 </v>
  </varray>
  <varray name="stress" >
   <v>       0.51744394       0.00000000       0.00000000 </v>
   <v>       0.00000000       0.16122463       0.00000000 </v>
   <v>       0.00000000       0.00000000      -0.55922614 </v>
  </varray>
  <energy>
   <i name="e_fr_energy">    -67.23137692 </i>
   <i name="e_wo_entrp">    -67.23137689 </i>
   <i name="e_0_energy">     -0.00000007 </i>
  </energy>
  <time name="totalsc">   96.40   96.49</time>
 </calculation>
 <calculation>
  <scstep>
   <time name="dav">    7.50    7.51</time>
   <time name="total">    8.23    8.23</time>
   <energy>
    <i name="alphaZ">     11.06486160 </i>
    <i name="ewald">   4001.65814297 </i>
    <i name="hartreedc">  -4886.66844498 </i>
    <i name="XCdc">     96.22852230 </i>
    <i name="pawpsdc">   2897.45872266 </i>
    <i name="pawaedc">  -2899.98849819 </i>
    <i name="eentropy">     -0.00000112 </i>
    <i name="bandstr">   -312.19870976 </i>
    <i name="atom">   1025.20389953 </i>
    <i name="e_fr_energy">    -67.24150500 </i>
    <i name="e_wo_entrp">    -67.24150387 </i>
    <i name="e_0_energy">    -67.24150443 </i>
   </energy>
  </scstep>
  <scstep>
   <time name="dav">    6.90    6.90</time>
   <time name="total">    7.61    7.61</time>
   <energy>
    <i name="e_fr_energy">    -67.23473903 </i>
    <i name="e_wo_entrp">    -67.23473868 </i>
    <i name="e_0_energy">    -67.23473886 </i>
   </energy>
  </scstep>
  <scstep>
   <time name="dav">    7.60    7.60</time>
   <time name="total">    8.31    8.31</time>
   <energy>
    <i name="e_fr_energy">    -67.23162701 </i>
    <i name="e_wo_entrp">    -67.23162691 </i>
    <i name="e_0_energy">    -67.23162696 </i>
   </energy>
  </scstep>
  <scstep>
   <time name="dav">    7.32    7.33</time>
   <time name="total">    8.02    8.03</time>
   <energy>
    <i name="e_fr_energy">    -67.23163780 </i>
    <i name="e_wo_entrp">    -67.23163769 </i>
    <i name="e_0_energy">    -67.23163774 </i>
   </energy>
  </scstep>
  <scstep>
   <time name="dav">    7.41    7.42</time>
   <time name="total">    8.12    8.13</time>
   <energy>
    <i name="e_fr_energy">    -67.23166009 </i>
    <i name="e_wo_entrp">    -67.23166000 </i>
    <i name="e_0_energy">    -67.23166005 </i>
   </energy>
  </scstep>
  <scstep>
   <time name="dav">    7.31    7.31</time>
   <time name="total">    8.02    8.02</time>
   <energy>
    <i name="e_fr_energy">    -67.23182149 </i>
    <i name="e_wo_entrp">    -67.23182139 </i>
    <i name="e_0_energy">    -67.23182144 </i>
   </energy>
  </scstep>
  <scstep>
   <time name="dav">    7.51    7.51</time>
   <time name="total">    8.22    8.23</time>
   <energy>
    <i name="e_fr_energy">    -67.23188751 </i>
    <i name="e_wo_entrp">    -67.23188742 </i>
    <i name="e_0_energy">    -67.23188747 </i>
   </energy>
  </scstep>
  <scstep>
   <time name="dav">    7.23    7.23</time>
   <time name="total">    7.94    7.95</time>
   <energy>
    <i name="e_fr_energy">    -67.23197986 </i>
    <i name="e_wo_entrp">    -67.23197978 </i>
    <i name="e_0_energy">    -67.23197982 </i>
   </energy>
  </scstep>
  <scstep>
   <time name="dav">    7.40    7.40</time>
   <time name="total">    8.11    8.12</time>
   <energy>
    <i name="e_fr_energy">    -67.23199990 </i>
    <i name="e_wo_entrp">    -67.23199981 </i>
    <i name="e_0_energy">    -67.23199985 </i>
   </energy>
  </scstep>
  <scstep>
   <time name="dav">    5.49    5.50</time>
   <time name="total">    6.21    6.22</time>
   <energy>
    <i name="e_fr_energy">    -67.23200759 </i>
    <i name="e_wo_entrp">    -67.23200750 </i>
    <i name="e_0_energy">    -67.23200755 </i>
   </energy>
  </scstep>
  <scstep>
   <time name="dav">    5.68    5.68</time>
   <time name="total">    6.41    6.41</time>
   <energy>
    <i name="e_fr_energy">    -67.23201013 </i>
    <i name="e_wo_entrp">    -67.23201005 </i>
    <i name="e_0_energy">    -67.23201009 </i>
   </energy>
  </scstep>
  <scstep>
   <time name="dav">    5.63    5.63</time>
   <time name="total">    5.76    5.76</time>
   <energy>
    <i name="alphaZ">     11.06486160 </i>
    <i name="ewald">   4001.65814297 </i>
    <i name="hartreedc">  -4880.74253904 </i>
    <i name="XCdc">     96.04501465 </i>
    <i name="pawpsdc">   2896.71894208 </i>
    <i name="pawaedc">  -2899.24962611 </i>
    <i name="eentropy">     -0.00000009 </i>
    <i name="bandstr">   -317.93070661 </i>
    <i name="atom">   1025.20389953 </i>
    <i name="e_fr_energy">    -67.23201101 </i>
    <i name="e_wo_entrp">    -67.23201092 </i>
    <i name="e_0_energy">    -67.23201097 </i>
   </energy>
  </scstep>
  <structure>
   <crystal>
    <varray name="basis" >
     <v>       5.17169803       0.00000000       0.00000000 </v>
     <v>       2.58584902       4.47967755       0.00000000 </v>
     <v>       0.00000000       0.00000000      19.78775445 </v>
    </varray>
    <i name="volume">    458.43358404 </i>
    <varray name="rec_basis" >
     <v>       0.19336009      -0.11161518       0.00000000 </v>
     <v>      -0.00000000       0.22323035       0.00000000 </v>
     <v>       0.00000000       0.00000000       0.05053631 </v>
    </varray>
   </crystal>
   <varray name="positions" >
    <v>       0.17465468       0.17446336      -0.00000000 </v>
    <v>       0.50784377       0.50808518      -0.00000000 </v>
    <v>      -0.00035762       0.00021618      -0.00000000 </v>
    <v>       0.52391415       0.00021618      -0.00000000 </v>
    <v>       0.68250948       0.15875375      -0.00000000 </v>
    <v>       0.99998896       0.52379479       0.00000000 </v>
    <v>       0.15858429       0.68233236      -0.00000000 </v>
    <v>       0.68285606       0.68233236       0.00000000 </v>
   </varray>
  </structure>
  <varray name="forces" >
   <v>       0.00000000       0.01741881       0.00000000 </v>
   <v>      -0.00000000      -0.01741881      -0.00000000 </v>
   <v>       0.04798993      -0.10222516      -0.00000000 </v>
   <v>      -0.04798993      -0.10222516      -0.00000000 </v>
   <v>      -0.00000000       0.04690580      -0.00000000 </v>
   <v>       0.00000000      -0.04690580       0.00000000 </v>
   <v>       0.04798993       0.10222516      -0.00000000 </v>
   <v>      -0.04798993       0.10222516      -0.00000000 </v>
  </varray>
  <varray name="stress" >
   <v>       0.93036505      -0.00000000       0.00000000 </v>
   <v>       0.00000000      -0.07373992       0.00000000 </v>
   <v>       0.00000000       0.00000000      -0.49683749 </v>
  </varray>
  <energy>
   <i name="e_fr_energy">    -67.23201101 </i>
   <i name="e_wo_entrp">    -67.23201097 </i>
   <i name="e_0_energy">     -0.00000009 </i>
  </energy>
  <time name="totalsc">   98.12   98.18</time>
 </calculation>
 <calculation>
  <scstep>
   <time name="dav">    7.48    7.50</time>
   <time name="total">    8.21    8.24</time>
   <energy>
    <i name="alphaZ">     11.20322259 </i>
    <i name="ewald">   3932.07727797 </i>
    <i name="hartreedc">  -4823.72186741 </i>
    <i name="XCdc">     96.42033788 </i>
    <i name="pawpsdc">   2896.71953480 </i>
    <i name="pawaedc">  -2899.25024742 </i>
    <i name="eentropy">     -0.00001592 </i>
    <i name="bandstr">   -305.92285878 </i>
    <i name="atom">   1025.20389953 </i>
    <i name="e_fr_energy">    -67.27071676 </i>
    <i name="e_wo_entrp">    -67.27070084 </i>
    <i name="e_0_energy">    -67.27070880 </i>
   </energy>
  </scstep>
  <scstep>
   <time name="dav">    7.31    7.31</time>
   <time name="total">    8.03    8.03</time>
   <energy>
    <i name="e_fr_energy">    -67.24348160 </i>
    <i name="e_wo_entrp">    -67.24347943 </i>
    <i name="e_0_energy">    -67.24348051 </i>
   </energy>
  </scstep>
  <scstep>
   <time name="dav">    7.49    7.49</time>
   <time name="total">    8.20    8.20</time>
   <energy>
    <i name="e_fr_energy">    -67.23138304 </i>
    <i name="e_wo_entrp">    -67.23138283 </i>
    <i name="e_0_energy">    -67.23138294 </i>
   </energy>
  </scstep>
  <scstep>
   <time name="dav">    7.43    7.43</time>
   <time name="total">    8.14    8.15</time>
   <energy>
    <i name="e_fr_energy">    -67.23138800 </i>
    <i name="e_wo_entrp">    -67.23138775 </i>
    <i name="e_0_energy">    -67.23138788 </i>
   </energy>
  </scstep>
  <scstep>
   <time name="dav">    7.16    7.16</time>
   <time name="total">    7.87    7.87</time>
   <energy>
    <i name="e_fr_energy">    -67.23138061 </i>
    <i name="e_wo_entrp">    -67.23138042 </i>
    <i name="e_0_energy">    -67.23138051 </i>
   </energy>
  </scstep>
  <scstep>
   <time name="dav">    7.16    7.16</time>
   <time name="total">    7.89    7.89</time>
   <energy>
    <i name="e_fr_energy">    -67.23178497 </i>
    <i name="e_wo_entrp">    -67.23178479 </i>
    <i name="e_0_energy">    -67.23178488 </i>
   </energy>
  </scstep>
  <scstep>
   <time name="dav">    7.35    7.36</time>
   <time name="total">    8.08    8.08</time>
   <energy>
    <i name="e_fr_energy">    -67.23192285 </i>
    <i name="e_wo_entrp">    -67.23192267 </i>
    <i name="e_0_energy">    -67.23192276 </i>
   </energy>
  </scstep>
  <scstep>
   <time name="dav">    7.24    7.24</time>
   <time name="total">    7.96    7.96</time>
   <energy>
    <i name="e_fr_energy">    -67.23211900 </i>
    <i name="e_wo_entrp">    -67.23211884 </i>
    <i name="e_0_energy">    -67.23211892 </i>
   </energy>
  </scstep>
  <scstep>
   <time name="dav">    7.05    7.06</time>
   <time name="total">    7.77    7.78</time>
   <energy>
    <i name="e_fr_energy">    -67.23215691 </i>
    <i name="e_wo_entrp">    -67.23215675 </i>
    <i name="e_0_energy">    -67.23215683 </i>
   </energy>
  </scstep>
  <scstep>
   <time name="dav">    6.92    6.92</time>
   <time name="total">    7.64    7.65</time>
   <energy>
    <i name="e_fr_energy">    -67.23217129 </i>
    <i name="e_wo_entrp">    -67.23217112 </i>
    <i name="e_0_energy">    -67.23217120 </i>
   </energy>
  </scstep>
  <scstep>
   <time name="dav">    5.68    5.68</time>
   <time name="total">    6.39    6.40</time>
   <energy>
    <i name="e_fr_energy">    -67.23217535 </i>
    <i name="e_wo_entrp">    -67.23217518 </i>
    <i name="e_0_energy">    -67.23217526 </i>
   </energy>
  </scstep>
  <scstep>
   <time name="dav">    5.73    5.74</time>
   <time name="total">    6.45    6.45</time>
   <energy>
    <i name="e_fr_energy">    -67.23217763 </i>
    <i name="e_wo_entrp">    -67.23217746 </i>
    <i name="e_0_energy">    -67.23217754 </i>
   </energy>
  </scstep>
  <scstep>
   <time name="dav">    5.97    5.97</time>
   <time name="total">    6.11    6.11</time>
   <energy>
    <i name="alphaZ">     11.20322259 </i>
    <i name="ewald">   3932.07727797 </i>
    <i name="hartreedc">  -4811.80104977 </i>
    <i name="XCdc">     96.04972980 </i>
    <i name="pawpsdc">   2895.31901964 </i>
    <i name="pawaedc">  -2897.85143831 </i>
    <i name="eentropy">     -0.00000017 </i>
    <i name="bandstr">   -317.43283919 </i>
    <i name="atom">   1025.20389953 </i>
    <i name="e_fr_energy">    -67.23217790 </i>
    <i name="e_wo_entrp">    -67.23217773 </i>
    <i name="e_0_energy">    -67.23217782 </i>
   </energy>
  </scstep>
  <structure>
   <crystal>
    <varray name="basis" >
     <v>       5.17057671       0.00000000       0.00000000 </v>
     <v>       2.58528836       4.47977618       0.00000000 </v>
     <v>       0.00000000       0.00000000      19.54718149 </v>
    </varray>
    <i name="volume">    452.77188033 </i>
    <varray name="rec_basis" >
     <v>       0.19340202      -0.11161272       0.00000000 </v>
     <v>      -0.00000000       0.22322544       0.00000000 </v>
     <v>       0.00000000       0.00000000       0.05115827 </v>
    </varray>
   </crystal>
   <varray name="positions" >
    <v>       0.17476831       0.17423610      -0.00000000 </v>
    <v>       0.50773013       0.50831244      -0.00000000 </v>
    <v>      -0.00071531       0.00055688      -0.00000000 </v>
    <v>       0.52393114       0.00055688      -0.00000000 </v>
    <v>       0.68242739       0.15891792      -0.00000000 </v>
    <v>       0.00007105       0.52363062       0.00000000 </v>
    <v>       0.15856730       0.68199166      -0.00000000 </v>
    <v>       0.68321375       0.68199166       0.00000000 </v>
   </varray>
  </structure>
  <varray name="forces" >
   <v>      -0.00000000       0.04775126       0.00000000 </v>
   <v>      -0.00000000      -0.04775126      -0.00000000 </v>
   <v>       0.08891312      -0.24312848       0.00000000 </v>
   <v>      -0.08891312      -0.24312848       0.00000000 </v>
   <v>       0.00000000       0.09011224       0.00000000 </v>
   <v>      -0.00000000      -0.09011224      -0.00000000 </v>
   <v>       0.08891312       0.24312848      -0.00000000 </v>
   <v>      -0.08891312       0.24312848      -0.00000000 </v>
  </varray>
  <varray name="stress" >
   <v>       1.77092396      -0.00000000       0.00000000 </v>
   <v>      -0.00000000      -0.54619652       0.00000000 </v>
   <v>       0.00000000       0.00000000      -0.39047656 </v>
  </varray>
  <energy>
   <i name="e_fr_energy">    -67.23217790 </i>
   <i name="e_wo_entrp">    -67.23217782 </i>
   <i name="e_0_energy">     -0.00000017 </i>
  </energy>
  <time name="totalsc">  105.90  105.98</time>
 </calculation>
 <calculation>
  <scstep>
   <time name="dav">    7.06    7.06</time>
   <time name="total">    7.78    7.78</time>
   <energy>
    <i name="alphaZ">     11.14786545 </i>
    <i name="ewald">   3959.71456350 </i>
    <i name="hartreedc">  -4834.38981538 </i>
    <i name="XCdc">     95.90051129 </i>
    <i name="pawpsdc">   2895.28534004 </i>
    <i name="pawaedc">  -2897.81780596 </i>
    <i name="eentropy">     -0.00000001 </i>
    <i name="bandstr">   -322.28301566 </i>
    <i name="atom">   1025.20389953 </i>
    <i name="e_fr_energy">    -67.23845719 </i>
    <i name="e_wo_entrp">    -67.23845718 </i>
    <i name="e_0_energy">    -67.23845718 </i>
   </energy>
  </scstep>
  <scstep>
   <time name="dav">    7.04    7.05</time>
   <time name="total">    7.75    7.76</time>
   <energy>
    <i name="e_fr_energy">    -67.23416066 </i>
    <i name="e_wo_entrp">    -67.23416062 </i>
    <i name="e_0_energy">    -67.23416064 </i>
   </energy>
  </scstep>
  <scstep>
   <time name="dav">    7.45    7.46</time>
   <time name="total">    8.17    8.18</time>
   <energy>
    <i name="e_fr_energy">    -67.23217477 </i>
    <i name="e_wo_entrp">    -67.23217465 </i>
    <i name="e_0_energy">    -67.23217471 </i>
   </energy>
  </scstep>
  <scstep>
   <time name="dav">    7.35    7.36</time>
   <time name="total">    8.08    8.08</time>
   <energy>
    <i name="e_fr_energy">    -67.23212678 </i>
    <i name="e_wo_entrp">    -67.23212667 </i>
    <i name="e_0_energy">    -67.23212673 </i>
   </energy>
  </scstep>
  <scstep>
   <time name="dav">    7.32    7.33</time>
   <time name="total">    8.04    8.04</time>
   <energy>
    <i name="e_fr_energy">    -67.23207066 </i>
    <i name="e_wo_entrp">    -67.23207054 </i>
    <i name="e_0_energy">    -67.23207060 </i>
   </energy>
  </scstep>
  <scstep>
   <time name="dav">    7.16    7.17</time>
   <time name="total">    7.88    7.89</time>
   <energy>
    <i name="e_fr_energy">    -67.23211884 </i>
    <i name="e_wo_entrp">    -67.23211871 </i>
    <i name="e_0_energy">    -67.23211878 </i>
   </energy>
  </scstep>
  <scstep>
   <time name="dav">    7.32    7.32</time>
   <time name="total">    8.04    8.04</time>
   <energy>
    <i name="e_fr_energy">    -67.23215288 </i>
    <i name="e_wo_entrp">    -67.23215276 </i>
    <i name="e_0_energy">    -67.23215282 </i>
   </energy>
  </scstep>
  <scstep>
   <time name="dav">    7.00    7.01</time>
   <time name="total">    7.74    7.74</time>
   <energy>
    <i name="e_fr_energy">    -67.23222053 </i>
    <i name="e_wo_entrp">    -67.23222040 </i>
    <i name="e_0_energy">    -67.23222046 </i>
   </energy>
  </scstep>
  <scstep>
   <time name="dav">    7.11    7.11</time>
   <time name="total">    7.83    7.84</time>
   <energy>
    <i name="e_fr_energy">    -67.23225144 </i>
    <i name="e_wo_entrp">    -67.23225132 </i>
    <i name="e_0_energy">    -67.23225138 </i>
   </energy>
  </scstep>
  <scstep>
   <time name="dav">    5.87    5.87</time>
   <time name="total">    6.60    6.60</time>
   <energy>
    <i name="e_fr_energy">    -67.23226957 </i>
    <i name="e_wo_entrp">    -67.23226945 </i>
    <i name="e_0_energy">    -67.23226951 </i>
   </energy>
  </scstep>
  <scstep>
   <time name="dav">    5.51    5.52</time>
   <time name="total">    6.22    6.24</time>
   <energy>
    <i name="e_fr_energy">    -67.23227846 </i>
    <i name="e_wo_entrp">    -67.23227833 </i>
    <i name="e_0_energy">    -67.23227839 </i>
   </energy>
  </scstep>
  <scstep>
   <time name="dav">    6.21    6.21</time>
   <time name="total">    6.95    6.95</time>
   <energy>
    <i name="e_fr_energy">    -67.23228104 </i>
    <i name="e_wo_entrp">    -67.23228091 </i>
    <i name="e_0_energy">    -67.23228097 </i>
   </energy>
  </scstep>
  <scstep>
   <time name="dav">    5.46    5.46</time>
   <time name="total">    6.18    6.19</time>
   <energy>
    <i name="e_fr_energy">    -67.23228286 </i>
    <i name="e_wo_entrp">    -67.23228274 </i>
    <i name="e_0_energy">    -67.23228280 </i>
   </energy>
  </scstep>
  <scstep>
   <time name="dav">    6.43    6.43</time>
   <time name="total">    6.56    6.57</time>
   <energy>
    <i name="alphaZ">     11.14786545 </i>
    <i name="ewald">   3959.71456350 </i>
    <i name="hartreedc">  -4839.17091993 </i>
    <i name="XCdc">     96.04788936 </i>
    <i name="pawpsdc">   2895.83398279 </i>
    <i name="pawaedc">  -2898.36577999 </i>
    <i name="eentropy">     -0.00000013 </i>
    <i name="bandstr">   -317.64378389 </i>
    <i name="atom">   1025.20389953 </i>
    <i name="e_fr_energy">    -67.23228331 </i>
    <i name="e_wo_entrp">    -67.23228319 </i>
    <i name="e_0_energy">    -67.23228325 </i>
   </energy>
  </scstep>
  <structure>
   <crystal>
    <varray name="basis" >
     <v>       5.17102205       0.00000000       0.00000000 </v>
     <v>       2.58551103       4.47973701       0.00000000 </v>
     <v>       0.00000000       0.00000000      19.64272720 </v>
    </varray>
    <i name="volume">    455.02021729 </i>
    <varray name="rec_basis" >
     <v>       0.19338537      -0.11161370       0.00000000 </v>
     <v>      -0.00000000       0.22322739       0.00000000 </v>
     <v>       0.00000000       0.00000000       0.05090943 </v>
    </varray>
   </crystal>
   <varray name="positions" >
    <v>       0.17472318       0.17432635      -0.00000000 </v>
    <v>       0.50777526       0.50822218      -0.00000000 </v>
    <v>      -0.00057323       0.00042157      -0.00000000 </v>
    <v>       0.52392437       0.00042157      -0.00000000 </v>
    <v>       0.68245999       0.15885272      -0.00000000 </v>
    <v>       0.00003845       0.52369582       0.00000000 </v>
    <v>       0.15857407       0.68212697      -0.00000000 </v>
    <v>       0.68307167       0.68212697       0.00000000 </v>
   </varray>
  </structure>
  <varray name="forces" >
   <v>      -0.00000000       0.03572598      -0.00000000 </v>
   <v>      -0.00000000      -0.03572598       0.00000000 </v>
   <v>       0.07267251      -0.18731552       0.00000000 </v>
   <v>      -0.07267251      -0.18731552       0.00000000 </v>
   <v>      -0.00000000       0.07296691       0.00000000 </v>
   <v>      -0.00000000      -0.07296691      -0.00000000 </v>
   <v>       0.07267251       0.18731552       0.00000000 </v>
   <v>      -0.07267251       0.18731552       0.00000000 </v>
  </varray>
  <varray name="stress" >
   <v>       1.43318850       0.00000000       0.00000000 </v>
   <v>       0.00000000      -0.35957728       0.00000000 </v>
   <v>       0.00000000       0.00000000      -0.43156393 </v>
  </varray>
  <energy>
   <i name="e_fr_energy">    -67.23228331 </i>
   <i name="e_wo_entrp">    -67.23228325 </i>
   <i name="e_0_energy">     -0.00000013 </i>
  </energy>
  <time name="totalsc">  110.97  111.06</time>
 </calculation>
 <calculation>
  <scstep>
   <time name="dav">    6.95    6.95</time>
   <time name="total">    7.67    7.68</time>
   <energy>
    <i name="alphaZ">     11.14960601 </i>
    <i name="ewald">   3958.78633416 </i>
    <i name="hartreedc">  -4838.40847856 </i>
    <i name="XCdc">     96.05257545 </i>
    <i name="pawpsdc">   2895.84670256 </i>
    <i name="pawaedc">  -2898.37848645 </i>
    <i name="eentropy">     -0.00000014 </i>
    <i name="bandstr">   -317.48447029 </i>
    <i name="atom">   1025.20389953 </i>
    <i name="e_fr_energy">    -67.23231773 </i>
    <i name="e_wo_entrp">    -67.23231759 </i>
    <i name="e_0_energy">    -67.23231766 </i>
   </energy>
  </scstep>
  <scstep>
   <time name="dav">    7.01    7.01</time>
   <time name="total">    7.73    7.73</time>
   <energy>
    <i name="e_fr_energy">    -67.23231250 </i>
    <i name="e_wo_entrp">    -67.23231237 </i>
    <i name="e_0_energy">    -67.23231243 </i>
   </energy>
  </scstep>
  <scstep>
   <time name="dav">    7.12    7.12</time>
   <time name="total">    7.85    7.85</time>
   <energy>
    <i name="e_fr_energy">    -67.23230937 </i>
    <i name="e_wo_entrp">    -67.23230924 </i>
    <i name="e_0_energy">    -67.23230931 </i>
   </energy>
  </scstep>
  <scstep>
   <time name="dav">    6.61    6.61</time>
   <time name="total">    6.75    6.75</time>
   <energy>
    <i name="alphaZ">     11.14960601 </i>
    <i name="ewald">   3958.78633416 </i>
    <i name="hartreedc">  -4838.29233193 </i>
    <i name="XCdc">     96.04829204 </i>
    <i name="pawpsdc">   2895.83127580 </i>
    <i name="pawaedc">  -2898.36291520 </i>
    <i name="eentropy">     -0.00000013 </i>
    <i name="bandstr">   -317.59646963 </i>
    <i name="atom">   1025.20389953 </i>
    <i name="e_fr_energy">    -67.23230936 </i>
    <i name="e_wo_entrp">    -67.23230923 </i>
    <i name="e_0_energy">    -67.23230929 </i>
   </energy>
  </scstep>
  <structure>
   <crystal>
    <varray name="basis" >
     <v>       5.17104378       0.00000000       0.00000000 </v>
     <v>       2.58552189       4.47973040       0.00000000 </v>
     <v>       0.00000000       0.00000000      19.63960725 </v>
    </varray>
    <i name="volume">    454.94918437 </i>
    <varray name="rec_basis" >
     <v>       0.19338455      -0.11161386       0.00000000 </v>
     <v>      -0.00000000       0.22322772       0.00000000 </v>
     <v>       0.00000000       0.00000000       0.05091752 </v>
    </varray>
   </crystal>
   <varray name="positions" >
    <v>       0.17472411       0.17432450      -0.00000000 </v>
    <v>       0.50777433       0.50822404      -0.00000000 </v>
    <v>      -0.00057306       0.00042023      -0.00000000 </v>
    <v>       0.52392554       0.00042023      -0.00000000 </v>
    <v>       0.68245780       0.15885711      -0.00000000 </v>
    <v>       0.00004064       0.52369143       0.00000000 </v>
    <v>       0.15857290       0.68212830      -0.00000000 </v>
    <v>       0.68307151       0.68212830       0.00000000 </v>
   </varray>
  </structure>
  <varray name="forces" >
   <v>      -0.00000000       0.03548361       0.00000000 </v>
   <v>       0.00000000      -0.03548361      -0.00000000 </v>
   <v>       0.07228323      -0.18660925       0.00000000 </v>
   <v>      -0.07228323      -0.18660925       0.00000000 </v>
   <v>      -0.00000000       0.07177475       0.00000000 </v>
   <v>       0.00000000      -0.07177475       0.00000000 </v>
   <v>       0.07228323       0.18660925       0.00000000 </v>
   <v>      -0.07228323       0.18660925       0.00000000 </v>
  </varray>
  <varray name="stress" >
   <v>       1.42984526       0.00000000       0.00000000 </v>
   <v>       0.00000000      -0.35160580       0.00000000 </v>
   <v>       0.00000000       0.00000000      -0.45403466 </v>
  </varray>
  <energy>
   <i name="e_fr_energy">    -67.23230936 </i>
   <i name="e_wo_entrp">    -67.23230929 </i>
   <i name="e_0_energy">     -0.00000013 </i>
  </energy>
  <time name="totalsc">   37.08   37.11</time>
 </calculation>
 <calculation>
  <scstep>
   <time name="dav">    6.92    6.92</time>
   <time name="total">    7.64    7.64</time>
   <energy>
    <i name="alphaZ">     11.15483100 </i>
    <i name="ewald">   3956.00167794 </i>
    <i name="hartreedc">  -4835.98779647 </i>
    <i name="XCdc">     96.06210623 </i>
    <i name="pawpsdc">   2895.78809032 </i>
    <i name="pawaedc">  -2898.31982876 </i>
    <i name="eentropy">     -0.00000015 </i>
    <i name="bandstr">   -317.13543022 </i>
    <i name="atom">   1025.20389953 </i>
    <i name="e_fr_energy">    -67.23245059 </i>
    <i name="e_wo_entrp">    -67.23245043 </i>
    <i name="e_0_energy">    -67.23245051 </i>
   </energy>
  </scstep>
  <scstep>
   <time name="dav">    7.05    7.05</time>
   <time name="total">    7.77    7.77</time>
   <energy>
    <i name="e_fr_energy">    -67.23240373 </i>
    <i name="e_wo_entrp">    -67.23240359 </i>
    <i name="e_0_energy">    -67.23240366 </i>
   </energy>
  </scstep>
  <scstep>
   <time name="dav">    6.98    6.98</time>
   <time name="total">    7.70    7.71</time>
   <energy>
    <i name="e_fr_energy">    -67.23237781 </i>
    <i name="e_wo_entrp">    -67.23237769 </i>
    <i name="e_0_energy">    -67.23237775 </i>
   </energy>
  </scstep>
  <scstep>
   <time name="dav">    6.02    6.02</time>
   <time name="total">    6.16    6.16</time>
   <energy>
    <i name="alphaZ">     11.15483100 </i>
    <i name="ewald">   3956.00167794 </i>
    <i name="hartreedc">  -4835.62737074 </i>
    <i name="XCdc">     96.04914555 </i>
    <i name="pawpsdc">   2895.74343134 </i>
    <i name="pawaedc">  -2898.27477226 </i>
    <i name="eentropy">     -0.00000013 </i>
    <i name="bandstr">   -317.48322083 </i>
    <i name="atom">   1025.20389953 </i>
    <i name="e_fr_energy">    -67.23237859 </i>
    <i name="e_wo_entrp">    -67.23237846 </i>
    <i name="e_0_energy">    -67.23237853 </i>
   </energy>
  </scstep>
  <structure>
   <crystal>
    <varray name="basis" >
     <v>       5.17110896       0.00000000       0.00000000 </v>
     <v>       2.58555448       4.47971056       0.00000000 </v>
     <v>       0.00000000       0.00000000      19.63024741 </v>
    </varray>
    <i name="volume">    454.73608321 </i>
    <varray name="rec_basis" >
     <v>       0.19338212      -0.11161435       0.00000000 </v>
     <v>      -0.00000000       0.22322871       0.00000000 </v>
     <v>       0.00000000       0.00000000       0.05094179 </v>
    </varray>
   </crystal>
   <varray name="positions" >
    <v>       0.17472689       0.17431892      -0.00000000 </v>
    <v>       0.50777155       0.50822962      -0.00000000 </v>
    <v>      -0.00057256       0.00041622      -0.00000000 </v>
    <v>       0.52392904       0.00041622      -0.00000000 </v>
    <v>       0.68245122       0.15887027      -0.00000000 </v>
    <v>       0.00004722       0.52367827       0.00000000 </v>
    <v>       0.15856940       0.68213231      -0.00000000 </v>
    <v>       0.68307100       0.68213231       0.00000000 </v>
   </varray>
  </structure>
  <varray name="forces" >
   <v>       0.00000000       0.03476625      -0.00000000 </v>
   <v>      -0.00000000      -0.03476625      -0.00000000 </v>
   <v>       0.07129408      -0.18438418      -0.00000000 </v>
   <v>      -0.07129408      -0.18438418       0.00000000 </v>
   <v>       0.00000000       0.06841104       0.00000000 </v>
   <v>      -0.00000000      -0.06841104      -0.00000000 </v>
   <v>       0.07129408       0.18438418      -0.00000000 </v>
   <v>      -0.07129408       0.18438418      -0.00000000 </v>
  </varray>
  <varray name="stress" >
   <v>       1.41463895       0.00000000       0.00000000 </v>
   <v>       0.00000000      -0.33275692       0.00000000 </v>
   <v>       0.00000000       0.00000000      -0.50356269 </v>
  </varray>
  <energy>
   <i name="e_fr_energy">    -67.23237859 </i>
   <i name="e_wo_entrp">    -67.23237853 </i>
   <i name="e_0_energy">     -0.00000013 </i>
  </energy>
  <time name="totalsc">   36.45   36.47</time>
 </calculation>
 <calculation>
  <scstep>
   <time name="dav">    6.93    6.93</time>
   <time name="total">    7.65    7.66</time>
   <energy>
    <i name="alphaZ">     11.16529597 </i>
    <i name="ewald">   3950.43250866 </i>
    <i name="hartreedc">  -4831.00056666 </i>
    <i name="XCdc">     96.07646346 </i>
    <i name="pawpsdc">   2895.61505206 </i>
    <i name="pawaedc">  -2898.14670022 </i>
    <i name="eentropy">     -0.00000018 </i>
    <i name="bandstr">   -316.57873517 </i>
    <i name="atom">   1025.20389953 </i>
    <i name="e_fr_energy">    -67.23278257 </i>
    <i name="e_wo_entrp">    -67.23278238 </i>
[...]
    <v>      -0.00057155       0.00040821      -0.00000000 </v>
    <v>       0.52393605       0.00040821      -0.00000000 </v>
    <v>       0.68243806       0.15889659      -0.00000000 </v>
    <v>       0.00006038       0.52365195       0.00000000 </v>
    <v>       0.15856239       0.68214033      -0.00000000 </v>
    <v>       0.68306999       0.68214033       0.00000000 </v>
   </varray>
  </structure>
  <varray name="forces" >
   <v>       0.00000000       0.03328102      -0.00000000 </v>
   <v>       0.00000000      -0.03328102       0.00000000 </v>
   <v>       0.07019409      -0.17949175      -0.00000000 </v>
   <v>      -0.07019409      -0.17949175      -0.00000000 </v>
   <v>       0.00000000       0.06270458      -0.00000000 </v>
   <v>       0.00000000      -0.06270458       0.00000000 </v>
   <v>       0.07019409       0.17949175      -0.00000000 </v>
   <v>      -0.07019409       0.17949175      -0.00000000 </v>
  </varray>
  <varray name="stress" >
   <v>       1.35116648      -0.00000000       0.00000000 </v>
   <v>      -0.00000000      -0.32770085       0.00000000 </v>
   <v>       0.00000000       0.00000000      -0.42051944 </v>
  </varray>
  <energy>
   <i name="e_fr_energy">    -67.23255076 </i>
   <i name="e_wo_entrp">    -67.23255070 </i>
   <i name="e_0_energy">     -0.00000012 </i>
  </energy>
  <time name="totalsc">   88.98   89.20</time>
 </calculation>
 <calculation>
  <scstep>
   <time name="dav">    7.45    7.46</time>
   <time name="total">    8.17    8.18</time>
   <energy>
    <i name="alphaZ">     11.18628597 </i>
    <i name="ewald">   3939.29474272 </i>
    <i name="hartreedc">  -4820.81488788 </i>
    <i name="XCdc">     96.10328641 </i>
    <i name="pawpsdc">   2895.28037476 </i>
    <i name="pawaedc">  -2897.81221797 </i>
    <i name="eentropy">     -0.00000026 </i>
    <i name="bandstr">   -315.67529209 </i>
    <i name="atom">   1025.20389953 </i>
    <i name="e_fr_energy">    -67.23380880 </i>
    <i name="e_wo_entrp">    -67.23380854 </i>
    <i name="e_0_energy">    -67.23380867 </i>
   </energy>
  </scstep>
  <scstep>
   <time name="dav">    6.70    6.71</time>
   <time name="total">    7.42    7.43</time>
   <energy>
    <i name="e_fr_energy">    -67.23312106 </i>
    <i name="e_wo_entrp">    -67.23312089 </i>
    <i name="e_0_energy">    -67.23312098 </i>
   </energy>
  </scstep>
  <scstep>
   <time name="dav">    7.35    7.35</time>
   <time name="total">    8.06    8.07</time>
   <energy>
    <i name="e_fr_energy">    -67.23277347 </i>
    <i name="e_wo_entrp">    -67.23277335 </i>
    <i name="e_0_energy">    -67.23277341 </i>
   </energy>
  </scstep>
  <scstep>
   <time name="dav">    7.26    7.27</time>
   <time name="total">    7.98    7.99</time>
   <energy>
    <i name="e_fr_energy">    -67.23277658 </i>
    <i name="e_wo_entrp">    -67.23277646 </i>
    <i name="e_0_energy">    -67.23277652 </i>
   </energy>
  </scstep>
  <scstep>
   <time name="dav">    7.15    7.16</time>
   <time name="total">    7.87    7.88</time>
   <energy>
    <i name="e_fr_energy">    -67.23277996 </i>
    <i name="e_wo_entrp">    -67.23277985 </i>
    <i name="e_0_energy">    -67.23277991 </i>
   </energy>
  </scstep>
  <scstep>
   <time name="dav">    7.21    7.21</time>
   <time name="total">    7.93    7.94</time>
   <energy>
    <i name="e_fr_energy">    -67.23281314 </i>
    <i name="e_wo_entrp">    -67.23281303 </i>
    <i name="e_0_energy">    -67.23281309 </i>
   </energy>
  </scstep>
  <scstep>
   <time name="dav">    7.17    7.19</time>
   <time name="total">    7.89    7.91</time>
   <energy>
    <i name="e_fr_energy">    -67.23282379 </i>
    <i name="e_wo_entrp">    -67.23282368 </i>
    <i name="e_0_energy">    -67.23282374 </i>
   </energy>
  </scstep>
  <scstep>
   <time name="dav">    7.04    7.04</time>
   <time name="total">    7.75    7.77</time>
   <energy>
    <i name="e_fr_energy">    -67.23284775 </i>
    <i name="e_wo_entrp">    -67.23284764 </i>
    <i name="e_0_energy">    -67.23284770 </i>
   </energy>
  </scstep>
  <scstep>
   <time name="dav">    5.96    5.97</time>
   <time name="total">    6.68    6.69</time>
   <energy>
    <i name="e_fr_energy">    -67.23285103 </i>
    <i name="e_wo_entrp">    -67.23285091 </i>
    <i name="e_0_energy">    -67.23285097 </i>
   </energy>
  </scstep>
  <scstep>
   <time name="dav">    5.47    5.47</time>
   <time name="total">    6.18    6.19</time>
   <energy>
    <i name="e_fr_energy">    -67.23285394 </i>
    <i name="e_wo_entrp">    -67.23285383 </i>
    <i name="e_0_energy">    -67.23285388 </i>
   </energy>
  </scstep>
  <scstep>
   <time name="dav">    5.59    5.60</time>
   <time name="total">    5.72    5.73</time>
   <energy>
    <i name="alphaZ">     11.18628597 </i>
    <i name="ewald">   3939.29474272 </i>
    <i name="hartreedc">  -4818.93965292 </i>
    <i name="XCdc">     96.04542367 </i>
    <i name="pawpsdc">   2894.59243487 </i>
    <i name="pawaedc">  -2897.12435527 </i>
    <i name="eentropy">     -0.00000012 </i>
    <i name="bandstr">   -317.49163307 </i>
    <i name="atom">   1025.20389953 </i>
    <i name="e_fr_energy">    -67.23285461 </i>
    <i name="e_wo_entrp">    -67.23285449 </i>
    <i name="e_0_energy">    -67.23285455 </i>
   </energy>
  </scstep>
  <structure>
   <crystal>
    <varray name="basis" >
     <v>       5.17150002       0.00000000       0.00000000 </v>
     <v>       2.58575001       4.47959158       0.00000000 </v>
     <v>       0.00000000       0.00000000      19.57408836 </v>
    </varray>
    <i name="volume">    453.45740072 </i>
    <varray name="rec_basis" >
     <v>       0.19336749      -0.11161732       0.00000000 </v>
     <v>      -0.00000000       0.22323464       0.00000000 </v>
     <v>       0.00000000       0.00000000       0.05108795 </v>
    </varray>
   </crystal>
   <varray name="positions" >
    <v>       0.17474362       0.17428547      -0.00000000 </v>
    <v>       0.50775482       0.50826306      -0.00000000 </v>
    <v>      -0.00056952       0.00039217      -0.00000000 </v>
    <v>       0.52395006       0.00039217      -0.00000000 </v>
    <v>       0.68241174       0.15894922      -0.00000000 </v>
    <v>       0.00008670       0.52359932       0.00000000 </v>
    <v>       0.15854838       0.68215637      -0.00000000 </v>
    <v>       0.68306796       0.68215637       0.00000000 </v>
   </varray>
  </structure>
  <varray name="forces" >
   <v>      -0.00000000       0.03035246       0.00000000 </v>
   <v>      -0.00000000      -0.03035246       0.00000000 </v>
   <v>       0.06723309      -0.17008819      -0.00000000 </v>
   <v>      -0.06723309      -0.17008819       0.00000000 </v>
   <v>      -0.00000000       0.05040452      -0.00000000 </v>
   <v>      -0.00000000      -0.05040452       0.00000000 </v>
   <v>       0.06723309       0.17008819       0.00000000 </v>
   <v>      -0.06723309       0.17008819       0.00000000 </v>
  </varray>
  <varray name="stress" >
   <v>       1.25208543       0.00000000       0.00000000 </v>
   <v>       0.00000000      -0.28965922       0.00000000 </v>
   <v>       0.00000000       0.00000000      -0.40760760 </v>
  </varray>
  <energy>
   <i name="e_fr_energy">    -67.23285461 </i>
   <i name="e_wo_entrp">    -67.23285455 </i>
   <i name="e_0_energy">     -0.00000012 </i>
  </energy>
  <time name="totalsc">   88.82   88.95</time>
 </calculation>
 <calculation>
  <scstep>
   <time name="dav">    7.43    7.44</time>
   <time name="total">    8.15    8.16</time>
   <energy>
    <i name="alphaZ">     11.22850792 </i>
    <i name="ewald">   3917.02150081 </i>
    <i name="hartreedc">  -4800.62540247 </i>
    <i name="XCdc">     96.15880443 </i>
    <i name="pawpsdc">   2894.61177441 </i>
    <i name="pawaedc">  -2897.14367297 </i>
    <i name="eentropy">     -0.00000051 </i>
    <i name="bandstr">   -313.69265372 </i>
    <i name="atom">   1025.20389953 </i>
    <i name="e_fr_energy">    -67.23724257 </i>
    <i name="e_wo_entrp">    -67.23724205 </i>
    <i name="e_0_energy">    -67.23724231 </i>
   </energy>
  </scstep>
  <scstep>
   <time name="dav">    6.81    6.82</time>
   <time name="total">    7.52    7.53</time>
   <energy>
    <i name="e_fr_energy">    -67.23451011 </i>
    <i name="e_wo_entrp">    -67.23450987 </i>
    <i name="e_0_energy">    -67.23450999 </i>
   </energy>
  </scstep>
  <scstep>
   <time name="dav">    7.61    7.63</time>
   <time name="total">    8.33    8.34</time>
   <energy>
    <i name="e_fr_energy">    -67.23318708 </i>
    <i name="e_wo_entrp">    -67.23318697 </i>
    <i name="e_0_energy">    -67.23318702 </i>
   </energy>
  </scstep>
  <scstep>
   <time name="dav">    7.24    7.25</time>
   <time name="total">    7.95    7.96</time>
   <energy>
    <i name="e_fr_energy">    -67.23320480 </i>
    <i name="e_wo_entrp">    -67.23320468 </i>
    <i name="e_0_energy">    -67.23320474 </i>
   </energy>
  </scstep>
  <scstep>
   <time name="dav">    7.32    7.32</time>
   <time name="total">    8.03    8.04</time>
   <energy>
    <i name="e_fr_energy">    -67.23321813 </i>
    <i name="e_wo_entrp">    -67.23321803 </i>
    <i name="e_0_energy">    -67.23321808 </i>
   </energy>
  </scstep>
  <scstep>
   <time name="dav">    7.16    7.17</time>
   <time name="total">    7.87    7.88</time>
   <energy>
    <i name="e_fr_energy">    -67.23331371 </i>
    <i name="e_wo_entrp">    -67.23331360 </i>
    <i name="e_0_energy">    -67.23331366 </i>
   </energy>
  </scstep>
  <scstep>
   <time name="dav">    7.44    7.45</time>
   <time name="total">    8.17    8.18</time>
   <energy>
    <i name="e_fr_energy">    -67.23334090 </i>
    <i name="e_wo_entrp">    -67.23334080 </i>
    <i name="e_0_energy">    -67.23334085 </i>
   </energy>
  </scstep>
  <scstep>
   <time name="dav">    7.02    7.03</time>
   <time name="total">    7.74    7.75</time>
   <energy>
    <i name="e_fr_energy">    -67.23339643 </i>
    <i name="e_wo_entrp">    -67.23339633 </i>
    <i name="e_0_energy">    -67.23339638 </i>
   </energy>
  </scstep>
  <scstep>
   <time name="dav">    6.14    6.15</time>
   <time name="total">    6.86    6.87</time>
   <energy>
    <i name="e_fr_energy">    -67.23340317 </i>
    <i name="e_wo_entrp">    -67.23340307 </i>
    <i name="e_0_energy">    -67.23340312 </i>
   </energy>
  </scstep>
  <scstep>
   <time name="dav">    6.34    6.35</time>
   <time name="total">    7.06    7.07</time>
   <energy>
    <i name="e_fr_energy">    -67.23340962 </i>
    <i name="e_wo_entrp">    -67.23340952 </i>
    <i name="e_0_energy">    -67.23340957 </i>
   </energy>
  </scstep>
  <scstep>
   <time name="dav">    5.72    5.75</time>
   <time name="total">    6.44    6.47</time>
   <energy>
    <i name="e_fr_energy">    -67.23341089 </i>
    <i name="e_wo_entrp">    -67.23341079 </i>
    <i name="e_0_energy">    -67.23341084 </i>
   </energy>
  </scstep>
  <scstep>
   <time name="dav">    5.46    5.47</time>
   <time name="total">    5.59    5.60</time>
   <energy>
    <i name="alphaZ">     11.22850792 </i>
    <i name="ewald">   3917.02150081 </i>
    <i name="hartreedc">  -4796.86432365 </i>
    <i name="XCdc">     96.04265588 </i>
    <i name="pawpsdc">   2893.29043664 </i>
    <i name="pawaedc">  -2895.82243279 </i>
    <i name="eentropy">     -0.00000010 </i>
    <i name="bandstr">   -317.33365523 </i>
    <i name="atom">   1025.20389953 </i>
    <i name="e_fr_energy">    -67.23341099 </i>
    <i name="e_wo_entrp">    -67.23341088 </i>
    <i name="e_0_energy">    -67.23341094 </i>
   </energy>
  </scstep>
  <structure>
   <crystal>
    <varray name="basis" >
     <v>       5.17202143       0.00000000       0.00000000 </v>
     <v>       2.58601072       4.47943293       0.00000000 </v>
     <v>       0.00000000       0.00000000      19.49920962 </v>
    </varray>
    <i name="volume">    451.75228935 </i>
    <varray name="rec_basis" >
     <v>       0.19334800      -0.11162127       0.00000000 </v>
     <v>      -0.00000000       0.22324254       0.00000000 </v>
     <v>       0.00000000       0.00000000       0.05128413 </v>
    </varray>
   </crystal>
   <varray name="positions" >
    <v>       0.17476592       0.17424088      -0.00000000 </v>
    <v>       0.50773252       0.50830766      -0.00000000 </v>
    <v>      -0.00056547       0.00036009      -0.00000000 </v>
    <v>       0.52397809       0.00036009      -0.00000000 </v>
    <v>       0.68235911       0.15905450      -0.00000000 </v>
    <v>       0.00013934       0.52349404       0.00000000 </v>
    <v>       0.15852036       0.68218845      -0.00000000 </v>
    <v>       0.68306391       0.68218845       0.00000000 </v>
   </varray>
  </structure>
  <varray name="forces" >
   <v>       0.00000000       0.02449674       0.00000000 </v>
   <v>       0.00000000      -0.02449674      -0.00000000 </v>
   <v>       0.06124410      -0.15130854      -0.00000000 </v>
   <v>      -0.06124410      -0.15130854       0.00000000 </v>
   <v>       0.00000000       0.02571420       0.00000000 </v>
   <v>       0.00000000      -0.02571420       0.00000000 </v>
   <v>       0.06124410       0.15130854       0.00000000 </v>
   <v>      -0.06124410       0.15130854       0.00000000 </v>
  </varray>
  <varray name="stress" >
   <v>       1.05361882       0.00000000       0.00000000 </v>
   <v>       0.00000000      -0.21235167       0.00000000 </v>
   <v>       0.00000000       0.00000000      -0.37772737 </v>
  </varray>
  <energy>
   <i name="e_fr_energy">    -67.23341099 </i>
   <i name="e_wo_entrp">    -67.23341094 </i>
   <i name="e_0_energy">     -0.00000010 </i>
  </energy>
  <time name="totalsc">   96.85   96.99</time>
 </calculation>
 <calculation>
  <scstep>
   <time name="dav">    7.45    7.46</time>
   <time name="total">    8.17    8.18</time>
   <energy>
    <i name="alphaZ">     11.31393271 </i>
    <i name="ewald">   3872.48417122 </i>
    <i name="hartreedc">  -4760.27526982 </i>
    <i name="XCdc">     96.27092634 </i>
    <i name="pawpsdc">   2893.34084161 </i>
    <i name="pawaedc">  -2895.87280054 </i>
    <i name="eentropy">     -0.00000202 </i>
    <i name="bandstr">   -309.71549064 </i>
    <i name="atom">   1025.20389953 </i>
    <i name="e_fr_energy">    -67.24979161 </i>
    <i name="e_wo_entrp">    -67.24978960 </i>
    <i name="e_0_energy">    -67.24979061 </i>
   </energy>
  </scstep>
  <scstep>
   <time name="dav">    6.93    6.93</time>
   <time name="total">    7.65    7.66</time>
   <energy>
    <i name="e_fr_energy">    -67.23883334 </i>
    <i name="e_wo_entrp">    -67.23883286 </i>
    <i name="e_0_energy">    -67.23883310 </i>
   </energy>
  </scstep>
  <scstep>
   <time name="dav">    7.60    7.61</time>
   <time name="total">    8.32    8.33</time>
   <energy>
    <i name="e_fr_energy">    -67.23381581 </i>
    <i name="e_wo_entrp">    -67.23381571 </i>
    <i name="e_0_energy">    -67.23381576 </i>
   </energy>
  </scstep>
  <scstep>
   <time name="dav">    7.24    7.25</time>
   <time name="total">    7.96    7.97</time>
   <energy>
    <i name="e_fr_energy">    -67.23383661 </i>
    <i name="e_wo_entrp">    -67.23383650 </i>
    <i name="e_0_energy">    -67.23383655 </i>
   </energy>
  </scstep>
  <scstep>
   <time name="dav">    7.36    7.38</time>
   <time name="total">    8.09    8.11</time>
   <energy>
    <i name="e_fr_energy">    -67.23385118 </i>
    <i name="e_wo_entrp">    -67.23385109 </i>
    <i name="e_0_energy">    -67.23385114 </i>
   </energy>
  </scstep>
  <scstep>
   <time name="dav">    7.25    7.26</time>
   <time name="total">    7.96    7.97</time>
   <energy>
    <i name="e_fr_energy">    -67.23410424 </i>
    <i name="e_wo_entrp">    -67.23410415 </i>
    <i name="e_0_energy">    -67.23410419 </i>
   </energy>
  </scstep>
  <scstep>
   <time name="dav">    7.44    7.45</time>
   <time name="total">    8.16    8.17</time>
   <energy>
    <i name="e_fr_energy">    -67.23418034 </i>
    <i name="e_wo_entrp">    -67.23418025 </i>
    <i name="e_0_energy">    -67.23418030 </i>
   </energy>
  </scstep>
  <scstep>
   <time name="dav">    7.02    7.03</time>
   <time name="total">    7.74    7.75</time>
   <energy>
    <i name="e_fr_energy">    -67.23429992 </i>
    <i name="e_wo_entrp">    -67.23429984 </i>
    <i name="e_0_energy">    -67.23429988 </i>
   </energy>
  </scstep>
  <scstep>
   <time name="dav">    7.38    7.39</time>
   <time name="total">    8.09    8.10</time>
   <energy>
    <i name="e_fr_energy">    -67.23431416 </i>
    <i name="e_wo_entrp">    -67.23431408 </i>
    <i name="e_0_energy">    -67.23431412 </i>
   </energy>
  </scstep>
  <scstep>
   <time name="dav">    6.55    6.56</time>
   <time name="total">    7.27    7.28</time>
   <energy>
    <i name="e_fr_energy">    -67.23432604 </i>
    <i name="e_wo_entrp">    -67.23432596 </i>
    <i name="e_0_energy">    -67.23432600 </i>
   </energy>
  </scstep>
  <scstep>
   <time name="dav">    5.67    5.68</time>
   <time name="total">    6.39    6.40</time>
   <energy>
    <i name="e_fr_energy">    -67.23432868 </i>
    <i name="e_wo_entrp">    -67.23432859 </i>
    <i name="e_0_energy">    -67.23432864 </i>
   </energy>
  </scstep>
  <scstep>
   <time name="dav">    5.47    5.47</time>
   <time name="total">    5.60    5.60</time>
   <energy>
    <i name="alphaZ">     11.31393271 </i>
    <i name="ewald">   3872.48417122 </i>
    <i name="hartreedc">  -4752.73070578 </i>
    <i name="XCdc">     96.03715421 </i>
    <i name="pawpsdc">   2890.67739778 </i>
    <i name="pawaedc">  -2893.20951795 </i>
    <i name="eentropy">     -0.00000009 </i>
    <i name="bandstr">   -317.01066042 </i>
    <i name="atom">   1025.20389953 </i>
    <i name="e_fr_energy">    -67.23432878 </i>
    <i name="e_wo_entrp">    -67.23432870 </i>
    <i name="e_0_energy">    -67.23432874 </i>
   </energy>
  </scstep>
  <structure>
   <crystal>
    <varray name="basis" >
     <v>       5.17306427       0.00000000       0.00000000 </v>
     <v>       2.58653213       4.47911563       0.00000000 </v>
     <v>       0.00000000       0.00000000      19.34945214 </v>
    </varray>
    <i name="volume">    448.34137626 </i>
    <varray name="rec_basis" >
     <v>       0.19330902      -0.11162918       0.00000000 </v>
     <v>      -0.00000000       0.22325836       0.00000000 </v>
     <v>       0.00000000       0.00000000       0.05168105 </v>
    </varray>
   </crystal>
   <varray name="positions" >
    <v>       0.17481052       0.17415168      -0.00000000 </v>
    <v>       0.50768792       0.50839686      -0.00000000 </v>
    <v>      -0.00055736       0.00029594      -0.00000000 </v>
    <v>       0.52403413       0.00029594      -0.00000000 </v>
    <v>       0.68225382       0.15926506      -0.00000000 </v>
    <v>       0.00024462       0.52328348       0.00000000 </v>
    <v>       0.15846431       0.68225260      -0.00000000 </v>
    <v>       0.68305580       0.68225260       0.00000000 </v>
   </varray>
  </structure>
  <varray name="forces" >
   <v>      -0.00000000       0.01275150       0.00000000 </v>
   <v>       0.00000000      -0.01275150       0.00000000 </v>
   <v>       0.04937759      -0.11369178       0.00000000 </v>
   <v>      -0.04937759      -0.11369178      -0.00000000 </v>
   <v>      -0.00000000      -0.02359487      -0.00000000 </v>
   <v>       0.00000000       0.02359487       0.00000000 </v>
   <v>       0.04937759       0.11369178       0.00000000 </v>
   <v>      -0.04937759       0.11369178       0.00000000 </v>
  </varray>
  <varray name="stress" >
   <v>       0.65105061       0.00000000       0.00000000 </v>
   <v>      -0.00000000      -0.05761651       0.00000000 </v>
   <v>       0.00000000       0.00000000      -0.32582415 </v>
  </varray>
  <energy>
   <i name="e_fr_energy">    -67.23432878 </i>
   <i name="e_wo_entrp">    -67.23432874 </i>
   <i name="e_0_energy">     -0.00000009 </i>
  </energy>
  <time name="totalsc">   98.50   98.65</time>
 </calculation>
