BC3                                     
           1
     5.174000    0.000000    0.000000
     2.587000    4.481000    0.000000
     0.000000    0.000000   20.000000
   B    C 
   2   6
Direct configuration=     1
   0.17457326  0.17462620  0.00000000
   0.50792519  0.50792234  0.00000000
   0.00000000  0.00000000  0.00000000
   0.52377271  0.00000000  0.00000000
   0.68255138  0.15866994  0.00000000
   0.99994706  0.52387860  0.00000000
   0.15872573  0.68254854  0.00000000
   0.68249844  0.68254854  0.00000000
BC3                                     
           1
     5.171515    0.000000    0.000000
     2.585758    4.478448    0.000000
     0.000000    0.000000   19.978616
   B    C 
   2   6
Direct configuration=     2
   0.17454912  0.17467446 -0.00000000
   0.50794932  0.50787408 -0.00000000
  -0.00010827 -0.00012316 -0.00000000
   0.52400414 -0.00012316 -0.00000000
   0.68259956  0.15857359 -0.00000000
   0.99989888  0.52397495  0.00000000
   0.15849430  0.68267170 -0.00000000
   0.68260671  0.68267170  0.00000000
BC3                                     
           1
     5.172632    0.000000    0.000000
     2.586316    4.479595    0.000000
     0.000000    0.000000   19.988232
   B    C 
   2   6
Direct configuration=     3
   0.17455998  0.17465275 -0.00000000
   0.50793846  0.50789579 -0.00000000
  -0.00005956 -0.00006775 -0.00000000
   0.52390002 -0.00006775 -0.00000000
   0.68257789  0.15861694 -0.00000000
   0.99992056  0.52393160  0.00000000
   0.15859842  0.68261628 -0.00000000
   0.68255800  0.68261628  0.00000000
BC3                                     
           1
     5.172539    0.000000    0.000000
     2.586270    4.479604    0.000000
     0.000000    0.000000   19.968184
   B    C 
   2   6
Direct configuration=     4
   0.17456945  0.17463381 -0.00000000
   0.50792899  0.50791473 -0.00000000
  -0.00008937 -0.00003935 -0.00000000
   0.52390143 -0.00003935 -0.00000000
   0.68257104  0.15863062 -0.00000000
   0.99992740  0.52391792  0.00000000
   0.15859701  0.68258789 -0.00000000
   0.68258781  0.68258789  0.00000000
BC3                                     
           1
     5.172259    0.000000    0.000000
     2.586129    4.479628    0.000000
     0.000000    0.000000   19.908041
   B    C 
   2   6
Direct configuration=     5
   0.17459786  0.17457699 -0.00000000
   0.50790058  0.50797155 -0.00000000
  -0.00017878  0.00004582 -0.00000000
   0.52390567  0.00004582 -0.00000000
   0.68255052  0.15867166 -0.00000000
   0.99994792  0.52387687  0.00000000
   0.15859277  0.68250271 -0.00000000
   0.68267722  0.68250271  0.00000000
BC3                                     
           1
     5.171698    0.000000    0.000000
     2.585849    4.479678    0.000000
     0.000000    0.000000   19.787754
   B    C 
   2   6
Direct configuration=     6
   0.17465468  0.17446336 -0.00000000
   0.50784377  0.50808518 -0.00000000
  -0.00035762  0.00021618 -0.00000000
   0.52391415  0.00021618 -0.00000000
   0.68250948  0.15875375 -0.00000000
   0.99998896  0.52379479  0.00000000
   0.15858429  0.68233236 -0.00000000
   0.68285606  0.68233236  0.00000000
BC3                                     
           1
     5.170577    0.000000    0.000000
     2.585288    4.479776    0.000000
     0.000000    0.000000   19.547181
   B    C 
   2   6
Direct configuration=     7
   0.17476831  0.17423610 -0.00000000
   0.50773013  0.50831244 -0.00000000
  -0.00071531  0.00055688 -0.00000000
   0.52393114  0.00055688 -0.00000000
   0.68242739  0.15891792 -0.00000000
   0.00007105  0.52363062  0.00000000
   0.15856730  0.68199166 -0.00000000
   0.68321375  0.68199166  0.00000000
BC3                                     
           1
     5.171022    0.000000    0.000000
     2.585511    4.479737    0.000000
     0.000000    0.000000   19.642727
   B    C 
   2   6
Direct configuration=     8
   0.17472318  0.17432635 -0.00000000
   0.50777526  0.50822218 -0.00000000
  -0.00057323  0.00042157 -0.00000000
   0.52392437  0.00042157 -0.00000000
   0.68245999  0.15885272 -0.00000000
   0.00003845  0.52369582  0.00000000
   0.15857407  0.68212697 -0.00000000
   0.68307167  0.68212697  0.00000000
BC3                                     
           1
     5.171044    0.000000    0.000000
     2.585522    4.479730    0.000000
     0.000000    0.000000   19.639607
   B    C 
   2   6
Direct configuration=     9
   0.17472411  0.17432450 -0.00000000
   0.50777433  0.50822404 -0.00000000
  -0.00057306  0.00042023 -0.00000000
   0.52392554  0.00042023 -0.00000000
   0.68245780  0.15885711 -0.00000000
   0.00004064  0.52369143  0.00000000
   0.15857290  0.68212830 -0.00000000
   0.68307151  0.68212830  0.00000000
BC3                                     
           1
     5.171109    0.000000    0.000000
     2.585554    4.479711    0.000000
     0.000000    0.000000   19.630247
   B    C 
   2   6
Direct configuration=    10
   0.17472689  0.17431892 -0.00000000
   0.50777155  0.50822962 -0.00000000
  -0.00057256  0.00041622 -0.00000000
   0.52392904  0.00041622 -0.00000000
   0.68245122  0.15887027 -0.00000000
   0.00004722  0.52367827  0.00000000
   0.15856940  0.68213231 -0.00000000
   0.68307100  0.68213231  0.00000000
BC3                                     
           1
     5.171239    0.000000    0.000000
     2.585620    4.479671    0.000000
     0.000000    0.000000   19.611528
   B    C 
   2   6
Direct configuration=    11
   0.17473247  0.17430777 -0.00000000
   0.50776597  0.50824077 -0.00000000
  -0.00057155  0.00040821 -0.00000000
   0.52393605  0.00040821 -0.00000000
   0.68243806  0.15889659 -0.00000000
   0.00006038  0.52365195  0.00000000
   0.15856239  0.68214033 -0.00000000
   0.68306999  0.68214033  0.00000000
BC3                                     
           1
     5.171500    0.000000    0.000000
     2.585750    4.479592    0.000000
     0.000000    0.000000   19.574088
   B    C 
   2   6
Direct configuration=    12
   0.17474362  0.17428547 -0.00000000
   0.50775482  0.50826306 -0.00000000
  -0.00056952  0.00039217 -0.00000000
   0.52395006  0.00039217 -0.00000000
   0.68241174  0.15894922 -0.00000000
   0.00008670  0.52359932  0.00000000
   0.15854838  0.68215637 -0.00000000
   0.68306796  0.68215637  0.00000000
BC3                                     
           1
     5.172021    0.000000    0.000000
     2.586011    4.479433    0.000000
     0.000000    0.000000   19.499210
   B    C 
   2   6
Direct configuration=    13
   0.17476592  0.17424088 -0.00000000
   0.50773252  0.50830766 -0.00000000
  -0.00056547  0.00036009 -0.00000000
   0.52397809  0.00036009 -0.00000000
   0.68235911  0.15905450 -0.00000000
   0.00013934  0.52349404  0.00000000
   0.15852036  0.68218845 -0.00000000
   0.68306391  0.68218845  0.00000000
BC3                                     
           1
     5.173064    0.000000    0.000000
     2.586532    4.479116    0.000000
     0.000000    0.000000   19.349452
   B    C 
   2   6
Direct configuration=    14
   0.17481052  0.17415168 -0.00000000
   0.50768792  0.50839686 -0.00000000
  -0.00055736  0.00029594 -0.00000000
   0.52403413  0.00029594 -0.00000000
   0.68225382  0.15926506 -0.00000000
   0.00024462  0.52328348  0.00000000
   0.15846431  0.68225260 -0.00000000
   0.68305580  0.68225260  0.00000000
BC3                                     
           1
     5.175150    0.000000    0.000000
     2.587575    4.478481    0.000000
     0.000000    0.000000   19.049937
   B    C 
   2   6
Direct configuration=    15
   0.17489972  0.17397327 -0.00000000
   0.50759872  0.50857527 -0.00000000
  -0.00054113  0.00016762 -0.00000000
   0.52414622  0.00016762 -0.00000000
   0.68204325  0.15968621 -0.00000000
   0.00045519  0.52286233  0.00000000
   0.15835222  0.68238092 -0.00000000
   0.68303957  0.68238092  0.00000000
BC3                                     
           1
     5.179321    0.000000    0.000000
     2.589661    4.477212    0.000000
     0.000000    0.000000   18.450907
   B    C 
   2   6
Direct configuration=    16
   0.17507816  0.17361639 -0.00000000
   0.50742028  0.50893214 -0.00000000
  -0.00050861 -0.00008904 -0.00000000
   0.52437037 -0.00008904 -0.00000000
   0.68162204  0.16052864 -0.00000000
   0.00087640  0.52201990  0.00000000
   0.15812807  0.68263758 -0.00000000
   0.68300705  0.68263758  0.00000000
BC3                                     
           1
     5.177039    0.000000    0.000000
     2.588519    4.477906    0.000000
     0.000000    0.000000   18.778658
   B    C 
   2   6
Direct configuration=    17
   0.17498050  0.17381171 -0.00000000
   0.50751794  0.50873683 -0.00000000
  -0.00052647  0.00005143 -0.00000000
   0.52424775  0.00005143 -0.00000000
   0.68185256  0.16006759 -0.00000000
   0.00064588  0.52248095  0.00000000
   0.15825069  0.68249711 -0.00000000
   0.68302491  0.68249711  0.00000000
BC3                                     
           1
     5.176834    0.000000    0.000000
     2.588417    4.478228    0.000000
     0.000000    0.000000   18.630134
   B    C 
   2   6
Direct configuration=    18
   0.17505448  0.17366375 -0.00000000
   0.50744396  0.50888479 -0.00000000
  -0.00053691  0.00003737 -0.00000000
   0.52427226  0.00003737 -0.00000000
   0.68192714  0.15991844 -0.00000000
   0.00057130  0.52263010  0.00000000
   0.15822618  0.68251117 -0.00000000
   0.68303535  0.68251117  0.00000000
BC3                                     
           1
     5.176219    0.000000    0.000000
     2.588110    4.479191    0.000000
     0.000000    0.000000   18.184562
   B    C 
   2   6
Direct configuration=    19
   0.17527639  0.17321992 -0.00000000
   0.50722205  0.50932862 -0.00000000
  -0.00056826 -0.00000481 -0.00000000
   0.52434578 -0.00000481 -0.00000000
   0.68215084  0.15947102 -0.00000000
   0.00034760  0.52307752  0.00000000
   0.15815266  0.68255335 -0.00000000
   0.68306670  0.68255335  0.00000000
BC3                                     
           1
     5.175998    0.000000    0.000000
     2.587999    4.479538    0.000000
     0.000000    0.000000   18.024471
   B    C 
   2   6
Direct configuration=    20
   0.17535611  0.17306049 -0.00000000
   0.50714233  0.50948805 -0.00000000
  -0.00057953 -0.00001996 -0.00000000
   0.52437220 -0.00001996 -0.00000000
   0.68223120  0.15931030 -0.00000000
   0.00026724  0.52323823  0.00000000
   0.15812624  0.68256850 -0.00000000
   0.68307797  0.68256850  0.00000000
BC3                                     
           1
     5.175556    0.000000    0.000000
     2.587778    4.480230    0.000000
     0.000000    0.000000   17.704288
   B    C 
   2   6
Direct configuration=    21
   0.17551553  0.17274165 -0.00000000
   0.50698291  0.50980689 -0.00000000
  -0.00060207 -0.00005026 -0.00000000
   0.52442503 -0.00005026 -0.00000000
   0.68239191  0.15898889 -0.00000000
   0.00010653  0.52355965  0.00000000
   0.15807341  0.68259879 -0.00000000
   0.68310051  0.68259879  0.00000000
BC3                                     
           1
     5.175843    0.000000    0.000000
     2.587921    4.479781    0.000000
     0.000000    0.000000   17.911942
   B    C 
   2   6
Direct configuration=    22
   0.17541215  0.17294840 -0.00000000
   0.50708629  0.50960014 -0.00000000
  -0.00058745 -0.00003061 -0.00000000
   0.52439076 -0.00003061 -0.00000000
   0.68228770  0.15919731 -0.00000000
   0.00021074  0.52335123  0.00000000
   0.15810768  0.68257915 -0.00000000
   0.68308589  0.68257915  0.00000000
BC3                                     
           1
     5.175738    0.000000    0.000000
     2.587869    4.480222    0.000000
     0.000000    0.000000   17.723225
   B    C 
   2   6
Direct configuration=    23
   0.17535613  0.17306044 -0.00000000
   0.50714231  0.50948810 -0.00000000
  -0.00052460 -0.00007936 -0.00000000
   0.52437666 -0.00007936 -0.00000000
   0.68231738  0.15913795 -0.00000000
   0.00018106  0.52341059  0.00000000
   0.15812178  0.68262789 -0.00000000
   0.68302304  0.68262789  0.00000000
