BC3                                     
           1
     5.174000    0.000000    0.000000
     2.587000    4.481000    0.000000
     0.000000    0.000000   20.000000
   B    C 
   2   6
Direct configuration=     1
   0.17457326  0.17462620  0.00000000
   0.50792519  0.50792234  0.00000000
   0.00000000  0.00000000  0.00000000
   0.52377271  0.00000000  0.00000000
   0.68255138  0.15866994  0.00000000
   0.99994706  0.52387860  0.00000000
   0.15872573  0.68254854  0.00000000
   0.68249844  0.68254854  0.00000000
BC3                                     
           1
     5.171515    0.000000    0.000000
     2.585758    4.478448    0.000000
     0.000000    0.000000   19.978616
   B    C 
   2   6
Direct configuration=     2
   0.17454912  0.17467446 -0.00000000
   0.50794932  0.50787408 -0.00000000
  -0.00010827 -0.00012316 -0.00000000
   0.52400414 -0.00012316 -0.00000000
   0.68259956  0.15857359 -0.00000000
   0.99989888  0.52397495  0.00000000
   0.15849430  0.68267170 -0.00000000
   0.68260671  0.68267170  0.00000000
BC3                                     
           1
     5.172632    0.000000    0.000000
     2.586316    4.479595    0.000000
     0.000000    0.000000   19.988232
   B    C 
   2   6
Direct configuration=     3
   0.17455998  0.17465275 -0.00000000
   0.50793846  0.50789579 -0.00000000
  -0.00005956 -0.00006775 -0.00000000
   0.52390002 -0.00006775 -0.00000000
   0.68257789  0.15861694 -0.00000000
   0.99992056  0.52393160  0.00000000
   0.15859842  0.68261628 -0.00000000
   0.68255800  0.68261628  0.00000000
BC3                                     
           1
     5.172539    0.000000    0.000000
     2.586270    4.479604    0.000000
     0.000000    0.000000   19.968184
   B    C 
   2   6
Direct configuration=     4
   0.17456945  0.17463381 -0.00000000
   0.50792899  0.50791473 -0.00000000
  -0.00008937 -0.00003935 -0.00000000
   0.52390143 -0.00003935 -0.00000000
   0.68257104  0.15863062 -0.00000000
   0.99992740  0.52391792  0.00000000
   0.15859701  0.68258789 -0.00000000
   0.68258781  0.68258789  0.00000000
BC3                                     
           1
     5.172259    0.000000    0.000000
     2.586129    4.479628    0.000000
     0.000000    0.000000   19.908041
   B    C 
   2   6
Direct configuration=     5
   0.17459786  0.17457699 -0.00000000
   0.50790058  0.50797155 -0.00000000
  -0.00017878  0.00004582 -0.00000000
   0.52390567  0.00004582 -0.00000000
   0.68255052  0.15867166 -0.00000000
   0.99994792  0.52387687  0.00000000
   0.15859277  0.68250271 -0.00000000
   0.68267722  0.68250271  0.00000000
BC3                                     
           1
     5.171698    0.000000    0.000000
     2.585849    4.479678    0.000000
     0.000000    0.000000   19.787754
   B    C 
   2   6
Direct configuration=     6
   0.17465468  0.17446336 -0.00000000
   0.50784377  0.50808518 -0.00000000
  -0.00035762  0.00021618 -0.00000000
   0.52391415  0.00021618 -0.00000000
   0.68250948  0.15875375 -0.00000000
   0.99998896  0.52379479  0.00000000
   0.15858429  0.68233236 -0.00000000
   0.68285606  0.68233236  0.00000000
BC3                                     
           1
     5.170577    0.000000    0.000000
     2.585288    4.479776    0.000000
     0.000000    0.000000   19.547181
   B    C 
   2   6
Direct configuration=     7
   0.17476831  0.17423610 -0.00000000
   0.50773013  0.50831244 -0.00000000
  -0.00071531  0.00055688 -0.00000000
   0.52393114  0.00055688 -0.00000000
   0.68242739  0.15891792 -0.00000000
   0.00007105  0.52363062  0.00000000
   0.15856730  0.68199166 -0.00000000
   0.68321375  0.68199166  0.00000000
BC3                                     
           1
     5.171022    0.000000    0.000000
     2.585511    4.479737    0.000000
     0.000000    0.000000   19.642727
   B    C 
   2   6
Direct configuration=     8
   0.17472318  0.17432635 -0.00000000
   0.50777526  0.50822218 -0.00000000
  -0.00057323  0.00042157 -0.00000000
   0.52392437  0.00042157 -0.00000000
   0.68245999  0.15885272 -0.00000000
   0.00003845  0.52369582  0.00000000
   0.15857407  0.68212697 -0.00000000
   0.68307167  0.68212697  0.00000000
BC3                                     
           1
     5.171044    0.000000    0.000000
     2.585522    4.479730    0.000000
     0.000000    0.000000   19.639607
   B    C 
   2   6
Direct configuration=     9
   0.17472411  0.17432450 -0.00000000
   0.50777433  0.50822404 -0.00000000
  -0.00057306  0.00042023 -0.00000000
   0.52392554  0.00042023 -0.00000000
   0.68245780  0.15885711 -0.00000000
   0.00004064  0.52369143  0.00000000
   0.15857290  0.68212830 -0.00000000
   0.68307151  0.68212830  0.00000000
BC3                                     
           1
     5.171109    0.000000    0.000000
     2.585554    4.479711    0.000000
     0.000000    0.000000   19.630247
   B    C 
   2   6
Direct configuration=    10
   0.17472689  0.17431892 -0.00000000
   0.50777155  0.50822962 -0.00000000
  -0.00057256  0.00041622 -0.00000000
   0.52392904  0.00041622 -0.00000000
   0.68245122  0.15887027 -0.00000000
   0.00004722  0.52367827  0.00000000
   0.15856940  0.68213231 -0.00000000
   0.68307100  0.68213231  0.00000000
BC3                                     
           1
     5.171239    0.000000    0.000000
     2.585620    4.479671    0.000000
     0.000000    0.000000   19.611528
   B    C 
   2   6
Direct configuration=    11
   0.17473247  0.17430777 -0.00000000
   0.50776597  0.50824077 -0.00000000
  -0.00057155  0.00040821 -0.00000000
   0.52393605  0.00040821 -0.00000000
   0.68243806  0.15889659 -0.00000000
   0.00006038  0.52365195  0.00000000
   0.15856239  0.68214033 -0.00000000
   0.68306999  0.68214033  0.00000000
BC3                                     
           1
     5.171500    0.000000    0.000000
     2.585750    4.479592    0.000000
     0.000000    0.000000   19.574088
   B    C 
   2   6
Direct configuration=    12
   0.17474362  0.17428547 -0.00000000
   0.50775482  0.50826306 -0.00000000
  -0.00056952  0.00039217 -0.00000000
   0.52395006  0.00039217 -0.00000000
   0.68241174  0.15894922 -0.00000000
   0.00008670  0.52359932  0.00000000
   0.15854838  0.68215637 -0.00000000
   0.68306796  0.68215637  0.00000000
BC3                                     
           1
     5.172021    0.000000    0.000000
     2.586011    4.479433    0.000000
     0.000000    0.000000   19.499210
   B    C 
   2   6
Direct configuration=    13
   0.17476592  0.17424088 -0.00000000
   0.50773252  0.50830766 -0.00000000
  -0.00056547  0.00036009 -0.00000000
   0.52397809  0.00036009 -0.00000000
   0.68235911  0.15905450 -0.00000000
   0.00013934  0.52349404  0.00000000
   0.15852036  0.68218845 -0.00000000
   0.68306391  0.68218845  0.00000000
