 vasp.5.4.4.18Apr17-6-g9f103f2a35 (build Mar 30 2023 15:39:25) complex          
  
 executed on             LinuxIFC date 2023.06.23  15:25:19
 running on   12 total cores
 distrk:  each k-point on   12 cores,    1 groups
 distr:  one band on NCORES_PER_BAND=   1 cores,   12 groups


--------------------------------------------------------------------------------------------------------


 INCAR:
 POTCAR:    PAW_PBE B 06Sep2000                   
 POTCAR:    PAW_PBE C 08Apr2002                   

 ----------------------------------------------------------------------------- 
|                                                                             |
|           W    W    AA    RRRRR   N    N  II  N    N   GGGG   !!!           |
|           W    W   A  A   R    R  NN   N  II  NN   N  G    G  !!!           |
|           W    W  A    A  R    R  N N  N  II  N N  N  G       !!!           |
|           W WW W  AAAAAA  RRRRR   N  N N  II  N  N N  G  GGG   !            |
|           WW  WW  A    A  R   R   N   NN  II  N   NN  G    G                |
|           W    W  A    A  R    R  N    N  II  N    N   GGGG   !!!           |
|                                                                             |
|      For optimal performance we recommend to set                            |
|        NCORE= 4 - approx SQRT( number of cores)                             |
|      NCORE specifies how many cores store one orbital (NPAR=cpu/NCORE).     |
|      This setting can  greatly improve the performance of VASP for DFT.     |
|      The default,   NCORE=1            might be grossly inefficient         |
|      on modern multi-core architectures or massively parallel machines.     |
|      Do your own testing !!!!                                               |
|      Unfortunately you need to use the default for GW and RPA calculations. |
|      (for HF NCORE is supported but not extensively tested yet)             |
|                                                                             |
 ----------------------------------------------------------------------------- 

 POTCAR:    PAW_PBE B 06Sep2000                   
   SHA256 =  a32ced30f5ae56fd4d10b4325ff17eb3e4e38ee0f4288bc219fb012fddfa6e97 B/
   COPYR  = (c) Copyright 06Sep2000 Georg Kresse                                
   COPYR  = This file is part of the software VASP. Any use, copying, and all ot
   COPYR  = If you do not have a valid VASP license, you may not use, copy or di
   VRHFIN =B: s2p1                                                              
   LEXCH  = PE                                                                  
   EATOM  =    71.1703 eV,    5.2309 Ry                                         
                                                                                
   TITEL  = PAW_PBE B 06Sep2000                                                 
   LULTRA =        F    use ultrasoft PP ?                                      
   IUNSCR =        1    unscreen: 0-lin 1-nonlin 2-no                           
   RPACOR =    1.200    partial core radius                                     
   POMASS =   10.811; ZVAL   =    3.000    mass and valenz                      
   RCORE  =    1.700    outmost cutoff radius                                   
   RWIGS  =    1.710; RWIGS  =    0.905    wigner-seitz radius (au A)           
   ENMAX  =  318.614; ENMIN  =  238.960 eV                                      
   ICORE  =        2    local potential                                         
   LCOR   =        T    correct aug charges                                     
   LPAW   =        T    paw PP                                                  
   EAUG   =  535.514                                                            
   DEXC   =    0.000                                                            
   RMAX   =    1.732    core radius for proj-oper                               
   RAUG   =    1.300    factor for augmentation sphere                          
   RDEP   =    1.757    radius for radial grids                                 
   RDEPT  =    1.436    core radius for aug-charge                              
                                                                                
   Atomic configuration                                                         
    4 entries                                                                   
     n  l   j            E        occ.                                          
     1  0  0.50      -180.5896   2.0000                                         
     2  0  0.50        -9.4431   2.0000                                         
     2  1  0.50        -3.6068   1.0000                                         
     3  2  1.50        -4.0817   0.0000                                         
   Description                                                                  
     l       E           TYP  RCUT    TYP  RCUT                                 
     0     -9.4430752     23  1.500                                             
     0      0.8675899     23  1.500                                             
     1     -3.6067955     23  1.700                                             
     1      6.1086146     23  1.700                                             
     2     -4.0817478      7  1.700                                             
  local pseudopotential read in
  partial core-charges read in
  partial kinetic energy density read in
  atomic valenz-charges read in
  non local Contribution for L=           0  read in
    real space projection operators read in
  non local Contribution for L=           0  read in
    real space projection operators read in
  non local Contribution for L=           1  read in
    real space projection operators read in
  non local Contribution for L=           1  read in
    real space projection operators read in
    PAW grid and wavefunctions read in
 
   number of l-projection  operators is LMAX  =           4
   number of lm-projection operators is LMMAX =           8
 
 POTCAR:    PAW_PBE C 08Apr2002                   
   SHA256 =  253f7b50bb8d59471dbedb8285d89021f4a42ed1a2c5d38a03a736e69125dd95 C/
   COPYR  = (c) Copyright 08Apr2002 Georg Kresse                                
   COPYR  = This file is part of the software VASP. Any use, copying, and all ot
   COPYR  = If you do not have a valid VASP license, you may not use, copy or di
   VRHFIN =C: s2p2                                                              
   LEXCH  = PE                                                                  
   EATOM  =   147.1560 eV,   10.8157 Ry                                         
                                                                                
   TITEL  = PAW_PBE C 08Apr2002                                                 
   LULTRA =        F    use ultrasoft PP ?                                      
   IUNSCR =        1    unscreen: 0-lin 1-nonlin 2-no                           
   RPACOR =    1.200    partial core radius                                     
   POMASS =   12.011; ZVAL   =    4.000    mass and valenz                      
   RCORE  =    1.500    outmost cutoff radius                                   
   RWIGS  =    1.630; RWIGS  =    0.863    wigner-seitz radius (au A)           
   ENMAX  =  400.000; ENMIN  =  300.000 eV                                      
   ICORE  =        2    local potential                                         
   LCOR   =        T    correct aug charges                                     
   LPAW   =        T    paw PP                                                  
   EAUG   =  644.873                                                            
   DEXC   =    0.000                                                            
   RMAX   =    1.529    core radius for proj-oper                               
   RAUG   =    1.300    factor for augmentation sphere                          
   RDEP   =    1.501    radius for radial grids                                 
   RDEPT  =    1.300    core radius for aug-charge                              
                                                                                
   Atomic configuration                                                         
    4 entries                                                                   
     n  l   j            E        occ.                                          
     1  0  0.50      -273.3789   2.0000                                         
     2  0  0.50       -13.7508   2.0000                                         
     2  1  0.50        -5.2854   2.0000                                         
     3  2  1.50        -5.4423   0.0000                                         
   Description                                                                  
     l       E           TYP  RCUT    TYP  RCUT                                 
     0    -13.7508458     23  1.200                                             
     0     -8.2022199     23  1.200                                             
     1     -5.2854383     23  1.500                                             
     1     34.0145650     23  1.500                                             
     2     -5.4423304      7  1.500                                             
  local pseudopotential read in
  partial core-charges read in
  partial kinetic energy density read in
  atomic valenz-charges read in
  non local Contribution for L=           0  read in
    real space projection operators read in
  non local Contribution for L=           0  read in
    real space projection operators read in
  non local Contribution for L=           1  read in
    real space projection operators read in
  non local Contribution for L=           1  read in
    real space projection operators read in
    PAW grid and wavefunctions read in
 
   number of l-projection  operators is LMAX  =           4
   number of lm-projection operators is LMMAX =           8
 
  PAW_PBE B 06Sep2000                   :
 energy of atom  1       EATOM=  -71.1703
 kinetic energy error for atom=    0.0015 (will be added to EATOM!!)
  PAW_PBE C 08Apr2002                   :
 energy of atom  2       EATOM= -147.1560
 kinetic energy error for atom=    0.0116 (will be added to EATOM!!)
 
 
 POSCAR: BC3 with lattice parameter 5.174Ang, len
  positions in direct lattice
  velocities in cartesian coordinates
 exchange correlation table for  LEXCH =        8
   RHO(1)=    0.500       N(1)  =     2000
   RHO(2)=  100.500       N(2)  =     4000
 


--------------------------------------------------------------------------------------------------------


 ion  position               nearest neighbor table
   1  0.333  0.667  0.250-   3 1.57   7 1.57   5 1.57
   2  0.667  0.333  0.250-   4 1.57   8 1.57   6 1.57
   3  0.159  0.317  0.250-   6 1.42   4 1.42   1 1.57
   4  0.317  0.159  0.250-   5 1.42   3 1.42   2 1.57
   5  0.159  0.841  0.250-   4 1.42   8 1.42   1 1.57
   6  0.841  0.159  0.250-   3 1.42   7 1.42   2 1.57
   7  0.683  0.841  0.250-   6 1.42   8 1.42   1 1.57
   8  0.841  0.683  0.250-   5 1.42   7 1.42   2 1.57
 
  LATTYP: Found a hexagonal cell.
 ALAT       =     5.1740377035
 C/A-ratio  =     1.6467258045
  
  Lattice vectors:
  
 A1 = (   4.4808484340,   2.5870188517,   0.0000000000)
 A2 = (  -4.4808484340,   2.5870188517,   0.0000000000)
 A3 = (   0.0000000000,   0.0000000000,   8.5202213998)


Analysis of symmetry for initial positions (statically):
=====================================================================
 Subroutine PRICEL returns:
 Original cell was already a primitive cell.
 

 Routine SETGRP: Setting up the symmetry group for a 
 hexagonal supercell.


 Subroutine GETGRP returns: Found 24 space group operations
 (whereof 12 operations were pure point group operations)
 out of a pool of 24 trial point group operations.


The static configuration has the point symmetry C_6v.
 The point group associated with its full space group is D_6h.


Analysis of symmetry for dynamics (positions and initial velocities):
=====================================================================
 Subroutine PRICEL returns:
 Original cell was already a primitive cell.
 

 Routine SETGRP: Setting up the symmetry group for a 
 hexagonal supercell.


 Subroutine GETGRP returns: Found 24 space group operations
 (whereof 12 operations were pure point group operations)
 out of a pool of 24 trial point group operations.


The dynamic configuration has the point symmetry C_6v.
 The point group associated with its full space group is D_6h.


 Subroutine INISYM returns: Found 24 space group operations
 (whereof 12 operations are pure point group operations),
 and found     1 'primitive' translations



 irot  :   1
 --------------------------------------------------------------------
 isymop:   1   0   0
           0   1   0
           0   0   1

 gtrans:     0.0000000     0.0000000     0.0000000

 ptrans:     0.0000000     0.0000000     0.0000000
 
 rotmap:
 (   1->   1)  (   2->   2)  (   3->   3)  (   4->   4)  (   5->   5) 
 (   6->   6)  (   7->   7)  (   8->   8) 


 irot  :   2
 --------------------------------------------------------------------
 isymop:   1  -1   0
           1   0   0
           0   0   1

 gtrans:     0.0000000     0.0000000     0.0000000

 ptrans:     0.0000000     0.0000000     0.0000000
 
 rotmap:
 (   1->   2)  (   2->   1)  (   3->   6)  (   4->   3)  (   5->   4) 
 (   6->   7)  (   7->   8)  (   8->   5) 


 irot  :   3
 --------------------------------------------------------------------
 isymop:   0  -1   0
           1  -1   0
           0   0   1

 gtrans:     0.0000000     0.0000000     0.0000000

 ptrans:     0.0000000     0.0000000     0.0000000
 
 rotmap:
 (   1->   1)  (   2->   2)  (   3->   7)  (   4->   6)  (   5->   3) 
 (   6->   8)  (   7->   5)  (   8->   4) 


 irot  :   4
 --------------------------------------------------------------------
 isymop:  -1   0   0
           0  -1   0
           0   0   1

 gtrans:     0.0000000     0.0000000     0.0000000

 ptrans:     0.0000000     0.0000000     0.0000000
 
 rotmap:
 (   1->   2)  (   2->   1)  (   3->   8)  (   4->   7)  (   5->   6) 
 (   6->   5)  (   7->   4)  (   8->   3) 


 irot  :   5
 --------------------------------------------------------------------
 isymop:  -1   1   0
          -1   0   0
           0   0   1

 gtrans:     0.0000000     0.0000000     0.0000000

 ptrans:     0.0000000     0.0000000     0.0000000
 
 rotmap:
 (   1->   1)  (   2->   2)  (   3->   5)  (   4->   8)  (   5->   7) 
 (   6->   4)  (   7->   3)  (   8->   6) 


 irot  :   6
 --------------------------------------------------------------------
 isymop:   0   1   0
          -1   1   0
           0   0   1

 gtrans:     0.0000000     0.0000000     0.0000000

 ptrans:     0.0000000     0.0000000     0.0000000
 
 rotmap:
 (   1->   2)  (   2->   1)  (   3->   4)  (   4->   5)  (   5->   8) 
 (   6->   3)  (   7->   6)  (   8->   7) 


 irot  :   7
 --------------------------------------------------------------------
 isymop:  -1   1   0
           0   1   0
           0   0   1

 gtrans:     0.0000000     0.0000000     0.0000000

 ptrans:     0.0000000     0.0000000     0.0000000
 
 rotmap:
 (   1->   1)  (   2->   2)  (   3->   3)  (   4->   6)  (   5->   7) 
 (   6->   4)  (   7->   5)  (   8->   8) 


 irot  :   8
 --------------------------------------------------------------------
 isymop:   0   1   0
           1   0   0
           0   0   1

 gtrans:     0.0000000     0.0000000     0.0000000

 ptrans:     0.0000000     0.0000000     0.0000000
 
 rotmap:
 (   1->   2)  (   2->   1)  (   3->   4)  (   4->   3)  (   5->   6) 
 (   6->   5)  (   7->   8)  (   8->   7) 


 irot  :   9
 --------------------------------------------------------------------
 isymop:   1   0   0
           1  -1   0
           0   0   1

 gtrans:     0.0000000     0.0000000     0.0000000

 ptrans:     0.0000000     0.0000000     0.0000000
 
 rotmap:
 (   1->   1)  (   2->   2)  (   3->   5)  (   4->   4)  (   5->   3) 
 (   6->   8)  (   7->   7)  (   8->   6) 


 irot  :  10
 --------------------------------------------------------------------
 isymop:   1  -1   0
           0  -1   0
           0   0   1

 gtrans:     0.0000000     0.0000000     0.0000000

 ptrans:     0.0000000     0.0000000     0.0000000
 
 rotmap:
 (   1->   2)  (   2->   1)  (   3->   8)  (   4->   5)  (   5->   4) 
 (   6->   7)  (   7->   6)  (   8->   3) 


 irot  :  11
 --------------------------------------------------------------------
 isymop:   0  -1   0
          -1   0   0
           0   0   1

 gtrans:     0.0000000     0.0000000     0.0000000

 ptrans:     0.0000000     0.0000000     0.0000000
 
 rotmap:
 (   1->   1)  (   2->   2)  (   3->   7)  (   4->   8)  (   5->   5) 
 (   6->   6)  (   7->   3)  (   8->   4) 


 irot  :  12
 --------------------------------------------------------------------
 isymop:  -1   0   0
          -1   1   0
           0   0   1

 gtrans:     0.0000000     0.0000000     0.0000000

 ptrans:     0.0000000     0.0000000     0.0000000
 
 rotmap:
 (   1->   2)  (   2->   1)  (   3->   6)  (   4->   7)  (   5->   8) 
 (   6->   3)  (   7->   4)  (   8->   5) 


 irot  :  13
 --------------------------------------------------------------------
 isymop:  -1   0   0
           0  -1   0
           0   0  -1

 gtrans:     0.0000000     0.0000000     0.5000000

 ptrans:     0.0000000     0.0000000     0.0000000
 
 rotmap:
 (   1->   2)  (   2->   1)  (   3->   8)  (   4->   7)  (   5->   6) 
 (   6->   5)  (   7->   4)  (   8->   3) 


 irot  :  14
 --------------------------------------------------------------------
 isymop:  -1   1   0
          -1   0   0
           0   0  -1

 gtrans:     0.0000000     0.0000000     0.5000000

 ptrans:     0.0000000     0.0000000     0.0000000
 
 rotmap:
 (   1->   1)  (   2->   2)  (   3->   5)  (   4->   8)  (   5->   7) 
 (   6->   4)  (   7->   3)  (   8->   6) 


 irot  :  15
 --------------------------------------------------------------------
 isymop:   0   1   0
          -1   1   0
           0   0  -1

 gtrans:     0.0000000     0.0000000     0.5000000

 ptrans:     0.0000000     0.0000000     0.0000000
 
 rotmap:
 (   1->   2)  (   2->   1)  (   3->   4)  (   4->   5)  (   5->   8) 
 (   6->   3)  (   7->   6)  (   8->   7) 


 irot  :  16
 --------------------------------------------------------------------
 isymop:   1   0   0
           0   1   0
           0   0  -1

 gtrans:     0.0000000     0.0000000     0.5000000

 ptrans:     0.0000000     0.0000000     0.0000000
 
 rotmap:
 (   1->   1)  (   2->   2)  (   3->   3)  (   4->   4)  (   5->   5) 
 (   6->   6)  (   7->   7)  (   8->   8) 


 irot  :  17
 --------------------------------------------------------------------
 isymop:   1  -1   0
           1   0   0
           0   0  -1

 gtrans:     0.0000000     0.0000000     0.5000000

 ptrans:     0.0000000     0.0000000     0.0000000
 
 rotmap:
 (   1->   2)  (   2->   1)  (   3->   6)  (   4->   3)  (   5->   4) 
 (   6->   7)  (   7->   8)  (   8->   5) 


 irot  :  18
 --------------------------------------------------------------------
 isymop:   0  -1   0
           1  -1   0
           0   0  -1

 gtrans:     0.0000000     0.0000000     0.5000000

 ptrans:     0.0000000     0.0000000     0.0000000
 
 rotmap:
 (   1->   1)  (   2->   2)  (   3->   7)  (   4->   6)  (   5->   3) 
 (   6->   8)  (   7->   5)  (   8->   4) 


 irot  :  19
 --------------------------------------------------------------------
 isymop:   1  -1   0
           0  -1   0
           0   0  -1

 gtrans:     0.0000000     0.0000000     0.5000000

 ptrans:     0.0000000     0.0000000     0.0000000
 
 rotmap:
 (   1->   2)  (   2->   1)  (   3->   8)  (   4->   5)  (   5->   4) 
 (   6->   7)  (   7->   6)  (   8->   3) 


 irot  :  20
 --------------------------------------------------------------------
 isymop:   0  -1   0
          -1   0   0
           0   0  -1

 gtrans:     0.0000000     0.0000000     0.5000000

 ptrans:     0.0000000     0.0000000     0.0000000
 
 rotmap:
 (   1->   1)  (   2->   2)  (   3->   7)  (   4->   8)  (   5->   5) 
 (   6->   6)  (   7->   3)  (   8->   4) 


 irot  :  21
 --------------------------------------------------------------------
 isymop:  -1   0   0
          -1   1   0
           0   0  -1

 gtrans:     0.0000000     0.0000000     0.5000000

 ptrans:     0.0000000     0.0000000     0.0000000
 
 rotmap:
 (   1->   2)  (   2->   1)  (   3->   6)  (   4->   7)  (   5->   8) 
 (   6->   3)  (   7->   4)  (   8->   5) 


 irot  :  22
 --------------------------------------------------------------------
 isymop:  -1   1   0
           0   1   0
           0   0  -1

 gtrans:     0.0000000     0.0000000     0.5000000

 ptrans:     0.0000000     0.0000000     0.0000000
 
 rotmap:
 (   1->   1)  (   2->   2)  (   3->   3)  (   4->   6)  (   5->   7) 
 (   6->   4)  (   7->   5)  (   8->   8) 


 irot  :  23
 --------------------------------------------------------------------
 isymop:   0   1   0
           1   0   0
           0   0  -1

 gtrans:     0.0000000     0.0000000     0.5000000

 ptrans:     0.0000000     0.0000000     0.0000000
 
 rotmap:
 (   1->   2)  (   2->   1)  (   3->   4)  (   4->   3)  (   5->   6) 
 (   6->   5)  (   7->   8)  (   8->   7) 


 irot  :  24
 --------------------------------------------------------------------
 isymop:   1   0   0
           1  -1   0
           0   0  -1

 gtrans:     0.0000000     0.0000000     0.5000000

 ptrans:     0.0000000     0.0000000     0.0000000
 
 rotmap:
 (   1->   1)  (   2->   2)  (   3->   5)  (   4->   4)  (   5->   3) 
 (   6->   8)  (   7->   7)  (   8->   6) 
 
 
 KPOINTS: K-points for BC3                        

Automatic generation of k-mesh.
Space group operators:
 irot       det(A)        alpha          n_x          n_y          n_z        tau_x        tau_y        tau_z
    1     1.000000     0.000000     1.000000     0.000000     0.000000     0.000000     0.000000     0.000000
    2     1.000000    60.000000     0.000000     0.000000    -1.000000     0.000000     0.000000     0.000000
    3     1.000000   120.000000     0.000000     0.000000    -1.000000     0.000000     0.000000     0.000000
    4     1.000000   180.000000     0.000000     0.000000     1.000000     0.000000     0.000000     0.000000
    5     1.000000   120.000000     0.000000     0.000000     1.000000     0.000000     0.000000     0.000000
    6     1.000000    60.000000     0.000000     0.000000     1.000000     0.000000     0.000000     0.000000
    7    -1.000000   180.000000     0.866025     0.500000     0.000000     0.000000     0.000000     0.000000
    8    -1.000000   180.000000     1.000000     0.000000     0.000000     0.000000     0.000000     0.000000
    9    -1.000000   180.000000     0.866025    -0.500000     0.000000     0.000000     0.000000     0.000000
   10    -1.000000   180.000000     0.500000    -0.866025     0.000000     0.000000     0.000000     0.000000
   11    -1.000000   180.000000     0.000000     1.000000     0.000000     0.000000     0.000000     0.000000
   12    -1.000000   180.000000    -0.500000    -0.866025     0.000000     0.000000     0.000000     0.000000
   13    -1.000000     0.000000     1.000000     0.000000     0.000000     0.000000     0.000000     0.500000
   14    -1.000000    60.000000     0.000000     0.000000    -1.000000     0.000000     0.000000     0.500000
   15    -1.000000   120.000000     0.000000     0.000000    -1.000000     0.000000     0.000000     0.500000
   16    -1.000000   180.000000     0.000000     0.000000     1.000000     0.000000     0.000000     0.500000
   17    -1.000000   120.000000     0.000000     0.000000     1.000000     0.000000     0.000000     0.500000
   18    -1.000000    60.000000     0.000000     0.000000     1.000000     0.000000     0.000000     0.500000
   19     1.000000   180.000000     0.866025     0.500000     0.000000     0.000000     0.000000     0.500000
   20     1.000000   180.000000     1.000000     0.000000     0.000000     0.000000     0.000000     0.500000
   21     1.000000   180.000000     0.866025    -0.500000     0.000000     0.000000     0.000000     0.500000
   22     1.000000   180.000000     0.500000    -0.866025     0.000000     0.000000     0.000000     0.500000
   23     1.000000   180.000000     0.000000     1.000000     0.000000     0.000000     0.000000     0.500000
   24     1.000000   180.000000    -0.500000    -0.866025     0.000000     0.000000     0.000000     0.500000
 
 Subroutine IBZKPT returns following result:
 ===========================================
 
 Found     19 irreducible k-points:
 
 Following reciprocal coordinates:
            Coordinates               Weight
  0.000000  0.000000  0.000000      1.000000
  0.083333  0.000000  0.000000      6.000000
  0.166667  0.000000  0.000000      6.000000
  0.250000 -0.000000  0.000000      6.000000
  0.333333 -0.000000  0.000000      6.000000
  0.416667  0.000000  0.000000      6.000000
  0.500000 -0.000000  0.000000      3.000000
  0.083333  0.083333  0.000000      6.000000
  0.166667  0.083333  0.000000     12.000000
  0.250000  0.083333  0.000000     12.000000
  0.333333  0.083333  0.000000     12.000000
  0.416667  0.083333  0.000000     12.000000
  0.166667  0.166667  0.000000      6.000000
  0.250000  0.166667  0.000000     12.000000
  0.333333  0.166667  0.000000     12.000000
  0.416667  0.166667  0.000000      6.000000
  0.250000  0.250000  0.000000      6.000000
  0.333333  0.250000  0.000000     12.000000
  0.333333  0.333333  0.000000      2.000000
 
 Following cartesian coordinates:
            Coordinates               Weight
  0.000000  0.000000  0.000000      1.000000
  0.009299  0.016106  0.000000      6.000000
  0.018598  0.032212  0.000000      6.000000
  0.027897  0.048318  0.000000      6.000000
  0.037195  0.064424  0.000000      6.000000
  0.046494  0.080530  0.000000      6.000000
  0.055793  0.096636  0.000000      3.000000
  0.000000  0.032212  0.000000      6.000000
  0.009299  0.048318  0.000000     12.000000
  0.018598  0.064424  0.000000     12.000000
  0.027897  0.080530  0.000000     12.000000
  0.037195  0.096636  0.000000     12.000000
  0.000000  0.064424  0.000000      6.000000
  0.009299  0.080530  0.000000     12.000000
  0.018598  0.096636  0.000000     12.000000
  0.027897  0.112742  0.000000      6.000000
  0.000000  0.096636  0.000000      6.000000
  0.009299  0.112742  0.000000     12.000000
  0.000000  0.128848  0.000000      2.000000
 

 ----------------------------------------------------------------------------- 
|                                                                             |
|           W    W    AA    RRRRR   N    N  II  N    N   GGGG   !!!           |
|           W    W   A  A   R    R  NN   N  II  NN   N  G    G  !!!           |
|           W    W  A    A  R    R  N N  N  II  N N  N  G       !!!           |
|           W WW W  AAAAAA  RRRRR   N  N N  II  N  N N  G  GGG   !            |
|           WW  WW  A    A  R   R   N   NN  II  N   NN  G    G                |
|           W    W  A    A  R    R  N    N  II  N    N   GGGG   !!!           |
|                                                                             |
|      The number of bands has been changed from the values supplied          |
|      in the INCAR file. This is a result of running the parallel version.   |
|      The orbitals not found in the WAVECAR file will be initialized with    |
|      random numbers, which is usually adequate. For correlated              |
|      calculations, however, you should redo the groundstate calculation.    |
|      I found NBANDS    =      128  now  NBANDS  =     132                   |
|                                                                             |
 ----------------------------------------------------------------------------- 



--------------------------------------------------------------------------------------------------------




 Dimension of arrays:
   k-points           NKPTS =     19   k-points in BZ     NKDIM =     19   number of bands    NBANDS=    132
   number of dos      NEDOS =   2400   number of ions     NIONS =      8
   non local maximal  LDIM  =      4   non local SUM 2l+1 LMDIM =      8
   total plane-waves  NPLWV =  77760
   max r-space proj   IRMAX =      1   max aug-charges    IRDMAX=   6338
   dimension x,y,z NGX =    36 NGY =   36 NGZ =   60
   dimension x,y,z NGXF=    72 NGYF=   72 NGZF=  120
   support grid    NGXF=    72 NGYF=   72 NGZF=  120
   ions per type =               2   6
   NGX,Y,Z   is equivalent  to a cutoff of  11.57, 11.57, 11.71 a.u.
   NGXF,Y,Z  is equivalent  to a cutoff of  23.13, 23.13, 23.41 a.u.

 SYSTEM =  BC3-optical                             
 POSCAR =  BC3 with lattice parameter 5.174Ang, len

 Startparameter for this run:
   NWRITE =      3    write-flag & timer
   PREC   = accura    normal or accurate (medium, high low for compatibility)
   ISTART =      1    job   : 0-new  1-cont  2-samecut
   ICHARG =      2    charge: 1-file 2-atom 10-const
   ISPIN  =      1    spin polarized calculation?
   LNONCOLLINEAR =      F non collinear calculations
   LSORBIT =      F    spin-orbit coupling
   INIWAV =      1    electr: 0-lowe 1-rand  2-diag
   LASPH  =      F    aspherical Exc in radial PAW
   METAGGA=      F    non-selfconsistent MetaGGA calc.

 Electronic Relaxation 1
   ENCUT  =  450.0 eV  33.07 Ry    5.75 a.u.   8.95  8.95 14.74*2*pi/ulx,y,z
   ENINI  =  450.0     initial cutoff
   ENAUG  =  644.9 eV  augmentation charge cutoff
   NELM   =     60;   NELMIN=  2; NELMDL=  0     # of ELM steps 
   EDIFF  = 0.1E-07   stopping-criterion for ELM
   LREAL  =      F    real-space projection
   NLSPLINE    = F    spline interpolate recip. space projectors
   LCOMPAT=      F    compatible to vasp.4.4
   GGA_COMPAT  = T    GGA compatible to vasp.4.4-vasp.4.6
   LMAXPAW     = -100 max onsite density
   LMAXMIX     =    2 max onsite mixed and CHGCAR
   VOSKOWN=      0    Vosko Wilk Nusair interpolation
   ROPT   =    0.00000   0.00000
 Ionic relaxation
   EDIFFG = 0.1E-06   stopping-criterion for IOM
   NSW    =      0    number of steps for IOM
   NBLOCK =      1;   KBLOCK =      1    inner block; outer block 
   IBRION =     -1    ionic relax: 0-MD 1-quasi-New 2-CG
   NFREE  =      0    steps in history (QN), initial steepest desc. (CG)
   ISIF   =      2    stress and relaxation
   IWAVPR =     10    prediction:  0-non 1-charg 2-wave 3-comb
   ISYM   =      2    0-nonsym 1-usesym 2-fastsym
   LCORR  =      T    Harris-Foulkes like correction to forces

   POTIM  = 0.5000    time-step for ionic-motion
   TEIN   =    0.0    initial temperature
   TEBEG  =    0.0;   TEEND  =   0.0 temperature during run
   SMASS  =  -3.00    Nose mass-parameter (am)
   estimated Nose-frequenzy (Omega)   =  0.10E-29 period in steps =****** mass=  -0.612E-27a.u.
   SCALEE = 1.0000    scale energy and forces
   NPACO  =    256;   APACO  = 16.0  distance and # of slots for P.C.
   PSTRESS=    0.0 pullay stress

  Mass of Ions in am
   POMASS =  10.81 12.01
  Ionic Valenz
   ZVAL   =   3.00  4.00
  Atomic Wigner-Seitz radii
   RWIGS  =  -1.00 -1.00
  virtual crystal weights 
   VCA    =   1.00  1.00
   NELECT =      30.0000    total number of electrons
   NUPDOWN=      -1.0000    fix difference up-down

 DOS related values:
   EMIN   =  10.00;   EMAX   =-10.00  energy-range for DOS
   EFERMI =   0.00
   ISMEAR =     0;   SIGMA  =   0.01  broadening in eV -4-tet -1-fermi 0-gaus

 Electronic relaxation 2 (details)
   IALGO  =     90    algorithm
   LDIAG  =      T    sub-space diagonalisation (order eigenvalues)
   LSUBROT=      F    optimize rotation matrix (better conditioning)
   TURBO    =      0    0=normal 1=particle mesh
   IRESTART =      0    0=no restart 2=restart with 2 vectors
   NREBOOT  =      0    no. of reboots
   NMIN     =      0    reboot dimension
   EREF     =   0.00    reference energy to select bands
   IMIX   =      4    mixing-type and parameters
     AMIX     =   0.40;   BMIX     =  1.00
     AMIX_MAG =   1.60;   BMIX_MAG =  1.00
     AMIN     =   0.10
     WC   =   100.;   INIMIX=   1;  MIXPRE=   1;  MAXMIX= -45

 Intra band minimization:
   WEIMIN = 0.0000     energy-eigenvalue tresh-hold
   EBREAK =  0.19E-10  absolut break condition
   DEPER  =   0.30     relativ break condition  

   TIME   =   0.40     timestep for ELM

  volume/ion in A,a.u.               =      24.69       166.63
  Fermi-wavevector in a.u.,A,eV,Ry     =   0.873444  1.650570 10.379942  0.762904
  Thomas-Fermi vector in A             =   1.992835
 
 Write flags
   LWAVE        =      T    write WAVECAR
   LDOWNSAMPLE  =      F    k-point downsampling of WAVECAR
   LCHARG       =      T    write CHGCAR
   LVTOT        =      F    write LOCPOT, total local potential
   LVHAR        =      F    write LOCPOT, Hartree potential only
   LELF         =      F    write electronic localiz. function (ELF)
   LORBIT       =      0    0 simple, 1 ext, 2 COOP (PROOUT), +10 PAW based schemes


 Dipole corrections
   LMONO  =      F    monopole corrections only (constant potential shift)
   LDIPOL =      F    correct potential (dipole corrections)
   IDIPOL =      0    1-x, 2-y, 3-z, 4-all directions 
   EPSILON=  1.0000000 bulk dielectric constant

 Exchange correlation treatment:
   GGA     =    --    GGA type
   LEXCH   =     8    internal setting for exchange type
   VOSKOWN=      0    Vosko Wilk Nusair interpolation
   LHFCALC =     F    Hartree Fock is set to
   LHFONE  =     F    Hartree Fock one center treatment
   AEXX    =    0.0000 exact exchange contribution

 Linear response parameters
   LEPSILON=     F    determine dielectric tensor
   LRPA    =     F    only Hartree local field effects (RPA)
   LNABLA  =     F    use nabla operator in PAW spheres
   LVEL    =     F    velocity operator in full k-point grid
   LINTERFAST=   F  fast interpolation
   KINTER  =     0    interpolate to denser k-point grid
   CSHIFT  =0.1000    complex shift for real part using Kramers Kronig
   OMEGAMAX=  -1.0    maximum frequency
   DEG_THRESHOLD= 0.2000000E-02 threshold for treating states as degnerate
   RTIME   =   -0.100 relaxation time in fs
  (WPLASMAI=    0.000 imaginary part of plasma frequency in eV, 0.658/RTIME)
   DFIELD  = 0.0000000 0.0000000 0.0000000 field for delta impulse in time
 
 Orbital magnetization related:
   ORBITALMAG=     F  switch on orbital magnetization
   LCHIMAG   =     F  perturbation theory with respect to B field
   DQ        =  0.001000  dq finite difference perturbation B field
   LLRAUG    =     F  two centre corrections for induced B field



--------------------------------------------------------------------------------------------------------


 Static calculation
 charge density and potential will be updated during run
 non-spin polarized calculation
 Exact diagonalization
 preconditioned conjugated gradient (Jacobi prec)
    charged. constant during bandupdate  
    band-by band algorithm
 perform sub-space diagonalisation
    after iterative eigenvector-optimisation
 modified Broyden-mixing scheme, WC =      100.0
 initial mixing is a Kerker type mixing with AMIX =  0.4000 and BMIX =      1.0000
 Hartree-type preconditioning will be used
 using additional bands          117
 reciprocal scheme for non local part
 use partial core corrections
 calculate Harris-corrections to forces 
   (improved forces if not selfconsistent)
 use gradient corrections 
 use of overlap-Matrix (Vanderbilt PP)
 Gauss-broadening in eV      SIGMA  =   0.01


--------------------------------------------------------------------------------------------------------


  energy-cutoff  :      450.00
  volume of cell :      197.53
      direct lattice vectors                 reciprocal lattice vectors
     4.480848434  2.587018852  0.000000000     0.111586010  0.193272654  0.000000000
    -4.480848434  2.587018852  0.000000000    -0.111586010  0.193272654  0.000000000
     0.000000000  0.000000000  8.520221400     0.000000000  0.000000000  0.117367842

  length of vectors
     5.174038000  5.174038000  8.520221400     0.223172034  0.223172034  0.117367842


 
 old parameters found on file WAVECAR:
  energy-cutoff  :      450.00
  volume of cell :      197.53
      direct lattice vectors                 reciprocal lattice vectors
     4.480848434  2.587018852  0.000000000     0.111586010  0.193272654  0.000000000
    -4.480848434  2.587018852  0.000000000    -0.111586010  0.193272654  0.000000000
     0.000000000  0.000000000  8.520221400     0.000000000  0.000000000  0.117367842

  length of vectors

 
 k-points in units of 2pi/SCALE and weight: K-points for BC3                        
   0.00000000  0.00000000  0.00000000       0.007
   0.00929883  0.01610605  0.00000000       0.042
   0.01859767  0.03221211  0.00000000       0.042
   0.02789650  0.04831816  0.00000000       0.042
   0.03719534  0.06442422  0.00000000       0.042
   0.04649417  0.08053027  0.00000000       0.042
   0.05579301  0.09663633  0.00000000       0.021
   0.00000000  0.03221211  0.00000000       0.042
   0.00929883  0.04831816  0.00000000       0.083
   0.01859767  0.06442422  0.00000000       0.083
   0.02789650  0.08053027  0.00000000       0.083
   0.03719534  0.09663633  0.00000000       0.083
   0.00000000  0.06442422  0.00000000       0.042
   0.00929883  0.08053027  0.00000000       0.083
   0.01859767  0.09663633  0.00000000       0.083
   0.02789650  0.11274238  0.00000000       0.042
   0.00000000  0.09663633  0.00000000       0.042
   0.00929883  0.11274238  0.00000000       0.083
   0.00000000  0.12884844  0.00000000       0.014
 
 k-points in reciprocal lattice and weights: K-points for BC3                        
   0.00000000  0.00000000  0.00000000       0.007
   0.08333333  0.00000000  0.00000000       0.042
   0.16666667  0.00000000  0.00000000       0.042
   0.25000000 -0.00000000  0.00000000       0.042
   0.33333333 -0.00000000  0.00000000       0.042
   0.41666667  0.00000000  0.00000000       0.042
   0.50000000 -0.00000000  0.00000000       0.021
   0.08333333  0.08333333  0.00000000       0.042
   0.16666667  0.08333333  0.00000000       0.083
   0.25000000  0.08333333  0.00000000       0.083
   0.33333333  0.08333333  0.00000000       0.083
   0.41666667  0.08333333  0.00000000       0.083
   0.16666667  0.16666667  0.00000000       0.042
   0.25000000  0.16666667  0.00000000       0.083
   0.33333333  0.16666667  0.00000000       0.083
   0.41666667  0.16666667  0.00000000       0.042
   0.25000000  0.25000000  0.00000000       0.042
   0.33333333  0.25000000  0.00000000       0.083
   0.33333333  0.33333333  0.00000000       0.014
 
 position of ions in fractional coordinates (direct lattice) 
   0.33333300  0.66666600  0.25000000
   0.66666600  0.33333300  0.25000000
   0.15869124  0.31738348  0.25000000
   0.31738348  0.15869124  0.25000000
   0.15869124  0.84130776  0.25000000
   0.84130776  0.15869124  0.25000000
   0.68261552  0.84130776  0.25000000
   0.84130776  0.68261552  0.25000000
 
 position of ions in cartesian coordinates  (Angst):
  -1.49361465  2.58701626  2.13005535
   1.49361465  2.58701626  2.13005535
  -0.71107588  1.23161429  2.13005535
   0.71107588  1.23161429  2.13005535
  -3.05870114  2.58701626  2.13005535
   3.05870114  2.58701626  2.13005535
  -0.71107588  3.94241824  2.13005535
   0.71107588  3.94241824  2.13005535
 


--------------------------------------------------------------------------------------------------------


 k-point  1 :   0.0000 0.0000 0.0000  plane waves:    4271
 k-point  2 :   0.0833 0.0000 0.0000  plane waves:    4257
 k-point  3 :   0.1667 0.0000 0.0000  plane waves:    4273
 k-point  4 :   0.2500-0.0000 0.0000  plane waves:    4286
 k-point  5 :   0.3333-0.0000 0.0000  plane waves:    4272
 k-point  6 :   0.4167 0.0000 0.0000  plane waves:    4280
 k-point  7 :   0.5000-0.0000 0.0000  plane waves:    4280
 k-point  8 :   0.0833 0.0833 0.0000  plane waves:    4273
 k-point  9 :   0.1667 0.0833 0.0000  plane waves:    4261
 k-point 10 :   0.2500 0.0833 0.0000  plane waves:    4277
 k-point 11 :   0.3333 0.0833 0.0000  plane waves:    4283
 k-point 12 :   0.4167 0.0833 0.0000  plane waves:    4292
 k-point 13 :   0.1667 0.1667 0.0000  plane waves:    4267
 k-point 14 :   0.2500 0.1667 0.0000  plane waves:    4287
 k-point 15 :   0.3333 0.1667 0.0000  plane waves:    4297
 k-point 16 :   0.4167 0.1667 0.0000  plane waves:    4305
 k-point 17 :   0.2500 0.2500 0.0000  plane waves:    4283
 k-point 18 :   0.3333 0.2500 0.0000  plane waves:    4306
 k-point 19 :   0.3333 0.3333 0.0000  plane waves:    4323

 maximum and minimum number of plane-waves per node :      4323     4257

 maximum number of plane-waves:      4323
 maximum index in each direction: 
   IXMAX=    8   IYMAX=    8   IZMAX=   14
   IXMIN=   -9   IYMIN=   -9   IZMIN=  -14


 serial   3D FFT for wavefunctions
 parallel 3D FFT for charge:
    minimum data exchange during FFTs selected (reduces bandwidth)


 total amount of memory used by VASP MPI-rank0    63997. kBytes
=======================================================================

   base      :      30000. kBytes
   nonl-proj :      11089. kBytes
   fftplans  :       2090. kBytes
   grid      :       6068. kBytes
   one-center:         24. kBytes
   wavefun   :      14726. kBytes
 
     INWAV:  cpu time    0.4141: real time    0.7160
 Broyden mixing: mesh for mixing (old mesh)
   NGX = 17   NGY = 17   NGZ = 29
  (NGX  = 72   NGY  = 72   NGZ  =120)
  gives a total of   8381 points

 initial charge density was supplied:
 charge density of overlapping atoms calculated
 number of electron      30.0000000 magnetization 
 keeping initial charge density in first step


--------------------------------------------------------------------------------------------------------


 Maximum index for augmentation-charges          403 (set IRDMAX)


--------------------------------------------------------------------------------------------------------


 First call to EWALD:  gamma=   0.304
 Maximum number of real-space cells 3x 3x 2
 Maximum number of reciprocal cells 2x 2x 4

    FEWALD:  cpu time    0.0017: real time    0.0020


--------------------------------------- Iteration      1(   1)  ---------------------------------------


    POTLOK:  cpu time    0.0375: real time    0.0393
    SETDIJ:  cpu time    0.0022: real time    0.0022

 total amount of memory used by VASP MPI-rank0   547309. kBytes
=======================================================================

   base      :      30000. kBytes
   nonl-proj :      11089. kBytes
   fftplans  :       2090. kBytes
   grid      :       6068. kBytes
   one-center:         24. kBytes
   wavefun   :     498038. kBytes
 
    EDDIAG:  cpu time  528.7180: real time  528.7463
       DOS:  cpu time    0.0007: real time    0.0007
    CHARGE:  cpu time    0.0560: real time    0.0560
    MIXING:  cpu time    0.0010: real time    0.0010
    --------------------------------------------
      LOOP:  cpu time  528.8154: real time  528.8456

 eigenvalue-minimisations  :     0
 total energy-change (2. order) :-0.7344063E+02  ( 0.0000000E+00)
 number of electron      29.9999996 magnetization 
 augmentation part        0.5836578 magnetization 

 Broyden mixing:
  rms(total) = 0.13116E+01    rms(broyden)= 0.13111E+01
  rms(prec ) = 0.18282E+01
  weight for this iteration     100.00

 Free energy of the ion-electron system (eV)
  ---------------------------------------------------
  alpha Z        PSCENC =        25.67921176
  Ewald energy   TEWEN  =       700.27145080
  -Hartree energ DENC   =     -1524.76618073
  -exchange      EXHF   =         0.00000000
  -V(xc)+E(xc)   XCENC  =        91.14273073
  PAW double counting   =       738.13200929     -739.83780425
  entropy T*S    EENTRO =        -0.00000000
  eigenvalues    EBANDS =      -389.26594481
  atomic energy  EATOM  =      1025.20389953
  Solvation  Ediel_sol  =         0.00000000
  ---------------------------------------------------
  free energy    TOTEN  =       -73.44062769 eV

  energy without entropy =      -73.44062769  energy(sigma->0) =      -73.44062769


--------------------------------------------------------------------------------------------------------




 average (electrostatic) potential at core
  the test charge radii are     0.7672  0.6991
  (the norm of the test charge is              1.0000)
       1 -38.0355       2 -38.0355       3 -61.8204       4 -61.8204       5 -61.8204
       6 -61.8204       7 -61.8204       8 -61.8204
 
 
 
 E-fermi :  -6.3810     XC(G=0):  -5.3024     alpha+bet : -4.1680


 k-point     1 :       0.0000    0.0000    0.0000
  band No.  band energies     occupation 
      1     -22.7334      2.00000
      2     -19.0608      2.00000
      3     -19.0608      2.00000
      4     -16.6384      2.00000
      5     -16.6384      2.00000
      6     -15.2938      2.00000
      7     -13.8399      2.00000
      8     -12.0412      2.00000
      9     -10.2609      2.00000
     10      -9.5172      2.00000
     11      -9.5172      2.00000
     12      -7.2387      2.00000
     13      -7.2386      2.00000
     14      -6.4428      2.00000
     15      -6.4428      2.00000
     16      -3.3504      0.00000
     17      -2.0528      0.00000
     18      -2.0527      0.00000
     19      -0.6510      0.00000
     20       1.9794      0.00000
     21       2.5313      0.00000
     22       2.5313      0.00000
     23       3.8416      0.00000
     24       3.8417      0.00000
     25       3.9800      0.00000
     26       4.5773      0.00000
     27       6.2084      0.00000
     28       6.6740      0.00000
     29       7.1884      0.00000
     30       9.0932      0.00000
     31       9.0932      0.00000
     32       9.2331      0.00000
     33       9.2331      0.00000
     34       9.2629      0.00000
     35       9.5070      0.00000
     36       9.8613      0.00000
     37       9.8613      0.00000
     38      10.8167      0.00000
     39      11.4810      0.00000
     40      11.4810      0.00000
     41      12.0072      0.00000
     42      12.5361      0.00000
     43      12.5361      0.00000
     44      12.5580      0.00000
     45      12.6502      0.00000
     46      12.6502      0.00000
     47      12.6733      0.00000
     48      12.7530      0.00000
     49      14.0183      0.00000
     50      14.0570      0.00000
     51      14.0570      0.00000
     52      15.1094      0.00000
     53      15.1094      0.00000
     54      15.3423      0.00000
     55      15.3578      0.00000
     56      15.9135      0.00000
     57      15.9136      0.00000
     58      16.6291      0.00000
     59      17.1498      0.00000
     60      17.2962      0.00000
     61      17.2962      0.00000
     62      17.3437      0.00000
     63      19.1215      0.00000
     64      19.3989      0.00000
     65      19.3990      0.00000
     66      19.5213      0.00000
     67      19.5213      0.00000
     68      20.1932      0.00000
     69      22.4565      0.00000
     70      22.7715      0.00000
     71      22.7715      0.00000
     72      22.8460      0.00000
     73      22.8898      0.00000
     74      22.8898      0.00000
     75      23.3340      0.00000
     76      23.3340      0.00000
     77      23.5572      0.00000
     78      23.7351      0.00000
     79      23.8463      0.00000
     80      23.8463      0.00000
     81      24.2555      0.00000
     82      24.2555      0.00000
     83      24.6889      0.00000
     84      25.2652      0.00000
     85      25.3046      0.00000
     86      25.3046      0.00000
     87      26.3470      0.00000
     88      26.7073      0.00000
     89      26.7073      0.00000
     90      26.7150      0.00000
     91      26.7150      0.00000
     92      27.1682      0.00000
     93      27.4943      0.00000
     94      27.4943      0.00000
     95      28.0275      0.00000
     96      28.0801      0.00000
     97      28.0801      0.00000
     98      28.6483      0.00000
     99      28.6483      0.00000
    100      28.6779      0.00000
    101      29.2626      0.00000
    102      29.3726      0.00000
    103      29.6013      0.00000
    104      29.9376      0.00000
    105      29.9376      0.00000
    106      31.0615      0.00000
    107      31.0615      0.00000
    108      31.4313      0.00000
    109      31.4313      0.00000
    110      31.4426      0.00000
    111      31.4426      0.00000
    112      32.0442      0.00000
    113      32.2088      0.00000
    114      32.7512      0.00000
    115      33.0095      0.00000
    116      33.0095      0.00000
    117      33.4155      0.00000
    118      33.7378      0.00000
    119      34.8430      0.00000
    120      34.8430      0.00000
    121      35.0498      0.00000
    122      35.0498      0.00000
    123      35.2480      0.00000
    124      35.2480      0.00000
    125      35.8334      0.00000
    126      35.9073      0.00000
    127      35.9968      0.00000
    128      35.9968      0.00000
    129      36.2325      0.00000
    130      36.2325      0.00000
    131      36.7475      0.00000
    132      36.8579      0.00000

 k-point     2 :       0.0833    0.0000    0.0000
  band No.  band energies     occupation 
      1     -22.7092      2.00000
      2     -19.1697      2.00000
      3     -19.0963      2.00000
      4     -16.6580      2.00000
      5     -16.5518      2.00000
      6     -15.1781      2.00000
      7     -13.7107      2.00000
      8     -12.0886      2.00000
      9     -10.2231      2.00000
     10      -9.6263      2.00000
     11      -9.5365      2.00000
     12      -7.3633      2.00000
     13      -7.2988      2.00000
     14      -6.5412      2.00000
     15      -6.4577      2.00000
     16      -3.5843      0.00000
     17      -2.0098      0.00000
     18      -1.7217      0.00000
     19      -0.5566      0.00000
     20       2.0338      0.00000
     21       2.5952      0.00000
     22       2.6812      0.00000
     23       3.8623      0.00000
     24       3.9962      0.00000
     25       4.0807      0.00000
     26       4.6263      0.00000
     27       6.2594      0.00000
     28       6.5500      0.00000
     29       7.1776      0.00000
     30       8.2304      0.00000
     31       8.6677      0.00000
     32       8.8758      0.00000
     33       9.6061      0.00000
     34       9.6717      0.00000
     35       9.6883      0.00000
     36       9.8412      0.00000
     37      10.2762      0.00000
     38      10.4645      0.00000
     39      11.6178      0.00000
     40      11.7160      0.00000
     41      11.8262      0.00000
     42      12.0907      0.00000
     43      12.1429      0.00000
     44      12.2175      0.00000
     45      12.7258      0.00000
     46      12.7268      0.00000
     47      13.1598      0.00000
     48      13.2911      0.00000
     49      13.7643      0.00000
     50      14.0518      0.00000
     51      14.1805      0.00000
     52      14.8966      0.00000
     53      14.9929      0.00000
     54      15.3519      0.00000
     55      15.3962      0.00000
     56      16.0229      0.00000
     57      16.0512      0.00000
     58      16.7489      0.00000
     59      17.2270      0.00000
     60      17.3632      0.00000
     61      17.6882      0.00000
     62      17.6938      0.00000
     63      19.0589      0.00000
     64      19.2691      0.00000
     65      19.3317      0.00000
     66      19.4706      0.00000
     67      19.4919      0.00000
     68      20.1154      0.00000
     69      22.0831      0.00000
     70      22.4833      0.00000
     71      22.5236      0.00000
     72      22.7104      0.00000
     73      22.7782      0.00000
     74      22.8059      0.00000
     75      22.8417      0.00000
     76      23.2708      0.00000
     77      23.2941      0.00000
     78      23.4883      0.00000
     79      23.5841      0.00000
     80      23.6097      0.00000
     81      24.6411      0.00000
     82      24.8230      0.00000
     83      25.1162      0.00000
     84      25.1788      0.00000
     85      25.5919      0.00000
     86      25.7032      0.00000
     87      25.7718      0.00000
     88      25.8409      0.00000
     89      26.8458      0.00000
     90      26.8601      0.00000
     91      26.8741      0.00000
     92      26.9531      0.00000
     93      27.1439      0.00000
     94      27.1653      0.00000
     95      28.1190      0.00000
     96      28.5846      0.00000
     97      28.7167      0.00000
     98      29.0666      0.00000
     99      29.1691      0.00000
    100      29.2620      0.00000
    101      29.2704      0.00000
    102      29.5007      0.00000
    103      29.8678      0.00000
    104      30.1935      0.00000
    105      30.2778      0.00000
    106      30.6646      0.00000
    107      30.7327      0.00000
    108      31.1021      0.00000
    109      31.2823      0.00000
    110      31.3824      0.00000
    111      31.8940      0.00000
    112      32.4714      0.00000
    113      32.5769      0.00000
    114      32.6523      0.00000
    115      32.7836      0.00000
    116      32.9712      0.00000
    117      33.5486      0.00000
    118      33.5873      0.00000
    119      33.7767      0.00000
    120      33.8259      0.00000
    121      34.1746      0.00000
    122      34.3988      0.00000
    123      35.1414      0.00000
    124      35.4612      0.00000
    125      35.5245      0.00000
    126      35.7102      0.00000
    127      36.0296      0.00000
    128      36.0953      0.00000
    129      36.1784      0.00000
    130      36.3418      0.00000
    131      36.7166      0.00000
    132      36.7877      0.00000

 k-point     3 :       0.1667    0.0000    0.0000
  band No.  band energies     occupation 
      1     -22.6393      2.00000
      2     -19.4441      2.00000
      3     -19.1850      2.00000
      4     -16.7267      2.00000
      5     -16.3133      2.00000
      6     -14.8445      2.00000
      7     -13.3545      2.00000
      8     -12.2371      2.00000
      9     -10.1114      2.00000
     10      -9.9344      2.00000
     11      -9.5723      2.00000
     12      -7.7210      2.00000
     13      -7.4666      2.00000
     14      -6.8155      2.00000
     15      -6.4979      2.00000
     16      -3.9586      0.00000
     17      -1.8924      0.00000
     18      -1.1238      0.00000
     19      -0.2355      0.00000
     20       2.1895      0.00000
     21       2.7489      0.00000
     22       3.1163      0.00000
     23       3.9296      0.00000
     24       4.3759      0.00000
     25       4.4425      0.00000
     26       4.7730      0.00000
     27       6.1897      0.00000
     28       6.3976      0.00000
     29       6.9335      0.00000
     30       7.6012      0.00000
     31       8.2514      0.00000
     32       8.5816      0.00000
     33       9.0000      0.00000
     34       9.2614      0.00000
     35       9.9841      0.00000
     36      10.0946      0.00000
     37      10.3743      0.00000
     38      10.8247      0.00000
     39      11.1186      0.00000
     40      11.7157      0.00000
     41      11.8067      0.00000
     42      11.8141      0.00000
     43      11.9519      0.00000
     44      12.4367      0.00000
     45      12.5192      0.00000
     46      12.8854      0.00000
     47      13.0919      0.00000
     48      13.2277      0.00000
     49      13.8963      0.00000
     50      14.2175      0.00000
     51      14.6341      0.00000
     52      14.6635      0.00000
     53      14.8129      0.00000
     54      15.5278      0.00000
     55      15.7168      0.00000
     56      16.3551      0.00000
     57      16.3651      0.00000
     58      17.1248      0.00000
     59      17.4341      0.00000
     60      17.5062      0.00000
     61      18.2430      0.00000
     62      18.2790      0.00000
     63      18.9168      0.00000
     64      18.9509      0.00000
     65      19.1427      0.00000
     66      19.3731      0.00000
     67      19.5619      0.00000
     68      20.2092      0.00000
     69      20.7036      0.00000
     70      21.0108      0.00000
     71      21.5893      0.00000
     72      22.1654      0.00000
     73      22.4575      0.00000
     74      22.6263      0.00000
     75      23.0618      0.00000
     76      23.1497      0.00000
     77      23.5654      0.00000
     78      23.6139      0.00000
     79      23.7247      0.00000
     80      24.1658      0.00000
     81      24.2608      0.00000
     82      24.5507      0.00000
     83      24.5991      0.00000
     84      24.6681      0.00000
     85      25.0038      0.00000
     86      25.4196      0.00000
     87      25.4789      0.00000
     88      26.4331      0.00000
     89      27.0409      0.00000
     90      27.0418      0.00000
     91      27.1704      0.00000
     92      27.1842      0.00000
     93      27.9529      0.00000
     94      28.0626      0.00000
     95      28.0708      0.00000
     96      28.3614      0.00000
     97      28.8956      0.00000
     98      28.9704      0.00000
     99      29.3725      0.00000
    100      29.5771      0.00000
    101      29.8977      0.00000
    102      30.0461      0.00000
    103      30.3615      0.00000
    104      30.4814      0.00000
    105      30.7029      0.00000
    106      30.8449      0.00000
    107      30.8854      0.00000
    108      30.9741      0.00000
    109      31.3102      0.00000
    110      31.7120      0.00000
    111      32.0620      0.00000
    112      32.4821      0.00000
    113      32.4991      0.00000
    114      32.6024      0.00000
    115      32.7314      0.00000
    116      32.7843      0.00000
    117      33.1024      0.00000
    118      33.3720      0.00000
    119      33.4478      0.00000
    120      33.5305      0.00000
    121      33.6753      0.00000
    122      34.1733      0.00000
    123      34.1778      0.00000
    124      34.5014      0.00000
    125      34.7060      0.00000
    126      35.7830      0.00000
    127      35.9422      0.00000
    128      36.2497      0.00000
    129      36.6589      0.00000
    130      36.7983      0.00000
    131      36.8902      0.00000
    132      37.0182      0.00000

 k-point     4 :       0.2500   -0.0000    0.0000
  band No.  band energies     occupation 
      1     -22.5318      2.00000
      2     -19.7858      2.00000
      3     -19.2913      2.00000
      4     -16.8282      2.00000
      5     -15.9704      2.00000
      6     -14.3505      2.00000
      7     -12.8360      2.00000
      8     -12.4904      2.00000
      9     -10.3897      2.00000
     10      -9.9315      2.00000
     11      -9.5798      2.00000
     12      -8.2670      2.00000
     13      -7.7077      2.00000
     14      -7.2083      2.00000
     15      -6.5507      2.00000
     16      -4.2615      0.00000
     17      -1.7296      0.00000
     18      -0.6396      0.00000
     19       0.3999      0.00000
     20       2.4330      0.00000
     21       2.9184      0.00000
     22       3.7970      0.00000
     23       3.9995      0.00000
     24       4.8787      0.00000
     25       5.0149      0.00000
     26       5.1373      0.00000
     27       5.6309      0.00000
     28       6.1328      0.00000
     29       6.7319      0.00000
     30       7.5057      0.00000
     31       7.9218      0.00000
     32       8.2897      0.00000
     33       8.5215      0.00000
     34       8.8136      0.00000
     35       9.5177      0.00000
     36       9.9617      0.00000
     37      10.0087      0.00000
     38      10.6160      0.00000
     39      11.3467      0.00000
     40      11.4543      0.00000
     41      11.5343      0.00000
     42      11.7420      0.00000
     43      11.8211      0.00000
     44      12.1883      0.00000
     45      12.5960      0.00000
     46      12.7564      0.00000
     47      13.0337      0.00000
     48      13.1590      0.00000
     49      14.6073      0.00000
     50      14.7080      0.00000
     51      14.8120      0.00000
     52      15.0973      0.00000
     53      15.2663      0.00000
     54      15.7493      0.00000
     55      16.1213      0.00000
     56      16.6254      0.00000
     57      16.7104      0.00000
     58      17.6471      0.00000
     59      17.7274      0.00000
     60      17.8655      0.00000
     61      18.4274      0.00000
     62      18.4890      0.00000
     63      18.5207      0.00000
     64      18.9023      0.00000
     65      18.9346      0.00000
     66      19.3710      0.00000
     67      19.3723      0.00000
     68      19.6107      0.00000
     69      20.0159      0.00000
     70      20.1227      0.00000
     71      20.9100      0.00000
     72      21.3980      0.00000
     73      22.1880      0.00000
     74      22.3326      0.00000
     75      22.5345      0.00000
     76      22.9852      0.00000
     77      23.0406      0.00000
     78      23.1908      0.00000
     79      23.4723      0.00000
     80      23.9155      0.00000
     81      24.1989      0.00000
     82      24.4248      0.00000
     83      24.8574      0.00000
     84      25.0678      0.00000
     85      25.1333      0.00000
     86      25.3303      0.00000
     87      25.6369      0.00000
     88      25.9227      0.00000
     89      27.2491      0.00000
     90      27.3644      0.00000
     91      27.6424      0.00000
     92      27.7244      0.00000
     93      28.0178      0.00000
     94      28.4808      0.00000
     95      28.6015      0.00000
     96      28.6342      0.00000
     97      28.9984      0.00000
     98      29.1221      0.00000
     99      29.2909      0.00000
    100      29.4287      0.00000
    101      29.5603      0.00000
    102      29.7532      0.00000
    103      29.8502      0.00000
    104      30.3518      0.00000
    105      30.5214      0.00000
    106      31.1120      0.00000
    107      31.1490      0.00000
    108      31.6267      0.00000
    109      31.8102      0.00000
    110      31.9130      0.00000
    111      31.9400      0.00000
    112      32.3325      0.00000
    113      32.4761      0.00000
    114      32.6116      0.00000
    115      32.9460      0.00000
    116      33.2546      0.00000
    117      33.2730      0.00000
    118      33.5328      0.00000
    119      33.5519      0.00000
    120      33.5642      0.00000
    121      33.8779      0.00000
    122      34.3126      0.00000
    123      34.3601      0.00000
    124      34.9981      0.00000
    125      35.3816      0.00000
    126      35.5875      0.00000
    127      35.7612      0.00000
    128      36.3988      0.00000
    129      36.7122      0.00000
    130      36.7823      0.00000
    131      36.9907      0.00000
    132      37.4163      0.00000

 k-point     5 :       0.3333   -0.0000    0.0000
  band No.  band energies     occupation 
      1     -22.4049      2.00000
      2     -20.1126      2.00000
      3     -19.3849      2.00000
      4     -16.9254      2.00000
      5     -15.5809      2.00000
      6     -13.7663      2.00000
      7     -12.8211      2.00000
      8     -12.2389      2.00000
      9     -10.9055      2.00000
     10      -9.6987      2.00000
     11      -9.5341      2.00000
     12      -8.9438      2.00000
     13      -7.9714      2.00000
     14      -7.6417      2.00000
     15      -6.6011      2.00000
     16      -4.4685      0.00000
     17      -1.5640      0.00000
     18      -0.3162      0.00000
     19       1.2591      0.00000
     20       2.7414      0.00000
     21       3.0734      0.00000
     22       4.0290      0.00000
     23       4.6641      0.00000
     24       4.9121      0.00000
     25       5.2043      0.00000
     26       5.3567      0.00000
     27       5.7778      0.00000
     28       6.0206      0.00000
     29       7.0408      0.00000
     30       7.4823      0.00000
     31       7.5886      0.00000
     32       7.6924      0.00000
     33       8.4237      0.00000
     34       8.6643      0.00000
     35       9.0979      0.00000
     36       9.2830      0.00000
     37       9.2831      0.00000
     38      10.2013      0.00000
     39      10.5737      0.00000
     40      11.2494      0.00000
     41      11.4495      0.00000
     42      11.5505      0.00000
     43      11.6134      0.00000
     44      11.6759      0.00000
     45      13.0092      0.00000
     46      13.1493      0.00000
     47      13.1809      0.00000
     48      13.4415      0.00000
     49      15.2084      0.00000
     50      15.3305      0.00000
     51      15.7311      0.00000
     52      15.7589      0.00000
     53      15.8850      0.00000
     54      15.9901      0.00000
     55      16.3757      0.00000
     56      16.5908      0.00000
     57      17.0950      0.00000
     58      17.6744      0.00000
     59      17.7596      0.00000
     60      17.8907      0.00000
     61      18.3049      0.00000
     62      18.3592      0.00000
     63      18.4013      0.00000
     64      18.4665      0.00000
     65      18.6369      0.00000
     66      19.0349      0.00000
     67      19.1435      0.00000
     68      19.4515      0.00000
     69      19.8980      0.00000
     70      20.2909      0.00000
     71      20.6611      0.00000
     72      20.6921      0.00000
     73      21.3412      0.00000
     74      21.7123      0.00000
     75      22.1750      0.00000
     76      22.5139      0.00000
     77      22.5519      0.00000
     78      22.6593      0.00000
     79      23.0562      0.00000
     80      23.2884      0.00000
     81      24.1751      0.00000
     82      24.6124      0.00000
     83      25.2175      0.00000
     84      25.7549      0.00000
     85      25.8616      0.00000
     86      26.0702      0.00000
     87      26.2543      0.00000
     88      26.5812      0.00000
     89      26.8207      0.00000
     90      26.8987      0.00000
     91      27.1582      0.00000
     92      27.4169      0.00000
     93      27.7209      0.00000
     94      28.2850      0.00000
     95      28.3087      0.00000
     96      28.8344      0.00000
     97      28.8933      0.00000
     98      28.9651      0.00000
     99      29.4850      0.00000
    100      29.7314      0.00000
    101      29.7573      0.00000
    102      29.8398      0.00000
    103      30.3944      0.00000
    104      30.5265      0.00000
    105      30.5814      0.00000
    106      30.7987      0.00000
    107      30.9746      0.00000
    108      31.1591      0.00000
    109      31.8303      0.00000
    110      31.8947      0.00000
    111      31.9995      0.00000
    112      32.0159      0.00000
    113      32.4152      0.00000
    114      32.4686      0.00000
    115      32.8058      0.00000
    116      32.9794      0.00000
    117      33.7252      0.00000
    118      34.3003      0.00000
    119      34.4677      0.00000
    120      34.6165      0.00000
    121      34.8886      0.00000
    122      34.9878      0.00000
    123      35.0788      0.00000
    124      35.1635      0.00000
    125      35.6432      0.00000
    126      35.8417      0.00000
    127      36.2970      0.00000
    128      36.4811      0.00000
    129      36.7147      0.00000
    130      36.7298      0.00000
    131      37.3376      0.00000
    132      37.4824      0.00000

 k-point     6 :       0.4167    0.0000    0.0000
  band No.  band energies     occupation 
      1     -22.2931      2.00000
      2     -20.3551      2.00000
      3     -19.4473      2.00000
      4     -16.9922      2.00000
      5     -15.2295      2.00000
      6     -13.1512      2.00000
      7     -13.1449      2.00000
      8     -11.9339      2.00000
      9     -11.1003      2.00000
     10      -9.6886      2.00000
     11      -9.4569      2.00000
     12      -9.4558      2.00000
     13      -8.1921      2.00000
     14      -8.0234      2.00000
     15      -6.6368      2.00000
     16      -4.5879      0.00000
     17      -1.4402      0.00000
     18      -0.1106      0.00000
     19       2.1869      0.00000
     20       3.0006      0.00000
     21       3.2952      0.00000
     22       4.0033      0.00000
     23       4.0966      0.00000
     24       4.6641      0.00000
     25       5.6228      0.00000
     26       5.7712      0.00000
     27       6.4648      0.00000
     28       6.9442      0.00000
     29       6.9735      0.00000
     30       7.2116      0.00000
     31       7.6210      0.00000
     32       7.6595      0.00000
     33       8.1580      0.00000
     34       8.3079      0.00000
     35       8.3910      0.00000
     36       8.7964      0.00000
     37       9.2363      0.00000
     38       9.4802      0.00000
     39       9.6076      0.00000
     40      10.8460      0.00000
     41      11.2375      0.00000
     42      11.3762      0.00000
     43      11.3767      0.00000
     44      11.5335      0.00000
     45      13.2341      0.00000
     46      13.5987      0.00000
     47      13.8253      0.00000
     48      14.0315      0.00000
     49      15.4538      0.00000
     50      16.0221      0.00000
     51      16.0840      0.00000
     52      16.1117      0.00000
     53      16.4951      0.00000
     54      16.5259      0.00000
     55      16.6223      0.00000
     56      16.6345      0.00000
     57      17.1718      0.00000
     58      17.3727      0.00000
     59      17.5846      0.00000
     60      17.5855      0.00000
     61      17.6072      0.00000
     62      17.9938      0.00000
     63      18.2380      0.00000
     64      18.5824      0.00000
     65      18.6621      0.00000
     66      18.8275      0.00000
     67      19.4219      0.00000
     68      19.9103      0.00000
     69      20.0509      0.00000
     70      20.1154      0.00000
     71      20.2570      0.00000
     72      20.2938      0.00000
     73      20.7050      0.00000
     74      20.9882      0.00000
     75      21.4144      0.00000
     76      22.1485      0.00000
     77      22.2206      0.00000
     78      22.7905      0.00000
     79      22.8178      0.00000
     80      23.5901      0.00000
     81      23.6888      0.00000
     82      25.0564      0.00000
     83      25.1114      0.00000
     84      25.8395      0.00000
     85      26.2072      0.00000
     86      26.2645      0.00000
     87      26.3917      0.00000
     88      26.8165      0.00000
     89      27.0500      0.00000
     90      27.1502      0.00000
     91      27.3694      0.00000
     92      27.4343      0.00000
     93      27.6577      0.00000
     94      27.8042      0.00000
     95      28.4857      0.00000
     96      28.7949      0.00000
     97      28.8724      0.00000
     98      29.2872      0.00000
     99      29.3016      0.00000
    100      29.5009      0.00000
    101      29.8715      0.00000
    102      30.1428      0.00000
    103      30.2165      0.00000
    104      30.2284      0.00000
    105      30.2682      0.00000
    106      30.4602      0.00000
    107      30.6424      0.00000
    108      30.9495      0.00000
    109      31.4610      0.00000
    110      31.7070      0.00000
    111      31.7521      0.00000
    112      32.4862      0.00000
    113      32.7131      0.00000
    114      32.9506      0.00000
    115      33.3703      0.00000
    116      33.7185      0.00000
    117      33.8366      0.00000
    118      33.9686      0.00000
    119      34.1022      0.00000
    120      34.2084      0.00000
    121      34.7146      0.00000
    122      34.8839      0.00000
    123      35.2484      0.00000
    124      35.7910      0.00000
    125      36.1458      0.00000
    126      36.2824      0.00000
    127      36.5103      0.00000
    128      37.1980      0.00000
    129      37.2947      0.00000
    130      37.4356      0.00000
    131      37.4417      0.00000
    132      37.7611      0.00000

 k-point     7 :       0.5000   -0.0000    0.0000
  band No.  band energies     occupation 
      1     -22.2463      2.00000
      2     -20.4471      2.00000
      3     -19.4691      2.00000
      4     -17.0156      2.00000
      5     -15.0716      2.00000
      6     -13.2955      2.00000
      7     -12.7075      2.00000
      8     -12.2282      2.00000
      9     -10.6462      2.00000
     10     -10.3010      2.00000
     11      -9.4150      2.00000
     12      -9.3307      2.00000
     13      -8.2833      2.00000
     14      -8.1977      2.00000
     15      -6.6497      2.00000
     16      -4.6269      0.00000
     17      -1.3945      0.00000
     18      -0.0375      0.00000
     19       2.9309      0.00000
     20       3.0696      0.00000
     21       3.3926      0.00000
     22       3.5474      0.00000
     23       3.9107      0.00000
     24       4.3791      0.00000
     25       6.1310      0.00000
     26       6.2607      0.00000
     27       6.5074      0.00000
     28       7.0657      0.00000
     29       7.0795      0.00000
     30       7.3291      0.00000
     31       7.6005      0.00000
     32       7.6601      0.00000
     33       8.0635      0.00000
     34       8.3294      0.00000
     35       8.3814      0.00000
     36       8.4855      0.00000
     37       8.6857      0.00000
     38       8.7522      0.00000
     39       9.7544      0.00000
     40      10.5222      0.00000
     41      11.1633      0.00000
     42      11.3026      0.00000
     43      11.3100      0.00000
     44      11.4788      0.00000
     45      13.3471      0.00000
     46      13.6220      0.00000
     47      14.4479      0.00000
     48      14.8671      0.00000
     49      14.9868      0.00000
     50      15.3592      0.00000
     51      16.4956      0.00000
     52      16.5239      0.00000
     53      16.5717      0.00000
     54      16.6856      0.00000
     55      16.8913      0.00000
     56      16.9983      0.00000
     57      17.0465      0.00000
     58      17.1084      0.00000
     59      17.1980      0.00000
     60      17.3628      0.00000
     61      17.7516      0.00000
     62      17.9126      0.00000
     63      18.6500      0.00000
     64      18.6815      0.00000
     65      18.9821      0.00000
     66      19.0527      0.00000
     67      19.4028      0.00000
     68      19.4528      0.00000
     69      19.6982      0.00000
     70      19.7233      0.00000
     71      19.7680      0.00000
     72      19.9731      0.00000
     73      20.4486      0.00000
     74      21.0813      0.00000
     75      22.1351      0.00000
     76      22.1737      0.00000
     77      22.2803      0.00000
     78      22.4030      0.00000
     79      23.0308      0.00000
     80      23.1344      0.00000
     81      23.9286      0.00000
     82      23.9339      0.00000
     83      25.6098      0.00000
     84      25.8033      0.00000
     85      25.9671      0.00000
     86      26.3135      0.00000
     87      26.7851      0.00000
     88      26.9132      0.00000
     89      27.0804      0.00000
     90      27.2573      0.00000
     91      27.6284      0.00000
     92      27.7618      0.00000
     93      27.8326      0.00000
     94      28.3520      0.00000
     95      28.6584      0.00000
     96      28.6843      0.00000
     97      28.8089      0.00000
     98      28.9970      0.00000
     99      29.3495      0.00000
    100      29.4270      0.00000
    101      29.4771      0.00000
    102      29.5964      0.00000
    103      29.8522      0.00000
    104      29.8826      0.00000
    105      30.1689      0.00000
    106      30.5494      0.00000
    107      31.0004      0.00000
    108      31.0158      0.00000
    109      31.8637      0.00000
    110      31.9653      0.00000
    111      32.0060      0.00000
    112      32.0785      0.00000
    113      32.2901      0.00000
    114      32.4119      0.00000
    115      33.4553      0.00000
    116      33.7513      0.00000
    117      33.8236      0.00000
    118      34.2050      0.00000
    119      34.5129      0.00000
    120      34.6400      0.00000
    121      34.7580      0.00000
    122      34.7765      0.00000
    123      35.0465      0.00000
    124      35.2524      0.00000
    125      36.0616      0.00000
    126      36.6160      0.00000
    127      36.6878      0.00000
    128      37.3464      0.00000
    129      37.6779      0.00000
    130      37.8828      0.00000
    131      38.0078      0.00000
    132      38.1231      0.00000

 k-point     8 :       0.0833    0.0833    0.0000
  band No.  band energies     occupation 
      1     -22.6622      2.00000
      2     -19.3502      2.00000
      3     -19.1703      2.00000
      4     -16.6677      2.00000
      5     -16.4273      2.00000
      6     -14.9476      2.00000
      7     -13.4695      2.00000
      8     -12.1879      2.00000
      9     -10.1484      2.00000
     10      -9.8182      2.00000
     11      -9.5799      2.00000
     12      -7.5967      2.00000
     13      -7.4206      2.00000
     14      -6.7139      2.00000
     15      -6.5020      2.00000
     16      -3.8508      0.00000
     17      -1.9703      0.00000
     18      -1.2383      0.00000
     19      -0.3622      0.00000
     20       2.1401      0.00000
     21       2.7358      0.00000
     22       2.9336      0.00000
     23       3.9348      0.00000
     24       4.2720      0.00000
     25       4.2794      0.00000
     26       4.7242      0.00000
     27       6.3075      0.00000
     28       6.3573      0.00000
     29       7.0906      0.00000
     30       7.6872      0.00000
     31       8.0754      0.00000
     32       9.2677      0.00000
     33       9.2848      0.00000
     34       9.3299      0.00000
     35       9.3508      0.00000
     36      10.0998      0.00000
     37      10.5789      0.00000
     38      10.8023      0.00000
     39      11.2401      0.00000
     40      11.3412      0.00000
     41      11.7803      0.00000
     42      12.1502      0.00000
     43      12.1868      0.00000
     44      12.4052      0.00000
     45      12.4488      0.00000
     46      12.8143      0.00000
     47      13.2933      0.00000
     48      13.3005      0.00000
     49      13.6670      0.00000
     50      14.2497      0.00000
     51      14.3522      0.00000
     52      14.4510      0.00000
     53      15.3001      0.00000
     54      15.3399      0.00000
     55      15.4818      0.00000
     56      16.2678      0.00000
     57      16.2936      0.00000
     58      16.9853      0.00000
     59      17.3633      0.00000
     60      17.6056      0.00000
     61      17.7842      0.00000
     62      18.3692      0.00000
     63      18.8862      0.00000
     64      19.0946      0.00000
     65      19.2249      0.00000
     66      19.3818      0.00000
     67      19.5686      0.00000
     68      20.0878      0.00000
     69      20.7982      0.00000
     70      21.7647      0.00000
     71      22.1210      0.00000
     72      22.3795      0.00000
     73      22.5889      0.00000
     74      22.8011      0.00000
     75      22.8359      0.00000
     76      22.9918      0.00000
     77      23.4080      0.00000
     78      23.4097      0.00000
     79      23.7349      0.00000
     80      23.8264      0.00000
     81      24.0705      0.00000
     82      24.4365      0.00000
     83      25.0654      0.00000
     84      25.3201      0.00000
     85      25.7739      0.00000
     86      25.7851      0.00000
[...]
      9      -6.2340      2.00000
     10      -6.1699      2.00000
     11      -5.9384      2.00000
     12      -5.1741      2.00000
     13      -5.0305      2.00000
     14      -4.0864      2.00000
     15      -4.0505      2.00000
     16      -1.1034      0.00000
     17       1.0532      0.00000
     18       3.8237      0.00000
     19       3.8358      0.00000
     20       4.0630      0.00000
     21       5.6485      0.00000
     22       5.8855      0.00000
     23       6.0837      0.00000
     24       6.5128      0.00000
     25       6.9513      0.00000
     26       7.5322      0.00000
     27       7.6102      0.00000
     28       7.7920      0.00000
     29       8.0097      0.00000
     30       8.7926      0.00000
     31       9.2336      0.00000
     32       9.3680      0.00000
     33       9.4664      0.00000
     34       9.7042      0.00000
     35      10.9296      0.00000
     36      11.7178      0.00000
     37      11.8304      0.00000
     38      12.0160      0.00000
     39      12.2410      0.00000
     40      12.3722      0.00000
     41      12.9904      0.00000
     42      12.9937      0.00000
     43      13.9127      0.00000
     44      14.0434      0.00000
     45      14.1745      0.00000
     46      14.2407      0.00000
     47      14.6168      0.00000
     48      15.3121      0.00000
     49      15.4158      0.00000
     50      16.5399      0.00000
     51      16.6958      0.00000
     52      16.9779      0.00000
     53      17.0761      0.00000
     54      17.1160      0.00000
     55      17.1271      0.00000
     56      17.4238      0.00000
     57      17.6331      0.00000
     58      17.7291      0.00000
     59      17.8168      0.00000
     60      18.5900      0.00000
     61      18.7168      0.00000
     62      18.7271      0.00000
     63      19.0902      0.00000
     64      19.1444      0.00000
     65      19.3171      0.00000
     66      20.4410      0.00000
     67      20.8640      0.00000
     68      20.8955      0.00000
     69      21.0579      0.00000
     70      21.2793      0.00000
     71      21.5876      0.00000
     72      22.1166      0.00000
     73      22.2284      0.00000
     74      22.4904      0.00000
     75      22.7709      0.00000
     76      22.9937      0.00000
     77      23.0397      0.00000
     78      23.5877      0.00000
     79      23.5920      0.00000
     80      23.8280      0.00000
     81      24.4487      0.00000
     82      24.9932      0.00000
     83      25.3213      0.00000
     84      25.5732      0.00000
     85      25.7305      0.00000
     86      25.8279      0.00000
     87      26.4749      0.00000
     88      26.5020      0.00000
     89      26.9163      0.00000
     90      27.0762      0.00000
     91      27.0989      0.00000
     92      27.1828      0.00000
     93      27.3165      0.00000
     94      28.1909      0.00000
     95      29.8713      0.00000
     96      29.8995      0.00000
     97      29.9262      0.00000
     98      30.2311      0.00000
     99      30.3328      0.00000
    100      30.3344      0.00000
    101      30.6368      0.00000
    102      30.7067      0.00000
    103      31.1859      0.00000
    104      31.3291      0.00000
    105      31.5362      0.00000
    106      31.6411      0.00000
    107      32.0955      0.00000
    108      32.1324      0.00000
    109      32.3659      0.00000
    110      32.5780      0.00000
    111      33.1015      0.00000
    112      33.3188      0.00000
    113      33.4613      0.00000
    114      33.5669      0.00000
    115      33.7030      0.00000
    116      33.7085      0.00000
    117      35.2016      0.00000
    118      35.3526      0.00000
    119      35.4283      0.00000
    120      35.6632      0.00000
    121      35.7458      0.00000
    122      35.9019      0.00000
    123      36.2429      0.00000
    124      36.9190      0.00000
    125      37.0432      0.00000
    126      37.1270      0.00000
    127      37.2516      0.00000
    128      37.6074      0.00000
    129      37.8273      0.00000
    130      37.9124      0.00000
    131      37.9784      0.00000
    132      38.0411      0.00000

 k-point    17 :       0.2500    0.2500    0.0000
  band No.  band energies     occupation 
      1     -17.9787      2.00000
      2     -15.9960      2.00000
      3     -15.5620      2.00000
      4     -12.0219      2.00000
      5     -11.3825      2.00000
      6      -9.0257      2.00000
      7      -8.2631      2.00000
      8      -7.2527      2.00000
      9      -6.3753      2.00000
     10      -6.3447      2.00000
     11      -5.5881      2.00000
     12      -4.8643      2.00000
     13      -4.7835      2.00000
     14      -4.2550      2.00000
     15      -4.0923      2.00000
     16      -0.8631      0.00000
     17       0.7506      0.00000
     18       3.2194      0.00000
     19       4.4859      0.00000
     20       4.7185      0.00000
     21       5.0337      0.00000
     22       5.0583      0.00000
     23       5.9047      0.00000
     24       6.9831      0.00000
     25       7.1065      0.00000
     26       7.4708      0.00000
     27       7.9832      0.00000
     28       8.1120      0.00000
     29       8.2542      0.00000
     30       8.7561      0.00000
     31       8.8673      0.00000
     32       9.3357      0.00000
     33       9.4602      0.00000
     34      10.2251      0.00000
     35      10.5304      0.00000
     36      10.5538      0.00000
     37      10.9964      0.00000
     38      12.2840      0.00000
     39      12.6842      0.00000
     40      12.7740      0.00000
     41      13.3472      0.00000
     42      13.6851      0.00000
     43      13.7527      0.00000
     44      13.8517      0.00000
     45      13.9931      0.00000
     46      14.3572      0.00000
     47      14.4361      0.00000
     48      14.7539      0.00000
     49      15.9591      0.00000
     50      16.0562      0.00000
     51      16.4153      0.00000
     52      16.5350      0.00000
     53      16.6893      0.00000
     54      17.1281      0.00000
     55      17.3446      0.00000
     56      17.3552      0.00000
     57      17.9092      0.00000
     58      17.9930      0.00000
     59      18.4396      0.00000
     60      18.4805      0.00000
     61      18.5333      0.00000
     62      18.9756      0.00000
     63      19.2050      0.00000
     64      19.3436      0.00000
     65      20.0313      0.00000
     66      20.0497      0.00000
     67      20.8088      0.00000
     68      20.9908      0.00000
     69      21.0510      0.00000
     70      21.4843      0.00000
     71      21.9329      0.00000
     72      22.1201      0.00000
     73      22.2302      0.00000
     74      22.5133      0.00000
     75      22.6957      0.00000
     76      22.8960      0.00000
     77      23.2775      0.00000
     78      23.6810      0.00000
     79      23.9145      0.00000
     80      24.5793      0.00000
     81      24.5872      0.00000
     82      24.7798      0.00000
     83      25.2699      0.00000
     84      25.2720      0.00000
     85      25.3004      0.00000
     86      26.0194      0.00000
     87      26.0587      0.00000
     88      26.2769      0.00000
     89      26.6132      0.00000
     90      26.6821      0.00000
     91      26.8784      0.00000
     92      26.9118      0.00000
     93      27.6601      0.00000
     94      28.0470      0.00000
     95      29.6353      0.00000
     96      29.9695      0.00000
     97      30.2154      0.00000
     98      30.2518      0.00000
     99      30.3462      0.00000
    100      30.4489      0.00000
    101      30.6666      0.00000
    102      30.8366      0.00000
    103      31.0318      0.00000
    104      31.2286      0.00000
    105      31.3181      0.00000
    106      32.4142      0.00000
    107      32.4507      0.00000
    108      32.5981      0.00000
    109      32.8508      0.00000
    110      32.8715      0.00000
    111      32.8829      0.00000
    112      33.1924      0.00000
    113      33.4404      0.00000
    114      34.2127      0.00000
    115      34.3057      0.00000
    116      34.8134      0.00000
    117      34.8563      0.00000
    118      34.8707      0.00000
    119      35.1015      0.00000
    120      35.1969      0.00000
    121      35.2804      0.00000
    122      35.4532      0.00000
    123      35.7283      0.00000
    124      36.2037      0.00000
    125      36.5009      0.00000
    126      36.5457      0.00000
    127      36.7046      0.00000
    128      37.3084      0.00000
    129      37.4284      0.00000
    130      37.7153      0.00000
    131      37.8904      0.00000
    132      37.9432      0.00000

 k-point    18 :       0.3333    0.2500    0.0000
  band No.  band energies     occupation 
      1     -17.8984      2.00000
      2     -16.0695      2.00000
      3     -15.7100      2.00000
      4     -11.8996      2.00000
      5     -11.2318      2.00000
      6      -9.3686      2.00000
      7      -7.6492      2.00000
      8      -6.9927      2.00000
      9      -6.4796      2.00000
     10      -6.1240      2.00000
     11      -5.8367      2.00000
     12      -5.0780      2.00000
     13      -4.9843      2.00000
     14      -4.4601      2.00000
     15      -4.4446      2.00000
     16      -0.6009      0.00000
     17       0.5167      0.00000
     18       3.7289      0.00000
     19       4.3384      0.00000
     20       4.8013      0.00000
     21       4.9462      0.00000
     22       5.5031      0.00000
     23       6.2822      0.00000
     24       6.3620      0.00000
     25       7.0771      0.00000
     26       7.5497      0.00000
     27       7.5998      0.00000
     28       8.1607      0.00000
     29       8.2304      0.00000
     30       8.7842      0.00000
     31       8.9899      0.00000
     32       9.2407      0.00000
     33       9.3977      0.00000
     34      10.2956      0.00000
     35      10.7476      0.00000
     36      11.0304      0.00000
     37      11.3641      0.00000
     38      11.8565      0.00000
     39      12.0835      0.00000
     40      13.0006      0.00000
     41      13.4336      0.00000
     42      13.6633      0.00000
     43      13.7919      0.00000
     44      13.8916      0.00000
     45      14.0089      0.00000
     46      14.3510      0.00000
     47      14.6608      0.00000
     48      15.0159      0.00000
     49      15.9970      0.00000
     50      16.4015      0.00000
     51      16.4752      0.00000
     52      16.7662      0.00000
     53      16.7838      0.00000
     54      16.9406      0.00000
     55      17.1769      0.00000
     56      17.3230      0.00000
     57      17.5597      0.00000
     58      17.8514      0.00000
     59      18.0659      0.00000
     60      18.2466      0.00000
     61      18.5652      0.00000
     62      18.8667      0.00000
     63      19.0612      0.00000
     64      19.4238      0.00000
     65      20.0111      0.00000
     66      20.2213      0.00000
     67      20.5629      0.00000
     68      21.0583      0.00000
     69      21.1230      0.00000
     70      21.5532      0.00000
     71      21.6773      0.00000
     72      22.0476      0.00000
     73      22.1086      0.00000
     74      22.4709      0.00000
     75      22.5782      0.00000
     76      23.0711      0.00000
     77      23.2097      0.00000
     78      23.2984      0.00000
     79      23.9659      0.00000
     80      24.2286      0.00000
     81      24.3815      0.00000
     82      24.8458      0.00000
     83      25.0917      0.00000
     84      25.4010      0.00000
     85      25.5003      0.00000
     86      25.5492      0.00000
     87      25.9496      0.00000
     88      26.1773      0.00000
     89      26.1872      0.00000
     90      26.6038      0.00000
     91      26.7205      0.00000
     92      27.0105      0.00000
     93      27.0389      0.00000
     94      27.8388      0.00000
     95      29.9861      0.00000
     96      30.1945      0.00000
     97      30.3359      0.00000
     98      30.8137      0.00000
     99      30.9217      0.00000
    100      31.1187      0.00000
    101      31.4074      0.00000
    102      31.4121      0.00000
    103      31.5513      0.00000
    104      31.6229      0.00000
    105      31.7994      0.00000
    106      32.0675      0.00000
    107      32.0993      0.00000
    108      32.2036      0.00000
    109      32.5215      0.00000
    110      32.5460      0.00000
    111      33.1681      0.00000
    112      33.2277      0.00000
    113      33.7204      0.00000
    114      33.8629      0.00000
    115      34.1305      0.00000
    116      34.3214      0.00000
    117      34.5533      0.00000
    118      34.9357      0.00000
    119      35.0286      0.00000
    120      35.4904      0.00000
    121      35.6715      0.00000
    122      35.8460      0.00000
    123      36.3877      0.00000
    124      36.4200      0.00000
    125      36.5004      0.00000
    126      36.5060      0.00000
    127      36.7774      0.00000
    128      37.4620      0.00000
    129      37.6878      0.00000
    130      37.8795      0.00000
    131      37.8999      0.00000
    132      38.0769      0.00000

 k-point    19 :       0.3333    0.3333    0.0000
  band No.  band energies     occupation 
      1     -17.8688      2.00000
      2     -15.9379      2.00000
      3     -15.9378      2.00000
      4     -11.5066      2.00000
      5     -11.5065      2.00000
      6      -9.5451      2.00000
      7      -7.0445      2.00000
      8      -7.0444      2.00000
      9      -6.6839      2.00000
     10      -6.0367      2.00000
     11      -5.9047      2.00000
     12      -4.8914      2.00000
     13      -4.8914      2.00000
     14      -4.8129      2.00000
     15      -4.8129      2.00000
     16      -0.0409      0.00000
     17      -0.0408      0.00000
     18       4.2692      0.00000
     19       4.2978      0.00000
     20       4.2978      0.00000
     21       5.5746      0.00000
     22       5.5746      0.00000
     23       5.7034      0.00000
     24       6.5586      0.00000
     25       7.0968      0.00000
     26       7.0968      0.00000
     27       8.1351      0.00000
     28       8.1351      0.00000
     29       8.1762      0.00000
     30       8.6535      0.00000
     31       9.1420      0.00000
     32       9.2532      0.00000
     33       9.2533      0.00000
     34      10.7312      0.00000
     35      10.7312      0.00000
     36      11.2639      0.00000
     37      11.2639      0.00000
     38      11.3206      0.00000
     39      11.6735      0.00000
     40      13.5634      0.00000
     41      13.5634      0.00000
     42      13.5956      0.00000
     43      13.5956      0.00000
     44      13.9717      0.00000
     45      14.2579      0.00000
     46      14.2579      0.00000
     47      14.5931      0.00000
     48      15.7412      0.00000
     49      15.7412      0.00000
     50      16.1258      0.00000
     51      16.5320      0.00000
     52      16.5320      0.00000
     53      16.6440      0.00000
     54      16.8185      0.00000
     55      17.1274      0.00000
     56      17.1274      0.00000
     57      17.4568      0.00000
     58      17.8799      0.00000
     59      17.8799      0.00000
     60      18.6209      0.00000
     61      19.2008      0.00000
     62      19.2881      0.00000
     63      19.2882      0.00000
     64      19.5191      0.00000
     65      19.6556      0.00000
     66      19.6557      0.00000
     67      20.1775      0.00000
     68      20.5934      0.00000
     69      20.5934      0.00000
     70      22.0208      0.00000
     71      22.0208      0.00000
     72      22.6324      0.00000
     73      22.6466      0.00000
     74      22.6466      0.00000
     75      22.7957      0.00000
     76      23.1172      0.00000
     77      23.1327      0.00000
     78      23.1327      0.00000
     79      23.4334      0.00000
     80      23.4334      0.00000
     81      23.7063      0.00000
     82      25.0938      0.00000
     83      25.0939      0.00000
     84      25.3922      0.00000
     85      25.8611      0.00000
     86      25.8612      0.00000
     87      25.8990      0.00000
     88      25.9292      0.00000
     89      25.9292      0.00000
     90      26.3722      0.00000
     91      26.4935      0.00000
     92      26.5733      0.00000
     93      27.3528      0.00000
     94      27.3528      0.00000
     95      30.1024      0.00000
     96      30.1024      0.00000
     97      30.1710      0.00000
     98      31.3933      0.00000
     99      31.3935      0.00000
    100      31.4905      0.00000
    101      31.5947      0.00000
    102      31.5948      0.00000
    103      31.7501      0.00000
    104      32.3585      0.00000
    105      32.3586      0.00000
    106      32.3602      0.00000
    107      32.3603      0.00000
    108      32.4050      0.00000
    109      32.5029      0.00000
    110      32.7606      0.00000
    111      32.7607      0.00000
    112      33.3506      0.00000
    113      33.5868      0.00000
    114      33.5868      0.00000
    115      34.0599      0.00000
    116      34.0899      0.00000
    117      34.0900      0.00000
    118      34.5274      0.00000
    119      34.6245      0.00000
    120      34.6246      0.00000
    121      36.1334      0.00000
    122      36.5049      0.00000
    123      36.6555      0.00000
    124      36.6556      0.00000
    125      37.0543      0.00000
    126      37.0545      0.00000
    127      37.2531      0.00000
    128      37.4535      0.00000
    129      37.6819      0.00000
    130      37.7727      0.00000
    131      37.7727      0.00000
    132      37.8231      0.00000


--------------------------------------------------------------------------------------------------------


 soft charge-density along one line, spin component           1
         0         1         2         3         4         5         6         7         8         9
 total charge-density along one line
 
 pseudopotential strength for first ion, spin component:           1
  6.649  10.140   0.000  -0.000   0.000   0.000  -0.000   0.000
 10.140  15.458   0.000  -0.000   0.000   0.000  -0.000   0.000
  0.000   0.000  -2.275  -0.000  -0.000  -3.895  -0.000  -0.000
 -0.000  -0.000  -0.000  -2.281   0.000  -0.000  -3.902   0.000
  0.000   0.000  -0.000   0.000  -2.275  -0.000   0.000  -3.895
  0.000   0.000  -3.895  -0.000  -0.000  -6.470  -0.000  -0.000
 -0.000  -0.000  -0.000  -3.902   0.000  -0.000  -6.479   0.000
  0.000   0.000  -0.000   0.000  -3.895  -0.000   0.000  -6.470
 total augmentation occupancy for first ion, spin component:           1
  3.705  -0.948   0.000   0.000   0.000   0.000  -0.000  -0.000
 -0.948   0.262   0.000   0.000   0.000   0.000   0.000   0.000
  0.000   0.000   4.123   0.000   0.000  -1.099   0.000   0.000
  0.000   0.000   0.000   0.887   0.000   0.000  -0.222  -0.000
  0.000   0.000   0.000   0.000   4.123   0.000   0.000  -1.099
  0.000  -0.000  -1.099  -0.000   0.000   0.304  -0.000   0.000
  0.000  -0.000   0.000  -0.222   0.000  -0.000   0.056   0.000
 -0.000   0.000   0.000  -0.000  -1.099   0.000   0.000   0.304


--------------------------------------- Iteration      1(   9)  ---------------------------------------


    POTLOK:  cpu time    0.3114: real time    0.6297
    SETDIJ:  cpu time    0.0021: real time    0.0021

 total amount of memory used by VASP MPI-rank0   547309. kBytes
=======================================================================

   base      :      30000. kBytes
   nonl-proj :      11089. kBytes
   fftplans  :       2090. kBytes
   grid      :       6068. kBytes
   one-center:         24. kBytes
   wavefun   :     498038. kBytes
 
