<?xml version="1.0" encoding="ISO-8859-1"?>
<modeling>
 <generator>
  <i name="program" type="string">vasp </i>
  <i name="version" type="string">5.4.4.18Apr17-6-g9f103f2a35  </i>
  <i name="subversion" type="string">(build Mar 30 2023 15:39:25) complex            parallel </i>
  <i name="platform" type="string">LinuxIFC </i>
  <i name="date" type="string">2023 06 23 </i>
  <i name="time" type="string">18:58:05 </i>
 </generator>
 <incar>
  <i type="string" name="SYSTEM"> BC3-optical</i>
  <i type="int" name="ISTART">     1</i>
  <i type="string" name="PREC">accurate</i>
  <i type="string" name="ALGO"> Exact</i>
  <i type="int" name="ICHARG">     2</i>
  <i name="EDIFF">      0.00000001</i>
  <i name="ENCUT">    450.00000000</i>
  <i type="int" name="NBANDS">   768</i>
  <i type="int" name="NEDOS">  2400</i>
  <i type="logical" name="LREAL"> F  </i>
  <i type="int" name="ISMEAR">     0</i>
  <i name="SIGMA">      0.01000000</i>
  <i type="int" name="NWRITE">     3</i>
  <i type="logical" name="LOPTICS"> T  </i>
  <v type="int" name="KPOINT_BSE">    -1     0     0     0</v>
  <i name="CSHIFT">      0.10000000</i>
  <i name="CSHIFT">      0.10000000</i>
 </incar>
 <structure name="primitive_cell" >
  <crystal>
   <varray name="basis" >
    <v>       4.48084843       2.58701885       0.00000000 </v>
    <v>      -4.48084843       2.58701885       0.00000000 </v>
    <v>       0.00000000       0.00000000       8.52022140 </v>
   </varray>
   <i name="volume">    197.53348383 </i>
   <varray name="rec_basis" >
    <v>       0.11158601       0.19327265       0.00000000 </v>
    <v>      -0.11158601       0.19327265       0.00000000 </v>
    <v>       0.00000000       0.00000000       0.11736784 </v>
   </varray>
  </crystal>
  <varray name="positions" >
   <v>       0.33333300      -0.33333400       0.25000000 </v>
   <v>       0.15869124       0.31738348       0.25000000 </v>
   <v>      -0.31738448      -0.15869224       0.25000000 </v>
   <v>       0.15869124      -0.15869224       0.25000000 </v>
   <v>      -0.15869224       0.15869124       0.25000000 </v>
   <v>       0.31738348       0.15869124       0.25000000 </v>
   <v>      -0.15869224      -0.31738448       0.25000000 </v>
   <v>      -0.33333400       0.33333300       0.25000000 </v>
  </varray>
 </structure>
 <varray name="primitive_index" >
  <v type="int" >        1 </v>
  <v type="int" >        3 </v>
  <v type="int" >        7 </v>
  <v type="int" >        5 </v>
  <v type="int" >        6 </v>
  <v type="int" >        4 </v>
  <v type="int" >        8 </v>
  <v type="int" >        2 </v>
 </varray>
 <kpoints>
  <generation param="Gamma">
   <v type="int" name="divisions">      12       12        1 </v>
   <v name="usershift">      0.00000000       0.00000000       0.00000000 </v>
   <v name="genvec1">      0.08333333       0.00000000       0.00000000 </v>
   <v name="genvec2">      0.00000000       0.08333333       0.00000000 </v>
   <v name="genvec3">      0.00000000       0.00000000       1.00000000 </v>
   <v name="shift">      0.00000000       0.00000000       0.00000000 </v>
  </generation>
  <varray name="kpointlist" >
   <v>       0.00000000       0.00000000       0.00000000 </v>
   <v>       0.08333333       0.00000000       0.00000000 </v>
   <v>       0.16666667       0.00000000       0.00000000 </v>
   <v>       0.25000000      -0.00000000       0.00000000 </v>
   <v>       0.33333333      -0.00000000       0.00000000 </v>
   <v>       0.41666667       0.00000000       0.00000000 </v>
   <v>       0.50000000      -0.00000000       0.00000000 </v>
   <v>       0.08333333       0.08333333       0.00000000 </v>
   <v>       0.16666667       0.08333333       0.00000000 </v>
   <v>       0.25000000       0.08333333       0.00000000 </v>
   <v>       0.33333333       0.08333333       0.00000000 </v>
   <v>       0.41666667       0.08333333       0.00000000 </v>
   <v>       0.16666667       0.16666667       0.00000000 </v>
   <v>       0.25000000       0.16666667       0.00000000 </v>
   <v>       0.33333333       0.16666667       0.00000000 </v>
   <v>       0.41666667       0.16666667       0.00000000 </v>
   <v>       0.25000000       0.25000000       0.00000000 </v>
   <v>       0.33333333       0.25000000       0.00000000 </v>
   <v>       0.33333333       0.33333333       0.00000000 </v>
  </varray>
  <varray name="weights" >
   <v>       0.00694444 </v>
   <v>       0.04166667 </v>
   <v>       0.04166667 </v>
   <v>       0.04166667 </v>
   <v>       0.04166667 </v>
   <v>       0.04166667 </v>
   <v>       0.02083333 </v>
   <v>       0.04166667 </v>
   <v>       0.08333333 </v>
   <v>       0.08333333 </v>
   <v>       0.08333333 </v>
   <v>       0.08333333 </v>
   <v>       0.04166667 </v>
   <v>       0.08333333 </v>
   <v>       0.08333333 </v>
   <v>       0.04166667 </v>
   <v>       0.04166667 </v>
   <v>       0.08333333 </v>
   <v>       0.01388889 </v>
  </varray>
 </kpoints>
 <parameters>
  <separator name="general" >
   <i type="string" name="SYSTEM">BC3-optical</i>
   <i type="logical" name="LCOMPAT"> F  </i>
  </separator>
  <separator name="electronic" >
   <i type="string" name="PREC">accura</i>
   <i name="ENMAX">    450.00000000</i>
   <i name="ENAUG">    644.87300000</i>
   <i name="EDIFF">      0.00000001</i>
   <i type="int" name="IALGO">    90</i>
   <i type="int" name="IWAVPR">    10</i>
   <i type="int" name="NBANDS">   768</i>
   <i name="NELECT">     30.00000000</i>
   <i type="int" name="TURBO">     0</i>
   <i type="int" name="IRESTART">     0</i>
   <i type="int" name="NREBOOT">     0</i>
   <i type="int" name="NMIN">     0</i>
   <i name="EREF">      0.00000000</i>
   <separator name="electronic smearing" >
    <i type="int" name="ISMEAR">     0</i>
    <i name="SIGMA">      0.01000000</i>
    <i name="KSPACING">      0.50000000</i>
    <i type="logical" name="KGAMMA"> T  </i>
   </separator>
   <separator name="electronic projectors" >
    <i type="logical" name="LREAL"> F  </i>
    <v name="ROPT">      0.00000000      0.00000000</v>
    <i type="int" name="LMAXPAW">  -100</i>
    <i type="int" name="LMAXMIX">     2</i>
    <i type="logical" name="NLSPLINE"> F  </i>
   </separator>
   <separator name="electronic startup" >
    <i type="int" name="ISTART">     1</i>
    <i type="int" name="ICHARG">     2</i>
    <i type="int" name="INIWAV">     1</i>
   </separator>
   <separator name="electronic spin" >
    <i type="int" name="ISPIN">     1</i>
    <i type="logical" name="LNONCOLLINEAR"> F  </i>
    <v name="MAGMOM">      1.00000000      1.00000000      1.00000000      1.00000000      1.00000000      1.00000000      1.00000000      1.00000000</v>
    <i name="NUPDOWN">     -1.00000000</i>
    <i type="logical" name="LSORBIT"> F  </i>
    <v name="SAXIS">      0.00000000      0.00000000      1.00000000</v>
    <i type="logical" name="LSPIRAL"> F  </i>
    <v name="QSPIRAL">      0.00000000      0.00000000      0.00000000</v>
    <i type="logical" name="LZEROZ"> F  </i>
   </separator>
   <separator name="electronic exchange-correlation" >
    <i type="logical" name="LASPH"> F  </i>
    <i type="logical" name="LMETAGGA"> F  </i>
   </separator>
   <separator name="electronic convergence" >
    <i type="int" name="NELM">    60</i>
    <i type="int" name="NELMDL">     0</i>
    <i type="int" name="NELMIN">     2</i>
    <i name="ENINI">    450.00000000</i>
    <separator name="electronic convergence detail" >
     <i type="logical" name="LDIAG"> T  </i>
     <i type="logical" name="LSUBROT"> F  </i>
     <i name="WEIMIN">      0.00000000</i>
     <i name="EBREAK">      0.00000000</i>
     <i name="DEPER">      0.30000000</i>
     <i type="int" name="NRMM">     4</i>
     <i name="TIME">      0.40000000</i>
    </separator>
   </separator>
   <separator name="electronic mixer" >
    <i name="AMIX">      0.40000000</i>
    <i name="BMIX">      1.00000000</i>
    <i name="AMIN">      0.10000000</i>
    <i name="AMIX_MAG">      1.60000000</i>
    <i name="BMIX_MAG">      1.00000000</i>
    <separator name="electronic mixer details" >
     <i type="int" name="IMIX">     4</i>
     <i type="logical" name="MIXFIRST"> F  </i>
     <i type="int" name="MAXMIX">   -45</i>
     <i name="WC">    100.00000000</i>
     <i type="int" name="INIMIX">     1</i>
     <i type="int" name="MIXPRE">     1</i>
     <i type="int" name="MREMOVE">     5</i>
    </separator>
   </separator>
   <separator name="electronic dipolcorrection" >
    <i type="logical" name="LDIPOL"> F  </i>
    <i type="logical" name="LMONO"> F  </i>
    <i type="int" name="IDIPOL">     0</i>
    <i name="EPSILON">      1.00000000</i>
    <v name="DIPOL">   -100.00000000   -100.00000000   -100.00000000</v>
    <i name="EFIELD">      0.00000000</i>
   </separator>
  </separator>
  <separator name="grids" >
   <i type="int" name="NGX">    36</i>
   <i type="int" name="NGY">    36</i>
   <i type="int" name="NGZ">    60</i>
   <i type="int" name="NGXF">    72</i>
   <i type="int" name="NGYF">    72</i>
   <i type="int" name="NGZF">   120</i>
   <i type="logical" name="ADDGRID"> F  </i>
  </separator>
  <separator name="ionic" >
   <i type="int" name="NSW">     0</i>
   <i type="int" name="IBRION">    -1</i>
   <i type="int" name="MDALGO">     0</i>
   <i type="int" name="ISIF">     2</i>
   <i name="PSTRESS">      0.00000000</i>
   <i name="EDIFFG">      0.00000010</i>
   <i type="int" name="NFREE">     0</i>
   <i name="POTIM">      0.50000000</i>
   <i name="SMASS">     -3.00000000</i>
   <i name="SCALEE">      1.00000000</i>
  </separator>
  <separator name="ionic md" >
   <i name="TEBEG">      0.00010000</i>
   <i name="TEEND">      0.00010000</i>
   <i type="int" name="NBLOCK">     1</i>
   <i type="int" name="KBLOCK">     1</i>
   <i type="int" name="NPACO">   256</i>
   <i name="APACO">     16.00000000</i>
  </separator>
  <separator name="symmetry" >
   <i type="int" name="ISYM">     2</i>
   <i name="SYMPREC">      0.00001000</i>
  </separator>
  <separator name="dos" >
   <i type="int" name="LORBIT">     0</i>
   <v name="RWIGS">     -1.00000000     -1.00000000</v>
   <i type="int" name="NEDOS">  2400</i>
   <i name="EMIN">     10.00000000</i>
   <i name="EMAX">    -10.00000000</i>
   <i name="EFERMI">      0.00000000</i>
  </separator>
  <separator name="writing" >
   <i type="int" name="NWRITE">     3</i>
   <i type="logical" name="LWAVE"> T  </i>
   <i type="logical" name="LDOWNSAMPLE"> F  </i>
   <i type="logical" name="LCHARG"> T  </i>
   <i type="logical" name="LPARD"> F  </i>
   <i type="logical" name="LVTOT"> F  </i>
   <i type="logical" name="LVHAR"> F  </i>
   <i type="logical" name="LELF"> F  </i>
   <i type="logical" name="LOPTICS"> T  </i>
   <v name="STM">      0.00000000      0.00000000      0.00000000      0.00000000      0.00000000      0.00000000      0.00000000</v>
  </separator>
  <separator name="performance" >
   <i type="int" name="NPAR">    12</i>
   <i type="int" name="NSIM">     4</i>
   <i type="int" name="NBLK">    -1</i>
   <i type="logical" name="LPLANE"> T  </i>
   <i type="logical" name="LSCALAPACK"> T  </i>
   <i type="logical" name="LSCAAWARE"> T  </i>
   <i type="logical" name="LSCALU"> F  </i>
   <i type="logical" name="LASYNC"> F  </i>
   <i type="logical" name="LORBITALREAL"> F  </i>
  </separator>
  <separator name="miscellaneous" >
   <i type="int" name="IDIOT">     3</i>
   <i type="int" name="ISPECIAL">     0</i>
   <i type="logical" name="LMUSIC"> F  </i>
   <v name="POMASS">     10.81100000     12.01100000</v>
   <v name="DARWINR">      0.00000000      0.00000000</v>
   <v name="DARWINV">      1.00000000      1.00000000</v>
   <i type="logical" name="LCORR"> T  </i>
  </separator>
  <i type="logical" name="GGA_COMPAT"> T  </i>
  <i type="logical" name="LBERRY"> F  </i>
  <i type="int" name="ICORELEVEL">     0</i>
  <i type="logical" name="LDAU"> F  </i>
  <i type="int" name="I_CONSTRAINED_M">     0</i>
  <separator name="electronic exchange-correlation" >
   <i type="string" name="GGA">--</i>
   <i type="int" name="VOSKOWN">     0</i>
   <i type="logical" name="LHFCALC"> F  </i>
   <i type="string" name="PRECFOCK"></i>
   <i type="logical" name="LSYMGRAD"> F  </i>
   <i type="logical" name="LHFONE"> F  </i>
   <i type="logical" name="LRHFCALC"> F  </i>
   <i type="logical" name="LTHOMAS"> F  </i>
   <i type="logical" name="LMODELHF"> F  </i>
   <i name="ENCUT4O">     -1.00000000</i>
   <i type="int" name="EXXOEP">     0</i>
   <i type="int" name="FOURORBIT">     0</i>
   <i name="AEXX">      0.00000000</i>
   <i name="HFALPHA">      0.00000000</i>
   <i name="MCALPHA">      0.00000000</i>
   <i name="ALDAX">      1.00000000</i>
   <i name="AGGAX">      1.00000000</i>
   <i name="ALDAC">      1.00000000</i>
   <i name="AGGAC">      1.00000000</i>
   <i type="int" name="NKREDX">     1</i>
   <i type="int" name="NKREDY">     1</i>
   <i type="int" name="NKREDZ">     1</i>
   <i type="logical" name="SHIFTRED"> F  </i>
   <i type="logical" name="ODDONLY"> F  </i>
   <i type="logical" name="EVENONLY"> F  </i>
   <i type="int" name="LMAXFOCK">     0</i>
   <i type="int" name="NMAXFOCKAE">     0</i>
   <i type="logical" name="LFOCKAEDFT"> F  </i>
   <i name="HFSCREEN">      0.00000000</i>
   <i name="HFSCREENC">      0.00000000</i>
   <i type="int" name="NBANDSGWLOW">     0</i>
  </separator>
  <separator name="vdW DFT" >
   <i type="logical" name="LUSE_VDW"> F  </i>
   <i name="Zab_VDW">     -0.84910000</i>
   <i name="PARAM1">      0.12340000</i>
   <i name="PARAM2">      1.00000000</i>
   <i name="PARAM3">      0.00000000</i>
  </separator>
  <separator name="model GW" >
   <i type="int" name="MODEL_GW">     0</i>
   <i name="MODEL_EPS0">     14.81501129</i>
   <i name="MODEL_ALPHA">      1.00000000</i>
  </separator>
  <separator name="linear response parameters" >
   <i type="logical" name="LEPSILON"> F  </i>
   <i type="logical" name="LRPA"> F  </i>
   <i type="logical" name="LNABLA"> F  </i>
   <i type="logical" name="LVEL"> F  </i>
   <i type="int" name="KINTER">     0</i>
   <i name="CSHIFT">      0.10000000</i>
   <i name="OMEGAMAX">     -1.00000000</i>
   <i name="DEG_THRESHOLD">      0.00200000</i>
   <i name="RTIME">     -0.10000000</i>
   <i name="WPLASMAI">      0.00000000</i>
   <v name="DFIELD">      0.00000000      0.00000000      0.00000000</v>
   <v name="WPLASMA">      0.00000000      0.00000000      0.00000000      0.00000000      0.00000000      0.00000000      0.00000000      0.00000000      0.00000000</v>
  </separator>
  <separator name="orbital magnetization" >
   <i type="logical" name="NUCIND"> F  </i>
   <v name="MAGPOS">      0.00000000      0.00000000      0.00000000</v>
   <i type="logical" name="LNICSALL"> T  </i>
   <i type="logical" name="ORBITALMAG"> F  </i>
   <i type="logical" name="LMAGBLOCH"> F  </i>
   <i type="logical" name="LCHIMAG"> F  </i>
   <i type="logical" name="LGAUGE"> T  </i>
   <i type="int" name="MAGATOM">     0</i>
   <v name="MAGDIPOL">      0.00000000      0.00000000      0.00000000</v>
   <v name="AVECCONST">      0.00000000      0.00000000      0.00000000</v>
  </separator>
  <separator name="response functions" >
   <i type="logical" name="LADDER"> F  </i>
   <i type="logical" name="LRPAFORCE"> F  </i>
   <i type="logical" name="LFXC"> F  </i>
   <i type="logical" name="LHARTREE"> T  </i>
   <i type="int" name="IBSE">     0</i>
   <v type="int" name="KPOINT">    -1     0     0     0</v>
   <i type="logical" name="LTCTE"> F  </i>
   <i type="logical" name="LTETE"> F  </i>
   <i type="logical" name="LTRIPLET"> F  </i>
   <i type="logical" name="LFXCEPS"> F  </i>
   <i type="logical" name="LFXHEG"> F  </i>
   <i type="int" name="NATURALO">     2</i>
   <i type="logical" name="L2ORDER"> F  </i>
   <i type="logical" name="LMP2LT"> F  </i>
   <i type="logical" name="LUSEW"> F  </i>
   <i name="ENCUTGW">     -2.00000000</i>
   <i name="ENCUTGWSOFT">     -2.00000000</i>
   <i name="ENCUTLF">     -1.00000000</i>
   <i type="int" name="LMAXMP2">    -1</i>
   <i name="SCISSOR">      0.00000000</i>
   <i type="int" name="NOMEGA">     0</i>
   <i type="int" name="NOMEGAR">     0</i>
   <i type="int" name="NBANDSGW">    -1</i>
   <i type="int" name="NBANDSO">    -1</i>
   <i type="int" name="NBANDSV">    -1</i>
   <i type="int" name="NELM">     1</i>
   <i type="int" name="NELMHF">     1</i>
   <i type="int" name="DIM">     3</i>
   <i type="int" name="ANTIRES">     0</i>
   <i name="OMEGAMAX">    -30.00000000</i>
   <i name="OMEGAMIN">    -30.00000000</i>
   <i name="OMEGATL">   -200.00000000</i>
   <i type="int" name="OMEGAGRID">   140</i>
   <i name="CSHIFT">      0.10000000</i>
   <i type="logical" name="SELFENERGY"> F  </i>
   <i type="logical" name="LSPECTRAL"> F  </i>
   <i type="logical" name="LSPECTRALGW"> F  </i>
   <i type="logical" name="LSINGLES"> F  </i>
   <i type="logical" name="LFERMIGW"> F  </i>
   <i type="logical" name="ODDONLYGW"> F  </i>
   <i type="logical" name="EVENONLYGW"> F  </i>
   <i type="int" name="NKREDLFX">     1</i>
   <i type="int" name="NKREDLFY">     1</i>
   <i type="int" name="NKREDLFZ">     1</i>
   <i type="int" name="MAXMEM">  2800</i>
   <i type="int" name="TELESCOPE">     0</i>
   <i type="int" name="TAUPAR">     1</i>
   <i type="int" name="OMEGAPAR">    -1</i>
   <i name="LAMBDA">      1.00000000</i>
  </separator>
  <separator name="External order field" >
   <i name="OFIELD_KAPPA">      0.00000000</i>
   <v name="OFIELD_K">      0.00000000      0.00000000      0.00000000</v>
   <i name="OFIELD_Q6_NEAR">      0.00000000</i>
   <i name="OFIELD_Q6_FAR">      0.00000000</i>
   <i name="OFIELD_A">      0.00000000</i>
  </separator>
 </parameters>
 <atominfo>
  <atoms>       8 </atoms>
  <types>       2 </types>
  <array name="atoms" >
   <dimension dim="1">ion</dimension>
   <field type="string">element</field>
   <field type="int">atomtype</field>
   <set>
    <rc><c>B </c><c>   1</c></rc>
    <rc><c>B </c><c>   1</c></rc>
    <rc><c>C </c><c>   2</c></rc>
    <rc><c>C </c><c>   2</c></rc>
    <rc><c>C </c><c>   2</c></rc>
    <rc><c>C </c><c>   2</c></rc>
    <rc><c>C </c><c>   2</c></rc>
    <rc><c>C </c><c>   2</c></rc>
   </set>
  </array>
  <array name="atomtypes" >
   <dimension dim="1">type</dimension>
   <field type="int">atomspertype</field>
   <field type="string">element</field>
   <field>mass</field>
   <field>valence</field>
   <field type="string">pseudopotential</field>
   <set>
    <rc><c>   2</c><c>B </c><c>     10.81100000</c><c>      3.00000000</c><c>  PAW_PBE B 06Sep2000                   </c></rc>
    <rc><c>   6</c><c>C </c><c>     12.01100000</c><c>      4.00000000</c><c>  PAW_PBE C 08Apr2002                   </c></rc>
   </set>
  </array>
 </atominfo>
 <structure name="initialpos" >
  <crystal>
   <varray name="basis" >
    <v>       4.48084843       2.58701885       0.00000000 </v>
    <v>      -4.48084843       2.58701885       0.00000000 </v>
    <v>       0.00000000       0.00000000       8.52022140 </v>
   </varray>
   <i name="volume">    197.53348383 </i>
   <varray name="rec_basis" >
    <v>       0.11158601       0.19327265       0.00000000 </v>
    <v>      -0.11158601       0.19327265       0.00000000 </v>
    <v>       0.00000000       0.00000000       0.11736784 </v>
   </varray>
  </crystal>
  <varray name="positions" >
   <v>       0.33333300       0.66666600       0.25000000 </v>
   <v>       0.66666600       0.33333300       0.25000000 </v>
   <v>       0.15869124       0.31738348       0.25000000 </v>
   <v>       0.31738348       0.15869124       0.25000000 </v>
   <v>       0.15869124       0.84130776       0.25000000 </v>
   <v>       0.84130776       0.15869124       0.25000000 </v>
   <v>       0.68261552       0.84130776       0.25000000 </v>
   <v>       0.84130776       0.68261552       0.25000000 </v>
  </varray>
 </structure>
 <calculation>
  <scstep>
   <time name="diag">  990.91 1118.04</time>
   <time name="total">  991.03 1118.17</time>
   <energy>
    <i name="alphaZ">     25.67921176 </i>
    <i name="ewald">    700.27145080 </i>
    <i name="hartreedc">  -1524.76618073 </i>
    <i name="XCdc">     91.14273073 </i>
    <i name="pawpsdc">    738.13200929 </i>
    <i name="pawaedc">   -739.83780425 </i>
    <i name="eentropy">     -0.00000000 </i>
    <i name="bandstr">   -389.26594481 </i>
    <i name="atom">   1025.20389953 </i>
    <i name="e_fr_energy">    -73.44062769 </i>
    <i name="e_wo_entrp">    -73.44062769 </i>
    <i name="e_0_energy">    -73.44062769 </i>
   </energy>
  </scstep>
  <scstep>
   <time name="diag"> 1009.60 1144.33</time>
   <time name="total"> 1009.76 1144.49</time>
   <energy>
    <i name="e_fr_energy">    -68.99901163 </i>
    <i name="e_wo_entrp">    -68.99901163 </i>
    <i name="e_0_energy">    -68.99901163 </i>
   </energy>
  </scstep>
  <scstep>
   <time name="diag">  982.88 1112.25</time>
   <time name="total">  983.08 1112.44</time>
   <energy>
    <i name="e_fr_energy">    -67.35394036 </i>
    <i name="e_wo_entrp">    -67.35394036 </i>
    <i name="e_0_energy">    -67.35394036 </i>
   </energy>
  </scstep>
  <scstep>
   <time name="diag">  997.66 1138.03</time>
   <time name="total">  997.92 1138.28</time>
   <energy>
    <i name="e_fr_energy">    -67.24757337 </i>
    <i name="e_wo_entrp">    -67.24757337 </i>
    <i name="e_0_energy">    -67.24757337 </i>
   </energy>
  </scstep>
  <scstep>
   <time name="diag">  988.56 1122.76</time>
   <time name="total">  988.78 1122.98</time>
   <energy>
    <i name="e_fr_energy">    -67.22049319 </i>
    <i name="e_wo_entrp">    -67.22049319 </i>
    <i name="e_0_energy">    -67.22049319 </i>
   </energy>
  </scstep>
  <scstep>
   <time name="diag">  978.48 1109.82</time>
   <time name="total">  978.62 1109.96</time>
   <energy>
    <i name="e_fr_energy">    -67.21907962 </i>
    <i name="e_wo_entrp">    -67.21907962 </i>
    <i name="e_0_energy">    -67.21907962 </i>
   </energy>
  </scstep>
  <scstep>
   <time name="diag">  988.54 1115.11</time>
   <time name="total">  988.75 1115.33</time>
   <energy>
    <i name="e_fr_energy">    -67.22295241 </i>
    <i name="e_wo_entrp">    -67.22295241 </i>
    <i name="e_0_energy">    -67.22295241 </i>
   </energy>
  </scstep>
  <scstep>
   <time name="diag">  908.80 1010.79</time>
   <time name="total">  908.94 1010.93</time>
   <energy>
    <i name="e_fr_energy">    -67.22702477 </i>
    <i name="e_wo_entrp">    -67.22702477 </i>
    <i name="e_0_energy">    -67.22702477 </i>
   </energy>
  </scstep>
  <scstep>
   <time name="diag">  532.93  532.96</time>
   <time name="total">  533.06  533.09</time>
   <energy>
    <i name="e_fr_energy">    -67.22770203 </i>
    <i name="e_wo_entrp">    -67.22770203 </i>
    <i name="e_0_energy">    -67.22770203 </i>
   </energy>
  </scstep>
  <scstep>
   <time name="diag">  533.97  534.00</time>
   <time name="total">  534.09  534.13</time>
   <energy>
    <i name="e_fr_energy">    -67.22771724 </i>
    <i name="e_wo_entrp">    -67.22771724 </i>
    <i name="e_0_energy">    -67.22771724 </i>
   </energy>
  </scstep>
  <scstep>
   <time name="diag">  533.93  533.97</time>
   <time name="total">  534.06  534.09</time>
   <energy>
    <i name="e_fr_energy">    -67.22773009 </i>
    <i name="e_wo_entrp">    -67.22773009 </i>
    <i name="e_0_energy">    -67.22773009 </i>
   </energy>
  </scstep>
  <scstep>
   <time name="diag">  531.89  531.93</time>
   <time name="total">  532.02  532.06</time>
   <energy>
    <i name="e_fr_energy">    -67.22773016 </i>
    <i name="e_wo_entrp">    -67.22773016 </i>
    <i name="e_0_energy">    -67.22773016 </i>
   </energy>
  </scstep>
  <scstep>
   <time name="diag">  532.37  532.40</time>
   <time name="total">  532.49  532.53</time>
   <energy>
    <i name="e_fr_energy">    -67.22773024 </i>
    <i name="e_wo_entrp">    -67.22773024 </i>
    <i name="e_0_energy">    -67.22773024 </i>
   </energy>
  </scstep>
  <scstep>
   <time name="diag">  532.27  532.30</time>
   <time name="total">  532.33  532.37</time>
   <energy>
    <i name="alphaZ">     25.67921176 </i>
    <i name="ewald">    700.27145080 </i>
    <i name="hartreedc">  -1646.75291200 </i>
    <i name="XCdc">     96.02426133 </i>
    <i name="pawpsdc">   2894.38113009 </i>
    <i name="pawaedc">  -2896.90834118 </i>
    <i name="eentropy">     -0.00000000 </i>
    <i name="bandstr">   -265.12643058 </i>
    <i name="atom">   1025.20389953 </i>
    <i name="e_fr_energy">    -67.22773025 </i>
    <i name="e_wo_entrp">    -67.22773025 </i>
    <i name="e_0_energy">    -67.22773025 </i>
   </energy>
  </scstep>
  <structure>
   <crystal>
    <varray name="basis" >
     <v>       4.48084843       2.58701885       0.00000000 </v>
     <v>      -4.48084843       2.58701885       0.00000000 </v>
     <v>       0.00000000       0.00000000       8.52022140 </v>
    </varray>
    <i name="volume">    197.53348383 </i>
    <varray name="rec_basis" >
     <v>       0.11158601       0.19327265       0.00000000 </v>
     <v>      -0.11158601       0.19327265       0.00000000 </v>
     <v>       0.00000000       0.00000000       0.11736784 </v>
    </varray>
   </crystal>
   <varray name="positions" >
    <v>       0.33333300       0.66666600       0.25000000 </v>
    <v>       0.66666600       0.33333300       0.25000000 </v>
    <v>       0.15869124       0.31738348       0.25000000 </v>
    <v>       0.31738348       0.15869124       0.25000000 </v>
    <v>       0.15869124       0.84130776       0.25000000 </v>
    <v>       0.84130776       0.15869124       0.25000000 </v>
    <v>       0.68261552       0.84130776       0.25000000 </v>
    <v>       0.84130776       0.68261552       0.25000000 </v>
   </varray>
  </structure>
  <varray name="forces" >
   <v>      -0.00000000       0.00000000      -0.00000000 </v>
   <v>      -0.00000000       0.00000000      -0.00000000 </v>
   <v>      -0.00064694       0.00112054      -0.00000000 </v>
   <v>       0.00064694       0.00112054      -0.00000000 </v>
   <v>       0.00129389       0.00000000       0.00000000 </v>
   <v>      -0.00129389       0.00000000      -0.00000000 </v>
   <v>      -0.00064694      -0.00112054       0.00000000 </v>
   <v>       0.00064694      -0.00112054       0.00000000 </v>
  </varray>
  <varray name="stress" >
   <v>      -0.53277497       0.00000000      -0.00000000 </v>
   <v>       0.00000000      -0.53277489       0.00000000 </v>
   <v>      -0.00000000       0.00000000      -1.27118549 </v>
  </varray>
  <energy>
   <i name="e_fr_energy">    -67.22773025 </i>
   <i name="e_wo_entrp">    -67.22773025 </i>
   <i name="e_0_energy">     -0.00000000 </i>
  </energy>
  <time name="totalsc">11054.8212084.74</time>
  <eigenvalues>
   <array>
    <dimension dim="1">band</dimension>
    <dimension dim="2">kpoint</dimension>
    <dimension dim="3">spin</dimension>
    <field>eigene</field>
    <field>occ</field>
    <set>
     <set comment="spin 1">
      <set comment="kpoint 1">
       <r>  -18.5403    1.0000 </r>
       <r>  -14.6488    1.0000 </r>
       <r>  -14.6488    1.0000 </r>
       <r>  -12.2992    1.0000 </r>
       <r>  -12.2992    1.0000 </r>
       <r>  -11.2307    1.0000 </r>
       <r>   -9.9135    1.0000 </r>
       <r>   -7.3452    1.0000 </r>
       <r>   -7.1249    1.0000 </r>
       <r>   -4.9710    1.0000 </r>
       <r>   -4.9710    1.0000 </r>
       <r>   -3.1493    1.0000 </r>
       <r>   -3.1492    1.0000 </r>
       <r>   -2.4667    1.0000 </r>
       <r>   -2.4666    1.0000 </r>
       <r>   -0.6315    0.0000 </r>
       <r>    1.1011    0.0000 </r>
       <r>    1.1012    0.0000 </r>
       <r>    1.7906    0.0000 </r>
       <r>    1.9217    0.0000 </r>
       <r>    4.5207    0.0000 </r>
       <r>    5.9130    0.0000 </r>
       <r>    6.3151    0.0000 </r>
       <r>    6.3151    0.0000 </r>
       <r>    7.6726    0.0000 </r>
       <r>    8.0796    0.0000 </r>
       <r>    8.0797    0.0000 </r>
       <r>    8.9955    0.0000 </r>
       <r>    9.1419    0.0000 </r>
       <r>    9.1419    0.0000 </r>
       <r>    9.2976    0.0000 </r>
       <r>    9.2976    0.0000 </r>
       <r>    9.5160    0.0000 </r>
       <r>   10.3273    0.0000 </r>
       <r>   10.6836    0.0000 </r>
       <r>   10.6836    0.0000 </r>
       <r>   11.3540    0.0000 </r>
       <r>   11.3541    0.0000 </r>
       <r>   11.3922    0.0000 </r>
       <r>   11.3995    0.0000 </r>
       <r>   11.9841    0.0000 </r>
       <r>   13.0008    0.0000 </r>
       <r>   13.0008    0.0000 </r>
       <r>   13.0285    0.0000 </r>
       <r>   13.1319    0.0000 </r>
       <r>   13.1319    0.0000 </r>
       <r>   13.1825    0.0000 </r>
       <r>   13.5279    0.0000 </r>
       <r>   15.6135    0.0000 </r>
       <r>   15.8008    0.0000 </r>
       <r>   15.8008    0.0000 </r>
       <r>   16.4913    0.0000 </r>
       <r>   18.2923    0.0000 </r>
       <r>   18.2923    0.0000 </r>
       <r>   18.8601    0.0000 </r>
       <r>   18.8602    0.0000 </r>
       <r>   19.1473    0.0000 </r>
       <r>   19.2290    0.0000 </r>
       <r>   19.5333    0.0000 </r>
       <r>   19.5333    0.0000 </r>
       <r>   19.7217    0.0000 </r>
       <r>   19.9888    0.0000 </r>
       <r>   19.9888    0.0000 </r>
       <r>   20.0167    0.0000 </r>
       <r>   20.4546    0.0000 </r>
       <r>   21.0813    0.0000 </r>
       <r>   21.3027    0.0000 </r>
       <r>   21.3027    0.0000 </r>
       <r>   22.8793    0.0000 </r>
       <r>   23.2968    0.0000 </r>
       <r>   23.2968    0.0000 </r>
       <r>   23.4397    0.0000 </r>
       <r>   23.4397    0.0000 </r>
       <r>   23.5738    0.0000 </r>
       <r>   24.0936    0.0000 </r>
       <r>   24.0936    0.0000 </r>
       <r>   24.4126    0.0000 </r>
       <r>   24.4126    0.0000 </r>
       <r>   24.5372    0.0000 </r>
       <r>   24.6374    0.0000 </r>
       <r>   24.8763    0.0000 </r>
       <r>   25.2174    0.0000 </r>
       <r>   25.2174    0.0000 </r>
       <r>   26.6516    0.0000 </r>
       <r>   26.6516    0.0000 </r>
       <r>   26.7538    0.0000 </r>
       <r>   26.7538    0.0000 </r>
       <r>   26.8463    0.0000 </r>
       <r>   27.0341    0.0000 </r>
       <r>   27.1216    0.0000 </r>
       <r>   27.7308    0.0000 </r>
       <r>   27.7308    0.0000 </r>
       <r>   27.7998    0.0000 </r>
       <r>   27.7998    0.0000 </r>
       <r>   27.8401    0.0000 </r>
       <r>   28.2967    0.0000 </r>
       <r>   28.2967    0.0000 </r>
       <r>   28.7936    0.0000 </r>
       <r>   28.7936    0.0000 </r>
       <r>   28.9524    0.0000 </r>
       <r>   29.6489    0.0000 </r>
       <r>   30.2897    0.0000 </r>
       <r>   31.1920    0.0000 </r>
       <r>   31.1920    0.0000 </r>
       <r>   31.4239    0.0000 </r>
       <r>   31.4816    0.0000 </r>
       <r>   31.4816    0.0000 </r>
       <r>   31.8841    0.0000 </r>
       <r>   32.0865    0.0000 </r>
       <r>   32.0865    0.0000 </r>
       <r>   32.4044    0.0000 </r>
       <r>   32.6844    0.0000 </r>
       <r>   33.2983    0.0000 </r>
       <r>   33.2983    0.0000 </r>
       <r>   33.3127    0.0000 </r>
       <r>   33.3127    0.0000 </r>
       <r>   33.4606    0.0000 </r>
       <r>   34.0099    0.0000 </r>
       <r>   34.9816    0.0000 </r>
       <r>   34.9816    0.0000 </r>
       <r>   35.0442    0.0000 </r>
       <r>   35.0442    0.0000 </r>
       <r>   35.2268    0.0000 </r>
       <r>   35.2268    0.0000 </r>
       <r>   35.8334    0.0000 </r>
       <r>   35.8655    0.0000 </r>
       <r>   35.8655    0.0000 </r>
       <r>   36.0454    0.0000 </r>
       <r>   36.6964    0.0000 </r>
       <r>   36.6964    0.0000 </r>
       <r>   37.0546    0.0000 </r>
       <r>   37.3010    0.0000 </r>
       <r>   37.3124    0.0000 </r>
       <r>   37.3124    0.0000 </r>
       <r>   37.3416    0.0000 </r>
       <r>   37.3416    0.0000 </r>
       <r>   37.3663    0.0000 </r>
       <r>   37.4564    0.0000 </r>
       <r>   37.4564    0.0000 </r>
       <r>   37.6595    0.0000 </r>
       <r>   37.8898    0.0000 </r>
       <r>   37.9469    0.0000 </r>
       <r>   38.2105    0.0000 </r>
       <r>   38.2105    0.0000 </r>
       <r>   38.5577    0.0000 </r>
       <r>   38.8474    0.0000 </r>
       <r>   38.8474    0.0000 </r>
       <r>   40.8943    0.0000 </r>
       <r>   42.2089    0.0000 </r>
       <r>   42.2089    0.0000 </r>
       <r>   42.3915    0.0000 </r>
       <r>   43.7541    0.0000 </r>
       <r>   43.7541    0.0000 </r>
       <r>   43.9385    0.0000 </r>
       <r>   43.9385    0.0000 </r>
       <r>   44.3103    0.0000 </r>
       <r>   44.3103    0.0000 </r>
       <r>   44.3566    0.0000 </r>
       <r>   44.4926    0.0000 </r>
       <r>   44.4926    0.0000 </r>
       <r>   44.7977    0.0000 </r>
       <r>   45.3264    0.0000 </r>
       <r>   45.3264    0.0000 </r>
       <r>   45.6092    0.0000 </r>
       <r>   45.6092    0.0000 </r>
       <r>   46.0655    0.0000 </r>
       <r>   46.5987    0.0000 </r>
       <r>   46.8263    0.0000 </r>
       <r>   47.8871    0.0000 </r>
       <r>   47.9682    0.0000 </r>
       <r>   48.7262    0.0000 </r>
       <r>   48.7262    0.0000 </r>
       <r>   48.9385    0.0000 </r>
       <r>   49.0206    0.0000 </r>
       <r>   49.0207    0.0000 </r>
       <r>   49.1895    0.0000 </r>
       <r>   49.3789    0.0000 </r>
       <r>   49.5076    0.0000 </r>
       <r>   49.5077    0.0000 </r>
       <r>   49.7124    0.0000 </r>
       <r>   49.7124    0.0000 </r>
       <r>   50.1370    0.0000 </r>
       <r>   50.3457    0.0000 </r>
       <r>   50.3458    0.0000 </r>
       <r>   50.5718    0.0000 </r>
       <r>   50.6150    0.0000 </r>
       <r>   50.6150    0.0000 </r>
       <r>   51.5785    0.0000 </r>
       <r>   51.5785    0.0000 </r>
       <r>   51.7184    0.0000 </r>
       <r>   52.0203    0.0000 </r>
       <r>   52.4951    0.0000 </r>
       <r>   52.4951    0.0000 </r>
       <r>   52.5049    0.0000 </r>
       <r>   52.5049    0.0000 </r>
       <r>   52.8867    0.0000 </r>
       <r>   53.4918    0.0000 </r>
       <r>   53.4918    0.0000 </r>
       <r>   53.4926    0.0000 </r>
       <r>   53.8300    0.0000 </r>
       <r>   53.8300    0.0000 </r>
       <r>   53.9143    0.0000 </r>
       <r>   54.2916    0.0000 </r>
       <r>   54.3186    0.0000 </r>
       <r>   54.3186    0.0000 </r>
       <r>   54.4694    0.0000 </r>
       <r>   54.4695    0.0000 </r>
       <r>   54.6490    0.0000 </r>
       <r>   54.9433    0.0000 </r>
       <r>   54.9433    0.0000 </r>
       <r>   55.2684    0.0000 </r>
       <r>   55.3383    0.0000 </r>
       <r>   55.6000    0.0000 </r>
       <r>   55.7091    0.0000 </r>
       <r>   55.8562    0.0000 </r>
       <r>   55.8562    0.0000 </r>
       <r>   55.9784    0.0000 </r>
       <r>   55.9785    0.0000 </r>
       <r>   56.0273    0.0000 </r>
       <r>   56.4062    0.0000 </r>
       <r>   56.4062    0.0000 </r>
       <r>   57.0541    0.0000 </r>
       <r>   57.0541    0.0000 </r>
       <r>   57.1684    0.0000 </r>
       <r>   57.1813    0.0000 </r>
       <r>   57.1813    0.0000 </r>
       <r>   57.4345    0.0000 </r>
       <r>   57.4759    0.0000 </r>
       <r>   57.4759    0.0000 </r>
       <r>   57.6909    0.0000 </r>
       <r>   57.6909    0.0000 </r>
       <r>   57.8660    0.0000 </r>
       <r>   57.8786    0.0000 </r>
       <r>   57.9830    0.0000 </r>
       <r>   57.9830    0.0000 </r>
       <r>   58.0113    0.0000 </r>
       <r>   58.0225    0.0000 </r>
       <r>   58.1490    0.0000 </r>
       <r>   58.1490    0.0000 </r>
       <r>   58.1727    0.0000 </r>
       <r>   58.3631    0.0000 </r>
       <r>   58.3631    0.0000 </r>
       <r>   58.3839    0.0000 </r>
       <r>   58.3839    0.0000 </r>
       <r>   58.8988    0.0000 </r>
       <r>   58.8988    0.0000 </r>
       <r>   59.0563    0.0000 </r>
       <r>   59.7119    0.0000 </r>
       <r>   59.7119    0.0000 </r>
       <r>   59.9710    0.0000 </r>
       <r>   60.2200    0.0000 </r>
       <r>   60.6108    0.0000 </r>
       <r>   60.6108    0.0000 </r>
       <r>   60.9781    0.0000 </r>
       <r>   61.1585    0.0000 </r>
       <r>   61.1585    0.0000 </r>
       <r>   62.1187    0.0000 </r>
       <r>   62.1187    0.0000 </r>
       <r>   62.7654    0.0000 </r>
       <r>   63.2527    0.0000 </r>
       <r>   63.6720    0.0000 </r>
       <r>   63.6720    0.0000 </r>
       <r>   65.3916    0.0000 </r>
       <r>   65.3916    0.0000 </r>
       <r>   65.7610    0.0000 </r>
       <r>   65.7610    0.0000 </r>
       <r>   65.9659    0.0000 </r>
       <r>   66.0271    0.0000 </r>
       <r>   66.1788    0.0000 </r>
       <r>   66.1788    0.0000 </r>
       <r>   66.2120    0.0000 </r>
       <r>   66.2537    0.0000 </r>
       <r>   66.3494    0.0000 </r>
       <r>   66.3494    0.0000 </r>
       <r>   66.5925    0.0000 </r>
       <r>   66.7507    0.0000 </r>
       <r>   66.7508    0.0000 </r>
       <r>   66.8896    0.0000 </r>
       <r>   67.0713    0.0000 </r>
       <r>   67.0713    0.0000 </r>
       <r>   67.2113    0.0000 </r>
       <r>   67.2989    0.0000 </r>
       <r>   67.2989    0.0000 </r>
       <r>   67.3851    0.0000 </r>
       <r>   67.6908    0.0000 </r>
       <r>   67.6908    0.0000 </r>
       <r>   68.2115    0.0000 </r>
       <r>   68.2115    0.0000 </r>
       <r>   68.5114    0.0000 </r>
       <r>   68.5114    0.0000 </r>
       <r>   68.6015    0.0000 </r>
       <r>   68.6015    0.0000 </r>
       <r>   68.6157    0.0000 </r>
       <r>   68.6247    0.0000 </r>
       <r>   68.6344    0.0000 </r>
       <r>   68.9972    0.0000 </r>
       <r>   69.2825    0.0000 </r>
       <r>   69.3119    0.0000 </r>
       <r>   69.3119    0.0000 </r>
       <r>   69.4176    0.0000 </r>
       <r>   69.4177    0.0000 </r>
       <r>   69.5744    0.0000 </r>
       <r>   69.9786    0.0000 </r>
       <r>   69.9786    0.0000 </r>
       <r>   70.2573    0.0000 </r>
       <r>   70.7134    0.0000 </r>
       <r>   70.7134    0.0000 </r>
       <r>   71.1024    0.0000 </r>
       <r>   71.2748    0.0000 </r>
       <r>   71.7878    0.0000 </r>
       <r>   72.4061    0.0000 </r>
       <r>   72.4061    0.0000 </r>
       <r>   72.4156    0.0000 </r>
       <r>   72.6734    0.0000 </r>
       <r>   72.7043    0.0000 </r>
       <r>   72.7043    0.0000 </r>
       <r>   72.7429    0.0000 </r>
       <r>   72.7472    0.0000 </r>
       <r>   72.7472    0.0000 </r>
       <r>   73.3727    0.0000 </r>
       <r>   73.3727    0.0000 </r>
       <r>   73.3751    0.0000 </r>
       <r>   73.3751    0.0000 </r>
       <r>   73.4653    0.0000 </r>
       <r>   73.4653    0.0000 </r>
       <r>   73.6715    0.0000 </r>
       <r>   73.9920    0.0000 </r>
       <r>   74.0075    0.0000 </r>
       <r>   74.0075    0.0000 </r>
       <r>   74.4828    0.0000 </r>
       <r>   75.0597    0.0000 </r>
       <r>   75.0597    0.0000 </r>
       <r>   75.1478    0.0000 </r>
       <r>   75.8349    0.0000 </r>
       <r>   76.6256    0.0000 </r>
       <r>   76.6256    0.0000 </r>
       <r>   76.8710    0.0000 </r>
       <r>   77.0277    0.0000 </r>
       <r>   77.5077    0.0000 </r>
       <r>   77.7840    0.0000 </r>
       <r>   77.7840    0.0000 </r>
       <r>   77.8734    0.0000 </r>
       <r>   77.8734    0.0000 </r>
       <r>   77.9113    0.0000 </r>
       <r>   77.9113    0.0000 </r>
       <r>   78.0212    0.0000 </r>
       <r>   78.3211    0.0000 </r>
       <r>   78.3211    0.0000 </r>
       <r>   78.6119    0.0000 </r>
       <r>   78.6120    0.0000 </r>
       <r>   78.6572    0.0000 </r>
       <r>   78.9605    0.0000 </r>
       <r>   78.9606    0.0000 </r>
       <r>   79.3666    0.0000 </r>
       <r>   79.4510    0.0000 </r>
       <r>   79.4510    0.0000 </r>
       <r>   79.9352    0.0000 </r>
       <r>   79.9352    0.0000 </r>
       <r>   80.0121    0.0000 </r>
       <r>   80.0897    0.0000 </r>
       <r>   80.7824    0.0000 </r>
       <r>   80.7825    0.0000 </r>
       <r>   81.0321    0.0000 </r>
       <r>   81.0321    0.0000 </r>
       <r>   81.1526    0.0000 </r>
       <r>   81.3520    0.0000 </r>
       <r>   81.3520    0.0000 </r>
       <r>   81.3784    0.0000 </r>
       <r>   81.4070    0.0000 </r>
       <r>   81.5901    0.0000 </r>
       <r>   81.8722    0.0000 </r>
       <r>   81.9254    0.0000 </r>
       <r>   81.9254    0.0000 </r>
       <r>   81.9366    0.0000 </r>
       <r>   81.9366    0.0000 </r>
       <r>   82.3570    0.0000 </r>
       <r>   82.6418    0.0000 </r>
       <r>   82.6418    0.0000 </r>
       <r>   82.6462    0.0000 </r>
       <r>   82.7812    0.0000 </r>
       <r>   82.7880    0.0000 </r>
       <r>   82.9769    0.0000 </r>
       <r>   83.0263    0.0000 </r>
       <r>   83.0263    0.0000 </r>
       <r>   83.0285    0.0000 </r>
       <r>   83.0285    0.0000 </r>
       <r>   84.1896    0.0000 </r>
       <r>   84.1896    0.0000 </r>
       <r>   84.2833    0.0000 </r>
       <r>   84.2833    0.0000 </r>
       <r>   84.9984    0.0000 </r>
       <r>   84.9984    0.0000 </r>
       <r>   85.6300    0.0000 </r>
       <r>   85.6549    0.0000 </r>
       <r>   85.6549    0.0000 </r>
       <r>   86.5747    0.0000 </r>
       <r>   86.8479    0.0000 </r>
       <r>   86.8479    0.0000 </r>
       <r>   87.6634    0.0000 </r>
       <r>   88.4822    0.0000 </r>
       <r>   88.4822    0.0000 </r>
       <r>   89.1168    0.0000 </r>
       <r>   89.7621    0.0000 </r>
       <r>   89.7621    0.0000 </r>
       <r>   90.2041    0.0000 </r>
       <r>   90.2041    0.0000 </r>
       <r>   90.3667    0.0000 </r>
       <r>   91.1495    0.0000 </r>
       <r>   91.7127    0.0000 </r>
       <r>   91.7128    0.0000 </r>
       <r>   91.7477    0.0000 </r>
       <r>   91.7477    0.0000 </r>
       <r>   91.7833    0.0000 </r>
       <r>   92.0133    0.0000 </r>
       <r>   92.0926    0.0000 </r>
       <r>   92.1247    0.0000 </r>
       <r>   92.1961    0.0000 </r>
       <r>   92.1961    0.0000 </r>
       <r>   92.2186    0.0000 </r>
       <r>   92.2186    0.0000 </r>
       <r>   92.2763    0.0000 </r>
       <r>   92.5633    0.0000 </r>
       <r>   93.0951    0.0000 </r>
       <r>   93.2759    0.0000 </r>
       <r>   93.2759    0.0000 </r>
       <r>   93.5665    0.0000 </r>
       <r>   93.5665    0.0000 </r>
       <r>   93.8782    0.0000 </r>
       <r>   94.5586    0.0000 </r>
       <r>   94.5586    0.0000 </r>
       <r>   94.6939    0.0000 </r>
       <r>   94.6939    0.0000 </r>
       <r>   95.2238    0.0000 </r>
       <r>   95.2238    0.0000 </r>
       <r>   95.3031    0.0000 </r>
       <r>   95.4568    0.0000 </r>
       <r>   95.4740    0.0000 </r>
       <r>   95.5496    0.0000 </r>
       <r>   95.5496    0.0000 </r>
       <r>   95.5565    0.0000 </r>
       <r>   95.5565    0.0000 </r>
       <r>   95.5648    0.0000 </r>
       <r>   95.6407    0.0000 </r>
       <r>   95.6407    0.0000 </r>
       <r>   95.6413    0.0000 </r>
       <r>   95.8103    0.0000 </r>
       <r>   95.8103    0.0000 </r>
       <r>   95.8886    0.0000 </r>
       <r>   95.8974    0.0000 </r>
       <r>   95.8974    0.0000 </r>
       <r>   95.9135    0.0000 </r>
       <r>   95.9762    0.0000 </r>
       <r>   96.3296    0.0000 </r>
       <r>   96.3296    0.0000 </r>
       <r>   96.3488    0.0000 </r>
       <r>   96.6568    0.0000 </r>
       <r>   96.6568    0.0000 </r>
       <r>   96.9390    0.0000 </r>
       <r>   97.1876    0.0000 </r>
       <r>   97.2840    0.0000 </r>
       <r>   97.2841    0.0000 </r>
       <r>   97.3371    0.0000 </r>
       <r>   97.9581    0.0000 </r>
       <r>   97.9581    0.0000 </r>
       <r>   98.0972    0.0000 </r>
       <r>   98.4877    0.0000 </r>
       <r>   98.4877    0.0000 </r>
       <r>   98.7806    0.0000 </r>
       <r>   98.9778    0.0000 </r>
       <r>   98.9778    0.0000 </r>
       <r>   99.0057    0.0000 </r>
       <r>   99.0240    0.0000 </r>
       <r>   99.0507    0.0000 </r>
       <r>   99.0507    0.0000 </r>
       <r>   99.1151    0.0000 </r>
       <r>   99.1151    0.0000 </r>
       <r>   99.4659    0.0000 </r>
       <r>   99.4659    0.0000 </r>
       <r>   99.5170    0.0000 </r>
       <r>   99.5659    0.0000 </r>
       <r>   99.5659    0.0000 </r>
       <r>   99.7694    0.0000 </r>
       <r>   99.7695    0.0000 </r>
       <r>   99.8003    0.0000 </r>
       <r>   99.8003    0.0000 </r>
       <r>   99.8280    0.0000 </r>
       <r>   99.8525    0.0000 </r>
       <r>   99.8823    0.0000 </r>
       <r>   99.9428    0.0000 </r>
       <r>   99.9428    0.0000 </r>
       <r>   99.9738    0.0000 </r>
       <r>  100.1660    0.0000 </r>
       <r>  100.2554    0.0000 </r>
       <r>  100.2554    0.0000 </r>
       <r>  100.4135    0.0000 </r>
       <r>  100.4135    0.0000 </r>
       <r>  100.5639    0.0000 </r>
       <r>  100.5639    0.0000 </r>
       <r>  100.8155    0.0000 </r>
       <r>  100.8155    0.0000 </r>
       <r>  100.9114    0.0000 </r>
       <r>  100.9114    0.0000 </r>
       <r>  101.0315    0.0000 </r>
       <r>  101.4289    0.0000 </r>
       <r>  101.6459    0.0000 </r>
       <r>  102.3055    0.0000 </r>
       <r>  102.3365    0.0000 </r>
       <r>  102.3755    0.0000 </r>
       <r>  102.3755    0.0000 </r>
       <r>  102.4342    0.0000 </r>
       <r>  102.4342    0.0000 </r>
       <r>  102.4403    0.0000 </r>
       <r>  102.4595    0.0000 </r>
       <r>  102.4595    0.0000 </r>
       <r>  102.4843    0.0000 </r>
       <r>  102.4844    0.0000 </r>
       <r>  102.7086    0.0000 </r>
       <r>  102.9973    0.0000 </r>
       <r>  102.9973    0.0000 </r>
       <r>  103.0083    0.0000 </r>
       <r>  103.0181    0.0000 </r>
       <r>  103.0181    0.0000 </r>
       <r>  103.0190    0.0000 </r>
       <r>  103.0190    0.0000 </r>
       <r>  103.1456    0.0000 </r>
       <r>  103.2270    0.0000 </r>
       <r>  103.2270    0.0000 </r>
       <r>  103.2581    0.0000 </r>
       <r>  103.4691    0.0000 </r>
       <r>  103.8035    0.0000 </r>
       <r>  103.8274    0.0000 </r>
       <r>  103.8274    0.0000 </r>
       <r>  103.9244    0.0000 </r>
       <r>  103.9244    0.0000 </r>
       <r>  103.9770    0.0000 </r>
       <r>  104.1463    0.0000 </r>
       <r>  104.2894    0.0000 </r>
       <r>  104.2973    0.0000 </r>
       <r>  104.2973    0.0000 </r>
       <r>  104.6206    0.0000 </r>
       <r>  104.6346    0.0000 </r>
       <r>  104.6346    0.0000 </r>
       <r>  104.7635    0.0000 </r>
       <r>  104.7635    0.0000 </r>
       <r>  104.9462    0.0000 </r>
       <r>  104.9462    0.0000 </r>
       <r>  105.1310    0.0000 </r>
       <r>  105.1310    0.0000 </r>
       <r>  105.2829    0.0000 </r>
       <r>  105.3854    0.0000 </r>
       <r>  105.4548    0.0000 </r>
       <r>  105.7256    0.0000 </r>
       <r>  105.7256    0.0000 </r>
       <r>  106.4792    0.0000 </r>
       <r>  106.4793    0.0000 </r>
       <r>  106.7740    0.0000 </r>
       <r>  107.2867    0.0000 </r>
       <r>  109.0757    0.0000 </r>
       <r>  109.3786    0.0000 </r>
       <r>  109.3787    0.0000 </r>
       <r>  109.7770    0.0000 </r>
       <r>  110.2026    0.0000 </r>
       <r>  110.7323    0.0000 </r>
       <r>  110.7323    0.0000 </r>
       <r>  110.8428    0.0000 </r>
       <r>  110.8428    0.0000 </r>
       <r>  110.9040    0.0000 </r>
       <r>  110.9040    0.0000 </r>
       <r>  111.0109    0.0000 </r>
       <r>  111.0109    0.0000 </r>
       <r>  111.0808    0.0000 </r>
       <r>  111.2936    0.0000 </r>
       <r>  111.6566    0.0000 </r>
       <r>  111.7524    0.0000 </r>
       <r>  111.7524    0.0000 </r>
       <r>  111.9668    0.0000 </r>
       <r>  112.4779    0.0000 </r>
       <r>  112.4779    0.0000 </r>
       <r>  112.5821    0.0000 </r>
       <r>  112.8012    0.0000 </r>
       <r>  112.8012    0.0000 </r>
       <r>  112.8909    0.0000 </r>
       <r>  113.1192    0.0000 </r>
       <r>  113.3813    0.0000 </r>
       <r>  113.3813    0.0000 </r>
       <r>  113.3855    0.0000 </r>
       <r>  113.5689    0.0000 </r>
       <r>  113.5689    0.0000 </r>
       <r>  113.5958    0.0000 </r>
       <r>  114.1032    0.0000 </r>
       <r>  114.2520    0.0000 </r>
       <r>  114.4246    0.0000 </r>
       <r>  114.4246    0.0000 </r>
       <r>  115.6621    0.0000 </r>
       <r>  115.6621    0.0000 </r>
       <r>  115.7439    0.0000 </r>
       <r>  115.7439    0.0000 </r>
       <r>  115.7596    0.0000 </r>
       <r>  115.7597    0.0000 </r>
       <r>  115.9165    0.0000 </r>
       <r>  115.9165    0.0000 </r>
       <r>  116.1772    0.0000 </r>
       <r>  116.1920    0.0000 </r>
       <r>  116.7095    0.0000 </r>
       <r>  116.7096    0.0000 </r>
       <r>  116.7707    0.0000 </r>
       <r>  117.1651    0.0000 </r>
       <r>  117.1651    0.0000 </r>
       <r>  117.4723    0.0000 </r>
       <r>  117.8334    0.0000 </r>
       <r>  117.9092    0.0000 </r>
       <r>  117.9093    0.0000 </r>
       <r>  118.2504    0.0000 </r>
       <r>  118.2504    0.0000 </r>
       <r>  118.2787    0.0000 </r>
       <r>  118.6033    0.0000 </r>
       <r>  118.6033    0.0000 </r>
       <r>  118.9321    0.0000 </r>
       <r>  119.0199    0.0000 </r>
       <r>  119.0299    0.0000 </r>
       <r>  119.0299    0.0000 </r>
       <r>  119.0984    0.0000 </r>
       <r>  119.0984    0.0000 </r>
       <r>  119.2610    0.0000 </r>
       <r>  119.2611    0.0000 </r>
       <r>  119.3294    0.0000 </r>
       <r>  119.3672    0.0000 </r>
       <r>  119.3672    0.0000 </r>
       <r>  119.4976    0.0000 </r>
       <r>  119.4976    0.0000 </r>
       <r>  119.5809    0.0000 </r>
       <r>  119.5963    0.0000 </r>
       <r>  119.6247    0.0000 </r>
       <r>  119.6247    0.0000 </r>
       <r>  120.4011    0.0000 </r>
       <r>  120.4216    0.0000 </r>
       <r>  120.6693    0.0000 </r>
       <r>  120.6693    0.0000 </r>
       <r>  121.5502    0.0000 </r>
       <r>  121.5502    0.0000 </r>
       <r>  121.7043    0.0000 </r>
       <r>  121.7043    0.0000 </r>
       <r>  121.7688    0.0000 </r>
       <r>  121.8704    0.0000 </r>
       <r>  121.9091    0.0000 </r>
       <r>  121.9713    0.0000 </r>
       <r>  122.0125    0.0000 </r>
       <r>  122.0125    0.0000 </r>
       <r>  122.0868    0.0000 </r>
       <r>  122.2067    0.0000 </r>
       <r>  122.5516    0.0000 </r>
       <r>  122.5516    0.0000 </r>
       <r>  122.6387    0.0000 </r>
       <r>  123.0205    0.0000 </r>
       <r>  123.0205    0.0000 </r>
       <r>  123.0609    0.0000 </r>
       <r>  123.1216    0.0000 </r>
       <r>  123.1216    0.0000 </r>
       <r>  123.1880    0.0000 </r>
       <r>  123.1880    0.0000 </r>
       <r>  123.2791    0.0000 </r>
       <r>  123.7403    0.0000 </r>
       <r>  124.1527    0.0000 </r>
       <r>  124.1527    0.0000 </r>
       <r>  124.5410    0.0000 </r>
       <r>  124.8512    0.0000 </r>
       <r>  124.8512    0.0000 </r>
       <r>  124.9536    0.0000 </r>
       <r>  124.9536    0.0000 </r>
       <r>  125.0030    0.0000 </r>
       <r>  125.0592    0.0000 </r>
       <r>  125.1061    0.0000 </r>
       <r>  125.3789    0.0000 </r>
       <r>  125.3789    0.0000 </r>
       <r>  125.4428    0.0000 </r>
       <r>  125.4428    0.0000 </r>
       <r>  125.4568    0.0000 </r>
       <r>  125.4568    0.0000 </r>
       <r>  125.4634    0.0000 </r>
       <r>  125.5114    0.0000 </r>
       <r>  125.5702    0.0000 </r>
       <r>  125.6247    0.0000 </r>
       <r>  125.6248    0.0000 </r>
       <r>  125.6543    0.0000 </r>
       <r>  125.7136    0.0000 </r>
       <r>  125.7572    0.0000 </r>
       <r>  125.7572    0.0000 </r>
       <r>  125.8025    0.0000 </r>
       <r>  125.9061    0.0000 </r>
       <r>  125.9061    0.0000 </r>
       <r>  126.4095    0.0000 </r>
       <r>  126.4095    0.0000 </r>
       <r>  126.4254    0.0000 </r>
       <r>  126.4254    0.0000 </r>
       <r>  126.7172    0.0000 </r>
       <r>  126.7618    0.0000 </r>
       <r>  126.7618    0.0000 </r>
       <r>  126.9473    0.0000 </r>
       <r>  126.9473    0.0000 </r>
       <r>  127.0594    0.0000 </r>
       <r>  127.0594    0.0000 </r>
       <r>  127.1584    0.0000 </r>
       <r>  127.6750    0.0000 </r>
       <r>  127.6750    0.0000 </r>
       <r>  127.7843    0.0000 </r>
       <r>  127.7844    0.0000 </r>
       <r>  127.8774    0.0000 </r>
       <r>  127.8774    0.0000 </r>
       <r>  127.9511    0.0000 </r>
       <r>  128.7547    0.0000 </r>
       <r>  129.1731    0.0000 </r>
       <r>  129.5288    0.0000 </r>
       <r>  130.0870    0.0000 </r>
       <r>  130.2537    0.0000 </r>
       <r>  130.9571    0.0000 </r>
       <r>  130.9571    0.0000 </r>
       <r>  131.5025    0.0000 </r>
       <r>  131.5025    0.0000 </r>
       <r>  131.8019    0.0000 </r>
       <r>  131.8019    0.0000 </r>
       <r>  132.2475    0.0000 </r>
       <r>  132.5667    0.0000 </r>
       <r>  132.6453    0.0000 </r>
       <r>  132.6453    0.0000 </r>
       <r>  132.9926    0.0000 </r>
       <r>  132.9926    0.0000 </r>
       <r>  133.0527    0.0000 </r>
       <r>  133.7333    0.0000 </r>
       <r>  133.7333    0.0000 </r>
       <r>  133.7502    0.0000 </r>
       <r>  133.9666    0.0000 </r>
       <r>  134.2418    0.0000 </r>
       <r>  134.2419    0.0000 </r>
       <r>  134.2774    0.0000 </r>
       <r>  134.2774    0.0000 </r>
       <r>  134.4814    0.0000 </r>
       <r>  134.4814    0.0000 </r>
       <r>  134.9663    0.0000 </r>
       <r>  135.2338    0.0000 </r>
       <r>  135.2338    0.0000 </r>
       <r>  135.3561    0.0000 </r>
       <r>  135.6591    0.0000 </r>
       <r>  136.1282    0.0000 </r>
       <r>  136.1282    0.0000 </r>
       <r>  136.3174    0.0000 </r>
       <r>  136.4170    0.0000 </r>
       <r>  136.4171    0.0000 </r>
       <r>  136.4904    0.0000 </r>
       <r>  136.8715    0.0000 </r>
       <r>  136.9137    0.0000 </r>
       <r>  137.1281    0.0000 </r>
       <r>  137.1281    0.0000 </r>
       <r>  137.2249    0.0000 </r>
       <r>  137.2250    0.0000 </r>
       <r>  137.2726    0.0000 </r>
       <r>  137.2726    0.0000 </r>
       <r>  137.3574    0.0000 </r>
       <r>  137.3574    0.0000 </r>
       <r>  137.3974    0.0000 </r>
       <r>  137.5792    0.0000 </r>
       <r>  137.5792    0.0000 </r>
       <r>  137.6610    0.0000 </r>
       <r>  137.6610    0.0000 </r>
       <r>  137.7893    0.0000 </r>
       <r>  137.7893    0.0000 </r>
       <r>  137.8400    0.0000 </r>
       <r>  137.9019    0.0000 </r>
       <r>  137.9019    0.0000 </r>
      </set>
      <set comment="kpoint 2">
       <r>  -18.5132    1.0000 </r>
       <r>  -14.7809    1.0000 </r>
       <r>  -14.6912    1.0000 </r>
       <r>  -12.3384    1.0000 </r>
       <r>  -12.2008    1.0000 </r>
       <r>  -11.0961    1.0000 </r>
       <r>   -9.7531    1.0000 </r>
       <r>   -7.3040    1.0000 </r>
       <r>   -7.1822    1.0000 </r>
       <r>   -5.0944    1.0000 </r>
       <r>   -4.9934    1.0000 </r>
       <r>   -3.2737    1.0000 </r>
       <r>   -3.1697    1.0000 </r>
       <r>   -2.6092    1.0000 </r>
       <r>   -2.5354    1.0000 </r>
       <r>   -0.8361    0.0000 </r>
       <r>    1.1605    0.0000 </r>
       <r>    1.4116    0.0000 </r>
       <r>    1.9153    0.0000 </r>
       <r>    1.9734    0.0000 </r>
       <r>    4.5728    0.0000 </r>
       <r>    5.9692    0.0000 </r>
       <r>    6.3866    0.0000 </r>
       <r>    6.4781    0.0000 </r>
       <r>    7.6627    0.0000 </r>
       <r>    8.0377    0.0000 </r>
       <r>    8.2336    0.0000 </r>
       <r>    8.2352    0.0000 </r>
       <r>    8.6808    0.0000 </r>
       <r>    8.7555    0.0000 </r>
       <r>    9.8480    0.0000 </r>
       <r>    9.8619    0.0000 </r>
       <r>    9.9124    0.0000 </r>
       <r>   10.3759    0.0000 </r>
       <r>   10.3995    0.0000 </r>
       <r>   10.4193    0.0000 </r>
       <r>   10.9077    0.0000 </r>
       <r>   11.4137    0.0000 </r>
       <r>   11.6687    0.0000 </r>
       <r>   12.0448    0.0000 </r>
       <r>   12.1516    0.0000 </r>
       <r>   12.3345    0.0000 </r>
       <r>   12.5608    0.0000 </r>
       <r>   12.8381    0.0000 </r>
       <r>   13.0972    0.0000 </r>
       <r>   13.6279    0.0000 </r>
       <r>   13.8001    0.0000 </r>
       <r>   14.2603    0.0000 </r>
       <r>   15.5623    0.0000 </r>
       <r>   15.6614    0.0000 </r>
       <r>   15.7181    0.0000 </r>
       <r>   16.2792    0.0000 </r>
       <r>   18.0211    0.0000 </r>
       <r>   18.0716    0.0000 </r>
       <r>   18.6452    0.0000 </r>
       <r>   18.9834    0.0000 </r>
       <r>   18.9928    0.0000 </r>
       <r>   19.3961    0.0000 </r>
       <r>   19.4430    0.0000 </r>
       <r>   19.8594    0.0000 </r>
       <r>   19.9227    0.0000 </r>
       <r>   19.9355    0.0000 </r>
       <r>   20.0222    0.0000 </r>
       <r>   20.0695    0.0000 </r>
       <r>   20.4469    0.0000 </r>
       <r>   20.9480    0.0000 </r>
       <r>   21.1306    0.0000 </r>
       <r>   21.1701    0.0000 </r>
       <r>   22.3006    0.0000 </r>
       <r>   22.5129    0.0000 </r>
       <r>   23.0923    0.0000 </r>
       <r>   23.5592    0.0000 </r>
       <r>   23.5744    0.0000 </r>
       <r>   23.6015    0.0000 </r>
       <r>   23.8165    0.0000 </r>
       <r>   24.0248    0.0000 </r>
       <r>   24.2674    0.0000 </r>
       <r>   24.5217    0.0000 </r>
       <r>   24.8306    0.0000 </r>
       <r>   24.9676    0.0000 </r>
       <r>   25.0475    0.0000 </r>
       <r>   25.5521    0.0000 </r>
       <r>   25.6964    0.0000 </r>
       <r>   25.7980    0.0000 </r>
       <r>   25.9189    0.0000 </r>
       <r>   26.1275    0.0000 </r>
       <r>   26.3973    0.0000 </r>
       <r>   26.9094    0.0000 </r>
       <r>   26.9234    0.0000 </r>
       <r>   27.0815    0.0000 </r>
       <r>   27.0849    0.0000 </r>
       <r>   27.5813    0.0000 </r>
       <r>   27.8918    0.0000 </r>
       <r>   28.1065    0.0000 </r>
       <r>   28.6632    0.0000 </r>
       <r>   28.9184    0.0000 </r>
       <r>   29.0466    0.0000 </r>
       <r>   29.1763    0.0000 </r>
       <r>   29.2646    0.0000 </r>
       <r>   29.6366    0.0000 </r>
       <r>   29.6478    0.0000 </r>
       <r>   30.1213    0.0000 </r>
       <r>   30.1818    0.0000 </r>
       <r>   30.7678    0.0000 </r>
       <r>   31.1259    0.0000 </r>
       <r>   31.8749    0.0000 </r>
       <r>   31.9108    0.0000 </r>
       <r>   32.0148    0.0000 </r>
       <r>   32.0886    0.0000 </r>
       <r>   32.5461    0.0000 </r>
       <r>   32.6542    0.0000 </r>
       <r>   32.9444    0.0000 </r>
       <r>   33.0816    0.0000 </r>
       <r>   33.3384    0.0000 </r>
       <r>   33.4640    0.0000 </r>
       <r>   33.5848    0.0000 </r>
       <r>   33.6087    0.0000 </r>
       <r>   33.8445    0.0000 </r>
       <r>   34.0075    0.0000 </r>
       <r>   34.0686    0.0000 </r>
       <r>   34.1281    0.0000 </r>
       <r>   34.2291    0.0000 </r>
       <r>   35.1281    0.0000 </r>
       <r>   35.9146    0.0000 </r>
       <r>   35.9610    0.0000 </r>
       <r>   35.9882    0.0000 </r>
       <r>   36.2332    0.0000 </r>
       <r>   36.3840    0.0000 </r>
       <r>   36.5942    0.0000 </r>
       <r>   36.7596    0.0000 </r>
       <r>   36.8647    0.0000 </r>
       <r>   37.0219    0.0000 </r>
       <r>   37.1188    0.0000 </r>
       <r>   37.2090    0.0000 </r>
       <r>   37.4568    0.0000 </r>
       <r>   37.5348    0.0000 </r>
       <r>   37.8830    0.0000 </r>
       <r>   37.9740    0.0000 </r>
       <r>   38.0606    0.0000 </r>
       <r>   38.1707    0.0000 </r>
       <r>   38.3342    0.0000 </r>
       <r>   38.4488    0.0000 </r>
       <r>   38.9582    0.0000 </r>
       <r>   39.0151    0.0000 </r>
       <r>   39.1512    0.0000 </r>
       <r>   39.7411    0.0000 </r>
       <r>   39.8913    0.0000 </r>
       <r>   40.4036    0.0000 </r>
       <r>   41.6591    0.0000 </r>
       <r>   41.7874    0.0000 </r>
       <r>   42.0183    0.0000 </r>
       <r>   43.0529    0.0000 </r>
       <r>   43.1371    0.0000 </r>
       <r>   43.1853    0.0000 </r>
       <r>   43.3711    0.0000 </r>
       <r>   43.6680    0.0000 </r>
       <r>   43.9100    0.0000 </r>
       <r>   44.3356    0.0000 </r>
       <r>   44.4581    0.0000 </r>
       <r>   44.7940    0.0000 </r>
       <r>   44.8728    0.0000 </r>
       <r>   45.0487    0.0000 </r>
       <r>   45.2335    0.0000 </r>
       <r>   46.1032    0.0000 </r>
       <r>   46.2269    0.0000 </r>
       <r>   46.3651    0.0000 </r>
       <r>   46.4216    0.0000 </r>
       <r>   46.8963    0.0000 </r>
       <r>   47.1013    0.0000 </r>
       <r>   48.0085    0.0000 </r>
       <r>   48.2044    0.0000 </r>
       <r>   48.2685    0.0000 </r>
       <r>   48.4867    0.0000 </r>
       <r>   48.4867    0.0000 </r>
       <r>   48.6077    0.0000 </r>
       <r>   49.4193    0.0000 </r>
       <r>   49.4674    0.0000 </r>
       <r>   49.4813    0.0000 </r>
       <r>   49.4971    0.0000 </r>
       <r>   50.1891    0.0000 </r>
       <r>   50.2489    0.0000 </r>
       <r>   50.3481    0.0000 </r>
       <r>   50.4411    0.0000 </r>
       <r>   50.7495    0.0000 </r>
       <r>   50.7703    0.0000 </r>
       <r>   51.0252    0.0000 </r>
       <r>   51.0836    0.0000 </r>
       <r>   51.2201    0.0000 </r>
       <r>   51.2372    0.0000 </r>
       <r>   51.3233    0.0000 </r>
       <r>   52.0790    0.0000 </r>
       <r>   52.1310    0.0000 </r>
       <r>   52.3383    0.0000 </r>
       <r>   52.5341    0.0000 </r>
       <r>   52.6621    0.0000 </r>
       <r>   52.7051    0.0000 </r>
       <r>   52.7968    0.0000 </r>
       <r>   52.9839    0.0000 </r>
       <r>   53.1591    0.0000 </r>
       <r>   53.4564    0.0000 </r>
       <r>   53.6301    0.0000 </r>
       <r>   53.6776    0.0000 </r>
       <r>   53.8575    0.0000 </r>
       <r>   54.1638    0.0000 </r>
       <r>   54.4158    0.0000 </r>
       <r>   54.5037    0.0000 </r>
       <r>   54.6902    0.0000 </r>
       <r>   54.7543    0.0000 </r>
       <r>   54.8263    0.0000 </r>
       <r>   54.8421    0.0000 </r>
       <r>   54.8679    0.0000 </r>
       <r>   55.0431    0.0000 </r>
       <r>   55.0736    0.0000 </r>
       <r>   55.3025    0.0000 </r>
       <r>   55.4662    0.0000 </r>
       <r>   55.5311    0.0000 </r>
       <r>   55.6692    0.0000 </r>
       <r>   56.1756    0.0000 </r>
       <r>   56.1912    0.0000 </r>
       <r>   56.2449    0.0000 </r>
       <r>   56.3750    0.0000 </r>
       <r>   56.4639    0.0000 </r>
       <r>   56.5464    0.0000 </r>
       <r>   56.5747    0.0000 </r>
       <r>   56.8251    0.0000 </r>
       <r>   56.8859    0.0000 </r>
       <r>   57.0189    0.0000 </r>
       <r>   57.0577    0.0000 </r>
       <r>   57.1652    0.0000 </r>
       <r>   57.2095    0.0000 </r>
       <r>   57.4579    0.0000 </r>
       <r>   57.6391    0.0000 </r>
       <r>   57.6791    0.0000 </r>
       <r>   57.7261    0.0000 </r>
       <r>   58.0939    0.0000 </r>
       <r>   58.1463    0.0000 </r>
       <r>   58.2340    0.0000 </r>
       <r>   58.6067    0.0000 </r>
       <r>   58.7254    0.0000 </r>
       <r>   58.7317    0.0000 </r>
       <r>   59.1755    0.0000 </r>
       <r>   59.4085    0.0000 </r>
       <r>   59.5037    0.0000 </r>
       <r>   60.0199    0.0000 </r>
       <r>   60.0306    0.0000 </r>
       <r>   60.2943    0.0000 </r>
       <r>   60.3322    0.0000 </r>
       <r>   60.4211    0.0000 </r>
       <r>   60.5725    0.0000 </r>
       <r>   60.5849    0.0000 </r>
       <r>   60.7327    0.0000 </r>
       <r>   61.0217    0.0000 </r>
       <r>   61.0341    0.0000 </r>
       <r>   61.3763    0.0000 </r>
       <r>   61.5507    0.0000 </r>
       <r>   61.6702    0.0000 </r>
       <r>   62.1374    0.0000 </r>
       <r>   62.2604    0.0000 </r>
       <r>   62.7760    0.0000 </r>
       <r>   63.5386    0.0000 </r>
       <r>   63.8106    0.0000 </r>
       <r>   64.0655    0.0000 </r>
       <r>   64.1332    0.0000 </r>
       <r>   64.1393    0.0000 </r>
       <r>   64.1615    0.0000 </r>
       <r>   64.2112    0.0000 </r>
       <r>   64.4574    0.0000 </r>
       <r>   65.0710    0.0000 </r>
       <r>   65.2099    0.0000 </r>
       <r>   65.3051    0.0000 </r>
       <r>   65.6032    0.0000 </r>
       <r>   65.6439    0.0000 </r>
       <r>   65.8292    0.0000 </r>
       <r>   66.3752    0.0000 </r>
       <r>   66.4268    0.0000 </r>
       <r>   66.4561    0.0000 </r>
       <r>   66.6966    0.0000 </r>
       <r>   66.7485    0.0000 </r>
       <r>   66.8655    0.0000 </r>
       <r>   66.8769    0.0000 </r>
       <r>   67.1461    0.0000 </r>
       <r>   67.1550    0.0000 </r>
       <r>   67.4064    0.0000 </r>
       <r>   67.5691    0.0000 </r>
       <r>   67.6359    0.0000 </r>
       <r>   67.8043    0.0000 </r>
       <r>   67.8925    0.0000 </r>
       <r>   68.2152    0.0000 </r>
       <r>   68.3085    0.0000 </r>
       <r>   68.5106    0.0000 </r>
       <r>   68.5845    0.0000 </r>
       <r>   69.0390    0.0000 </r>
       <r>   69.1340    0.0000 </r>
       <r>   69.1491    0.0000 </r>
       <r>   69.3886    0.0000 </r>
       <r>   69.7238    0.0000 </r>
       <r>   69.7471    0.0000 </r>
       <r>   69.8479    0.0000 </r>
       <r>   69.8762    0.0000 </r>
       <r>   70.1228    0.0000 </r>
       <r>   70.3301    0.0000 </r>
       <r>   70.4921    0.0000 </r>
       <r>   70.4967    0.0000 </r>
       <r>   70.6342    0.0000 </r>
       <r>   70.6996    0.0000 </r>
       <r>   70.9202    0.0000 </r>
       <r>   70.9263    0.0000 </r>
       <r>   71.0767    0.0000 </r>
       <r>   71.3548    0.0000 </r>
       <r>   71.4285    0.0000 </r>
       <r>   71.4422    0.0000 </r>
       <r>   71.4481    0.0000 </r>
       <r>   71.5697    0.0000 </r>
       <r>   71.6282    0.0000 </r>
       <r>   72.8180    0.0000 </r>
       <r>   72.9641    0.0000 </r>
       <r>   72.9941    0.0000 </r>
       <r>   73.0840    0.0000 </r>
       <r>   73.5707    0.0000 </r>
       <r>   73.6158    0.0000 </r>
       <r>   73.7438    0.0000 </r>
       <r>   73.7774    0.0000 </r>
       <r>   74.0381    0.0000 </r>
       <r>   74.0873    0.0000 </r>
       <r>   74.2790    0.0000 </r>
       <r>   74.5998    0.0000 </r>
       <r>   74.6212    0.0000 </r>
       <r>   74.6645    0.0000 </r>
       <r>   74.8909    0.0000 </r>
       <r>   74.9799    0.0000 </r>
       <r>   75.3516    0.0000 </r>
       <r>   75.5207    0.0000 </r>
       <r>   75.9478    0.0000 </r>
       <r>   76.2251    0.0000 </r>
       <r>   76.3269    0.0000 </r>
       <r>   76.4378    0.0000 </r>
       <r>   76.6432    0.0000 </r>
       <r>   77.0400    0.0000 </r>
       <r>   77.0610    0.0000 </r>
       <r>   77.2144    0.0000 </r>
       <r>   77.3628    0.0000 </r>
       <r>   77.4198    0.0000 </r>
       <r>   77.5806    0.0000 </r>
       <r>   77.7200    0.0000 </r>
       <r>   77.9108    0.0000 </r>
       <r>   78.2082    0.0000 </r>
       <r>   78.2427    0.0000 </r>
       <r>   78.2612    0.0000 </r>
       <r>   78.2907    0.0000 </r>
       <r>   78.6760    0.0000 </r>
       <r>   78.7094    0.0000 </r>
       <r>   78.7275    0.0000 </r>
       <r>   79.0150    0.0000 </r>
       <r>   79.1421    0.0000 </r>
       <r>   79.1515    0.0000 </r>
       <r>   79.2345    0.0000 </r>
       <r>   79.2612    0.0000 </r>
       <r>   79.3174    0.0000 </r>
       <r>   79.5721    0.0000 </r>
       <r>   79.6689    0.0000 </r>
       <r>   79.8982    0.0000 </r>
       <r>   79.9118    0.0000 </r>
       <r>   80.1923    0.0000 </r>
       <r>   80.2444    0.0000 </r>
       <r>   80.4263    0.0000 </r>
       <r>   80.4901    0.0000 </r>
       <r>   80.5611    0.0000 </r>
       <r>   80.9882    0.0000 </r>
       <r>   81.2651    0.0000 </r>
       <r>   81.3481    0.0000 </r>
       <r>   81.8540    0.0000 </r>
       <r>   81.8852    0.0000 </r>
       <r>   82.0023    0.0000 </r>
       <r>   82.2395    0.0000 </r>
       <r>   82.6005    0.0000 </r>
       <r>   82.7009    0.0000 </r>
       <r>   82.9487    0.0000 </r>
       <r>   83.1451    0.0000 </r>
       <r>   83.1783    0.0000 </r>
       <r>   83.4019    0.0000 </r>
       <r>   83.4858    0.0000 </r>
       <r>   83.9376    0.0000 </r>
       <r>   84.0937    0.0000 </r>
       <r>   84.1838    0.0000 </r>
       <r>   84.3310    0.0000 </r>
       <r>   84.6606    0.0000 </r>
       <r>   84.8569    0.0000 </r>
       <r>   84.8822    0.0000 </r>
       <r>   85.1654    0.0000 </r>
       <r>   85.4277    0.0000 </r>
       <r>   85.4483    0.0000 </r>
       <r>   85.6360    0.0000 </r>
       <r>   85.9702    0.0000 </r>
       <r>   85.9975    0.0000 </r>
       <r>   86.1189    0.0000 </r>
       <r>   86.2743    0.0000 </r>
       <r>   86.7391    0.0000 </r>
       <r>   87.2595    0.0000 </r>
       <r>   87.3630    0.0000 </r>
       <r>   87.9322    0.0000 </r>
       <r>   87.9946    0.0000 </r>
       <r>   88.1374    0.0000 </r>
       <r>   88.2755    0.0000 </r>
       <r>   88.4795    0.0000 </r>
       <r>   88.7955    0.0000 </r>
       <r>   89.8355    0.0000 </r>
       <r>   90.5749    0.0000 </r>
       <r>   90.6763    0.0000 </r>
       <r>   90.7112    0.0000 </r>
       <r>   91.1599    0.0000 </r>
       <r>   91.1680    0.0000 </r>
       <r>   91.2909    0.0000 </r>
       <r>   91.3412    0.0000 </r>
       <r>   91.6520    0.0000 </r>
       <r>   91.9248    0.0000 </r>
       <r>   91.9549    0.0000 </r>
       <r>   92.0274    0.0000 </r>
       <r>   92.0603    0.0000 </r>
       <r>   92.1269    0.0000 </r>
       <r>   92.1423    0.0000 </r>
       <r>   92.2067    0.0000 </r>
       <r>   92.2102    0.0000 </r>
       <r>   92.7072    0.0000 </r>
       <r>   92.7229    0.0000 </r>
       <r>   92.9206    0.0000 </r>
       <r>   93.2587    0.0000 </r>
       <r>   93.3464    0.0000 </r>
       <r>   93.3774    0.0000 </r>
       <r>   93.4009    0.0000 </r>
       <r>   93.6882    0.0000 </r>
       <r>   93.7349    0.0000 </r>
       <r>   94.0006    0.0000 </r>
       <r>   94.0550    0.0000 </r>
       <r>   94.3248    0.0000 </r>
       <r>   94.4155    0.0000 </r>
       <r>   94.4392    0.0000 </r>
       <r>   94.6421    0.0000 </r>
       <r>   94.7394    0.0000 </r>
       <r>   94.7541    0.0000 </r>
       <r>   95.1124    0.0000 </r>
       <r>   95.3504    0.0000 </r>
       <r>   95.5217    0.0000 </r>
       <r>   95.5490    0.0000 </r>
       <r>   95.5971    0.0000 </r>
       <r>   95.6215    0.0000 </r>
       <r>   95.8077    0.0000 </r>
       <r>   95.9462    0.0000 </r>
       <r>   95.9517    0.0000 </r>
       <r>   95.9920    0.0000 </r>
       <r>   96.0128    0.0000 </r>
       <r>   96.1187    0.0000 </r>
       <r>   96.1294    0.0000 </r>
       <r>   96.2115    0.0000 </r>
       <r>   96.4844    0.0000 </r>
       <r>   96.5926    0.0000 </r>
       <r>   96.6526    0.0000 </r>
       <r>   97.3917    0.0000 </r>
       <r>   97.4073    0.0000 </r>
       <r>   97.4605    0.0000 </r>
       <r>   97.5336    0.0000 </r>
       <r>   97.6893    0.0000 </r>
       <r>   97.8448    0.0000 </r>
       <r>   97.8817    0.0000 </r>
       <r>   97.9179    0.0000 </r>
       <r>   97.9666    0.0000 </r>
       <r>   98.1116    0.0000 </r>
       <r>   98.2884    0.0000 </r>
       <r>   98.2949    0.0000 </r>
       <r>   98.3126    0.0000 </r>
       <r>   98.3792    0.0000 </r>
       <r>   98.5915    0.0000 </r>
       <r>   98.6327    0.0000 </r>
       <r>   98.6543    0.0000 </r>
       <r>   98.6854    0.0000 </r>
       <r>   98.8739    0.0000 </r>
       <r>   98.9115    0.0000 </r>
       <r>   98.9734    0.0000 </r>
       <r>   99.0002    0.0000 </r>
       <r>   99.0508    0.0000 </r>
       <r>   99.2070    0.0000 </r>
       <r>   99.3127    0.0000 </r>
       <r>   99.3550    0.0000 </r>
       <r>   99.5189    0.0000 </r>
       <r>   99.7420    0.0000 </r>
       <r>   99.7605    0.0000 </r>
       <r>   99.8542    0.0000 </r>
       <r>   99.9466    0.0000 </r>
       <r>   99.9521    0.0000 </r>
       <r>   99.9779    0.0000 </r>
       <r>  100.0959    0.0000 </r>
       <r>  100.1275    0.0000 </r>
       <r>  100.1833    0.0000 </r>
       <r>  100.3100    0.0000 </r>
       <r>  100.3421    0.0000 </r>
       <r>  100.6017    0.0000 </r>
       <r>  100.6172    0.0000 </r>
       <r>  101.0132    0.0000 </r>
       <r>  101.0133    0.0000 </r>
       <r>  101.0185    0.0000 </r>
       <r>  101.1945    0.0000 </r>
       <r>  101.2473    0.0000 </r>
       <r>  101.4348    0.0000 </r>
       <r>  101.5939    0.0000 </r>
       <r>  101.6486    0.0000 </r>
       <r>  101.6633    0.0000 </r>
       <r>  101.7172    0.0000 </r>
       <r>  101.7536    0.0000 </r>
       <r>  101.9208    0.0000 </r>
       <r>  101.9819    0.0000 </r>
       <r>  102.0094    0.0000 </r>
       <r>  102.1345    0.0000 </r>
       <r>  102.1792    0.0000 </r>
       <r>  102.2226    0.0000 </r>
       <r>  102.2584    0.0000 </r>
       <r>  102.6392    0.0000 </r>
       <r>  102.6427    0.0000 </r>
       <r>  102.6534    0.0000 </r>
       <r>  102.7046    0.0000 </r>
       <r>  103.0010    0.0000 </r>
       <r>  103.0297    0.0000 </r>
       <r>  103.3223    0.0000 </r>
       <r>  103.3723    0.0000 </r>
       <r>  103.4557    0.0000 </r>
       <r>  103.5349    0.0000 </r>
       <r>  103.5876    0.0000 </r>
       <r>  103.6899    0.0000 </r>
       <r>  103.7323    0.0000 </r>
       <r>  104.0761    0.0000 </r>
       <r>  104.0947    0.0000 </r>
       <r>  104.2094    0.0000 </r>
       <r>  104.6029    0.0000 </r>
       <r>  104.6891    0.0000 </r>
       <r>  104.6982    0.0000 </r>
       <r>  104.7434    0.0000 </r>
       <r>  104.7540    0.0000 </r>
       <r>  105.0455    0.0000 </r>
       <r>  105.1656    0.0000 </r>
       <r>  105.2857    0.0000 </r>
       <r>  105.4849    0.0000 </r>
       <r>  105.6002    0.0000 </r>
       <r>  105.6653    0.0000 </r>
       <r>  105.7915    0.0000 </r>
       <r>  105.8045    0.0000 </r>
       <r>  105.8840    0.0000 </r>
       <r>  106.2343    0.0000 </r>
       <r>  106.4189    0.0000 </r>
       <r>  106.4975    0.0000 </r>
       <r>  106.6426    0.0000 </r>
       <r>  107.0551    0.0000 </r>
       <r>  107.0861    0.0000 </r>
       <r>  107.2222    0.0000 </r>
       <r>  107.2671    0.0000 </r>
       <r>  107.2799    0.0000 </r>
       <r>  107.3930    0.0000 </r>
       <r>  107.4576    0.0000 </r>
       <r>  107.4988    0.0000 </r>
       <r>  107.7431    0.0000 </r>
       <r>  107.8510    0.0000 </r>
       <r>  108.3517    0.0000 </r>
       <r>  108.6544    0.0000 </r>
       <r>  108.7824    0.0000 </r>
       <r>  108.9237    0.0000 </r>
       <r>  109.1875    0.0000 </r>
       <r>  109.2158    0.0000 </r>
       <r>  109.2678    0.0000 </r>
       <r>  109.3979    0.0000 </r>
       <r>  109.5496    0.0000 </r>
       <r>  109.7492    0.0000 </r>
       <r>  110.0488    0.0000 </r>
       <r>  110.5354    0.0000 </r>
       <r>  110.5467    0.0000 </r>
       <r>  110.6662    0.0000 </r>
       <r>  110.6863    0.0000 </r>
       <r>  111.3434    0.0000 </r>
       <r>  111.5748    0.0000 </r>
       <r>  111.6360    0.0000 </r>
       <r>  111.7905    0.0000 </r>
       <r>  111.8872    0.0000 </r>
       <r>  112.2131    0.0000 </r>
       <r>  112.5934    0.0000 </r>
       <r>  112.6198    0.0000 </r>
       <r>  113.0669    0.0000 </r>
       <r>  113.3741    0.0000 </r>
       <r>  113.5696    0.0000 </r>
       <r>  114.0137    0.0000 </r>
       <r>  114.1452    0.0000 </r>
       <r>  114.3677    0.0000 </r>
       <r>  114.3985    0.0000 </r>
       <r>  114.4242    0.0000 </r>
       <r>  114.5736    0.0000 </r>
       <r>  114.5855    0.0000 </r>
       <r>  114.6892    0.0000 </r>
       <r>  114.7324    0.0000 </r>
       <r>  114.8335    0.0000 </r>
       <r>  114.8630    0.0000 </r>
       <r>  115.2002    0.0000 </r>
       <r>  115.3380    0.0000 </r>
       <r>  115.6569    0.0000 </r>
       <r>  115.6970    0.0000 </r>
       <r>  115.7391    0.0000 </r>
       <r>  116.4516    0.0000 </r>
       <r>  116.6764    0.0000 </r>
       <r>  116.7428    0.0000 </r>
       <r>  116.8582    0.0000 </r>
       <r>  116.8662    0.0000 </r>
       <r>  116.9043    0.0000 </r>
       <r>  116.9509    0.0000 </r>
       <r>  117.4268    0.0000 </r>
       <r>  117.5369    0.0000 </r>
       <r>  117.5577    0.0000 </r>
       <r>  117.6014    0.0000 </r>
       <r>  117.7275    0.0000 </r>
       <r>  117.8607    0.0000 </r>
       <r>  117.8618    0.0000 </r>
       <r>  117.8656    0.0000 </r>
       <r>  117.8890    0.0000 </r>
       <r>  118.1406    0.0000 </r>
       <r>  118.1763    0.0000 </r>
       <r>  118.3428    0.0000 </r>
       <r>  118.8791    0.0000 </r>
       <r>  118.9954    0.0000 </r>
       <r>  119.0536    0.0000 </r>
       <r>  119.1002    0.0000 </r>
       <r>  119.2151    0.0000 </r>
       <r>  119.5431    0.0000 </r>
       <r>  119.5862    0.0000 </r>
       <r>  119.6148    0.0000 </r>
       <r>  119.7680    0.0000 </r>
       <r>  119.9859    0.0000 </r>
       <r>  119.9946    0.0000 </r>
       <r>  120.0871    0.0000 </r>
       <r>  120.0983    0.0000 </r>
       <r>  120.1943    0.0000 </r>
       <r>  120.2293    0.0000 </r>
       <r>  120.4619    0.0000 </r>
       <r>  120.4864    0.0000 </r>
       <r>  120.8176    0.0000 </r>
       <r>  120.9056    0.0000 </r>
       <r>  120.9327    0.0000 </r>
       <r>  120.9726    0.0000 </r>
       <r>  120.9823    0.0000 </r>
       <r>  121.0255    0.0000 </r>
       <r>  121.1504    0.0000 </r>
       <r>  121.5143    0.0000 </r>
       <r>  121.9109    0.0000 </r>
       <r>  122.0322    0.0000 </r>
       <r>  122.0537    0.0000 </r>
       <r>  122.0585    0.0000 </r>
       <r>  122.2059    0.0000 </r>
       <r>  122.2590    0.0000 </r>
       <r>  122.2717    0.0000 </r>
       <r>  122.3727    0.0000 </r>
       <r>  122.5895    0.0000 </r>
       <r>  122.6310    0.0000 </r>
       <r>  122.6886    0.0000 </r>
       <r>  122.7921    0.0000 </r>
       <r>  122.7945    0.0000 </r>
       <r>  122.8415    0.0000 </r>
       <r>  122.9622    0.0000 </r>
       <r>  122.9870    0.0000 </r>
       <r>  123.0531    0.0000 </r>
       <r>  123.2585    0.0000 </r>
       <r>  123.5247    0.0000 </r>
       <r>  123.5938    0.0000 </r>
       <r>  123.6982    0.0000 </r>
       <r>  123.7163    0.0000 </r>
       <r>  123.8406    0.0000 </r>
       <r>  123.9877    0.0000 </r>
       <r>  124.0223    0.0000 </r>
       <r>  124.0873    0.0000 </r>
       <r>  124.4156    0.0000 </r>
       <r>  124.5428    0.0000 </r>
       <r>  124.5796    0.0000 </r>
       <r>  124.9233    0.0000 </r>
       <r>  125.0523    0.0000 </r>
       <r>  125.0687    0.0000 </r>
       <r>  125.1834    0.0000 </r>
       <r>  125.2812    0.0000 </r>
       <r>  125.3054    0.0000 </r>
       <r>  125.5435    0.0000 </r>
       <r>  125.6135    0.0000 </r>
       <r>  125.6296    0.0000 </r>
       <r>  125.8808    0.0000 </r>
       <r>  125.9808    0.0000 </r>
       <r>  126.3686    0.0000 </r>
       <r>  126.5562    0.0000 </r>
       <r>  126.5957    0.0000 </r>
       <r>  126.7479    0.0000 </r>
       <r>  127.3432    0.0000 </r>
       <r>  127.4822    0.0000 </r>
       <r>  127.5396    0.0000 </r>
       <r>  127.6799    0.0000 </r>
       <r>  127.8136    0.0000 </r>
       <r>  127.9347    0.0000 </r>
       <r>  127.9959    0.0000 </r>
       <r>  128.1893    0.0000 </r>
       <r>  128.2762    0.0000 </r>
       <r>  128.3011    0.0000 </r>
       <r>  128.3387    0.0000 </r>
       <r>  128.3996    0.0000 </r>
       <r>  128.5440    0.0000 </r>
       <r>  128.6219    0.0000 </r>
       <r>  128.7116    0.0000 </r>
       <r>  128.8105    0.0000 </r>
[...]
       <r>   119.2565     7.5233  1250.7075 </r>
       <r>   119.3287     8.6295  1251.3315 </r>
       <r>   119.4009    17.8134  1252.6185 </r>
       <r>   119.4731    22.4631  1254.2423 </r>
       <r>   119.5454    10.2270  1254.9969 </r>
       <r>   119.6176    15.1442  1256.0978 </r>
       <r>   119.6898    14.6839  1257.1673 </r>
       <r>   119.7620    12.4234  1258.0819 </r>
       <r>   119.8342    17.9378  1259.3774 </r>
       <r>   119.9065    11.7285  1260.2390 </r>
       <r>   119.9787    14.7706  1261.3079 </r>
       <r>   120.0509    19.5578  1262.7219 </r>
       <r>   120.1231    14.8122  1263.7919 </r>
       <r>   120.1954    24.5643  1265.5694 </r>
       <r>   120.2676    10.5147  1266.3315 </r>
       <r>   120.3398     7.6404  1266.8833 </r>
       <r>   120.4120    17.2463  1268.1345 </r>
       <r>   120.4842    21.7119  1269.7238 </r>
       <r>   120.5565    17.0059  1270.9543 </r>
       <r>   120.6287     9.7067  1271.6614 </r>
       <r>   120.7009    15.6096  1272.7945 </r>
       <r>   120.7731    17.6620  1274.0779 </r>
       <r>   120.8454    17.9956  1275.3809 </r>
       <r>   120.9176    15.5822  1276.5165 </r>
       <r>   120.9898    17.0155  1277.7704 </r>
       <r>   121.0620    16.0640  1278.9319 </r>
       <r>   121.1342    11.4766  1279.7616 </r>
       <r>   121.2065    11.8738  1280.6192 </r>
       <r>   121.2787     9.9540  1281.3388 </r>
       <r>   121.3509    15.0427  1282.4376 </r>
       <r>   121.4231    12.8265  1283.3639 </r>
       <r>   121.4954    21.2133  1284.8960 </r>
       <r>   121.5676    11.8242  1285.7551 </r>
       <r>   121.6398     9.2092  1286.4422 </r>
       <r>   121.7120    12.9123  1287.3747 </r>
       <r>   121.7842    12.4289  1288.2750 </r>
       <r>   121.8565    17.9938  1289.5772 </r>
       <r>   121.9287    12.3335  1290.4884 </r>
       <r>   122.0009    15.1083  1291.5818 </r>
       <r>   122.0731    20.0897  1293.0327 </r>
       <r>   122.1454    12.8204  1293.9697 </r>
       <r>   122.2176     3.9767  1294.2620 </r>
       <r>   122.2898    17.8688  1295.5575 </r>
       <r>   122.3620    14.8848  1296.6450 </r>
       <r>   122.4342     9.2662  1297.3219 </r>
       <r>   122.5065     8.8318  1297.9621 </r>
       <r>   122.5787    16.3520  1299.1528 </r>
       <r>   122.6509    15.9652  1300.3426 </r>
       <r>   122.7231    13.5925  1301.3452 </r>
       <r>   122.7954    12.3442  1302.2480 </r>
       <r>   122.8676    15.6992  1303.3860 </r>
       <r>   122.9398    11.5384  1304.2204 </r>
       <r>   123.0120    15.6850  1305.3534 </r>
       <r>   123.0842    13.5740  1306.3341 </r>
       <r>   123.1565    12.6408  1307.2596 </r>
       <r>   123.2287    13.9766  1308.2753 </r>
       <r>   123.3009    20.2178  1309.7356 </r>
       <r>   123.3731    17.0980  1310.9735 </r>
       <r>   123.4454     8.9701  1311.6318 </r>
       <r>   123.5176    21.5015  1313.1847 </r>
       <r>   123.5898    19.2133  1314.6021 </r>
       <r>   123.6620     9.5531  1315.3166 </r>
       <r>   123.7342    15.7952  1316.4609 </r>
       <r>   123.8065    10.6754  1317.2362 </r>
       <r>   123.8787    17.4029  1318.5127 </r>
       <r>   123.9509    11.9473  1319.3952 </r>
       <r>   124.0231    16.0936  1320.5654 </r>
       <r>   124.0954    20.1235  1322.0204 </r>
       <r>   124.1676    18.8957  1323.4059 </r>
       <r>   124.2398    16.0238  1324.5648 </r>
       <r>   124.3120    12.8536  1325.5149 </r>
       <r>   124.3842    12.0657  1326.3888 </r>
       <r>   124.4565    19.4367  1327.8010 </r>
       <r>   124.5287    13.6113  1328.8107 </r>
       <r>   124.6009    19.8109  1330.2421 </r>
       <r>   124.6731    14.5170  1331.2926 </r>
       <r>   124.7454    14.1686  1332.3170 </r>
       <r>   124.8176     9.5109  1333.0203 </r>
       <r>   124.8898    14.1046  1334.0395 </r>
       <r>   124.9620    17.2635  1335.2936 </r>
       <r>   125.0342    16.7452  1336.5062 </r>
       <r>   125.1065    12.0932  1337.3822 </r>
       <r>   125.1787    19.0448  1338.7588 </r>
       <r>   125.2509    15.3449  1339.8890 </r>
       <r>   125.3231    11.1448  1340.6939 </r>
       <r>   125.3954    14.3427  1341.7303 </r>
       <r>   125.4676    17.3559  1343.0065 </r>
       <r>   125.5398    12.9157  1343.9430 </r>
       <r>   125.6120    16.9960  1345.1705 </r>
       <r>   125.6842    14.3504  1346.2135 </r>
       <r>   125.7565    14.8230  1347.2860 </r>
       <r>   125.8287    14.7548  1348.3518 </r>
       <r>   125.9009    19.3784  1349.7548 </r>
       <r>   125.9731    12.5195  1350.6609 </r>
       <r>   126.0454    10.0939  1351.3904 </r>
       <r>   126.1176    16.5311  1352.5909 </r>
       <r>   126.1898     9.8495  1353.3092 </r>
       <r>   126.2620    12.4112  1354.2096 </r>
       <r>   126.3342    15.9278  1355.3789 </r>
       <r>   126.4065    11.5259  1356.2124 </r>
       <r>   126.4787    13.3398  1357.1813 </r>
       <r>   126.5509     8.6410  1357.8235 </r>
       <r>   126.6231    12.1958  1358.7100 </r>
       <r>   126.6954    13.0264  1359.6629 </r>
       <r>   126.7676    20.1327  1361.1169 </r>
       <r>   126.8398    14.7482  1362.2026 </r>
       <r>   126.9120    17.8454  1363.4915 </r>
       <r>   126.9842     6.4364  1363.9565 </r>
       <r>   127.0565    15.1713  1365.0523 </r>
       <r>   127.1287    15.8650  1366.1982 </r>
       <r>   127.2009    21.9733  1367.7856 </r>
       <r>   127.2731    10.3931  1368.5440 </r>
       <r>   127.3454    18.6650  1369.8971 </r>
       <r>   127.4176    24.8295  1371.6906 </r>
       <r>   127.4898    18.7158  1373.0479 </r>
       <r>   127.5620    14.6886  1374.1138 </r>
       <r>   127.6342    11.6272  1374.9541 </r>
       <r>   127.7065    16.2273  1376.1295 </r>
       <r>   127.7787    17.3809  1377.3859 </r>
       <r>   127.8509    20.2953  1378.8517 </r>
       <r>   127.9231    15.4482  1379.9803 </r>
       <r>   127.9954    15.6589  1381.1210 </r>
       <r>   128.0676    15.9008  1382.2776 </r>
       <r>   128.1398    11.3463  1383.1078 </r>
       <r>   128.2120    18.4870  1384.4544 </r>
       <r>   128.2842    11.4163  1385.2850 </r>
       <r>   128.3565    13.8276  1386.2942 </r>
       <r>   128.4287    17.3519  1387.5481 </r>
       <r>   128.5009    10.3041  1388.2933 </r>
       <r>   128.5731    14.7905  1389.3653 </r>
       <r>   128.6454    19.8243  1390.7981 </r>
       <r>   128.7176     8.3995  1391.4123 </r>
       <r>   128.7898    18.6907  1392.7624 </r>
       <r>   128.8620    14.2845  1393.8133 </r>
       <r>   128.9342    14.5486  1394.8640 </r>
       <r>   129.0065    14.2702  1395.9206 </r>
       <r>   129.0787    10.1514  1396.6538 </r>
       <r>   129.1509    17.7277  1397.9346 </r>
       <r>   129.2231    17.2042  1399.1819 </r>
       <r>   129.2954    14.5600  1400.2542 </r>
       <r>   129.3676    19.7482  1401.6804 </r>
       <r>   129.4398    16.6188  1402.8871 </r>
       <r>   129.5120    25.4239  1404.7349 </r>
       <r>   129.5842     9.9996  1405.4796 </r>
       <r>   129.6565    12.5579  1406.3868 </r>
       <r>   129.7287    26.2003  1408.2870 </r>
       <r>   129.8009    23.4363  1409.9976 </r>
       <r>   129.8731    21.2878  1411.5448 </r>
       <r>   129.9454     9.2830  1412.2217 </r>
       <r>   130.0176    14.6832  1413.2823 </r>
       <r>   130.0898    15.4527  1414.4031 </r>
       <r>   130.1620    11.6519  1415.2562 </r>
       <r>   130.2342    19.3230  1416.6520 </r>
       <r>   130.3065    13.3093  1417.6165 </r>
       <r>   130.3787    11.5329  1418.4507 </r>
       <r>   130.4509     9.5262  1419.1722 </r>
       <r>   130.5231    16.1790  1420.3406 </r>
       <r>   130.5954    19.2551  1421.7538 </r>
       <r>   130.6676    18.2462  1423.0849 </r>
       <r>   130.7398    14.5806  1424.1482 </r>
       <r>   130.8120    16.1165  1425.3134 </r>
       <r>   130.8842    17.5168  1426.5806 </r>
       <r>   130.9565    18.4426  1427.9127 </r>
       <r>   131.0287    11.7687  1428.7709 </r>
       <r>   131.1009    19.5662  1430.1840 </r>
       <r>   131.1731    12.5063  1431.0905 </r>
       <r>   131.2454    16.7761  1432.3226 </r>
       <r>   131.3176    20.4828  1433.8074 </r>
       <r>   131.3898    14.0105  1434.8305 </r>
       <r>   131.4620    21.2461  1436.3650 </r>
       <r>   131.5343    16.1150  1437.5567 </r>
       <r>   131.6065    20.9782  1439.0724 </r>
       <r>   131.6787    17.0583  1440.3056 </r>
       <r>   131.7509    11.4441  1441.1434 </r>
       <r>   131.8231     8.9519  1441.7899 </r>
       <r>   131.8954    16.6098  1442.9913 </r>
       <r>   131.9676    22.3812  1444.6123 </r>
       <r>   132.0398    12.4495  1445.5199 </r>
       <r>   132.1120    12.0412  1446.4033 </r>
       <r>   132.1843    14.8518  1447.4763 </r>
       <r>   132.2565    12.1894  1448.3639 </r>
       <r>   132.3287    16.6361  1449.5671 </r>
       <r>   132.4009    22.3684  1451.2249 </r>
       <r>   132.4731    14.5170  1452.2908 </r>
       <r>   132.5454    18.8453  1453.6562 </r>
       <r>   132.6176    23.4456  1455.3540 </r>
       <r>   132.6898     9.3459  1456.0413 </r>
       <r>   132.7620    18.4868  1457.3765 </r>
       <r>   132.8343    18.0787  1458.6822 </r>
       <r>   132.9065    20.5308  1460.1657 </r>
       <r>   132.9787    14.0592  1461.1853 </r>
       <r>   133.0509    25.2766  1463.0121 </r>
       <r>   133.1231    24.7234  1464.8006 </r>
       <r>   133.1954    16.0437  1465.9676 </r>
       <r>   133.2676     6.2700  1466.4240 </r>
       <r>   133.3398    13.3254  1467.3872 </r>
       <r>   133.4120    20.1844  1468.8668 </r>
       <r>   133.4843    19.2543  1470.2574 </r>
       <r>   133.5565    13.9728  1471.2718 </r>
       <r>   133.6287    20.5277  1472.7555 </r>
       <r>   133.7009    11.5090  1473.6095 </r>
       <r>   133.7731    17.2261  1474.8536 </r>
       <r>   133.8454    10.5078  1475.6134 </r>
       <r>   133.9176    17.5131  1476.8807 </r>
       <r>   133.9898    11.7557  1477.7350 </r>
       <r>   134.0620    16.5098  1478.9285 </r>
       <r>   134.1343    14.8379  1480.0045 </r>
       <r>   134.2065     9.7663  1480.7102 </r>
       <r>   134.2787    20.5636  1482.2020 </r>
       <r>   134.3509    15.6061  1483.3306 </r>
       <r>   134.4231    22.9920  1485.0116 </r>
       <r>   134.4954    14.5989  1486.0664 </r>
       <r>   134.5676     8.9802  1486.7190 </r>
       <r>   134.6398    12.8248  1487.6601 </r>
       <r>   134.7120    12.1557  1488.5424 </r>
       <r>   134.7843    12.0309  1489.4128 </r>
       <r>   134.8565    23.7548  1491.1284 </r>
       <r>   134.9287    16.7926  1492.3711 </r>
       <r>   135.0009    12.5964  1493.2809 </r>
       <r>   135.0731    17.9924  1494.5816 </r>
       <r>   135.1454    17.8149  1495.8713 </r>
       <r>   135.2176    15.0728  1496.9633 </r>
       <r>   135.2898    14.7246  1498.0281 </r>
       <r>   135.3620    22.0484  1499.6217 </r>
       <r>   135.4343    16.6346  1500.8305 </r>
       <r>   135.5065    17.3524  1502.0873 </r>
       <r>   135.5787    10.0621  1502.8344 </r>
       <r>   135.6509    16.7521  1504.0444 </r>
       <r>   135.7231    17.6384  1505.3325 </r>
       <r>   135.7954    13.8316  1506.3379 </r>
       <r>   135.8676    12.9082  1507.2822 </r>
       <r>   135.9398    18.3527  1508.6220 </r>
       <r>   136.0120     6.5903  1509.1204 </r>
       <r>   136.0843     8.1673  1509.7102 </r>
       <r>   136.1565    14.4211  1510.7532 </r>
       <r>   136.2287    11.0070  1511.5530 </r>
       <r>   136.3009    20.2811  1513.0178 </r>
       <r>   136.3731    15.9801  1514.1942 </r>
       <r>   136.4454    17.2400  1515.4409 </r>
       <r>   136.5176    12.3856  1516.3681 </r>
       <r>   136.5898    23.2720  1518.0604 </r>
       <r>   136.6620    15.0798  1519.1544 </r>
       <r>   136.7343    14.1899  1520.2089 </r>
       <r>   136.8065    21.5056  1521.7632 </r>
       <r>   136.8787    20.8720  1523.2865 </r>
       <r>   136.9509    16.6147  1524.4865 </r>
       <r>   137.0231    16.4594  1525.6753 </r>
       <r>   137.0954    18.7640  1527.0429 </r>
       <r>   137.1676    25.0517  1528.8523 </r>
       <r>   137.2398    16.6029  1530.0607 </r>
       <r>   137.3120    10.3440  1530.8129 </r>
       <r>   137.3843    13.8700  1531.8146 </r>
       <r>   137.4565    14.0774  1532.8340 </r>
       <r>   137.5287    11.6151  1533.6755 </r>
       <r>   137.6009     1.1913  1533.7654 </r>
       <r>   137.6731     4.9815  1534.1252 </r>
       <r>   137.7454     4.1693  1534.4283 </r>
       <r>   137.8176     2.6930  1534.6250 </r>
       <r>   137.8898     2.9463  1534.8378 </r>
       <r>   137.9620     4.3588  1535.1526 </r>
       <r>   138.0343     0.8031  1535.2135 </r>
       <r>   138.1065     4.5449  1535.5417 </r>
       <r>   138.1787     1.1527  1535.6250 </r>
       <r>   138.2509     1.4228  1535.7278 </r>
       <r>   138.3231     1.4618  1535.8333 </r>
       <r>   138.3954     0.0000  1535.8333 </r>
       <r>   138.4676     0.0000  1535.8333 </r>
       <r>   138.5398     0.0000  1535.8333 </r>
       <r>   138.6120     0.0000  1535.8333 </r>
       <r>   138.6843     0.0000  1535.8333 </r>
       <r>   138.7565     0.0000  1535.8333 </r>
       <r>   138.8287     0.0083  1535.8339 </r>
       <r>   138.9009     1.1456  1535.9167 </r>
       <r>   138.9731     0.7832  1535.9732 </r>
       <r>   139.0454     0.3706  1536.0000 </r>
       <r>   139.1176     0.0000  1536.0000 </r>
       <r>   139.1898     0.0000  1536.0000 </r>
       <r>   139.2620     0.0000  1536.0000 </r>
       <r>   139.3343     0.0000  1536.0000 </r>
       <r>   139.4065     0.0000  1536.0000 </r>
       <r>   139.4787     0.0000  1536.0000 </r>
       <r>   139.5509     0.0000  1536.0000 </r>
       <r>   139.6231     0.0000  1536.0000 </r>
       <r>   139.6954     0.0000  1536.0000 </r>
       <r>   139.7676     0.0000  1536.0000 </r>
       <r>   139.8398     0.0000  1536.0000 </r>
       <r>   139.9120     0.0000  1536.0000 </r>
       <r>   139.9843     0.0000  1536.0000 </r>
       <r>   140.0565     0.0000  1536.0000 </r>
       <r>   140.1287     0.0000  1536.0000 </r>
       <r>   140.2009     0.0000  1536.0000 </r>
       <r>   140.2731     0.0000  1536.0000 </r>
       <r>   140.3454     0.0000  1536.0000 </r>
       <r>   140.4176     0.0000  1536.0000 </r>
       <r>   140.4898     0.0000  1536.0000 </r>
       <r>   140.5620     0.0000  1536.0000 </r>
       <r>   140.6343     0.0000  1536.0000 </r>
       <r>   140.7065     0.0000  1536.0000 </r>
       <r>   140.7787     0.0000  1536.0000 </r>
       <r>   140.8509     0.0000  1536.0000 </r>
       <r>   140.9231     0.0000  1536.0000 </r>
       <r>   140.9954     0.0000  1536.0000 </r>
       <r>   141.0676     0.0000  1536.0000 </r>
       <r>   141.1398     0.0000  1536.0000 </r>
       <r>   141.2120     0.0000  1536.0000 </r>
       <r>   141.2843     0.0000  1536.0000 </r>
       <r>   141.3565     0.0000  1536.0000 </r>
       <r>   141.4287     0.0000  1536.0000 </r>
       <r>   141.5009     0.0000  1536.0000 </r>
       <r>   141.5731     0.0000  1536.0000 </r>
       <r>   141.6454     0.0000  1536.0000 </r>
       <r>   141.7176     0.0000  1536.0000 </r>
       <r>   141.7898     0.0000  1536.0000 </r>
       <r>   141.8620     0.0000  1536.0000 </r>
       <r>   141.9343     0.0000  1536.0000 </r>
       <r>   142.0065     0.0000  1536.0000 </r>
       <r>   142.0787     0.0000  1536.0000 </r>
       <r>   142.1509     0.0000  1536.0000 </r>
       <r>   142.2231     0.0000  1536.0000 </r>
       <r>   142.2954     0.0000  1536.0000 </r>
       <r>   142.3676     0.0000  1536.0000 </r>
       <r>   142.4398     0.0000  1536.0000 </r>
       <r>   142.5120     0.0000  1536.0000 </r>
       <r>   142.5843     0.0000  1536.0000 </r>
       <r>   142.6565     0.0000  1536.0000 </r>
       <r>   142.7287     0.0000  1536.0000 </r>
       <r>   142.8009     0.0000  1536.0000 </r>
       <r>   142.8731     0.0000  1536.0000 </r>
       <r>   142.9454     0.0000  1536.0000 </r>
       <r>   143.0176     0.0000  1536.0000 </r>
       <r>   143.0898     0.0000  1536.0000 </r>
       <r>   143.1620     0.0000  1536.0000 </r>
       <r>   143.2343     0.0000  1536.0000 </r>
       <r>   143.3065     0.0000  1536.0000 </r>
       <r>   143.3787     0.0000  1536.0000 </r>
       <r>   143.4509     0.0000  1536.0000 </r>
       <r>   143.5231     0.0000  1536.0000 </r>
       <r>   143.5954     0.0000  1536.0000 </r>
       <r>   143.6676     0.0000  1536.0000 </r>
       <r>   143.7398     0.0000  1536.0000 </r>
       <r>   143.8120     0.0000  1536.0000 </r>
       <r>   143.8843     0.0000  1536.0000 </r>
       <r>   143.9565     0.0000  1536.0000 </r>
       <r>   144.0287     0.0000  1536.0000 </r>
       <r>   144.1009     0.0000  1536.0000 </r>
       <r>   144.1731     0.0000  1536.0000 </r>
       <r>   144.2454     0.0000  1536.0000 </r>
       <r>   144.3176     0.0000  1536.0000 </r>
       <r>   144.3898     0.0000  1536.0000 </r>
       <r>   144.4620     0.0000  1536.0000 </r>
       <r>   144.5343     0.0000  1536.0000 </r>
       <r>   144.6065     0.0000  1536.0000 </r>
       <r>   144.6787     0.0000  1536.0000 </r>
       <r>   144.7509     0.0000  1536.0000 </r>
       <r>   144.8231     0.0000  1536.0000 </r>
       <r>   144.8954     0.0000  1536.0000 </r>
       <r>   144.9676     0.0000  1536.0000 </r>
       <r>   145.0398     0.0000  1536.0000 </r>
       <r>   145.1120     0.0000  1536.0000 </r>
       <r>   145.1843     0.0000  1536.0000 </r>
       <r>   145.2565     0.0000  1536.0000 </r>
       <r>   145.3287     0.0000  1536.0000 </r>
       <r>   145.4009     0.0000  1536.0000 </r>
       <r>   145.4731     0.0000  1536.0000 </r>
       <r>   145.5454     0.0000  1536.0000 </r>
       <r>   145.6176     0.0000  1536.0000 </r>
       <r>   145.6898     0.0000  1536.0000 </r>
       <r>   145.7620     0.0000  1536.0000 </r>
       <r>   145.8343     0.0000  1536.0000 </r>
       <r>   145.9065     0.0000  1536.0000 </r>
       <r>   145.9787     0.0000  1536.0000 </r>
       <r>   146.0509     0.0000  1536.0000 </r>
       <r>   146.1231     0.0000  1536.0000 </r>
       <r>   146.1954     0.0000  1536.0000 </r>
       <r>   146.2676     0.0000  1536.0000 </r>
       <r>   146.3398     0.0000  1536.0000 </r>
       <r>   146.4120     0.0000  1536.0000 </r>
       <r>   146.4843     0.0000  1536.0000 </r>
       <r>   146.5565     0.0000  1536.0000 </r>
       <r>   146.6287     0.0000  1536.0000 </r>
       <r>   146.7009     0.0000  1536.0000 </r>
       <r>   146.7731     0.0000  1536.0000 </r>
       <r>   146.8454     0.0000  1536.0000 </r>
      </set>
     </set>
    </array>
   </total>
  </dos>
 </calculation>
 <structure name="finalpos" >
  <crystal>
   <varray name="basis" >
    <v>       4.48084843       2.58701885       0.00000000 </v>
    <v>      -4.48084843       2.58701885       0.00000000 </v>
    <v>       0.00000000       0.00000000       8.52022140 </v>
   </varray>
   <i name="volume">    197.53348383 </i>
   <varray name="rec_basis" >
    <v>       0.11158601       0.19327265       0.00000000 </v>
    <v>      -0.11158601       0.19327265       0.00000000 </v>
    <v>       0.00000000       0.00000000       0.11736784 </v>
   </varray>
  </crystal>
  <varray name="positions" >
   <v>       0.33333300       0.66666600       0.25000000 </v>
   <v>       0.66666600       0.33333300       0.25000000 </v>
   <v>       0.15869124       0.31738348       0.25000000 </v>
   <v>       0.31738348       0.15869124       0.25000000 </v>
   <v>       0.15869124       0.84130776       0.25000000 </v>
   <v>       0.84130776       0.15869124       0.25000000 </v>
   <v>       0.68261552       0.84130776       0.25000000 </v>
   <v>       0.84130776       0.68261552       0.25000000 </v>
  </varray>
 </structure>
</modeling>
