   8   8   1   0
  0.4330982E+02  0.5164732E-09  0.5164732E-09  0.1500000E-08  0.5000000E-15
  1.000000000000000E-004
  CAR 
 BC3                                     
      6.42184827    -20.75482297  301     -3.74288452      1.00000000
    -20.755  0.0000E+00  0.0000E+00
    -20.664  0.0000E+00  0.0000E+00
    -20.574  0.0000E+00  0.0000E+00
    -20.483  0.0000E+00  0.0000E+00
    -20.392  0.0000E+00  0.0000E+00
    -20.302  0.0000E+00  0.0000E+00
    -20.211  0.0000E+00  0.0000E+00
    -20.121  0.0000E+00  0.0000E+00
    -20.030  0.3053E-12  0.2766E-13
    -19.940  0.1831E-08  0.1659E-09
    -19.849  0.2255E-05  0.2045E-06
    -19.758  0.5855E-03  0.5325E-04
    -19.668  0.3351E-01  0.3089E-02
    -19.577  0.4554E+00  0.4434E-01
    -19.487  0.1664E+01  0.1951E+00
    -19.396  0.2095E+01  0.3848E+00
    -19.305  0.1549E+01  0.5251E+00
    -19.215  0.1190E+01  0.6329E+00
    -19.124  0.1027E+01  0.7259E+00
    -19.034  0.9377E+00  0.8109E+00
    -18.943  0.8922E+00  0.8917E+00
    -18.852  0.9024E+00  0.9734E+00
    -18.762  0.1207E+01  0.1083E+01
    -18.671  0.2422E+01  0.1302E+01
    -18.581  0.3493E+01  0.1619E+01
    -18.490  0.2879E+01  0.1879E+01
    -18.400  0.1167E+01  0.1985E+01
    -18.309  0.1582E+00  0.1999E+01
    -18.218  0.5593E-02  0.2000E+01
    -18.128  0.4566E-04  0.2000E+01
    -18.037  0.2626E-05  0.2000E+01
    -17.947  0.6653E-03  0.2000E+01
    -17.856  0.3834E-01  0.2004E+01
    -17.765  0.5247E+00  0.2051E+01
    -17.675  0.1933E+01  0.2226E+01
    -17.584  0.2463E+01  0.2449E+01
    -17.494  0.1955E+01  0.2626E+01
    -17.403  0.2047E+01  0.2812E+01
    -17.312  0.2279E+01  0.3018E+01
    -17.222  0.1936E+01  0.3194E+01
    -17.131  0.1588E+01  0.3337E+01
    -17.041  0.1427E+01  0.3467E+01
    -16.950  0.1339E+01  0.3588E+01
    -16.860  0.1281E+01  0.3704E+01
    -16.769  0.1244E+01  0.3817E+01
    -16.678  0.1223E+01  0.3928E+01
    -16.588  0.1217E+01  0.4038E+01
    -16.497  0.1233E+01  0.4150E+01
    -16.407  0.1300E+01  0.4267E+01
    -16.316  0.1601E+01  0.4412E+01
    -16.225  0.2282E+01  0.4619E+01
    -16.135  0.2349E+01  0.4832E+01
    -16.044  0.1812E+01  0.4996E+01
    -15.954  0.1572E+01  0.5139E+01
    -15.863  0.1557E+01  0.5280E+01
    -15.772  0.1691E+01  0.5433E+01
    -15.682  0.2118E+01  0.5625E+01
    -15.591  0.2471E+01  0.5849E+01
    -15.501  0.1409E+01  0.5976E+01
    -15.410  0.2514E+00  0.5999E+01
    -15.319  0.1151E-01  0.6000E+01
    -15.229  0.1215E-03  0.6000E+01
    -15.138  0.2778E-06  0.6000E+01
    -15.048  0.1326E-09  0.6000E+01
    -14.957  0.1866E-12  0.6000E+01
    -14.867  0.1125E-08  0.6000E+01
    -14.776  0.1495E-05  0.6000E+01
    -14.685  0.4181E-03  0.6000E+01
    -14.595  0.2572E-01  0.6002E+01
    -14.504  0.3742E+00  0.6036E+01
    -14.414  0.1456E+01  0.6168E+01
    -14.323  0.1934E+01  0.6343E+01
    -14.232  0.1489E+01  0.6478E+01
    -14.142  0.1194E+01  0.6586E+01
    -14.051  0.1174E+01  0.6693E+01
    -13.961  0.1861E+01  0.6861E+01
    -13.870  0.3390E+01  0.7168E+01
    -13.779  0.3452E+01  0.7481E+01
    -13.689  0.2184E+01  0.7679E+01
    -13.598  0.1571E+01  0.7821E+01
    -13.508  0.1404E+01  0.7948E+01
    -13.417  0.1332E+01  0.8069E+01
    -13.327  0.1292E+01  0.8186E+01
    -13.236  0.1268E+01  0.8301E+01
    -13.145  0.1256E+01  0.8415E+01
    -13.055  0.1259E+01  0.8529E+01
    -12.964  0.1295E+01  0.8646E+01
    -12.874  0.1411E+01  0.8774E+01
    -12.783  0.1570E+01  0.8916E+01
    -12.692  0.1659E+01  0.9067E+01
    -12.602  0.1303E+01  0.9185E+01
    -12.511  0.8186E+00  0.9259E+01
    -12.421  0.7998E+00  0.9331E+01
    -12.330  0.1309E+01  0.9450E+01
    -12.239  0.1790E+01  0.9612E+01
    -12.149  0.1933E+01  0.9787E+01
    -12.058  0.2195E+01  0.9986E+01
    -11.968  0.2074E+01  0.1017E+02
    -11.877  0.1925E+01  0.1035E+02
    -11.787  0.2057E+01  0.1053E+02
    -11.696  0.2063E+01  0.1072E+02
    -11.605  0.1349E+01  0.1084E+02
    -11.515  0.8130E+00  0.1092E+02
    -11.424  0.7055E+00  0.1098E+02
    -11.334  0.6785E+00  0.1104E+02
    -11.243  0.6585E+00  0.1110E+02
    -11.152  0.6422E+00  0.1116E+02
    -11.062  0.6454E+00  0.1122E+02
    -10.971  0.8610E+00  0.1130E+02
    -10.881  0.1534E+01  0.1144E+02
    -10.790  0.1816E+01  0.1160E+02
    -10.699  0.1538E+01  0.1174E+02
    -10.609  0.1349E+01  0.1186E+02
    -10.518  0.1267E+01  0.1198E+02
    -10.428  0.1225E+01  0.1209E+02
    -10.337  0.1206E+01  0.1220E+02
    -10.247  0.1212E+01  0.1231E+02
    -10.156  0.1260E+01  0.1242E+02
    -10.065  0.1414E+01  0.1255E+02
     -9.975  0.1797E+01  0.1271E+02
     -9.884  0.2175E+01  0.1291E+02
     -9.794  0.1767E+01  0.1307E+02
     -9.703  0.1282E+01  0.1319E+02
     -9.612  0.1240E+01  0.1330E+02
     -9.522  0.1189E+01  0.1341E+02
     -9.431  0.1108E+01  0.1351E+02
     -9.341  0.1066E+01  0.1360E+02
     -9.250  0.1047E+01  0.1370E+02
     -9.159  0.1062E+01  0.1379E+02
     -9.069  0.1316E+01  0.1391E+02
     -8.978  0.1961E+01  0.1409E+02
     -8.888  0.2058E+01  0.1428E+02
     -8.797  0.1589E+01  0.1442E+02
     -8.706  0.1594E+01  0.1456E+02
     -8.616  0.2518E+01  0.1479E+02
     -8.525  0.3289E+01  0.1509E+02
     -8.435  0.3176E+01  0.1538E+02
     -8.344  0.3027E+01  0.1565E+02
     -8.254  0.2995E+01  0.1592E+02
     -8.163  0.3230E+01  0.1622E+02
     -8.072  0.3640E+01  0.1655E+02
     -7.982  0.4049E+01  0.1691E+02
     -7.891  0.5025E+01  0.1737E+02
     -7.801  0.5590E+01  0.1787E+02
     -7.710  0.4476E+01  0.1828E+02
     -7.619  0.3187E+01  0.1857E+02
     -7.529  0.2998E+01  0.1884E+02
     -7.438  0.2716E+01  0.1909E+02
     -7.348  0.2183E+01  0.1928E+02
     -7.257  0.2721E+01  0.1953E+02
     -7.166  0.3300E+01  0.1983E+02
     -7.076  0.2925E+01  0.2009E+02
     -6.985  0.2991E+01  0.2037E+02
     -6.895  0.4119E+01  0.2074E+02
     -6.804  0.5306E+01  0.2122E+02
     -6.714  0.5830E+01  0.2175E+02
     -6.623  0.6768E+01  0.2236E+02
     -6.532  0.6329E+01  0.2293E+02
     -6.442  0.4166E+01  0.2331E+02
     -6.351  0.3487E+01  0.2363E+02
     -6.261  0.3236E+01  0.2392E+02
     -6.170  0.2979E+01  0.2419E+02
     -6.079  0.2955E+01  0.2446E+02
     -5.989  0.3165E+01  0.2475E+02
     -5.898  0.3213E+01  0.2504E+02
     -5.808  0.2502E+01  0.2526E+02
     -5.717  0.2014E+01  0.2545E+02
     -5.626  0.2086E+01  0.2563E+02
     -5.536  0.2436E+01  0.2585E+02
     -5.445  0.2477E+01  0.2608E+02
     -5.355  0.1979E+01  0.2626E+02
     -5.264  0.1728E+01  0.2642E+02
     -5.174  0.1694E+01  0.2657E+02
     -5.083  0.1703E+01  0.2672E+02
     -4.992  0.1730E+01  0.2688E+02
     -4.902  0.1777E+01  0.2704E+02
     -4.811  0.1863E+01  0.2721E+02
     -4.721  0.2151E+01  0.2740E+02
     -4.630  0.3008E+01  0.2768E+02
     -4.539  0.3666E+01  0.2801E+02
     -4.449  0.3641E+01  0.2834E+02
     -4.358  0.4183E+01  0.2872E+02
     -4.268  0.4210E+01  0.2910E+02
     -4.177  0.2458E+01  0.2932E+02
     -4.086  0.1606E+01  0.2947E+02
     -3.996  0.2018E+01  0.2965E+02
     -3.905  0.2383E+01  0.2987E+02
     -3.815  0.1271E+01  0.2998E+02
     -3.724  0.2410E+00  0.3000E+02
     -3.634  0.4462E+00  0.3004E+02
     -3.543  0.1443E+01  0.3017E+02
     -3.452  0.1695E+01  0.3033E+02
     -3.362  0.1240E+01  0.3044E+02
     -3.271  0.9659E+00  0.3053E+02
     -3.181  0.9299E+00  0.3061E+02
     -3.090  0.1326E+01  0.3073E+02
     -2.999  0.1711E+01  0.3089E+02
     -2.909  0.1538E+01  0.3103E+02
     -2.818  0.1362E+01  0.3115E+02
     -2.728  0.1392E+01  0.3128E+02
     -2.637  0.1491E+01  0.3141E+02
     -2.546  0.1132E+01  0.3151E+02
     -2.456  0.6421E+00  0.3157E+02
     -2.365  0.5111E+00  0.3162E+02
     -2.275  0.4964E+00  0.3166E+02
     -2.184  0.4907E+00  0.3171E+02
     -2.094  0.4873E+00  0.3175E+02
     -2.003  0.4854E+00  0.3179E+02
     -1.912  0.4851E+00  0.3184E+02
     -1.822  0.4866E+00  0.3188E+02
     -1.731  0.4953E+00  0.3193E+02
     -1.641  0.5425E+00  0.3198E+02
     -1.550  0.5889E+00  0.3203E+02
     -1.459  0.5396E+00  0.3208E+02
     -1.369  0.5046E+00  0.3212E+02
     -1.278  0.5035E+00  0.3217E+02
     -1.188  0.5088E+00  0.3222E+02
     -1.097  0.5173E+00  0.3226E+02
     -1.006  0.5296E+00  0.3231E+02
     -0.916  0.5477E+00  0.3236E+02
     -0.825  0.5928E+00  0.3241E+02
     -0.735  0.9514E+00  0.3250E+02
     -0.644  0.2277E+01  0.3271E+02
     -0.553  0.3382E+01  0.3301E+02
     -0.463  0.3152E+01  0.3330E+02
     -0.372  0.2097E+01  0.3349E+02
     -0.282  0.1286E+01  0.3361E+02
     -0.191  0.1104E+01  0.3371E+02
     -0.101  0.1084E+01  0.3380E+02
     -0.010  0.1101E+01  0.3390E+02
      0.081  0.1161E+01  0.3401E+02
      0.171  0.1326E+01  0.3413E+02
      0.262  0.1639E+01  0.3428E+02
      0.352  0.1457E+01  0.3441E+02
      0.443  0.6721E+00  0.3447E+02
      0.534  0.3416E+00  0.3450E+02
      0.624  0.3170E+00  0.3453E+02
      0.715  0.3865E+00  0.3456E+02
      0.805  0.9311E+00  0.3465E+02
      0.896  0.1931E+01  0.3482E+02
      0.987  0.2226E+01  0.3503E+02
      1.077  0.2468E+01  0.3525E+02
      1.168  0.2400E+01  0.3547E+02
      1.258  0.1976E+01  0.3565E+02
      1.349  0.1739E+01  0.3580E+02
      1.439  0.1654E+01  0.3595E+02
      1.530  0.1728E+01  0.3611E+02
      1.621  0.2021E+01  0.3629E+02
      1.711  0.2086E+01  0.3648E+02
      1.802  0.2292E+01  0.3669E+02
      1.892  0.2863E+01  0.3695E+02
      1.983  0.2593E+01  0.3718E+02
      2.074  0.2150E+01  0.3738E+02
      2.164  0.2092E+01  0.3757E+02
      2.255  0.2776E+01  0.3782E+02
      2.345  0.3386E+01  0.3813E+02
      2.436  0.2988E+01  0.3840E+02
      2.527  0.2609E+01  0.3863E+02
      2.617  0.3022E+01  0.3891E+02
      2.708  0.4616E+01  0.3932E+02
      2.798  0.5194E+01  0.3980E+02
      2.889  0.4340E+01  0.4019E+02
      2.979  0.3718E+01  0.4053E+02
      3.070  0.3413E+01  0.4083E+02
      3.161  0.3248E+01  0.4113E+02
      3.251  0.3185E+01  0.4142E+02
      3.342  0.3185E+01  0.4171E+02
      3.432  0.3557E+01  0.4203E+02
      3.523  0.4654E+01  0.4245E+02
      3.614  0.5209E+01  0.4292E+02
      3.704  0.4461E+01  0.4333E+02
      3.795  0.3787E+01  0.4367E+02
      3.885  0.3456E+01  0.4398E+02
      3.976  0.3214E+01  0.4427E+02
      4.067  0.3552E+01  0.4459E+02
      4.157  0.5543E+01  0.4510E+02
      4.248  0.7126E+01  0.4574E+02
      4.338  0.6436E+01  0.4633E+02
      4.429  0.4805E+01  0.4676E+02
      4.519  0.3610E+01  0.4709E+02
      4.610  0.2640E+01  0.4733E+02
      4.701  0.2044E+01  0.4751E+02
      4.791  0.1775E+01  0.4767E+02
      4.882  0.1515E+01  0.4781E+02
      4.972  0.1104E+01  0.4791E+02
      5.063  0.5581E+00  0.4796E+02
      5.154  0.2645E+00  0.4798E+02
      5.244  0.1339E+00  0.4800E+02
      5.335  0.3371E-01  0.4800E+02
      5.425  0.2548E-02  0.4800E+02
      5.516  0.4721E-04  0.4800E+02
      5.607  0.1947E-06  0.4800E+02
      5.697  0.1695E-09  0.4800E+02
      5.788  0.3019E-13  0.4800E+02
      5.878  0.0000E+00  0.4800E+02
      5.969  0.0000E+00  0.4800E+02
      6.059  0.0000E+00  0.4800E+02
      6.150  0.0000E+00  0.4800E+02
      6.241  0.0000E+00  0.4800E+02
      6.331  0.0000E+00  0.4800E+02
      6.422  0.0000E+00  0.4800E+02
      6.42184827    -20.75482297  301     -3.74288452      1.00000000
    -20.755  0.0000E+00  0.0000E+00  0.0000E+00  0.0000E+00  0.0000E+00  0.0000E+00  0.0000E+00  0.0000E+00  0.0000E+00
    -20.664  0.0000E+00  0.0000E+00  0.0000E+00  0.0000E+00  0.0000E+00  0.0000E+00  0.0000E+00  0.0000E+00  0.0000E+00
    -20.574  0.0000E+00  0.0000E+00  0.0000E+00  0.0000E+00  0.0000E+00  0.0000E+00  0.0000E+00  0.0000E+00  0.0000E+00
    -20.483  0.0000E+00  0.0000E+00  0.0000E+00  0.0000E+00  0.0000E+00  0.0000E+00  0.0000E+00  0.0000E+00  0.0000E+00
    -20.392  0.0000E+00  0.0000E+00  0.0000E+00  0.0000E+00  0.0000E+00  0.0000E+00  0.0000E+00  0.0000E+00  0.0000E+00
    -20.302  0.0000E+00  0.0000E+00  0.0000E+00  0.0000E+00  0.0000E+00  0.0000E+00  0.0000E+00  0.0000E+00  0.0000E+00
    -20.211  0.0000E+00  0.0000E+00  0.0000E+00  0.0000E+00  0.0000E+00  0.0000E+00  0.0000E+00  0.0000E+00  0.0000E+00
    -20.121  0.0000E+00  0.0000E+00  0.0000E+00  0.0000E+00  0.0000E+00  0.0000E+00  0.0000E+00  0.0000E+00  0.0000E+00
    -20.030  0.1371E-13  0.1277E-16  0.6934E-25  0.1978E-17  0.0000E+00  0.0000E+00  0.0000E+00  0.0000E+00  0.0000E+00
    -19.940  0.8221E-10  0.9222E-13  0.4024E-21  0.1429E-13  0.0000E+00  0.0000E+00  0.0000E+00  0.0000E+00  0.0000E+00
    -19.849  0.1012E-06  0.1415E-09  0.4754E-18  0.2193E-10  0.0000E+00  0.0000E+00  0.0000E+00  0.0000E+00  0.0000E+00
    -19.758  0.2624E-04  0.4797E-07  0.1170E-15  0.7446E-08  0.0000E+00  0.0000E+00  0.0000E+00  0.0000E+00  0.0000E+00
    -19.668  0.1500E-02  0.3838E-05  0.6244E-14  0.5969E-06  0.0000E+00  0.0000E+00  0.0000E+00  0.0000E+00  0.0000E+00
    -19.577  0.2031E-01  0.8069E-04  0.7704E-13  0.1259E-04  0.0000E+00  0.0000E+00  0.0000E+00  0.0000E+00  0.0000E+00
    -19.487  0.7368E-01  0.5305E-03  0.2461E-12  0.8327E-04  0.0000E+00  0.0000E+00  0.0000E+00  0.0000E+00  0.0000E+00
    -19.396  0.9101E-01  0.1436E-02  0.2653E-12  0.2280E-03  0.0000E+00  0.0000E+00  0.0000E+00  0.0000E+00  0.0000E+00
    -19.305  0.6436E-01  0.2311E-02  0.1875E-12  0.3742E-03  0.0000E+00  0.0000E+00  0.0000E+00  0.0000E+00  0.0000E+00
    -19.215  0.4637E-01  0.3012E-02  0.1468E-12  0.5016E-03  0.0000E+00  0.0000E+00  0.0000E+00  0.0000E+00  0.0000E+00
    -19.124  0.3720E-01  0.3654E-02  0.1373E-12  0.6314E-03  0.0000E+00  0.0000E+00  0.0000E+00  0.0000E+00  0.0000E+00
    -19.034  0.3113E-01  0.4318E-02  0.1786E-12  0.7826E-03  0.0000E+00  0.0000E+00  0.0000E+00  0.0000E+00  0.0000E+00
    -18.943  0.2651E-01  0.5082E-02  0.2442E-12  0.9816E-03  0.0000E+00  0.0000E+00  0.0000E+00  0.0000E+00  0.0000E+00
    -18.852  0.2285E-01  0.6228E-02  0.3670E-12  0.1329E-02  0.0000E+00  0.0000E+00  0.0000E+00  0.0000E+00  0.0000E+00
    -18.762  0.2187E-01  0.1022E-01  0.5097E-12  0.2723E-02  0.0000E+00  0.0000E+00  0.0000E+00  0.0000E+00  0.0000E+00
    -18.671  0.2781E-01  0.2311E-01  0.5422E-12  0.7788E-02  0.0000E+00  0.0000E+00  0.0000E+00  0.0000E+00  0.0000E+00
    -18.581  0.2747E-01  0.3382E-01  0.6003E-12  0.1435E-01  0.0000E+00  0.0000E+00  0.0000E+00  0.0000E+00  0.0000E+00
    -18.490  0.1285E-01  0.2703E-01  0.4472E-12  0.1533E-01  0.0000E+00  0.0000E+00  0.0000E+00  0.0000E+00  0.0000E+00
    -18.400  0.2674E-02  0.1057E-01  0.1536E-12  0.7286E-02  0.0000E+00  0.0000E+00  0.0000E+00  0.0000E+00  0.0000E+00
    -18.309  0.2126E-03  0.1398E-02  0.1798E-13  0.1061E-02  0.0000E+00  0.0000E+00  0.0000E+00  0.0000E+00  0.0000E+00
    -18.218  0.5070E-05  0.4864E-04  0.5696E-15  0.3891E-04  0.0000E+00  0.0000E+00  0.0000E+00  0.0000E+00  0.0000E+00
    -18.128  0.3070E-07  0.3928E-06  0.4298E-17  0.3248E-06  0.0000E+00  0.0000E+00  0.0000E+00  0.0000E+00  0.0000E+00
    -18.037  0.1697E-06  0.1067E-07  0.5767E-18  0.4053E-08  0.0000E+00  0.0000E+00  0.0000E+00  0.0000E+00  0.0000E+00
    -17.947  0.4430E-04  0.2618E-05  0.1511E-15  0.9221E-06  0.0000E+00  0.0000E+00  0.0000E+00  0.0000E+00  0.0000E+00
    -17.856  0.2549E-02  0.1518E-03  0.8922E-14  0.5459E-04  0.0000E+00  0.0000E+00  0.0000E+00  0.0000E+00  0.0000E+00
    -17.765  0.3476E-01  0.2102E-02  0.1267E-12  0.7850E-03  0.0000E+00  0.0000E+00  0.0000E+00  0.0000E+00  0.0000E+00
    -17.675  0.1270E+00  0.7944E-02  0.4911E-12  0.3203E-02  0.0000E+00  0.0000E+00  0.0000E+00  0.0000E+00  0.0000E+00
    -17.584  0.1586E+00  0.1075E-01  0.6643E-12  0.5129E-02  0.0000E+00  0.0000E+00  0.0000E+00  0.0000E+00  0.0000E+00
    -17.494  0.1197E+00  0.9241E-02  0.5869E-12  0.6500E-02  0.0000E+00  0.0000E+00  0.0000E+00  0.0000E+00  0.0000E+00
    -17.403  0.1165E+00  0.9156E-02  0.6558E-12  0.1145E-01  0.0000E+00  0.0000E+00  0.0000E+00  0.0000E+00  0.0000E+00
    -17.312  0.1229E+00  0.1019E-01  0.7255E-12  0.1571E-01  0.0000E+00  0.0000E+00  0.0000E+00  0.0000E+00  0.0000E+00
    -17.222  0.9844E-01  0.9960E-02  0.5585E-12  0.1442E-01  0.0000E+00  0.0000E+00  0.0000E+00  0.0000E+00  0.0000E+00
    -17.131  0.7489E-01  0.9382E-02  0.3541E-12  0.1287E-01  0.0000E+00  0.0000E+00  0.0000E+00  0.0000E+00  0.0000E+00
    -17.041  0.6236E-01  0.9424E-02  0.2258E-12  0.1251E-01  0.0000E+00  0.0000E+00  0.0000E+00  0.0000E+00  0.0000E+00
    -16.950  0.5418E-01  0.9742E-02  0.1498E-12  0.1256E-01  0.0000E+00  0.0000E+00  0.0000E+00  0.0000E+00  0.0000E+00
    -16.860  0.4780E-01  0.1016E-01  0.1354E-12  0.1280E-01  0.0000E+00  0.0000E+00  0.0000E+00  0.0000E+00  0.0000E+00
    -16.769  0.4246E-01  0.1064E-01  0.1612E-12  0.1321E-01  0.0000E+00  0.0000E+00  0.0000E+00  0.0000E+00  0.0000E+00
    -16.678  0.3778E-01  0.1118E-01  0.1754E-12  0.1380E-01  0.0000E+00  0.0000E+00  0.0000E+00  0.0000E+00  0.0000E+00
    -16.588  0.3352E-01  0.1180E-01  0.1273E-12  0.1465E-01  0.0000E+00  0.0000E+00  0.0000E+00  0.0000E+00  0.0000E+00
    -16.497  0.2950E-01  0.1257E-01  0.7270E-13  0.1595E-01  0.0000E+00  0.0000E+00  0.0000E+00  0.0000E+00  0.0000E+00
    -16.407  0.2552E-01  0.1375E-01  0.4248E-13  0.1853E-01  0.0000E+00  0.0000E+00  0.0000E+00  0.0000E+00  0.0000E+00
    -16.316  0.2126E-01  0.1699E-01  0.8172E-13  0.2734E-01  0.0000E+00  0.0000E+00  0.0000E+00  0.0000E+00  0.0000E+00
    -16.225  0.1653E-01  0.2354E-01  0.1645E-12  0.4610E-01  0.0000E+00  0.0000E+00  0.0000E+00  0.0000E+00  0.0000E+00
    -16.135  0.1252E-01  0.2444E-01  0.1249E-12  0.4789E-01  0.0000E+00  0.0000E+00  0.0000E+00  0.0000E+00  0.0000E+00
    -16.044  0.1015E-01  0.1977E-01  0.4979E-13  0.3285E-01  0.0000E+00  0.0000E+00  0.0000E+00  0.0000E+00  0.0000E+00
    -15.954  0.8442E-02  0.1762E-01  0.3673E-13  0.2524E-01  0.0000E+00  0.0000E+00  0.0000E+00  0.0000E+00  0.0000E+00
    -15.863  0.6817E-02  0.1732E-01  0.2798E-13  0.2299E-01  0.0000E+00  0.0000E+00  0.0000E+00  0.0000E+00  0.0000E+00
    -15.772  0.5187E-02  0.1809E-01  0.1021E-13  0.2320E-01  0.0000E+00  0.0000E+00  0.0000E+00  0.0000E+00  0.0000E+00
    -15.682  0.3499E-02  0.2093E-01  0.4928E-14  0.2699E-01  0.0000E+00  0.0000E+00  0.0000E+00  0.0000E+00  0.0000E+00
    -15.591  0.1755E-02  0.2271E-01  0.4415E-14  0.2970E-01  0.0000E+00  0.0000E+00  0.0000E+00  0.0000E+00  0.0000E+00
    -15.501  0.4712E-03  0.1264E-01  0.2704E-14  0.1634E-01  0.0000E+00  0.0000E+00  0.0000E+00  0.0000E+00  0.0000E+00
    -15.410  0.4804E-04  0.2263E-02  0.5369E-15  0.2844E-02  0.0000E+00  0.0000E+00  0.0000E+00  0.0000E+00  0.0000E+00
    -15.319  0.1455E-05  0.1049E-03  0.2690E-16  0.1273E-03  0.0000E+00  0.0000E+00  0.0000E+00  0.0000E+00  0.0000E+00
    -15.229  0.1121E-07  0.1127E-05  0.3054E-18  0.1316E-05  0.0000E+00  0.0000E+00  0.0000E+00  0.0000E+00  0.0000E+00
    -15.138  0.1996E-10  0.2628E-08  0.7395E-21  0.2948E-08  0.0000E+00  0.0000E+00  0.0000E+00  0.0000E+00  0.0000E+00
    -15.048  0.7769E-14  0.1279E-11  0.3688E-24  0.1377E-11  0.0000E+00  0.0000E+00  0.0000E+00  0.0000E+00  0.0000E+00
    -14.957  0.1852E-13  0.1650E-15  0.7499E-26  0.1480E-15  0.0000E+00  0.0000E+00  0.0000E+00  0.0000E+00  0.0000E+00
    -14.867  0.1199E-09  0.2741E-12  0.4753E-22  0.1259E-12  0.0000E+00  0.0000E+00  0.0000E+00  0.0000E+00  0.0000E+00
    -14.776  0.1592E-06  0.4166E-09  0.6157E-19  0.1963E-09  0.0000E+00  0.0000E+00  0.0000E+00  0.0000E+00  0.0000E+00
    -14.685  0.4446E-04  0.1394E-06  0.1660E-16  0.6749E-07  0.0000E+00  0.0000E+00  0.0000E+00  0.0000E+00  0.0000E+00
    -14.595  0.2729E-02  0.1097E-04  0.9676E-15  0.5463E-05  0.0000E+00  0.0000E+00  0.0000E+00  0.0000E+00  0.0000E+00
    -14.504  0.3953E-01  0.2268E-03  0.1304E-13  0.1160E-03  0.0000E+00  0.0000E+00  0.0000E+00  0.0000E+00  0.0000E+00
    -14.414  0.1523E+00  0.1482E-02  0.4654E-13  0.7717E-03  0.0000E+00  0.0000E+00  0.0000E+00  0.0000E+00  0.0000E+00
    -14.323  0.1970E+00  0.4091E-02  0.6417E-13  0.2128E-02  0.0000E+00  0.0000E+00  0.0000E+00  0.0000E+00  0.0000E+00
    -14.232  0.1422E+00  0.7005E-02  0.5612E-13  0.3544E-02  0.0000E+00  0.0000E+00  0.0000E+00  0.0000E+00  0.0000E+00
    -14.142  0.1031E+00  0.1025E-01  0.2459E-13  0.4920E-02  0.0000E+00  0.0000E+00  0.0000E+00  0.0000E+00  0.0000E+00
    -14.051  0.8618E-01  0.1702E-01  0.8986E-14  0.7123E-02  0.0000E+00  0.0000E+00  0.0000E+00  0.0000E+00  0.0000E+00
    -13.961  0.9750E-01  0.4549E-01  0.1392E-13  0.1637E-01  0.0000E+00  0.0000E+00  0.0000E+00  0.0000E+00  0.0000E+00
    -13.870  0.1221E+00  0.9749E-01  0.1904E-13  0.4900E-01  0.0000E+00  0.0000E+00  0.0000E+00  0.0000E+00  0.0000E+00
    -13.779  0.9732E-01  0.8319E-01  0.1970E-13  0.8089E-01  0.0000E+00  0.0000E+00  0.0000E+00  0.0000E+00  0.0000E+00
    -13.689  0.6731E-01  0.2732E-01  0.1288E-13  0.6887E-01  0.0000E+00  0.0000E+00  0.0000E+00  0.0000E+00  0.0000E+00
    -13.598  0.5723E-01  0.8958E-02  0.7999E-14  0.5151E-01  0.0000E+00  0.0000E+00  0.0000E+00  0.0000E+00  0.0000E+00
    -13.508  0.5325E-01  0.6741E-02  0.1031E-13  0.4455E-01  0.0000E+00  0.0000E+00  0.0000E+00  0.0000E+00  0.0000E+00
    -13.417  0.5106E-01  0.6278E-02  0.1127E-13  0.4120E-01  0.0000E+00  0.0000E+00  0.0000E+00  0.0000E+00  0.0000E+00
    -13.327  0.4989E-01  0.6165E-02  0.1148E-13  0.3901E-01  0.0000E+00  0.0000E+00  0.0000E+00  0.0000E+00  0.0000E+00
    -13.236  0.4941E-01  0.6264E-02  0.1379E-13  0.3729E-01  0.0000E+00  0.0000E+00  0.0000E+00  0.0000E+00  0.0000E+00
    -13.145  0.4948E-01  0.6548E-02  0.1211E-13  0.3585E-01  0.0000E+00  0.0000E+00  0.0000E+00  0.0000E+00  0.0000E+00
    -13.055  0.5017E-01  0.7046E-02  0.9424E-14  0.3465E-01  0.0000E+00  0.0000E+00  0.0000E+00  0.0000E+00  0.0000E+00
    -12.964  0.5245E-01  0.7935E-02  0.8432E-14  0.3392E-01  0.0000E+00  0.0000E+00  0.0000E+00  0.0000E+00  0.0000E+00
    -12.874  0.5882E-01  0.9504E-02  0.1220E-13  0.3440E-01  0.0000E+00  0.0000E+00  0.0000E+00  0.0000E+00  0.0000E+00
    -12.783  0.6649E-01  0.1068E-01  0.1455E-13  0.3698E-01  0.0000E+00  0.0000E+00  0.0000E+00  0.0000E+00  0.0000E+00
    -12.692  0.6983E-01  0.1059E-01  0.1932E-13  0.3959E-01  0.0000E+00  0.0000E+00  0.0000E+00  0.0000E+00  0.0000E+00
    -12.602  0.5277E-01  0.9245E-02  0.1595E-13  0.3059E-01  0.0000E+00  0.0000E+00  0.0000E+00  0.0000E+00  0.0000E+00
    -12.511  0.2973E-01  0.7781E-02  0.1166E-13  0.1833E-01  0.0000E+00  0.0000E+00  0.0000E+00  0.0000E+00  0.0000E+00
    -12.421  0.3555E-01  0.7473E-02  0.1132E-13  0.1563E-01  0.0000E+00  0.0000E+00  0.0000E+00  0.0000E+00  0.0000E+00
    -12.330  0.9514E-01  0.7749E-02  0.5812E-14  0.1622E-01  0.0000E+00  0.0000E+00  0.0000E+00  0.0000E+00  0.0000E+00
    -12.239  0.1534E+00  0.8507E-02  0.3375E-14  0.1728E-01  0.0000E+00  0.0000E+00  0.0000E+00  0.0000E+00  0.0000E+00
    -12.149  0.1944E+00  0.9815E-02  0.5748E-14  0.1871E-01  0.0000E+00  0.0000E+00  0.0000E+00  0.0000E+00  0.0000E+00
    -12.058  0.2567E+00  0.1220E-01  0.9079E-14  0.2077E-01  0.0000E+00  0.0000E+00  0.0000E+00  0.0000E+00  0.0000E+00
    -11.968  0.2223E+00  0.1526E-01  0.8175E-14  0.2379E-01  0.0000E+00  0.0000E+00  0.0000E+00  0.0000E+00  0.0000E+00
    -11.877  0.1659E+00  0.1848E-01  0.8885E-14  0.2903E-01  0.0000E+00  0.0000E+00  0.0000E+00  0.0000E+00  0.0000E+00
    -11.787  0.1357E+00  0.2299E-01  0.1000E-13  0.3972E-01  0.0000E+00  0.0000E+00  0.0000E+00  0.0000E+00  0.0000E+00
    -11.696  0.1162E+00  0.2511E-01  0.6791E-14  0.4420E-01  0.0000E+00  0.0000E+00  0.0000E+00  0.0000E+00  0.0000E+00
    -11.605  0.1024E+00  0.1836E-01  0.2415E-14  0.2212E-01  0.0000E+00  0.0000E+00  0.0000E+00  0.0000E+00  0.0000E+00
    -11.515  0.9315E-01  0.1341E-01  0.6435E-15  0.5091E-02  0.0000E+00  0.0000E+00  0.0000E+00  0.0000E+00  0.0000E+00
    -11.424  0.8638E-01  0.1329E-01  0.5485E-15  0.2567E-02  0.0000E+00  0.0000E+00  0.0000E+00  0.0000E+00  0.0000E+00
    -11.334  0.8086E-01  0.1399E-01  0.8290E-15  0.2626E-02  0.0000E+00  0.0000E+00  0.0000E+00  0.0000E+00  0.0000E+00
    -11.243  0.7622E-01  0.1466E-01  0.7914E-15  0.2771E-02  0.0000E+00  0.0000E+00  0.0000E+00  0.0000E+00  0.0000E+00
    -11.152  0.7226E-01  0.1531E-01  0.6950E-15  0.2919E-02  0.0000E+00  0.0000E+00  0.0000E+00  0.0000E+00  0.0000E+00
    -11.062  0.6883E-01  0.1654E-01  0.2037E-14  0.3625E-02  0.0000E+00  0.0000E+00  0.0000E+00  0.0000E+00  0.0000E+00
    -10.971  0.6588E-01  0.2541E-01  0.1208E-13  0.1132E-01  0.0000E+00  0.0000E+00  0.0000E+00  0.0000E+00  0.0000E+00
    -10.881  0.6348E-01  0.5128E-01  0.3494E-13  0.3357E-01  0.0000E+00  0.0000E+00  0.0000E+00  0.0000E+00  0.0000E+00
    -10.790  0.6160E-01  0.6333E-01  0.4142E-13  0.4139E-01  0.0000E+00  0.0000E+00  0.0000E+00  0.0000E+00  0.0000E+00
    -10.699  0.5991E-01  0.5431E-01  0.3978E-13  0.3084E-01  0.0000E+00  0.0000E+00  0.0000E+00  0.0000E+00  0.0000E+00
    -10.609  0.5832E-01  0.4785E-01  0.4004E-13  0.2409E-01  0.0000E+00  0.0000E+00  0.0000E+00  0.0000E+00  0.0000E+00
    -10.518  0.5692E-01  0.4505E-01  0.3630E-13  0.2110E-01  0.0000E+00  0.0000E+00  0.0000E+00  0.0000E+00  0.0000E+00
    -10.428  0.5579E-01  0.4359E-01  0.3346E-13  0.1941E-01  0.0000E+00  0.0000E+00  0.0000E+00  0.0000E+00  0.0000E+00
    -10.337  0.5504E-01  0.4287E-01  0.3284E-13  0.1836E-01  0.0000E+00  0.0000E+00  0.0000E+00  0.0000E+00  0.0000E+00
    -10.247  0.5492E-01  0.4289E-01  0.2544E-13  0.1772E-01  0.0000E+00  0.0000E+00  0.0000E+00  0.0000E+00  0.0000E+00
    -10.156  0.5633E-01  0.4443E-01  0.1939E-13  0.1751E-01  0.0000E+00  0.0000E+00  0.0000E+00  0.0000E+00  0.0000E+00
    -10.065  0.6557E-01  0.4815E-01  0.2705E-13  0.1829E-01  0.0000E+00  0.0000E+00  0.0000E+00  0.0000E+00  0.0000E+00
     -9.975  0.1025E+00  0.4872E-01  0.3948E-13  0.2301E-01  0.0000E+00  0.0000E+00  0.0000E+00  0.0000E+00  0.0000E+00
     -9.884  0.1338E+00  0.4323E-01  0.5228E-13  0.3043E-01  0.0000E+00  0.0000E+00  0.0000E+00  0.0000E+00  0.0000E+00
     -9.794  0.1041E+00  0.3310E-01  0.4129E-13  0.2646E-01  0.0000E+00  0.0000E+00  0.0000E+00  0.0000E+00  0.0000E+00
     -9.703  0.7917E-01  0.2623E-01  0.2167E-13  0.1877E-01  0.0000E+00  0.0000E+00  0.0000E+00  0.0000E+00  0.0000E+00
     -9.612  0.7534E-01  0.2552E-01  0.1604E-13  0.1752E-01  0.0000E+00  0.0000E+00  0.0000E+00  0.0000E+00  0.0000E+00
     -9.522  0.6883E-01  0.2633E-01  0.2254E-13  0.1687E-01  0.0000E+00  0.0000E+00  0.0000E+00  0.0000E+00  0.0000E+00
     -9.431  0.6128E-01  0.2684E-01  0.4097E-13  0.1609E-01  0.0000E+00  0.0000E+00  0.0000E+00  0.0000E+00  0.0000E+00
     -9.341  0.5635E-01  0.2725E-01  0.4555E-13  0.1584E-01  0.0000E+00  0.0000E+00  0.0000E+00  0.0000E+00  0.0000E+00
     -9.250  0.5282E-01  0.2775E-01  0.3956E-13  0.1590E-01  0.0000E+00  0.0000E+00  0.0000E+00  0.0000E+00  0.0000E+00
     -9.159  0.5006E-01  0.3039E-01  0.3136E-13  0.1684E-01  0.0000E+00  0.0000E+00  0.0000E+00  0.0000E+00  0.0000E+00
     -9.069  0.4816E-01  0.5352E-01  0.8894E-11  0.2473E-01  0.0000E+00  0.0000E+00  0.0000E+00  0.0000E+00  0.0000E+00
     -8.978  0.4735E-01  0.1100E+00  0.1616E-07  0.4395E-01  0.0000E+00  0.0000E+00  0.0000E+00  0.0000E+00  0.0000E+00
     -8.888  0.4477E-01  0.1167E+00  0.6170E-05  0.4684E-01  0.0000E+00  0.0000E+00  0.0000E+00  0.0000E+00  0.0000E+00
     -8.797  0.3995E-01  0.7310E-01  0.5121E-03  0.3295E-01  0.0000E+00  0.0000E+00  0.0000E+00  0.0000E+00  0.0000E+00
     -8.706  0.3754E-01  0.5159E-01  0.9861E-02  0.2640E-01  0.0000E+00  0.0000E+00  0.0000E+00  0.0000E+00  0.0000E+00
     -8.616  0.3730E-01  0.4644E-01  0.4906E-01  0.2535E-01  0.0000E+00  0.0000E+00  0.0000E+00  0.0000E+00  0.0000E+00
     -8.525  0.4121E-01  0.4819E-01  0.7711E-01  0.2673E-01  0.0000E+00  0.0000E+00  0.0000E+00  0.0000E+00  0.0000E+00
     -8.435  0.5459E-01  0.6159E-01  0.5990E-01  0.3220E-01  0.0000E+00  0.0000E+00  0.0000E+00  0.0000E+00  0.0000E+00
     -8.344  0.6478E-01  0.6940E-01  0.4322E-01  0.3611E-01  0.0000E+00  0.0000E+00  0.0000E+00  0.0000E+00  0.0000E+00
     -8.254  0.7195E-01  0.6357E-01  0.3531E-01  0.3570E-01  0.0000E+00  0.0000E+00  0.0000E+00  0.0000E+00  0.0000E+00
     -8.163  0.8980E-01  0.6100E-01  0.3061E-01  0.3549E-01  0.0000E+00  0.0000E+00  0.0000E+00  0.0000E+00  0.0000E+00
     -8.072  0.9733E-01  0.8089E-01  0.2728E-01  0.4633E-01  0.0000E+00  0.0000E+00  0.0000E+00  0.0000E+00  0.0000E+00
     -7.982  0.6979E-01  0.1358E+00  0.2472E-01  0.7156E-01  0.0000E+00  0.0000E+00  0.0000E+00  0.0000E+00  0.0000E+00
     -7.891  0.5154E-01  0.2597E+00  0.2265E-01  0.1078E+00  0.0000E+00  0.0000E+00  0.0000E+00  0.0000E+00  0.0000E+00
     -7.801  0.1266E+00  0.3215E+00  0.2089E-01  0.1177E+00  0.0000E+00  0.0000E+00  0.0000E+00  0.0000E+00  0.0000E+00
     -7.710  0.2247E+00  0.1626E+00  0.1935E-01  0.5647E-01  0.0000E+00  0.0000E+00  0.0000E+00  0.0000E+00  0.0000E+00
     -7.619  0.1566E+00  0.8158E-01  0.1796E-01  0.2785E-01  0.0000E+00  0.0000E+00  0.0000E+00  0.0000E+00  0.0000E+00
     -7.529  0.6827E-01  0.9560E-01  0.1666E-01  0.3282E-01  0.0000E+00  0.0000E+00  0.0000E+00  0.0000E+00  0.0000E+00
     -7.438  0.4032E-01  0.1026E+00  0.1556E-01  0.2696E-01  0.0000E+00  0.0000E+00  0.0000E+00  0.0000E+00  0.0000E+00
     -7.348  0.3142E-01  0.9231E-01  0.1689E-01  0.1467E-01  0.0000E+00  0.0000E+00  0.0000E+00  0.0000E+00  0.0000E+00
     -7.257  0.2562E-01  0.8942E-01  0.2714E-01  0.1133E-01  0.0000E+00  0.0000E+00  0.0000E+00  0.0000E+00  0.0000E+00
     -7.166  0.2102E-01  0.9056E-01  0.3382E-01  0.1171E-01  0.0000E+00  0.0000E+00  0.0000E+00  0.0000E+00  0.0000E+00
     -7.076  0.1730E-01  0.9422E-01  0.2420E-01  0.1728E-01  0.0000E+00  0.0000E+00  0.0000E+00  0.0000E+00  0.0000E+00
     -6.985  0.1447E-01  0.1018E+00  0.2065E-01  0.4758E-01  0.0000E+00  0.0000E+00  0.0000E+00  0.0000E+00  0.0000E+00
     -6.895  0.1550E-01  0.1128E+00  0.5870E-01  0.1320E+00  0.0000E+00  0.0000E+00  0.0000E+00  0.0000E+00  0.0000E+00
     -6.804  0.2143E-01  0.1401E+00  0.1176E+00  0.2325E+00  0.0000E+00  0.0000E+00  0.0000E+00  0.0000E+00  0.0000E+00
     -6.714  0.2535E-01  0.2054E+00  0.1067E+00  0.3185E+00  0.0000E+00  0.0000E+00  0.0000E+00  0.0000E+00  0.0000E+00
     -6.623  0.2308E-01  0.2829E+00  0.7634E-01  0.4531E+00  0.0000E+00  0.0000E+00  0.0000E+00  0.0000E+00  0.0000E+00