    8    8    1    1
  0.4330982E+02  0.5164732E-09  0.5164732E-09  0.1500000E-08  0.5000000E-15
  1.000000000000000E-004
  CAR 
 BC3                                     
     30    192     24
 
  0.3330000E+00  0.3330000E+00  0.0000000E+00  0.5208333E-02
    1      -18.502163   1.000000
    2      -17.331178   1.000000
    3      -17.329271   1.000000
    4      -12.863993   1.000000
    5      -12.855989   1.000000
    6      -10.911000   1.000000
    7       -8.196029   1.000000
    8       -8.191415   1.000000
    9       -8.060163   1.000000
   10       -7.537398   1.000000
   11       -6.915893   1.000000
   12       -6.685967   1.000000
   13       -6.680662   1.000000
   14       -6.365975   1.000000
   15       -6.362664   1.000000
   16       -1.606273   0.000000
   17       -1.596183   0.000000
   18        3.274659   0.000000
   19        3.279273   0.000000
   20        3.317669   0.000000
   21        3.433478   0.000000
   22        4.026994   0.000000
   23        4.031824   0.000000
   24        4.127482   0.000000
 
  0.3277143E+00  0.3277143E+00  0.0000000E+00  0.5208333E-02
    1      -18.503118   1.000000
    2      -17.352961   1.000000
    3      -17.305415   1.000000
    4      -12.905709   1.000000
    5      -12.816456   1.000000
    6      -10.907903   1.000000
    7       -8.245032   1.000000
    8       -8.176665   1.000000
    9       -8.031416   1.000000
   10       -7.537701   1.000000
   11       -6.919507   1.000000
   12       -6.721284   1.000000
   13       -6.640021   1.000000
   14       -6.393363   1.000000
   15       -6.330222   1.000000
   16       -1.668399   0.000000
   17       -1.534381   0.000000
   18        3.206825   0.000000
   19        3.318786   0.000000
   20        3.348024   0.000000
   21        3.428785   0.000000
   22        3.968143   0.000000
   23        4.076245   0.000000
   24        4.143153   0.000000
 
  0.3224286E+00  0.3224286E+00  0.0000000E+00  0.5208333E-02
    1      -18.505883   1.000000
    2      -17.371602   1.000000
    3      -17.280890   1.000000
    4      -12.946879   1.000000
    5      -12.781538   1.000000
    6      -10.899160   1.000000
    7       -8.300379   1.000000
    8       -8.202222   1.000000
    9       -7.965874   1.000000
   10       -7.537899   1.000000
   11       -6.930271   1.000000
   12       -6.753205   1.000000
   13       -6.593909   1.000000
   14       -6.411977   1.000000
   15       -6.296883   1.000000
   16       -1.729623   0.000000
   17       -1.474049   0.000000
   18        3.132536   0.000000
   19        3.359495   0.000000
   20        3.387240   0.000000
   21        3.416214   0.000000
   22        3.899830   0.000000
   23        4.122379   0.000000
   24        4.167898   0.000000
 
  0.3171429E+00  0.3171429E+00  0.0000000E+00  0.5208333E-02
    1      -18.510576   1.000000
    2      -17.386957   1.000000
    3      -17.255702   1.000000
    4      -12.987479   1.000000
    5      -12.751468   1.000000
    6      -10.884583   1.000000
    7       -8.361353   1.000000
    8       -8.242431   1.000000
    9       -7.889217   1.000000
   10       -7.537487   1.000000
   11       -6.948526   1.000000
   12       -6.781580   1.000000
   13       -6.543348   1.000000
   14       -6.421433   1.000000
   15       -6.262621   1.000000
   16       -1.789942   0.000000
   17       -1.415217   0.000000
   18        3.058717   0.000000
   19        3.396881   0.000000
   20        3.401404   0.000000
   21        3.428399   0.000000
   22        3.829852   0.000000
   23        4.169884   0.000000
   24        4.193005   0.000000
 
  0.3118571E+00  0.3118571E+00  0.0000000E+00  0.5208333E-02
    1      -18.517290   1.000000
    2      -17.398924   1.000000
    3      -17.229862   1.000000
    4      -13.027476   1.000000
    5      -12.726382   1.000000
    6      -10.864069   1.000000
    7       -8.427234   1.000000
    8       -8.289726   1.000000
    9       -7.809110   1.000000
   10       -7.536282   1.000000
   11       -6.973904   1.000000
   12       -6.806368   1.000000
   13       -6.489345   1.000000
   14       -6.422115   1.000000
   15       -6.227457   1.000000
   16       -1.849254   0.000000
   17       -1.357922   0.000000
   18        2.985887   0.000000
   19        3.371354   0.000000
   20        3.444511   0.000000
   21        3.470978   0.000000
   22        3.759829   0.000000
   23        4.215729   0.000000
   24        4.218993   0.000000
 
  0.3065714E+00  0.3065714E+00  0.0000000E+00  0.5208333E-02
    1      -18.526071   1.000000
    2      -17.407436   1.000000
    3      -17.203376   1.000000
    4      -13.066851   1.000000
    5      -12.706320   1.000000
    6      -10.837648   1.000000
    7       -8.497307   1.000000
    8       -8.342068   1.000000
    9       -7.727550   1.000000
   10       -7.534146   1.000000
   11       -7.005409   1.000000
   12       -6.827531   1.000000
   13       -6.432553   1.000000
   14       -6.414994   1.000000
   15       -6.191400   1.000000
   16       -1.907571   0.000000
   17       -1.302228   0.000000
   18        2.914172   0.000000
   19        3.340432   0.000000
   20        3.488818   0.000000
   21        3.514859   0.000000
   22        3.690276   0.000000
   23        4.234329   0.000000
   24        4.310421   0.000000
 
  0.3012857E+00  0.3012857E+00  0.0000000E+00  0.5208333E-02
    1      -18.536928   1.000000
    2      -17.412475   1.000000
    3      -17.176259   1.000000
    4      -13.105586   1.000000
    5      -12.691212   1.000000
    6      -10.805450   1.000000
    7       -8.570933   1.000000
    8       -8.398617   1.000000
    9       -7.645347   1.000000
   10       -7.531086   1.000000
   11       -7.041782   1.000000
   12       -6.845095   1.000000
   13       -6.401359   1.000000
   14       -6.373590   1.000000
   15       -6.154487   1.000000
   16       -1.964924   0.000000
   17       -1.248205   0.000000
   18        2.843615   0.000000
   19        3.303745   0.000000
   20        3.534317   0.000000
   21        3.559985   0.000000
   22        3.621376   0.000000
   23        4.242855   0.000000
   24        4.284581   0.000000
 
  0.2960000E+00  0.2960000E+00  0.0000000E+00  0.5208333E-02
    1      -18.549825   1.000000
    2      -17.414065   1.000000
    3      -17.148519   1.000000
    4      -13.143664   1.000000
    5      -12.680902   1.000000
    6      -10.767690   1.000000
    7       -8.647584   1.000000
    8       -8.458928   1.000000
    9       -7.562976   1.000000
   10       -7.527144   1.000000
   11       -7.081798   1.000000
   12       -6.859042   1.000000
   13       -6.382410   1.000000
   14       -6.312955   1.000000
   15       -6.116692   1.000000
   16       -2.021230   0.000000
   17       -1.195840   0.000000
   18        2.774236   0.000000
   19        3.263043   0.000000
   20        3.553273   0.000000
   21        3.581014   0.000000
   22        3.606338   0.000000
   23        4.213868   0.000000
   24        4.244424   0.000000
 
  0.2907143E+00  0.2907143E+00  0.0000000E+00  0.5208333E-02
    1      -18.564683   1.000000
    2      -17.412270   1.000000
    3      -17.120166   1.000000
    4      -13.181068   1.000000
    5      -12.675135   1.000000
    6      -10.724702   1.000000
    7       -8.726676   1.000000
    8       -8.522567   1.000000
    9       -7.522369   1.000000
   10       -7.480787   1.000000
   11       -7.124411   1.000000
   12       -6.869353   1.000000
   13       -6.359204   1.000000
   14       -6.250975   1.000000
   15       -6.078071   1.000000
   16       -2.076576   0.000000
   17       -1.145295   0.000000
   18        2.706050   0.000000
   19        3.217778   0.000000
   20        3.485984   0.000000
   21        3.628909   0.000000
   22        3.653906   0.000000
   23        4.144553   0.000000
   24        4.228771   0.000000
 
  0.2854286E+00  0.2854286E+00  0.0000000E+00  0.5208333E-02
    1      -18.581391   1.000000
    2      -17.407196   1.000000
    3      -17.091216   1.000000
    4      -13.217773   1.000000
    5      -12.673606   1.000000
    6      -10.676856   1.000000
    7       -8.807794   1.000000
    8       -8.589216   1.000000
    9       -7.516837   1.000000
   10       -7.399279   1.000000
   11       -7.168773   1.000000
   12       -6.875801   1.000000
   13       -6.332591   1.000000
   14       -6.187972   1.000000
   15       -6.038615   1.000000
   16       -2.130764   0.000000
   17       -1.096480   0.000000
   18        2.639064   0.000000
   19        3.168805   0.000000
   20        3.419602   0.000000
   21        3.677994   0.000000
   22        3.702665   0.000000
   23        4.076525   0.000000
   24        4.202323   0.000000
 
  0.2801429E+00  0.2801429E+00  0.0000000E+00  0.5208333E-02
    1      -18.599813   1.000000
    2      -17.398976   1.000000
    3      -17.061679   1.000000
    4      -13.253768   1.000000
    5      -12.675961   1.000000
    6      -10.624617   1.000000
    7       -8.890548   1.000000
    8       -8.658589   1.000000
    9       -7.510612   1.000000
   10       -7.319212   1.000000
   11       -7.214293   1.000000
   12       -6.878035   1.000000
   13       -6.303171   1.000000
   14       -6.124249   1.000000
   15       -5.998354   1.000000
   16       -2.183873   0.000000
   17       -1.049461   0.000000
   18        2.573278   0.000000
   19        3.116134   0.000000
   20        3.354100   0.000000
   21        3.728277   0.000000
   22        3.752581   0.000000
   23        4.009795   0.000000
   24        4.163990   0.000000
 
  0.2748571E+00  0.2748571E+00  0.0000000E+00  0.5208333E-02
    1      -18.619788   1.000000
    2      -17.387762   1.000000
    3      -17.031569   1.000000
    4      -13.289034   1.000000
    5      -12.681834   1.000000
    6      -10.568475   1.000000
    7       -8.974555   1.000000
    8       -8.730374   1.000000
    9       -7.503736   1.000000
   10       -7.260494   1.000000
   11       -7.241708   1.000000
   12       -6.875116   1.000000
   13       -6.271430   1.000000
   14       -6.059959   1.000000
   15       -5.957309   1.000000
   16       -2.235899   0.000000
   17       -1.004297   0.000000
   18        2.508698   0.000000
   19        3.060165   0.000000
   20        3.289498   0.000000
   21        3.779754   0.000000
   22        3.803508   0.000000
   23        3.944505   0.000000
   24        4.116106   0.000000
 
  0.2695714E+00  0.2695714E+00  0.0000000E+00  0.5208333E-02
    1      -18.641146   1.000000
    2      -17.373724   1.000000
    3      -17.000902   1.000000
    4      -13.323558   1.000000
    5      -12.690846   1.000000
    6      -10.508945   1.000000
    7       -9.059447   1.000000
    8       -8.804316   1.000000
    9       -7.496265   1.000000
   10       -7.307015   1.000000
   11       -7.168901   1.000000
   12       -6.865242   1.000000
   13       -6.237722   1.000000
   14       -5.995346   1.000000
   15       -5.915499   1.000000
   16       -2.286795   0.000000
   17       -0.960978   0.000000
   18        2.445326   0.000000
   19        3.001177   0.000000
   20        3.225817   0.000000
   21        3.832424   0.000000
   22        3.852953   0.000000
   23        3.883149   0.000000
   24        4.061159   0.000000
 
  0.2642857E+00  0.2642857E+00  0.0000000E+00  0.5208333E-02
    1      -18.663711   1.000000
    2      -17.357032   1.000000
    3      -16.969689   1.000000
    4      -13.357322   1.000000
    5      -12.702632   1.000000
    6      -10.446584   1.000000
    7       -9.144871   1.000000
    8       -8.880156   1.000000
    9       -7.488239   1.000000
   10       -7.353589   1.000000
   11       -7.104178   1.000000
   12       -6.845245   1.000000
   13       -6.202284   1.000000
   14       -5.930530   1.000000
   15       -5.872917   1.000000
   16       -2.336542   0.000000
   17       -0.919529   0.000000
   18        2.383165   0.000000
   19        2.939311   0.000000
   20        3.163054   0.000000
   21        3.815291   0.000000
   22        3.886287   0.000000
   23        3.911348   0.000000
   24        4.000931   0.000000
 
  0.2590000E+00  0.2590000E+00  0.0000000E+00  0.5208333E-02
    1      -18.687309   1.000000
    2      -17.337860   1.000000
    3      -16.937954   1.000000
    4      -13.390313   1.000000
    5      -12.716847   1.000000
    6      -10.382013   1.000000
    7       -9.230388   1.000000
    8       -8.957654   1.000000
    9       -7.479689   1.000000
   10       -7.400017   1.000000
   11       -7.051870   1.000000
   12       -6.811026   1.000000
   13       -6.165395   1.000000
   14       -5.865641   1.000000
   15       -5.829644   1.000000
   16       -2.385122   0.000000
   17       -0.879927   0.000000
   18        2.322217   0.000000
   19        2.874871   0.000000
   20        3.101209   0.000000
   21        3.753986   0.000000
   22        3.936741   0.000000
   23        3.941341   0.000000
   24        3.965636   0.000000
 
  0.2537143E+00  0.2537143E+00  0.0000000E+00  0.5208333E-02
    1      -18.711771   1.000000
    2      -17.316379   1.000000
    3      -16.905710   1.000000
    4      -13.422514   1.000000
    5      -12.733174   1.000000
    6      -10.315987   1.000000
    7       -9.315505   1.000000
    8       -9.036596   1.000000
    9       -7.470651   1.000000
   10       -7.446147   1.000000
   11       -7.014173   1.000000
   12       -6.760633   1.000000
   13       -6.127189   1.000000
   14       -5.800804   1.000000
   15       -5.785672   1.000000
   16       -2.432503   0.000000
   17       -0.842340   0.000000
   18        2.262481   0.000000
   19        2.807985   0.000000
   20        3.040271   0.000000
   21        3.693522   0.000000
   22        3.869602   0.000000
   23        3.997589   0.000000
   24        4.021525   0.000000
 
  0.2484286E+00  0.2484286E+00  0.0000000E+00  0.5208333E-02
    1      -18.736939   1.000000
    2      -17.292750   1.000000
    3      -16.872981   1.000000
    4      -13.453910   1.000000
    5      -12.751317   1.000000
    6      -10.249431   1.000000
    7       -9.399460   1.000000
    8       -9.116769   1.000000
    9       -7.491850   1.000000
   10       -7.461138   1.000000
   11       -6.988594   1.000000
   12       -6.696710   1.000000
   13       -6.087812   1.000000
   14       -5.741040   1.000000
   15       -5.736121   1.000000
   16       -2.478625   0.000000
   17       -0.806521   0.000000
   18        2.203960   0.000000
   19        2.738821   0.000000
   20        2.980228   0.000000
   21        3.634216   0.000000
   22        3.800225   0.000000
   23        4.055023   0.000000
   24        4.078694   0.000000
 
  0.2431429E+00  0.2431429E+00  0.0000000E+00  0.5208333E-02
    1      -18.762662   1.000000
    2      -17.267123   1.000000
    3      -16.839784   1.000000
    4      -13.484492   1.000000
    5      -12.771027   1.000000
    6      -10.183817   1.000000
    7       -9.480978   1.000000
    8       -9.197998   1.000000
    9       -7.537036   1.000000
   10       -7.451182   1.000000
   11       -6.970605   1.000000
   12       -6.624028   1.000000
   13       -6.047359   1.000000
   14       -5.695816   1.000000
   15       -5.671724   1.000000
   16       -2.523698   0.000000
   17       -0.772676   0.000000
   18        2.146655   0.000000
   19        2.667521   0.000000
   20        2.921062   0.000000
   21        3.576123   0.000000
   22        3.729158   0.000000
   23        4.113647   0.000000
   24        4.137089   0.000000
 
  0.2378571E+00  0.2378571E+00  0.0000000E+00  0.5208333E-02
    1      -18.788801   1.000000
    2      -17.239636   1.000000
    3      -16.806140   1.000000
    4      -13.514230   1.000000
    5      -12.792054   1.000000
    6      -10.121665   1.000000
    7       -9.557692   1.000000
    8       -9.280093   1.000000
    9       -7.581619   1.000000
   10       -7.440749   1.000000
   11       -6.956679   1.000000
   12       -6.546182   1.000000
   13       -6.005921   1.000000
   14       -5.649962   1.000000
   15       -5.607588   1.000000
   16       -2.567340   0.000000
   17       -0.740621   0.000000
   18        2.090570   0.000000
   19        2.594305   0.000000
   20        2.862760   0.000000
   21        3.519262   0.000000
   22        3.656853   0.000000
   23        4.173461   0.000000
   24        4.196692   0.000000
 
  0.2325714E+00  0.2325714E+00  0.0000000E+00  0.5208333E-02
    1      -18.815236   1.000000
    2      -17.210424   1.000000
    3      -16.772073   1.000000
    4      -13.543114   1.000000
    5      -12.814200   1.000000
    6      -10.068148   1.000000
    7       -9.624650   1.000000
    8       -9.362943   1.000000
    9       -7.625548   1.000000
   10       -7.429868   1.000000
   11       -6.944871   1.000000
   12       -6.465452   1.000000
   13       -5.963581   1.000000
   14       -5.603557   1.000000
   15       -5.543885   1.000000
   16       -2.609654   0.000000
   17       -0.710462   0.000000
   18        2.035702   0.000000
   19        2.519214   0.000000
   20        2.805278   0.000000
   21        3.463637   0.000000
   22        3.583615   0.000000
   23        4.234462   0.000000
   24        4.257488   0.000000
 
  0.2272857E+00  0.2272857E+00  0.0000000E+00  0.5208333E-02
    1      -18.841850   1.000000
    2      -17.179604   1.000000
    3      -16.737608   1.000000
    4      -13.571131   1.000000
    5      -12.837289   1.000000
    6      -10.033808   1.000000
    7       -9.671412   1.000000
    8       -9.446369   1.000000
    9       -7.668764   1.000000
   10       -7.418571   1.000000
   11       -6.934061   1.000000
   12       -6.383051   1.000000
   13       -5.920412   1.000000
   14       -5.556640   1.000000
   15       -5.480700   1.000000
   16       -2.650627   0.000000
   17       -0.682166   0.000000
   18        1.982054   0.000000
   19        2.442390   0.000000
   20        2.748597   0.000000
   21        3.409253   0.000000
   22        3.509748   0.000000
   23        4.296644   0.000000
   24        4.319473   0.000000
 
  0.2220000E+00  0.2220000E+00  0.0000000E+00  0.5208333E-02
    1      -18.868542   1.000000
    2      -17.147287   1.000000
    3      -16.702773   1.000000
    4      -13.598264   1.000000
    5      -12.861159   1.000000
    6      -10.033680   1.000000
    7       -9.683111   1.000000
    8       -9.530240   1.000000
    9       -7.711226   1.000000
   10       -7.406798   1.000000
   11       -6.923692   1.000000
   12       -6.299630   1.000000
   13       -5.876459   1.000000
   14       -5.509264   1.000000
   15       -5.418048   1.000000
   16       -2.690232   0.000000
   17       -0.655709   0.000000
   18        1.929625   0.000000
   19        2.364059   0.000000
   20        2.692689   0.000000
   21        3.356112   0.000000
   22        3.435554   0.000000
   23        4.360009   0.000000
   24        4.382641   0.000000
 
  0.2167143E+00  0.2167143E+00  0.0000000E+00  0.5208333E-02
    1      -18.895221   1.000000
    2      -17.113573   1.000000
    3      -16.667595   1.000000
    4      -13.624492   1.000000
    5      -12.885679   1.000000
    6      -10.071111   1.000000
    7       -9.656542   1.000000
    8       -9.614454   1.000000
    9       -7.752902   1.000000
   10       -7.394581   1.000000
   11       -6.913476   1.000000
   12       -6.215674   1.000000
   13       -5.831813   1.000000
   14       -5.461469   1.000000
   15       -5.356024   1.000000
   16       -2.728391   0.000000
   17       -0.631091   0.000000
   18        1.878417   0.000000
   19        2.284153   0.000000
   20        2.637487   0.000000
   21        3.304215   0.000000
   22        3.361200   0.000000
   23        4.424553   0.000000
   24        4.446982   0.000000
 
  0.2114286E+00  0.2114286E+00  0.0000000E+00  0.5208333E-02
    1      -18.921801   1.000000
    2      -17.078555   1.000000
    3      -16.632104   1.000000
    4      -13.649803   1.000000
    5      -12.910734   1.000000
    6      -10.132716   1.000000
    7       -9.698869   1.000000
    8       -9.605212   1.000000
    9       -7.793750   1.000000
   10       -7.381849   1.000000
   11       -6.903217   1.000000
   12       -6.131350   1.000000
   13       -5.786514   1.000000
   14       -5.413302   1.000000
   15       -5.294629   1.000000
   16       -2.765077   0.000000
   17       -0.608328   0.000000
   18        1.828433   0.000000
   19        2.203005   0.000000
   20        2.582967   0.000000
   21        3.253565   0.000000
   22        3.286961   0.000000
   23        4.490278   0.000000
   24        4.512495   0.000000
 
  0.2061429E+00  0.2061429E+00  0.0000000E+00  0.5208333E-02
    1      -18.948218   1.000000
    2      -17.042320   1.000000
    3      -16.596334   1.000000
    4      -13.674173   1.000000
    5      -12.936218   1.000000
    6      -10.206166   1.000000
    7       -9.783413   1.000000
    8       -9.541571   1.000000
    9       -7.833777   1.000000
   10       -7.368664   1.000000
   11       -6.892904   1.000000
   12       -6.047139   1.000000
   13       -5.740613   1.000000
   14       -5.364854   1.000000
   15       -5.234023   1.000000
   16       -2.800255   0.000000
   17       -0.587320   0.000000
   18        1.779668   0.000000
   19        2.120461   0.000000
   20        2.529024   0.000000
   21        3.204159   0.000000
   22        3.213018   0.000000
   23        4.557178   0.000000
   24        4.579167   0.000000
 
  0.2008571E+00  0.2008571E+00  0.0000000E+00  0.5208333E-02
    1      -18.974398   1.000000
    2      -17.004945   1.000000
    3      -16.560319   1.000000
    4      -13.697585   1.000000
    5      -12.962049   1.000000
    6      -10.285226   1.000000
    7       -9.867957   1.000000
    8       -9.471930   1.000000
    9       -7.872920   1.000000
   10       -7.354958   1.000000
   11       -6.882430   1.000000
   12       -5.963061   1.000000
   13       -5.694172   1.000000
   14       -5.316176   1.000000
   15       -5.174227   1.000000
   16       -2.833856   0.000000
   17       -0.568040   0.000000
   18        1.732130   0.000000
   19        2.036907   0.000000
   20        2.475650   0.000000
   21        3.139635   0.000000
   22        3.156000   0.000000
   23        4.625255   0.000000
   24        4.646993   0.000000
 
  0.1955714E+00  0.1955714E+00  0.0000000E+00  0.5208333E-02
    1      -19.000286   1.000000
    2      -16.966506   1.000000
    3      -16.524097   1.000000
    4      -13.720020   1.000000
    5      -12.988151   1.000000
    6      -10.366996   1.000000
    7       -9.952429   1.000000
    8       -9.399359   1.000000
    9       -7.911174   1.000000
   10       -7.340713   1.000000
   11       -6.871827   1.000000
   12       -5.879258   1.000000
   13       -5.647230   1.000000
   14       -5.267340   1.000000
   15       -5.115269   1.000000
   16       -2.865825   0.000000
   17       -0.550496   0.000000
   18        1.685813   0.000000
   19        1.952351   0.000000
   20        2.422752   0.000000
   21        3.067026   0.000000
   22        3.109087   0.000000
   23        4.694501   0.000000
   24        4.715959   0.000000
 
  0.1902857E+00  0.1902857E+00  0.0000000E+00  0.5208333E-02
    1      -19.025827   1.000000
    2      -16.927071   1.000000
    3      -16.487706   1.000000
    4      -13.741458   1.000000
    5      -13.014467   1.000000
    6      -10.450026   1.000000
    7      -10.036725   1.000000
    8       -9.325389   1.000000
    9       -7.948528   1.000000
   10       -7.325901   1.000000
   11       -6.861079   1.000000
   12       -5.795781   1.000000
   13       -5.599847   1.000000
   14       -5.218432   1.000000
   15       -5.057105   1.000000
   16       -2.896092   0.000000
   17       -0.534745   0.000000
   18        1.640720   0.000000
   19        1.866896   0.000000
   20        2.370252   0.000000
   21        2.995398   0.000000
   22        3.063421   0.000000
   23        4.764911   0.000000
   24        4.786051   0.000000
 
  0.1850000E+00  0.1850000E+00  0.0000000E+00  0.5208333E-02
    1      -19.050978   1.000000
    2      -16.886708   1.000000
    3      -16.451189   1.000000
    4      -13.761882   1.000000
    5      -13.040949   1.000000
    6      -10.533527   1.000000
    7      -10.120777   1.000000
    8       -9.250869   1.000000
    9       -7.984961   1.000000
   10       -7.310516   1.000000
   11       -6.850217   1.000000
   12       -5.712955   1.000000
   13       -5.552071   1.000000
   14       -5.169527   1.000000
   15       -5.000054   1.000000
   16       -2.924583   0.000000
   17       -0.520538   0.000000
   18        1.596854   0.000000
   19        1.780607   0.000000
   20        2.318054   0.000000
   21        2.924967   0.000000
   22        3.019003   0.000000
   23        4.836569   0.000000
   24        4.857312   0.000000
 
  0.1797143E+00  0.1797143E+00  0.0000000E+00  0.5208333E-02
    1      -19.075694   1.000000
    2      -16.845479   1.000000
    3      -16.414593   1.000000
    4      -13.781268   1.000000
    5      -13.067551   1.000000
    6      -10.616990   1.000000
    7      -10.204483   1.000000
    8       -9.176488   1.000000
    9       -8.020460   1.000000
   10       -7.294477   1.000000
   11       -6.839267   1.000000
   12       -5.630575   1.000000
   13       -5.503958   1.000000
   14       -5.120753   1.000000
   15       -4.943919   1.000000
   16       -2.951252   0.000000
   17       -0.508020   0.000000
   18        1.554212   0.000000
   19        1.693651   0.000000
   20        2.266097   0.000000
   21        2.855991   0.000000
   22        2.975833   0.000000
   23        4.907805   0.000000
   24        4.912390   0.000000
 
  0.1744286E+00  0.1744286E+00  0.0000000E+00  0.5208333E-02
    1      -19.099940   1.000000
    2      -16.803447   1.000000
    3      -16.377963   1.000000
    4      -13.799589   1.000000
    5      -13.094239   1.000000
    6      -10.700088   1.000000
    7      -10.287775   1.000000
    8       -9.102635   1.000000
    9       -8.055015   1.000000
   10       -7.277806   1.000000
   11       -6.828256   1.000000
   12       -5.548926   1.000000
   13       -5.455588   1.000000
   14       -5.072218   1.000000
   15       -4.888849   1.000000
   16       -2.975987   0.000000
   17       -0.497113   0.000000
   18        1.512797   0.000000
   19        1.606090   0.000000
   20        2.214279   0.000000
   21        2.788654   0.000000
   22        2.933910   0.000000
   23        4.866837   0.000000
   24        4.983415   0.000000
 
  0.1691429E+00  0.1691429E+00  0.0000000E+00  0.5208333E-02
    1      -19.123684   1.000000
    2      -16.760674   1.000000
    3      -16.341354   1.000000
    4      -13.816830   1.000000
    5      -13.120992   1.000000
    6      -10.782605   1.000000
    7      -10.370589   1.000000
    8       -9.029642   1.000000
    9       -8.088618   1.000000
   10       -7.260398   1.000000
   11       -6.817183   1.000000
   12       -5.468118   1.000000
   13       -5.407054   1.000000
   14       -5.024069   1.000000
   15       -4.834905   1.000000
   16       -2.998735   0.000000
   17       -0.487840   0.000000
   18        1.472608   0.000000
   19        1.517942   0.000000
   20        2.162494   0.000000
   21        2.723144   0.000000
   22        2.893236   0.000000
   23        4.827103   0.000000
   24        5.059742   0.000000
 
  0.1638571E+00  0.1638571E+00  0.0000000E+00  0.5208333E-02
    1      -19.146893   1.000000
    2      -16.717213   1.000000
    3      -16.304816   1.000000
    4      -13.832961   1.000000
    5      -13.147793   1.000000
    6      -10.864295   1.000000
    7      -10.452819   1.000000
    8       -8.957800   1.000000
    9       -8.121257   1.000000
   10       -7.242241   1.000000
   11       -6.806107   1.000000
   12       -5.388176   1.000000
   13       -5.358279   1.000000
   14       -4.976356   1.000000
   15       -4.782081   1.000000
   16       -3.019342   0.000000
   17       -0.480093   0.000000
   18        1.429481   0.000000
   19        1.433647   0.000000
   20        2.110732   0.000000
   21        2.659786   0.000000
   22        2.853809   0.000000
   23        4.788525   0.000000
   24        5.148600   0.000000
 
  0.1585714E+00  0.1585714E+00  0.0000000E+00  0.5208333E-02
    1      -19.169540   1.000000
    2      -16.673130   1.000000
    3      -16.268409   1.000000
    4      -13.847965   1.000000
    5      -13.174629   1.000000
    6      -10.945034   1.000000
    7      -10.534408   1.000000
    8       -8.887360   1.000000
    9       -8.152920   1.000000
   10       -7.223307   1.000000
   11       -6.795061   1.000000
   12       -5.309412   1.000000
   13       -5.309209   1.000000
   14       -4.929266   1.000000
   15       -4.730480   1.000000
   16       -3.037711   0.000000
   17       -0.473880   0.000000
   18        1.340703   0.000000
   19        1.395913   0.000000
   20        2.058915   0.000000
   21        2.598697   0.000000
   22        2.815631   0.000000
   23        4.751077   0.000000
   24        5.186545   0.000000
 
  0.1532857E+00  0.1532857E+00  0.0000000E+00  0.5208333E-02
    1      -19.191602   1.000000
    2      -16.628483   1.000000
    3      -16.232192   1.000000
    4      -13.861817   1.000000
    5      -13.201490   1.000000
    6      -11.024662   1.000000
    7      -10.615266   1.000000
    8       -8.818524   1.000000
    9       -8.183596   1.000000
   10       -7.203546   1.000000
   11       -6.784049   1.000000
   12       -5.260495   1.000000
   13       -5.231301   1.000000
   14       -4.882941   1.000000
   15       -4.680108   1.000000
   16       -3.053736   0.000000
   17       -0.469076   0.000000
   18        1.251789   0.000000
   19        1.359408   0.000000
   20        2.007022   0.000000