       N       E                     dE             d eps       ncg     rms          rms(c)
DAV:   1     0.170360341891E+03    0.17036E+03   -0.98596E+03  9216   0.822E+02
DAV:   2    -0.404912716275E+02   -0.21085E+03   -0.19233E+03 15696   0.166E+02
DAV:   3    -0.653942031290E+02   -0.24903E+02   -0.24620E+02 10248   0.716E+01
DAV:   4    -0.659557845944E+02   -0.56158E+00   -0.56069E+00 12036   0.131E+01
DAV:   5    -0.659716472363E+02   -0.15863E-01   -0.15847E-01 12372   0.198E+00
DAV:   6    -0.659723450081E+02   -0.69777E-03   -0.69774E-03 13716   0.420E-01
DAV:   7    -0.659723532773E+02   -0.82692E-05   -0.82691E-05 13032   0.354E-02
DAV:   8    -0.659723534824E+02   -0.20507E-06   -0.20509E-06 12360   0.471E-03
   1 F= -.65972353E+02 E0= -.65972024E+02  d E =-.659172E-03
