 vasp.5.4.4.18Apr17-6-g9f103f2a35 (build Mar 30 2023 15:39:25) complex          
  
 executed on             LinuxIFC date 2023.06.30  15:57:20
 running on   12 total cores
 distrk:  each k-point on   12 cores,    1 groups
 distr:  one band on NCORES_PER_BAND=   1 cores,   12 groups


--------------------------------------------------------------------------------------------------------


 INCAR:
 POTCAR:    PAW_PBE B 06Sep2000                   
 POTCAR:    PAW_PBE C 08Apr2002                   

 ----------------------------------------------------------------------------- 
|                                                                             |
|           W    W    AA    RRRRR   N    N  II  N    N   GGGG   !!!           |
|           W    W   A  A   R    R  NN   N  II  NN   N  G    G  !!!           |
|           W    W  A    A  R    R  N N  N  II  N N  N  G       !!!           |
|           W WW W  AAAAAA  RRRRR   N  N N  II  N  N N  G  GGG   !            |
|           WW  WW  A    A  R   R   N   NN  II  N   NN  G    G                |
|           W    W  A    A  R    R  N    N  II  N    N   GGGG   !!!           |
|                                                                             |
|      For optimal performance we recommend to set                            |
|        NCORE= 4 - approx SQRT( number of cores)                             |
|      NCORE specifies how many cores store one orbital (NPAR=cpu/NCORE).     |
|      This setting can  greatly improve the performance of VASP for DFT.     |
|      The default,   NCORE=1            might be grossly inefficient         |
|      on modern multi-core architectures or massively parallel machines.     |
|      Do your own testing !!!!                                               |
|      Unfortunately you need to use the default for GW and RPA calculations. |
|      (for HF NCORE is supported but not extensively tested yet)             |
|                                                                             |
 ----------------------------------------------------------------------------- 

 POTCAR:    PAW_PBE B 06Sep2000                   
   SHA256 =  a32ced30f5ae56fd4d10b4325ff17eb3e4e38ee0f4288bc219fb012fddfa6e97 B/
   COPYR  = (c) Copyright 06Sep2000 Georg Kresse                                
   COPYR  = This file is part of the software VASP. Any use, copying, and all ot
   COPYR  = If you do not have a valid VASP license, you may not use, copy or di
   VRHFIN =B: s2p1                                                              
   LEXCH  = PE                                                                  
   EATOM  =    71.1703 eV,    5.2309 Ry                                         
                                                                                
   TITEL  = PAW_PBE B 06Sep2000                                                 
   LULTRA =        F    use ultrasoft PP ?                                      
   IUNSCR =        1    unscreen: 0-lin 1-nonlin 2-no                           
   RPACOR =    1.200    partial core radius                                     
   POMASS =   10.811; ZVAL   =    3.000    mass and valenz                      
   RCORE  =    1.700    outmost cutoff radius                                   
   RWIGS  =    1.710; RWIGS  =    0.905    wigner-seitz radius (au A)           
   ENMAX  =  318.614; ENMIN  =  238.960 eV                                      
   ICORE  =        2    local potential                                         
   LCOR   =        T    correct aug charges                                     
   LPAW   =        T    paw PP                                                  
   EAUG   =  535.514                                                            
   DEXC   =    0.000                                                            
   RMAX   =    1.732    core radius for proj-oper                               
   RAUG   =    1.300    factor for augmentation sphere                          
   RDEP   =    1.757    radius for radial grids                                 
   RDEPT  =    1.436    core radius for aug-charge                              
                                                                                
   Atomic configuration                                                         
    4 entries                                                                   
     n  l   j            E        occ.                                          
     1  0  0.50      -180.5896   2.0000                                         
     2  0  0.50        -9.4431   2.0000                                         
     2  1  0.50        -3.6068   1.0000                                         
     3  2  1.50        -4.0817   0.0000                                         
   Description                                                                  
     l       E           TYP  RCUT    TYP  RCUT                                 
     0     -9.4430752     23  1.500                                             
     0      0.8675899     23  1.500                                             
     1     -3.6067955     23  1.700                                             
     1      6.1086146     23  1.700                                             
     2     -4.0817478      7  1.700                                             
  local pseudopotential read in
  partial core-charges read in
  partial kinetic energy density read in
  atomic valenz-charges read in
  non local Contribution for L=           0  read in
    real space projection operators read in
  non local Contribution for L=           0  read in
    real space projection operators read in
  non local Contribution for L=           1  read in
    real space projection operators read in
  non local Contribution for L=           1  read in
    real space projection operators read in
    PAW grid and wavefunctions read in
 
   number of l-projection  operators is LMAX  =           4
   number of lm-projection operators is LMMAX =           8
 
 POTCAR:    PAW_PBE C 08Apr2002                   
   SHA256 =  253f7b50bb8d59471dbedb8285d89021f4a42ed1a2c5d38a03a736e69125dd95 C/
   COPYR  = (c) Copyright 08Apr2002 Georg Kresse                                
   COPYR  = This file is part of the software VASP. Any use, copying, and all ot
   COPYR  = If you do not have a valid VASP license, you may not use, copy or di
   VRHFIN =C: s2p2                                                              
   LEXCH  = PE                                                                  
   EATOM  =   147.1560 eV,   10.8157 Ry                                         
                                                                                
   TITEL  = PAW_PBE C 08Apr2002                                                 
   LULTRA =        F    use ultrasoft PP ?                                      
   IUNSCR =        1    unscreen: 0-lin 1-nonlin 2-no                           
   RPACOR =    1.200    partial core radius                                     
   POMASS =   12.011; ZVAL   =    4.000    mass and valenz                      
   RCORE  =    1.500    outmost cutoff radius                                   
   RWIGS  =    1.630; RWIGS  =    0.863    wigner-seitz radius (au A)           
   ENMAX  =  400.000; ENMIN  =  300.000 eV                                      
   ICORE  =        2    local potential                                         
   LCOR   =        T    correct aug charges                                     
   LPAW   =        T    paw PP                                                  
   EAUG   =  644.873                                                            
   DEXC   =    0.000                                                            
   RMAX   =    1.529    core radius for proj-oper                               
   RAUG   =    1.300    factor for augmentation sphere                          
   RDEP   =    1.501    radius for radial grids                                 
   RDEPT  =    1.300    core radius for aug-charge                              
                                                                                
   Atomic configuration                                                         
    4 entries                                                                   
     n  l   j            E        occ.                                          
     1  0  0.50      -273.3789   2.0000                                         
     2  0  0.50       -13.7508   2.0000                                         
     2  1  0.50        -5.2854   2.0000                                         
     3  2  1.50        -5.4423   0.0000                                         
   Description                                                                  
     l       E           TYP  RCUT    TYP  RCUT                                 
     0    -13.7508458     23  1.200                                             
     0     -8.2022199     23  1.200                                             
     1     -5.2854383     23  1.500                                             
     1     34.0145650     23  1.500                                             
     2     -5.4423304      7  1.500                                             
  local pseudopotential read in
  partial core-charges read in
  partial kinetic energy density read in
  atomic valenz-charges read in
  non local Contribution for L=           0  read in
    real space projection operators read in
  non local Contribution for L=           0  read in
    real space projection operators read in
  non local Contribution for L=           1  read in
    real space projection operators read in
  non local Contribution for L=           1  read in
    real space projection operators read in
    PAW grid and wavefunctions read in
 
   number of l-projection  operators is LMAX  =           4
   number of lm-projection operators is LMMAX =           8
 
  PAW_PBE B 06Sep2000                   :
 energy of atom  1       EATOM=  -71.1703
 kinetic energy error for atom=    0.0015 (will be added to EATOM!!)
  PAW_PBE C 08Apr2002                   :
 energy of atom  2       EATOM= -147.1560
 kinetic energy error for atom=    0.0116 (will be added to EATOM!!)
 
 
 POSCAR: BC3                                     
  positions in direct lattice
  No initial velocities read in
 exchange correlation table for  LEXCH =        8
   RHO(1)=    0.500       N(1)  =     2000
   RHO(2)=  100.500       N(2)  =     4000
 


--------------------------------------------------------------------------------------------------------


 ion  position               nearest neighbor table
   1  0.333  0.667  0.250-   3 1.49   7 1.49   5 1.49
   2  0.667  0.333  0.250-   4 1.49   8 1.49   6 1.49
   3  0.167  0.333  0.250-   1 1.49   6 1.49   4 1.49
   4  0.333  0.167  0.250-   2 1.49   5 1.49   3 1.49
   5  0.167  0.833  0.250-   4 1.49   8 1.49   1 1.49
   6  0.833  0.167  0.250-   3 1.49   7 1.49   2 1.49
   7  0.667  0.833  0.250-   1 1.49   6 1.49   8 1.49
   8  0.833  0.667  0.250-   2 1.49   5 1.49   7 1.49
 
  LATTYP: Found a base centered orthorhombic cell.
 ALAT       =     5.1640000000
 B/A-ratio  =     1.7323780015
 C/A-ratio  =     2.9047250194
  
  Lattice vectors:
  
 A1 = (   4.4730000000,   2.5820000000,   0.0000000000)
 A2 = (  -4.4730000000,   2.5820000000,   0.0000000000)
 A3 = (   0.0000000000,   0.0000000000,  15.0000000000)


Analysis of symmetry for initial positions (statically):
=====================================================================
 Subroutine PRICEL returns:
 Original cell was already a primitive cell.
 

 Routine SETGRP: Setting up the symmetry group for a 
 base centered orthorhombic supercell.


 Subroutine GETGRP returns: Found  8 space group operations
 (whereof  4 operations were pure point group operations)
 out of a pool of  8 trial point group operations.


The static configuration has the point symmetry C_2v.
 The point group associated with its full space group is D_2h.


Analysis of symmetry for dynamics (positions and initial velocities):
=====================================================================
 Subroutine PRICEL returns:
 Original cell was already a primitive cell.
 

 Routine SETGRP: Setting up the symmetry group for a 
 base centered orthorhombic supercell.


 Subroutine GETGRP returns: Found  8 space group operations
 (whereof  4 operations were pure point group operations)
 out of a pool of  8 trial point group operations.


The dynamic configuration has the point symmetry C_2v.
 The point group associated with its full space group is D_2h.


 Subroutine INISYM returns: Found  8 space group operations
 (whereof  4 operations are pure point group operations),
 and found     1 'primitive' translations

 
 
 KPOINTS: K-points for BC3 bandstructure          
  interpolating k-points between supplied coordinates
  k-points in reciprocal lattice
Space group operators:
 irot       det(A)        alpha          n_x          n_y          n_z        tau_x        tau_y        tau_z
    1     1.000000     0.000000     1.000000     0.000000     0.000000     0.000000     0.000000     0.000000
    2     1.000000   180.000000     0.000000     0.000000     1.000000     0.000000     0.000000     0.000000
    3    -1.000000   180.000000     1.000000     0.000000     0.000000     0.000000     0.000000     0.000000
    4    -1.000000   179.999999     0.000000     1.000000     0.000000     0.000000     0.000000     0.000000
    5    -1.000000     0.000000     1.000000     0.000000     0.000000     0.000000     0.000000     0.500000
    6    -1.000000   180.000000     0.000000     0.000000     1.000000     0.000000     0.000000     0.500000
    7     1.000000   180.000000     1.000000     0.000000     0.000000     0.000000     0.000000     0.500000
    8     1.000000   179.999999     0.000000     1.000000     0.000000     0.000000     0.000000     0.500000


--------------------------------------------------------------------------------------------------------




 Dimension of arrays:
   k-points           NKPTS =    192   k-points in BZ     NKDIM =    192   number of bands    NBANDS=     24
   number of dos      NEDOS =    301   number of ions     NIONS =      8
   non local maximal  LDIM  =      4   non local SUM 2l+1 LMDIM =      8
   total plane-waves  NPLWV = 139968
   max r-space proj   IRMAX =      1   max aug-charges    IRDMAX=   6498
   dimension x,y,z NGX =    36 NGY =   36 NGZ =  108
   dimension x,y,z NGXF=    72 NGYF=   72 NGZF=  216
   support grid    NGXF=    72 NGYF=   72 NGZF=  216
   ions per type =               2   6
   NGX,Y,Z   is equivalent  to a cutoff of  11.59, 11.59, 11.97 a.u.
   NGXF,Y,Z  is equivalent  to a cutoff of  23.18, 23.18, 23.94 a.u.

 SYSTEM =  BC3                                     
 POSCAR =  BC3                                     

 Startparameter for this run:
   NWRITE =      2    write-flag & timer
   PREC   = accura    normal or accurate (medium, high low for compatibility)
   ISTART =      0    job   : 0-new  1-cont  2-samecut
   ICHARG =     11    charge: 1-file 2-atom 10-const
   ISPIN  =      1    spin polarized calculation?
   LNONCOLLINEAR =      F non collinear calculations
   LSORBIT =      F    spin-orbit coupling
   INIWAV =      1    electr: 0-lowe 1-rand  2-diag
   LASPH  =      F    aspherical Exc in radial PAW
   METAGGA=      F    non-selfconsistent MetaGGA calc.

 Electronic Relaxation 1
   ENCUT  =  450.0 eV  33.07 Ry    5.75 a.u.   8.93  8.93 25.95*2*pi/ulx,y,z
   ENINI  =  450.0     initial cutoff
   ENAUG  =  644.9 eV  augmentation charge cutoff
   NELM   =     60;   NELMIN=  2; NELMDL= -5     # of ELM steps 
   EDIFF  = 0.1E-05   stopping-criterion for ELM
   LREAL  =      F    real-space projection
   NLSPLINE    = F    spline interpolate recip. space projectors
   LCOMPAT=      F    compatible to vasp.4.4
   GGA_COMPAT  = T    GGA compatible to vasp.4.4-vasp.4.6
   LMAXPAW     = -100 max onsite density
   LMAXMIX     =    2 max onsite mixed and CHGCAR
   VOSKOWN=      0    Vosko Wilk Nusair interpolation
   ROPT   =    0.00000   0.00000
 Ionic relaxation
   EDIFFG = -.1E-02   stopping-criterion for IOM
   NSW    =      0    number of steps for IOM
   NBLOCK =      1;   KBLOCK =      1    inner block; outer block 
   IBRION =     -1    ionic relax: 0-MD 1-quasi-New 2-CG
   NFREE  =      0    steps in history (QN), initial steepest desc. (CG)
   ISIF   =      2    stress and relaxation
   IWAVPR =     10    prediction:  0-non 1-charg 2-wave 3-comb
   ISYM   =      2    0-nonsym 1-usesym 2-fastsym
   LCORR  =      T    Harris-Foulkes like correction to forces

   POTIM  = 0.5000    time-step for ionic-motion
   TEIN   =    0.0    initial temperature
   TEBEG  =    0.0;   TEEND  =   0.0 temperature during run
   SMASS  =  -3.00    Nose mass-parameter (am)
   estimated Nose-frequenzy (Omega)   =  0.10E-29 period in steps =****** mass=  -0.610E-27a.u.
   SCALEE = 1.0000    scale energy and forces
   NPACO  =    256;   APACO  = 16.0  distance and # of slots for P.C.
   PSTRESS=    0.0 pullay stress

  Mass of Ions in am
   POMASS =  10.81 12.01
  Ionic Valenz
   ZVAL   =   3.00  4.00
  Atomic Wigner-Seitz radii
   RWIGS  =  -1.00 -1.00
  virtual crystal weights 
   VCA    =   1.00  1.00
   NELECT =      30.0000    total number of electrons
   NUPDOWN=      -1.0000    fix difference up-down

 DOS related values:
   EMIN   =  10.00;   EMAX   =-10.00  energy-range for DOS
   EFERMI =   0.00
   ISMEAR =     0;   SIGMA  =   0.10  broadening in eV -4-tet -1-fermi 0-gaus

 Electronic relaxation 2 (details)
   IALGO  =     38    algorithm
   LDIAG  =      T    sub-space diagonalisation (order eigenvalues)
   LSUBROT=      F    optimize rotation matrix (better conditioning)
   TURBO    =      0    0=normal 1=particle mesh
   IRESTART =      0    0=no restart 2=restart with 2 vectors
   NREBOOT  =      0    no. of reboots
   NMIN     =      0    reboot dimension
   EREF     =   0.00    reference energy to select bands
   IMIX   =      4    mixing-type and parameters
     AMIX     =   0.40;   BMIX     =  1.00
     AMIX_MAG =   1.60;   BMIX_MAG =  1.00
     AMIN     =   0.10
     WC   =   100.;   INIMIX=   1;  MIXPRE=   1;  MAXMIX= -45

 Intra band minimization:
   WEIMIN = 0.0000     energy-eigenvalue tresh-hold
   EBREAK =  0.10E-07  absolut break condition
   DEPER  =   0.30     relativ break condition  

   TIME   =   0.40     timestep for ELM

  volume/ion in A,a.u.               =      43.31       292.27
  Fermi-wavevector in a.u.,A,eV,Ry     =   0.724252  1.368638  7.136816  0.524541
  Thomas-Fermi vector in A             =   1.814675
 
 Write flags
   LWAVE        =      T    write WAVECAR
   LDOWNSAMPLE  =      F    k-point downsampling of WAVECAR
   LCHARG       =      T    write CHGCAR
   LVTOT        =      F    write LOCPOT, total local potential
   LVHAR        =      F    write LOCPOT, Hartree potential only
   LELF         =      F    write electronic localiz. function (ELF)
   LORBIT       =     11    0 simple, 1 ext, 2 COOP (PROOUT), +10 PAW based schemes


 Dipole corrections
   LMONO  =      F    monopole corrections only (constant potential shift)
   LDIPOL =      F    correct potential (dipole corrections)
   IDIPOL =      0    1-x, 2-y, 3-z, 4-all directions 
   EPSILON=  1.0000000 bulk dielectric constant

 Exchange correlation treatment:
   GGA     =    --    GGA type
   LEXCH   =     8    internal setting for exchange type
   VOSKOWN=      0    Vosko Wilk Nusair interpolation
   LHFCALC =     F    Hartree Fock is set to
   LHFONE  =     F    Hartree Fock one center treatment
   AEXX    =    0.0000 exact exchange contribution

 Linear response parameters
   LEPSILON=     F    determine dielectric tensor
   LRPA    =     F    only Hartree local field effects (RPA)
   LNABLA  =     F    use nabla operator in PAW spheres
   LVEL    =     F    velocity operator in full k-point grid
   LINTERFAST=   F  fast interpolation
   KINTER  =     0    interpolate to denser k-point grid
   CSHIFT  =0.1000    complex shift for real part using Kramers Kronig
   OMEGAMAX=  -1.0    maximum frequency
   DEG_THRESHOLD= 0.2000000E-02 threshold for treating states as degnerate
   RTIME   =   -0.100 relaxation time in fs
  (WPLASMAI=    0.000 imaginary part of plasma frequency in eV, 0.658/RTIME)
   DFIELD  = 0.0000000 0.0000000 0.0000000 field for delta impulse in time
 
 Orbital magnetization related:
   ORBITALMAG=     F  switch on orbital magnetization
   LCHIMAG   =     F  perturbation theory with respect to B field
   DQ        =  0.001000  dq finite difference perturbation B field
   LLRAUG    =     F  two centre corrections for induced B field



--------------------------------------------------------------------------------------------------------


 Static calculation
 charge density and potential remain constant during run
 non-spin polarized calculation
 Variant of blocked Davidson
 Davidson routine will perform the subspace rotation
 perform sub-space diagonalisation
    after iterative eigenvector-optimisation
 no mixing
 using additional bands            9
 reciprocal scheme for non local part
 use partial core corrections
 calculate Harris-corrections to forces 
   (improved forces if not selfconsistent)
 use gradient corrections 
 WARNING: stress and forces are not correct
  (second derivative of E(xc) not defined)
 use of overlap-Matrix (Vanderbilt PP)
 Gauss-broadening in eV      SIGMA  =   0.10


--------------------------------------------------------------------------------------------------------


  energy-cutoff  :      450.00
  volume of cell :      346.48
      direct lattice vectors                 reciprocal lattice vectors
     4.473000000  2.582000000  0.000000000     0.111781802  0.193648335  0.000000000
    -4.473000000  2.582000000  0.000000000    -0.111781802  0.193648335  0.000000000
     0.000000000  0.000000000 15.000000000     0.000000000  0.000000000  0.066666667

  length of vectors
     5.164731648  5.164731648 15.000000000     0.223595279  0.223595279  0.066666667


 
 k-points in units of 2pi/SCALE and weight: K-points for BC3 bandstructure          
   0.00000000  0.12896979  0.00000000       0.005
   0.00000000  0.12692265  0.00000000       0.005
   0.00000000  0.12487551  0.00000000       0.005
   0.00000000  0.12282837  0.00000000       0.005
   0.00000000  0.12078123  0.00000000       0.005
   0.00000000  0.11873409  0.00000000       0.005
   0.00000000  0.11668695  0.00000000       0.005
   0.00000000  0.11463981  0.00000000       0.005
   0.00000000  0.11259267  0.00000000       0.005
   0.00000000  0.11054554  0.00000000       0.005
   0.00000000  0.10849840  0.00000000       0.005
   0.00000000  0.10645126  0.00000000       0.005
   0.00000000  0.10440412  0.00000000       0.005
   0.00000000  0.10235698  0.00000000       0.005
   0.00000000  0.10030984  0.00000000       0.005
   0.00000000  0.09826270  0.00000000       0.005
   0.00000000  0.09621556  0.00000000       0.005
   0.00000000  0.09416842  0.00000000       0.005
   0.00000000  0.09212128  0.00000000       0.005
   0.00000000  0.09007414  0.00000000       0.005
   0.00000000  0.08802700  0.00000000       0.005
   0.00000000  0.08597986  0.00000000       0.005
   0.00000000  0.08393272  0.00000000       0.005
   0.00000000  0.08188558  0.00000000       0.005
   0.00000000  0.07983844  0.00000000       0.005
   0.00000000  0.07779130  0.00000000       0.005
   0.00000000  0.07574416  0.00000000       0.005
   0.00000000  0.07369702  0.00000000       0.005
   0.00000000  0.07164988  0.00000000       0.005
   0.00000000  0.06960274  0.00000000       0.005
   0.00000000  0.06755560  0.00000000       0.005
   0.00000000  0.06550847  0.00000000       0.005
   0.00000000  0.06346133  0.00000000       0.005
   0.00000000  0.06141419  0.00000000       0.005
   0.00000000  0.05936705  0.00000000       0.005
   0.00000000  0.05731991  0.00000000       0.005
   0.00000000  0.05527277  0.00000000       0.005
   0.00000000  0.05322563  0.00000000       0.005
   0.00000000  0.05117849  0.00000000       0.005
   0.00000000  0.04913135  0.00000000       0.005
   0.00000000  0.04708421  0.00000000       0.005
   0.00000000  0.04503707  0.00000000       0.005
   0.00000000  0.04298993  0.00000000       0.005
   0.00000000  0.04094279  0.00000000       0.005
   0.00000000  0.03889565  0.00000000       0.005
   0.00000000  0.03684851  0.00000000       0.005
   0.00000000  0.03480137  0.00000000       0.005
   0.00000000  0.03275423  0.00000000       0.005
   0.00000000  0.03070709  0.00000000       0.005
   0.00000000  0.02865995  0.00000000       0.005
   0.00000000  0.02661281  0.00000000       0.005
   0.00000000  0.02456567  0.00000000       0.005
   0.00000000  0.02251853  0.00000000       0.005
   0.00000000  0.02047140  0.00000000       0.005
   0.00000000  0.01842426  0.00000000       0.005
   0.00000000  0.01637712  0.00000000       0.005
   0.00000000  0.01432998  0.00000000       0.005
   0.00000000  0.01228284  0.00000000       0.005
   0.00000000  0.01023570  0.00000000       0.005
   0.00000000  0.00818856  0.00000000       0.005
   0.00000000  0.00614142  0.00000000       0.005
   0.00000000  0.00409428  0.00000000       0.005
   0.00000000  0.00204714  0.00000000       0.005
   0.00000000  0.00000000  0.00000000       0.005
   0.00000000  0.00000000  0.00000000       0.005
  -0.00088716  0.00153689  0.00000000       0.005
  -0.00177431  0.00307378  0.00000000       0.005
  -0.00266147  0.00461067  0.00000000       0.005
  -0.00354863  0.00614757  0.00000000       0.005
  -0.00443579  0.00768446  0.00000000       0.005
  -0.00532294  0.00922135  0.00000000       0.005
  -0.00621010  0.01075824  0.00000000       0.005
  -0.00709726  0.01229513  0.00000000       0.005
  -0.00798441  0.01383202  0.00000000       0.005
  -0.00887157  0.01536892  0.00000000       0.005
  -0.00975873  0.01690581  0.00000000       0.005
  -0.01064589  0.01844270  0.00000000       0.005
  -0.01153304  0.01997959  0.00000000       0.005
  -0.01242020  0.02151648  0.00000000       0.005
  -0.01330736  0.02305337  0.00000000       0.005
  -0.01419451  0.02459026  0.00000000       0.005
  -0.01508167  0.02612716  0.00000000       0.005
  -0.01596883  0.02766405  0.00000000       0.005
  -0.01685599  0.02920094  0.00000000       0.005
  -0.01774314  0.03073783  0.00000000       0.005
  -0.01863030  0.03227472  0.00000000       0.005
  -0.01951746  0.03381161  0.00000000       0.005
  -0.02040461  0.03534851  0.00000000       0.005
  -0.02129177  0.03688540  0.00000000       0.005
  -0.02217893  0.03842229  0.00000000       0.005
  -0.02306609  0.03995918  0.00000000       0.005
  -0.02395324  0.04149607  0.00000000       0.005
  -0.02484040  0.04303296  0.00000000       0.005
  -0.02572756  0.04456985  0.00000000       0.005
  -0.02661471  0.04610675  0.00000000       0.005
  -0.02750187  0.04764364  0.00000000       0.005
  -0.02838903  0.04918053  0.00000000       0.005
  -0.02927619  0.05071742  0.00000000       0.005
  -0.03016334  0.05225431  0.00000000       0.005
  -0.03105050  0.05379120  0.00000000       0.005
  -0.03193766  0.05532810  0.00000000       0.005
  -0.03282481  0.05686499  0.00000000       0.005
  -0.03371197  0.05840188  0.00000000       0.005
  -0.03459913  0.05993877  0.00000000       0.005
  -0.03548629  0.06147566  0.00000000       0.005
  -0.03637344  0.06301255  0.00000000       0.005
  -0.03726060  0.06454944  0.00000000       0.005
  -0.03814776  0.06608634  0.00000000       0.005
  -0.03903491  0.06762323  0.00000000       0.005
  -0.03992207  0.06916012  0.00000000       0.005
  -0.04080923  0.07069701  0.00000000       0.005
  -0.04169639  0.07223390  0.00000000       0.005
  -0.04258354  0.07377079  0.00000000       0.005
  -0.04347070  0.07530769  0.00000000       0.005
  -0.04435786  0.07684458  0.00000000       0.005
  -0.04524502  0.07838147  0.00000000       0.005
  -0.04613217  0.07991836  0.00000000       0.005
  -0.04701933  0.08145525  0.00000000       0.005
  -0.04790649  0.08299214  0.00000000       0.005
  -0.04879364  0.08452903  0.00000000       0.005
  -0.04968080  0.08606593  0.00000000       0.005
  -0.05056796  0.08760282  0.00000000       0.005
  -0.05145512  0.08913971  0.00000000       0.005
  -0.05234227  0.09067660  0.00000000       0.005
  -0.05322943  0.09221349  0.00000000       0.005
  -0.05411659  0.09375038  0.00000000       0.005
  -0.05500374  0.09528728  0.00000000       0.005
  -0.05589090  0.09682417  0.00000000       0.005
  -0.05589090  0.09682417  0.00000000       0.005
  -0.05500374  0.09733442  0.00000000       0.005
  -0.05411659  0.09784466  0.00000000       0.005
  -0.05322943  0.09835491  0.00000000       0.005
  -0.05234227  0.09886516  0.00000000       0.005
  -0.05145512  0.09937541  0.00000000       0.005
  -0.05056796  0.09988566  0.00000000       0.005
  -0.04968080  0.10039590  0.00000000       0.005
  -0.04879364  0.10090615  0.00000000       0.005
  -0.04790649  0.10141640  0.00000000       0.005
  -0.04701933  0.10192665  0.00000000       0.005
  -0.04613217  0.10243690  0.00000000       0.005
  -0.04524502  0.10294714  0.00000000       0.005
  -0.04435786  0.10345739  0.00000000       0.005
  -0.04347070  0.10396764  0.00000000       0.005
  -0.04258354  0.10447789  0.00000000       0.005
  -0.04169639  0.10498814  0.00000000       0.005
  -0.04080923  0.10549838  0.00000000       0.005
  -0.03992207  0.10600863  0.00000000       0.005
  -0.03903491  0.10651888  0.00000000       0.005
  -0.03814776  0.10702913  0.00000000       0.005
  -0.03726060  0.10753938  0.00000000       0.005
  -0.03637344  0.10804962  0.00000000       0.005
  -0.03548629  0.10855987  0.00000000       0.005
  -0.03459913  0.10907012  0.00000000       0.005
  -0.03371197  0.10958037  0.00000000       0.005
  -0.03282481  0.11009062  0.00000000       0.005
  -0.03193766  0.11060086  0.00000000       0.005
  -0.03105050  0.11111111  0.00000000       0.005
  -0.03016334  0.11162136  0.00000000       0.005
  -0.02927619  0.11213161  0.00000000       0.005
  -0.02838903  0.11264186  0.00000000       0.005
  -0.02750187  0.11315210  0.00000000       0.005
  -0.02661471  0.11366235  0.00000000       0.005
  -0.02572756  0.11417260  0.00000000       0.005
  -0.02484040  0.11468285  0.00000000       0.005
  -0.02395324  0.11519310  0.00000000       0.005
  -0.02306609  0.11570334  0.00000000       0.005
  -0.02217893  0.11621359  0.00000000       0.005
  -0.02129177  0.11672384  0.00000000       0.005
  -0.02040461  0.11723409  0.00000000       0.005
  -0.01951746  0.11774434  0.00000000       0.005
  -0.01863030  0.11825458  0.00000000       0.005
  -0.01774314  0.11876483  0.00000000       0.005
  -0.01685599  0.11927508  0.00000000       0.005
  -0.01596883  0.11978533  0.00000000       0.005
  -0.01508167  0.12029557  0.00000000       0.005
  -0.01419451  0.12080582  0.00000000       0.005
  -0.01330736  0.12131607  0.00000000       0.005
  -0.01242020  0.12182632  0.00000000       0.005
  -0.01153304  0.12233657  0.00000000       0.005
  -0.01064589  0.12284681  0.00000000       0.005
  -0.00975873  0.12335706  0.00000000       0.005
  -0.00887157  0.12386731  0.00000000       0.005
  -0.00798441  0.12437756  0.00000000       0.005
  -0.00709726  0.12488781  0.00000000       0.005
  -0.00621010  0.12539805  0.00000000       0.005
  -0.00532294  0.12590830  0.00000000       0.005
  -0.00443579  0.12641855  0.00000000       0.005
  -0.00354863  0.12692880  0.00000000       0.005
  -0.00266147  0.12743905  0.00000000       0.005
  -0.00177431  0.12794929  0.00000000       0.005
  -0.00088716  0.12845954  0.00000000       0.005
   0.00000000  0.12896979  0.00000000       0.005
 
 k-points in reciprocal lattice and weights: K-points for BC3 bandstructure          
   0.33300000  0.33300000  0.00000000       0.005
   0.32771429  0.32771429  0.00000000       0.005
   0.32242857  0.32242857  0.00000000       0.005
   0.31714286  0.31714286  0.00000000       0.005
   0.31185714  0.31185714  0.00000000       0.005
   0.30657143  0.30657143  0.00000000       0.005
   0.30128571  0.30128571  0.00000000       0.005
   0.29600000  0.29600000  0.00000000       0.005
   0.29071429  0.29071429  0.00000000       0.005
   0.28542857  0.28542857  0.00000000       0.005
   0.28014286  0.28014286  0.00000000       0.005
   0.27485714  0.27485714  0.00000000       0.005
   0.26957143  0.26957143  0.00000000       0.005
   0.26428571  0.26428571  0.00000000       0.005
   0.25900000  0.25900000  0.00000000       0.005
   0.25371429  0.25371429  0.00000000       0.005
   0.24842857  0.24842857  0.00000000       0.005
   0.24314286  0.24314286  0.00000000       0.005
   0.23785714  0.23785714  0.00000000       0.005
   0.23257143  0.23257143  0.00000000       0.005
   0.22728571  0.22728571  0.00000000       0.005
   0.22200000  0.22200000  0.00000000       0.005
   0.21671429  0.21671429  0.00000000       0.005
   0.21142857  0.21142857  0.00000000       0.005
   0.20614286  0.20614286  0.00000000       0.005
   0.20085714  0.20085714  0.00000000       0.005
   0.19557143  0.19557143  0.00000000       0.005
   0.19028571  0.19028571  0.00000000       0.005
   0.18500000  0.18500000  0.00000000       0.005
   0.17971429  0.17971429  0.00000000       0.005
   0.17442857  0.17442857  0.00000000       0.005
   0.16914286  0.16914286  0.00000000       0.005
   0.16385714  0.16385714  0.00000000       0.005
   0.15857143  0.15857143  0.00000000       0.005
   0.15328571  0.15328571  0.00000000       0.005
   0.14800000  0.14800000  0.00000000       0.005
   0.14271429  0.14271429  0.00000000       0.005
   0.13742857  0.13742857  0.00000000       0.005
   0.13214286  0.13214286  0.00000000       0.005
   0.12685714  0.12685714  0.00000000       0.005
   0.12157143  0.12157143  0.00000000       0.005
   0.11628571  0.11628571  0.00000000       0.005
   0.11100000  0.11100000  0.00000000       0.005
   0.10571429  0.10571429  0.00000000       0.005
   0.10042857  0.10042857  0.00000000       0.005
   0.09514286  0.09514286  0.00000000       0.005
   0.08985714  0.08985714  0.00000000       0.005
   0.08457143  0.08457143  0.00000000       0.005
   0.07928571  0.07928571  0.00000000       0.005
   0.07400000  0.07400000  0.00000000       0.005
   0.06871429  0.06871429  0.00000000       0.005
   0.06342857  0.06342857  0.00000000       0.005
   0.05814286  0.05814286  0.00000000       0.005
   0.05285714  0.05285714  0.00000000       0.005
   0.04757143  0.04757143  0.00000000       0.005
   0.04228571  0.04228571  0.00000000       0.005
   0.03700000  0.03700000  0.00000000       0.005
   0.03171429  0.03171429  0.00000000       0.005
   0.02642857  0.02642857  0.00000000       0.005
   0.02114286  0.02114286  0.00000000       0.005
   0.01585714  0.01585714  0.00000000       0.005
   0.01057143  0.01057143  0.00000000       0.005
   0.00528571  0.00528571  0.00000000       0.005
   0.00000000  0.00000000  0.00000000       0.005
   0.00000000  0.00000000  0.00000000       0.005
   0.00000000  0.00793651  0.00000000       0.005
   0.00000000  0.01587302  0.00000000       0.005
   0.00000000  0.02380952  0.00000000       0.005
   0.00000000  0.03174603  0.00000000       0.005
   0.00000000  0.03968254  0.00000000       0.005
   0.00000000  0.04761905  0.00000000       0.005
   0.00000000  0.05555556  0.00000000       0.005
   0.00000000  0.06349206  0.00000000       0.005
   0.00000000  0.07142857  0.00000000       0.005
   0.00000000  0.07936508  0.00000000       0.005
   0.00000000  0.08730159  0.00000000       0.005
   0.00000000  0.09523810  0.00000000       0.005
   0.00000000  0.10317460  0.00000000       0.005
   0.00000000  0.11111111  0.00000000       0.005
   0.00000000  0.11904762  0.00000000       0.005
   0.00000000  0.12698413  0.00000000       0.005
   0.00000000  0.13492063  0.00000000       0.005
   0.00000000  0.14285714  0.00000000       0.005
   0.00000000  0.15079365  0.00000000       0.005
   0.00000000  0.15873016  0.00000000       0.005
   0.00000000  0.16666667  0.00000000       0.005
   0.00000000  0.17460317  0.00000000       0.005
   0.00000000  0.18253968  0.00000000       0.005
   0.00000000  0.19047619  0.00000000       0.005
   0.00000000  0.19841270  0.00000000       0.005
   0.00000000  0.20634921  0.00000000       0.005
   0.00000000  0.21428571  0.00000000       0.005
   0.00000000  0.22222222  0.00000000       0.005
   0.00000000  0.23015873  0.00000000       0.005
   0.00000000  0.23809524  0.00000000       0.005
   0.00000000  0.24603175  0.00000000       0.005
   0.00000000  0.25396825  0.00000000       0.005
   0.00000000  0.26190476  0.00000000       0.005
   0.00000000  0.26984127  0.00000000       0.005
   0.00000000  0.27777778  0.00000000       0.005
   0.00000000  0.28571429  0.00000000       0.005
   0.00000000  0.29365079  0.00000000       0.005
   0.00000000  0.30158730  0.00000000       0.005
   0.00000000  0.30952381  0.00000000       0.005
   0.00000000  0.31746032  0.00000000       0.005
   0.00000000  0.32539683  0.00000000       0.005
   0.00000000  0.33333333  0.00000000       0.005
   0.00000000  0.34126984  0.00000000       0.005
   0.00000000  0.34920635  0.00000000       0.005
   0.00000000  0.35714286  0.00000000       0.005
   0.00000000  0.36507937  0.00000000       0.005
   0.00000000  0.37301587  0.00000000       0.005
   0.00000000  0.38095238  0.00000000       0.005
   0.00000000  0.38888889  0.00000000       0.005
   0.00000000  0.39682540  0.00000000       0.005
   0.00000000  0.40476190  0.00000000       0.005
   0.00000000  0.41269841  0.00000000       0.005
   0.00000000  0.42063492  0.00000000       0.005
   0.00000000  0.42857143  0.00000000       0.005
   0.00000000  0.43650794  0.00000000       0.005
   0.00000000  0.44444444  0.00000000       0.005
   0.00000000  0.45238095  0.00000000       0.005
   0.00000000  0.46031746  0.00000000       0.005
   0.00000000  0.46825397  0.00000000       0.005
   0.00000000  0.47619048  0.00000000       0.005
   0.00000000  0.48412698  0.00000000       0.005
   0.00000000  0.49206349  0.00000000       0.005
   0.00000000  0.50000000  0.00000000       0.005
   0.00000000  0.50000000  0.00000000       0.005
   0.00528571  0.49734921  0.00000000       0.005
   0.01057143  0.49469841  0.00000000       0.005
   0.01585714  0.49204762  0.00000000       0.005
   0.02114286  0.48939683  0.00000000       0.005
   0.02642857  0.48674603  0.00000000       0.005
   0.03171429  0.48409524  0.00000000       0.005
   0.03700000  0.48144444  0.00000000       0.005
   0.04228571  0.47879365  0.00000000       0.005
   0.04757143  0.47614286  0.00000000       0.005
   0.05285714  0.47349206  0.00000000       0.005
   0.05814286  0.47084127  0.00000000       0.005
   0.06342857  0.46819048  0.00000000       0.005
   0.06871429  0.46553968  0.00000000       0.005
   0.07400000  0.46288889  0.00000000       0.005
   0.07928571  0.46023810  0.00000000       0.005
   0.08457143  0.45758730  0.00000000       0.005
   0.08985714  0.45493651  0.00000000       0.005
   0.09514286  0.45228571  0.00000000       0.005
   0.10042857  0.44963492  0.00000000       0.005
   0.10571429  0.44698413  0.00000000       0.005
   0.11100000  0.44433333  0.00000000       0.005
   0.11628571  0.44168254  0.00000000       0.005
   0.12157143  0.43903175  0.00000000       0.005
   0.12685714  0.43638095  0.00000000       0.005
   0.13214286  0.43373016  0.00000000       0.005
   0.13742857  0.43107937  0.00000000       0.005
   0.14271429  0.42842857  0.00000000       0.005
   0.14800000  0.42577778  0.00000000       0.005
   0.15328571  0.42312698  0.00000000       0.005
   0.15857143  0.42047619  0.00000000       0.005
   0.16385714  0.41782540  0.00000000       0.005
   0.16914286  0.41517460  0.00000000       0.005
   0.17442857  0.41252381  0.00000000       0.005
   0.17971429  0.40987302  0.00000000       0.005
   0.18500000  0.40722222  0.00000000       0.005
   0.19028571  0.40457143  0.00000000       0.005
   0.19557143  0.40192063  0.00000000       0.005
   0.20085714  0.39926984  0.00000000       0.005
   0.20614286  0.39661905  0.00000000       0.005
   0.21142857  0.39396825  0.00000000       0.005
   0.21671429  0.39131746  0.00000000       0.005
   0.22200000  0.38866667  0.00000000       0.005
   0.22728571  0.38601587  0.00000000       0.005
   0.23257143  0.38336508  0.00000000       0.005
   0.23785714  0.38071429  0.00000000       0.005
   0.24314286  0.37806349  0.00000000       0.005
   0.24842857  0.37541270  0.00000000       0.005
   0.25371429  0.37276190  0.00000000       0.005
   0.25900000  0.37011111  0.00000000       0.005
   0.26428571  0.36746032  0.00000000       0.005
   0.26957143  0.36480952  0.00000000       0.005
   0.27485714  0.36215873  0.00000000       0.005
   0.28014286  0.35950794  0.00000000       0.005
   0.28542857  0.35685714  0.00000000       0.005
   0.29071429  0.35420635  0.00000000       0.005
   0.29600000  0.35155556  0.00000000       0.005
   0.30128571  0.34890476  0.00000000       0.005
   0.30657143  0.34625397  0.00000000       0.005
   0.31185714  0.34360317  0.00000000       0.005
   0.31714286  0.34095238  0.00000000       0.005
   0.32242857  0.33830159  0.00000000       0.005
   0.32771429  0.33565079  0.00000000       0.005
   0.33300000  0.33300000  0.00000000       0.005
 
 position of ions in fractional coordinates (direct lattice) 
   0.33333300  0.66666600  0.25000000
   0.66666600  0.33333300  0.25000000
   0.16666600  0.33333300  0.25000000
   0.33333300  0.16666600  0.25000000
   0.16666600  0.83333300  0.25000000
   0.83333300  0.16666600  0.25000000
   0.66666600  0.83333300  0.25000000
   0.83333300  0.66666600  0.25000000
 
 position of ions in cartesian coordinates  (Angst):
  -1.49099851  2.58199742  3.75000000
   1.49099851  2.58199742  3.75000000
  -0.74550149  1.29099742  3.75000000
   0.74550149  1.29099742  3.75000000
  -2.98200149  2.58199742  3.75000000
   2.98200149  2.58199742  3.75000000
  -0.74550149  3.87299742  3.75000000
   0.74550149  3.87299742  3.75000000
 


--------------------------------------------------------------------------------------------------------


 k-point  1 :   0.3330 0.3330 0.0000  plane waves:    7545
 k-point  2 :   0.3277 0.3277 0.0000  plane waves:    7541
 k-point  3 :   0.3224 0.3224 0.0000  plane waves:    7553
 k-point  4 :   0.3171 0.3171 0.0000  plane waves:    7553
 k-point  5 :   0.3119 0.3119 0.0000  plane waves:    7555
 k-point  6 :   0.3066 0.3066 0.0000  plane waves:    7547
 k-point  7 :   0.3013 0.3013 0.0000  plane waves:    7545
 k-point  8 :   0.2960 0.2960 0.0000  plane waves:    7547
 k-point  9 :   0.2907 0.2907 0.0000  plane waves:    7543
 k-point 10 :   0.2854 0.2854 0.0000  plane waves:    7527
 k-point 11 :   0.2801 0.2801 0.0000  plane waves:    7523
 k-point 12 :   0.2749 0.2749 0.0000  plane waves:    7519
 k-point 13 :   0.2696 0.2696 0.0000  plane waves:    7517
 k-point 14 :   0.2643 0.2643 0.0000  plane waves:    7513
 k-point 15 :   0.2590 0.2590 0.0000  plane waves:    7509
 k-point 16 :   0.2537 0.2537 0.0000  plane waves:    7513
 k-point 17 :   0.2484 0.2484 0.0000  plane waves:    7513
 k-point 18 :   0.2431 0.2431 0.0000  plane waves:    7527
 k-point 19 :   0.2379 0.2379 0.0000  plane waves:    7517
 k-point 20 :   0.2326 0.2326 0.0000  plane waves:    7517
 k-point 21 :   0.2273 0.2273 0.0000  plane waves:    7521
 k-point 22 :   0.2220 0.2220 0.0000  plane waves:    7517
 k-point 23 :   0.2167 0.2167 0.0000  plane waves:    7521
 k-point 24 :   0.2114 0.2114 0.0000  plane waves:    7511
 k-point 25 :   0.2061 0.2061 0.0000  plane waves:    7519
 k-point 26 :   0.2009 0.2009 0.0000  plane waves:    7515
 k-point 27 :   0.1956 0.1956 0.0000  plane waves:    7515
 k-point 28 :   0.1903 0.1903 0.0000  plane waves:    7509
 k-point 29 :   0.1850 0.1850 0.0000  plane waves:    7511
 k-point 30 :   0.1797 0.1797 0.0000  plane waves:    7505
 k-point 31 :   0.1744 0.1744 0.0000  plane waves:    7503
 k-point 32 :   0.1691 0.1691 0.0000  plane waves:    7511
 k-point 33 :   0.1639 0.1639 0.0000  plane waves:    7507
 k-point 34 :   0.1586 0.1586 0.0000  plane waves:    7511
 k-point 35 :   0.1533 0.1533 0.0000  plane waves:    7505
 k-point 36 :   0.1480 0.1480 0.0000  plane waves:    7501
 k-point 37 :   0.1427 0.1427 0.0000  plane waves:    7501
 k-point 38 :   0.1374 0.1374 0.0000  plane waves:    7493
 k-point 39 :   0.1321 0.1321 0.0000  plane waves:    7489
 k-point 40 :   0.1269 0.1269 0.0000  plane waves:    7485
 k-point 41 :   0.1216 0.1216 0.0000  plane waves:    7477
 k-point 42 :   0.1163 0.1163 0.0000  plane waves:    7483
 k-point 43 :   0.1110 0.1110 0.0000  plane waves:    7487
 k-point 44 :   0.1057 0.1057 0.0000  plane waves:    7491
 k-point 45 :   0.1004 0.1004 0.0000  plane waves:    7487
 k-point 46 :   0.0951 0.0951 0.0000  plane waves:    7489
 k-point 47 :   0.0899 0.0899 0.0000  plane waves:    7485
 k-point 48 :   0.0846 0.0846 0.0000  plane waves:    7497
 k-point 49 :   0.0793 0.0793 0.0000  plane waves:    7497
 k-point 50 :   0.0740 0.0740 0.0000  plane waves:    7495
 k-point 51 :   0.0687 0.0687 0.0000  plane waves:    7487
 k-point 52 :   0.0634 0.0634 0.0000  plane waves:    7489
 k-point 53 :   0.0581 0.0581 0.0000  plane waves:    7493
 k-point 54 :   0.0529 0.0529 0.0000  plane waves:    7493
 k-point 55 :   0.0476 0.0476 0.0000  plane waves:    7489
 k-point 56 :   0.0423 0.0423 0.0000  plane waves:    7485
 k-point 57 :   0.0370 0.0370 0.0000  plane waves:    7481
 k-point 58 :   0.0317 0.0317 0.0000  plane waves:    7481
 k-point 59 :   0.0264 0.0264 0.0000  plane waves:    7481
 k-point 60 :   0.0211 0.0211 0.0000  plane waves:    7481
 k-point 61 :   0.0159 0.0159 0.0000  plane waves:    7469
 k-point 62 :   0.0106 0.0106 0.0000  plane waves:    7465
 k-point 63 :   0.0053 0.0053 0.0000  plane waves:    7477
 k-point 64 :   0.0000 0.0000 0.0000  plane waves:    7497
 k-point 65 :   0.0000 0.0000 0.0000  plane waves:    7497
 k-point 66 :   0.0000 0.0079 0.0000  plane waves:    7479
 k-point 67 :   0.0000 0.0159 0.0000  plane waves:    7463
 k-point 68 :   0.0000 0.0238 0.0000  plane waves:    7463
 k-point 69 :   0.0000 0.0317 0.0000  plane waves:    7477
 k-point 70 :   0.0000 0.0397 0.0000  plane waves:    7485
 k-point 71 :   0.0000 0.0476 0.0000  plane waves:    7483
 k-point 72 :   0.0000 0.0556 0.0000  plane waves:    7483
 k-point 73 :   0.0000 0.0635 0.0000  plane waves:    7491
 k-point 74 :   0.0000 0.0714 0.0000  plane waves:    7479
 k-point 75 :   0.0000 0.0794 0.0000  plane waves:    7489
 k-point 76 :   0.0000 0.0873 0.0000  plane waves:    7487
 k-point 77 :   0.0000 0.0952 0.0000  plane waves:    7479
 k-point 78 :   0.0000 0.1032 0.0000  plane waves:    7487
 k-point 79 :   0.0000 0.1111 0.0000  plane waves:    7493
 k-point 80 :   0.0000 0.1190 0.0000  plane waves:    7501
 k-point 81 :   0.0000 0.1270 0.0000  plane waves:    7509
 k-point 82 :   0.0000 0.1349 0.0000  plane waves:    7503
 k-point 83 :   0.0000 0.1429 0.0000  plane waves:    7501
 k-point 84 :   0.0000 0.1508 0.0000  plane waves:    7501
 k-point 85 :   0.0000 0.1587 0.0000  plane waves:    7499
 k-point 86 :   0.0000 0.1667 0.0000  plane waves:    7499
 k-point 87 :   0.0000 0.1746 0.0000  plane waves:    7501
 k-point 88 :   0.0000 0.1825 0.0000  plane waves:    7495
 k-point 89 :   0.0000 0.1905 0.0000  plane waves:    7497
 k-point 90 :   0.0000 0.1984 0.0000  plane waves:    7497
 k-point 91 :   0.0000 0.2063 0.0000  plane waves:    7497
 k-point 92 :   0.0000 0.2143 0.0000  plane waves:    7499
 k-point 93 :   0.0000 0.2222 0.0000  plane waves:    7503
 k-point 94 :   0.0000 0.2302 0.0000  plane waves:    7493
 k-point 95 :   0.0000 0.2381 0.0000  plane waves:    7493
 k-point 96 :   0.0000 0.2460 0.0000  plane waves:    7489
 k-point 97 :   0.0000 0.2540 0.0000  plane waves:    7491
 k-point 98 :   0.0000 0.2619 0.0000  plane waves:    7487
 k-point 99 :   0.0000 0.2698 0.0000  plane waves:    7498
 k-point ** :   0.0000 0.2778 0.0000  plane waves:    7496
 k-point ** :   0.0000 0.2857 0.0000  plane waves:    7496
 k-point ** :   0.0000 0.2937 0.0000  plane waves:    7504
 k-point ** :   0.0000 0.3016 0.0000  plane waves:    7510
 k-point ** :   0.0000 0.3095 0.0000  plane waves:    7506
 k-point ** :   0.0000 0.3175 0.0000  plane waves:    7514
 k-point ** :   0.0000 0.3254 0.0000  plane waves:    7508
 k-point ** :   0.0000 0.3333 0.0000  plane waves:    7522
 k-point ** :   0.0000 0.3413 0.0000  plane waves:    7520
 k-point ** :   0.0000 0.3492 0.0000  plane waves:    7522
 k-point ** :   0.0000 0.3571 0.0000  plane waves:    7520
 k-point ** :   0.0000 0.3651 0.0000  plane waves:    7516
 k-point ** :   0.0000 0.3730 0.0000  plane waves:    7518
 k-point ** :   0.0000 0.3810 0.0000  plane waves:    7506
 k-point ** :   0.0000 0.3889 0.0000  plane waves:    7506
 k-point ** :   0.0000 0.3968 0.0000  plane waves:    7506
 k-point ** :   0.0000 0.4048 0.0000  plane waves:    7506
 k-point ** :   0.0000 0.4127 0.0000  plane waves:    7512
 k-point ** :   0.0000 0.4206 0.0000  plane waves:    7526
 k-point ** :   0.0000 0.4286 0.0000  plane waves:    7518
 k-point ** :   0.0000 0.4365 0.0000  plane waves:    7518
 k-point ** :   0.0000 0.4444 0.0000  plane waves:    7518
 k-point ** :   0.0000 0.4524 0.0000  plane waves:    7506
 k-point ** :   0.0000 0.4603 0.0000  plane waves:    7506
 k-point ** :   0.0000 0.4683 0.0000  plane waves:    7512
 k-point ** :   0.0000 0.4762 0.0000  plane waves:    7514
 k-point ** :   0.0000 0.4841 0.0000  plane waves:    7506
 k-point ** :   0.0000 0.4921 0.0000  plane waves:    7504
 k-point ** :   0.0000 0.5000 0.0000  plane waves:    7508
 k-point ** :   0.0000 0.5000 0.0000  plane waves:    7508
 k-point ** :   0.0053 0.4973 0.0000  plane waves:    7506
 k-point ** :   0.0106 0.4947 0.0000  plane waves:    7512
 k-point ** :   0.0159 0.4920 0.0000  plane waves:    7514
 k-point ** :   0.0211 0.4894 0.0000  plane waves:    7516
 k-point ** :   0.0264 0.4867 0.0000  plane waves:    7520
 k-point ** :   0.0317 0.4841 0.0000  plane waves:    7516
 k-point ** :   0.0370 0.4814 0.0000  plane waves:    7516
 k-point ** :   0.0423 0.4788 0.0000  plane waves:    7516
 k-point ** :   0.0476 0.4761 0.0000  plane waves:    7512
 k-point ** :   0.0529 0.4735 0.0000  plane waves:    7512
 k-point ** :   0.0581 0.4708 0.0000  plane waves:    7510
 k-point ** :   0.0634 0.4682 0.0000  plane waves:    7514
 k-point ** :   0.0687 0.4655 0.0000  plane waves:    7517
 k-point ** :   0.0740 0.4629 0.0000  plane waves:    7521
 k-point ** :   0.0793 0.4602 0.0000  plane waves:    7521
 k-point ** :   0.0846 0.4576 0.0000  plane waves:    7527
 k-point ** :   0.0899 0.4549 0.0000  plane waves:    7535
 k-point ** :   0.0951 0.4523 0.0000  plane waves:    7533
 k-point ** :   0.1004 0.4496 0.0000  plane waves:    7531
 k-point ** :   0.1057 0.4470 0.0000  plane waves:    7533
 k-point ** :   0.1110 0.4443 0.0000  plane waves:    7533
 k-point ** :   0.1163 0.4417 0.0000  plane waves:    7533
 k-point ** :   0.1216 0.4390 0.0000  plane waves:    7529
 k-point ** :   0.1269 0.4364 0.0000  plane waves:    7527
 k-point ** :   0.1321 0.4337 0.0000  plane waves:    7523
 k-point ** :   0.1374 0.4311 0.0000  plane waves:    7523
 k-point ** :   0.1427 0.4284 0.0000  plane waves:    7521
 k-point ** :   0.1480 0.4258 0.0000  plane waves:    7523
 k-point ** :   0.1533 0.4231 0.0000  plane waves:    7531
 k-point ** :   0.1586 0.4205 0.0000  plane waves:    7529
 k-point ** :   0.1639 0.4178 0.0000  plane waves:    7529
 k-point ** :   0.1691 0.4152 0.0000  plane waves:    7537
 k-point ** :   0.1744 0.4125 0.0000  plane waves:    7543
 k-point ** :   0.1797 0.4099 0.0000  plane waves:    7545
 k-point ** :   0.1850 0.4072 0.0000  plane waves:    7549
 k-point ** :   0.1903 0.4046 0.0000  plane waves:    7547
 k-point ** :   0.1956 0.4019 0.0000  plane waves:    7543
 k-point ** :   0.2009 0.3993 0.0000  plane waves:    7521
 k-point ** :   0.2061 0.3966 0.0000  plane waves:    7517
 k-point ** :   0.2114 0.3940 0.0000  plane waves:    7519
 k-point ** :   0.2167 0.3913 0.0000  plane waves:    7521
 k-point ** :   0.2220 0.3887 0.0000  plane waves:    7529
 k-point ** :   0.2273 0.3860 0.0000  plane waves:    7527
 k-point ** :   0.2326 0.3834 0.0000  plane waves:    7523
 k-point ** :   0.2379 0.3807 0.0000  plane waves:    7525
 k-point ** :   0.2431 0.3781 0.0000  plane waves:    7525
 k-point ** :   0.2484 0.3754 0.0000  plane waves:    7527
 k-point ** :   0.2537 0.3728 0.0000  plane waves:    7537
 k-point ** :   0.2590 0.3701 0.0000  plane waves:    7533
 k-point ** :   0.2643 0.3675 0.0000  plane waves:    7537
 k-point ** :   0.2696 0.3648 0.0000  plane waves:    7539
 k-point ** :   0.2749 0.3622 0.0000  plane waves:    7541
 k-point ** :   0.2801 0.3595 0.0000  plane waves:    7547
 k-point ** :   0.2854 0.3569 0.0000  plane waves:    7541
 k-point ** :   0.2907 0.3542 0.0000  plane waves:    7547
 k-point ** :   0.2960 0.3516 0.0000  plane waves:    7553
 k-point ** :   0.3013 0.3489 0.0000  plane waves:    7553
 k-point ** :   0.3066 0.3463 0.0000  plane waves:    7549
 k-point ** :   0.3119 0.3436 0.0000  plane waves:    7553
 k-point ** :   0.3171 0.3410 0.0000  plane waves:    7553
 k-point ** :   0.3224 0.3383 0.0000  plane waves:    7541
 k-point ** :   0.3277 0.3357 0.0000  plane waves:    7545
 k-point ** :   0.3330 0.3330 0.0000  plane waves:    7545

 maximum and minimum number of plane-waves per node :      7555     7463

 maximum number of plane-waves:      7555
 maximum index in each direction: 
   IXMAX=    8   IYMAX=    8   IZMAX=   25
   IXMIN=   -9   IYMIN=   -9   IZMIN=  -25


 serial   3D FFT for wavefunctions
 parallel 3D FFT for charge:
    minimum data exchange during FFTs selected (reduces bandwidth)


 total amount of memory used by VASP MPI-rank0   278283. kBytes
=======================================================================

   base      :      30000. kBytes
   nonl-proj :     186762. kBytes
   fftplans  :       3727. kBytes
   grid      :      10879. kBytes
   one-center:         24. kBytes
   wavefun   :      46891. kBytes
 
     INWAV:  cpu time    0.0000: real time    0.0000
 initial charge density was supplied:
 number of electron      30.0000011 magnetization 
 keeping initial charge density in first step


--------------------------------------------------------------------------------------------------------


 Maximum index for augmentation-charges          409 (set IRDMAX)


--------------------------------------------------------------------------------------------------------


 First call to EWALD:  gamma=   0.252
 Maximum number of real-space cells 4x 4x 2
 Maximum number of reciprocal cells 2x 2x 5

    FEWALD:  cpu time    0.0020: real time    0.0021


--------------------------------------- Iteration      1(   1)  ---------------------------------------


    POTLOK:  cpu time    0.1166: real time    0.1178
    SETDIJ:  cpu time    0.0023: real time    0.0023
     EDDAV:  cpu time   21.8007: real time   21.8059
       DOS:  cpu time    0.0027: real time    0.0027
    --------------------------------------------
      LOOP:  cpu time   21.9224: real time   21.9287

 eigenvalue-minimisations  :  9216
 total energy-change (2. order) : 0.1703603E+03  (-0.9859645E+03)
 number of electron      30.0000011 magnetization 
 augmentation part       30.0000011 magnetization 

 Free energy of the ion-electron system (eV)
  ---------------------------------------------------
  alpha Z        PSCENC =        14.64016667
  Ewald energy   TEWEN  =      2593.16580357
  -Hartree energ DENC   =     -3487.10816652
  -exchange      EXHF   =         0.00000000
  -V(xc)+E(xc)   XCENC  =        95.64232799
  PAW double counting   =      2872.31455798    -2874.83944341
  entropy T*S    EENTRO =        -0.01691094
  eigenvalues    EBANDS =       -68.64189298
  atomic energy  EATOM  =      1025.20389953
  Solvation  Ediel_sol  =         0.00000000
  ---------------------------------------------------
  free energy    TOTEN  =       170.36034189 eV

  energy without entropy =      170.37725283  energy(sigma->0) =      170.36879736


--------------------------------------------------------------------------------------------------------




--------------------------------------- Iteration      1(   2)  ---------------------------------------


     EDDAV:  cpu time   32.5939: real time   32.6016
       DOS:  cpu time    0.0027: real time    0.0027
    --------------------------------------------
      LOOP:  cpu time   32.5966: real time   32.6043

 eigenvalue-minimisations  : 15696
 total energy-change (2. order) :-0.2108516E+03  (-0.1923254E+03)
 number of electron      30.0000011 magnetization 
 augmentation part       30.0000011 magnetization 

 Free energy of the ion-electron system (eV)
  ---------------------------------------------------
  alpha Z        PSCENC =        14.64016667
  Ewald energy   TEWEN  =      2593.16580357
  -Hartree energ DENC   =     -3487.10816652
  -exchange      EXHF   =         0.00000000
  -V(xc)+E(xc)   XCENC  =        95.64232799
  PAW double counting   =      2872.31455798    -2874.83944341
  entropy T*S    EENTRO =        -0.00889788
  eigenvalues    EBANDS =      -279.50151956
  atomic energy  EATOM  =      1025.20389953
  Solvation  Ediel_sol  =         0.00000000
  ---------------------------------------------------
  free energy    TOTEN  =       -40.49127163 eV

  energy without entropy =      -40.48237375  energy(sigma->0) =      -40.48682269


--------------------------------------------------------------------------------------------------------




--------------------------------------- Iteration      1(   3)  ---------------------------------------


     EDDAV:  cpu time   23.4649: real time   23.4701
       DOS:  cpu time    0.0025: real time    0.0025
    --------------------------------------------
      LOOP:  cpu time   23.4675: real time   23.4727

 eigenvalue-minimisations  : 10248
 total energy-change (2. order) :-0.2490293E+02  (-0.2462006E+02)
 number of electron      30.0000011 magnetization 
 augmentation part       30.0000011 magnetization 

 Free energy of the ion-electron system (eV)
  ---------------------------------------------------
  alpha Z        PSCENC =        14.64016667
  Ewald energy   TEWEN  =      2593.16580357
  -Hartree energ DENC   =     -3487.10816652
  -exchange      EXHF   =         0.00000000
  -V(xc)+E(xc)   XCENC  =        95.64232799
  PAW double counting   =      2872.31455798    -2874.83944341
  entropy T*S    EENTRO =        -0.00125425
  eigenvalues    EBANDS =      -304.41209469
  atomic energy  EATOM  =      1025.20389953
  Solvation  Ediel_sol  =         0.00000000
  ---------------------------------------------------
  free energy    TOTEN  =       -65.39420313 eV

  energy without entropy =      -65.39294888  energy(sigma->0) =      -65.39357600


--------------------------------------------------------------------------------------------------------




--------------------------------------- Iteration      1(   4)  ---------------------------------------


     EDDAV:  cpu time   26.4803: real time   26.5026
       DOS:  cpu time    0.0026: real time    0.0026
    --------------------------------------------
      LOOP:  cpu time   26.4828: real time   26.5051

 eigenvalue-minimisations  : 12036
 total energy-change (2. order) :-0.5615815E+00  (-0.5606931E+00)
 number of electron      30.0000011 magnetization 
 augmentation part       30.0000011 magnetization 

 Free energy of the ion-electron system (eV)
  ---------------------------------------------------
  alpha Z        PSCENC =        14.64016667
  Ewald energy   TEWEN  =      2593.16580357
  -Hartree energ DENC   =     -3487.10816652
  -exchange      EXHF   =         0.00000000
  -V(xc)+E(xc)   XCENC  =        95.64232799
  PAW double counting   =      2872.31455798    -2874.83944341
  entropy T*S    EENTRO =        -0.00067715
  eigenvalues    EBANDS =      -304.97425326
  atomic energy  EATOM  =      1025.20389953
  Solvation  Ediel_sol  =         0.00000000
  ---------------------------------------------------
  free energy    TOTEN  =       -65.95578459 eV

  energy without entropy =      -65.95510745  energy(sigma->0) =      -65.95544602


--------------------------------------------------------------------------------------------------------




--------------------------------------- Iteration      1(   5)  ---------------------------------------


     EDDAV:  cpu time   27.0192: real time   27.0246
       DOS:  cpu time    0.0022: real time    0.0022
    --------------------------------------------
      LOOP:  cpu time   27.0215: real time   27.0268

 eigenvalue-minimisations  : 12372
 total energy-change (2. order) :-0.1586264E-01  (-0.1584704E-01)
 number of electron      30.0000011 magnetization 
 augmentation part       30.0000011 magnetization 

 Free energy of the ion-electron system (eV)
  ---------------------------------------------------
  alpha Z        PSCENC =        14.64016667
  Ewald energy   TEWEN  =      2593.16580357
  -Hartree energ DENC   =     -3487.10816652
  -exchange      EXHF   =         0.00000000
  -V(xc)+E(xc)   XCENC  =        95.64232799
  PAW double counting   =      2872.31455798    -2874.83944341
  entropy T*S    EENTRO =        -0.00065918
  eigenvalues    EBANDS =      -304.99013386
  atomic energy  EATOM  =      1025.20389953
  Solvation  Ediel_sol  =         0.00000000
  ---------------------------------------------------
  free energy    TOTEN  =       -65.97164724 eV

  energy without entropy =      -65.97098805  energy(sigma->0) =      -65.97131764


--------------------------------------------------------------------------------------------------------




--------------------------------------- Iteration      1(   6)  ---------------------------------------


     EDDAV:  cpu time   29.2056: real time   29.2179
       DOS:  cpu time    0.0025: real time    0.0025
    --------------------------------------------
      LOOP:  cpu time   29.2080: real time   29.2203

 eigenvalue-minimisations  : 13716
 total energy-change (2. order) :-0.6977718E-03  (-0.6977364E-03)
 number of electron      30.0000011 magnetization 
 augmentation part       30.0000011 magnetization 

 Free energy of the ion-electron system (eV)
  ---------------------------------------------------
  alpha Z        PSCENC =        14.64016667
  Ewald energy   TEWEN  =      2593.16580357
  -Hartree energ DENC   =     -3487.10816652
  -exchange      EXHF   =         0.00000000
  -V(xc)+E(xc)   XCENC  =        95.64232799
  PAW double counting   =      2872.31455798    -2874.83944341
  entropy T*S    EENTRO =        -0.00065917
  eigenvalues    EBANDS =      -304.99083164
  atomic energy  EATOM  =      1025.20389953
  Solvation  Ediel_sol  =         0.00000000
  ---------------------------------------------------
  free energy    TOTEN  =       -65.97234501 eV

  energy without entropy =      -65.97168584  energy(sigma->0) =      -65.97201542


--------------------------------------------------------------------------------------------------------




--------------------------------------- Iteration      1(   7)  ---------------------------------------


     EDDAV:  cpu time   28.0894: real time   28.0937
       DOS:  cpu time    0.0025: real time    0.0025
    --------------------------------------------
      LOOP:  cpu time   28.0919: real time   28.0963

 eigenvalue-minimisations  : 13032
 total energy-change (2. order) :-0.8269240E-05  (-0.8269132E-05)
 number of electron      30.0000011 magnetization 
 augmentation part       30.0000011 magnetization 

 Free energy of the ion-electron system (eV)
  ---------------------------------------------------
  alpha Z        PSCENC =        14.64016667
  Ewald energy   TEWEN  =      2593.16580357
  -Hartree energ DENC   =     -3487.10816652
  -exchange      EXHF   =         0.00000000
  -V(xc)+E(xc)   XCENC  =        95.64232799
  PAW double counting   =      2872.31455798    -2874.83944341
  entropy T*S    EENTRO =        -0.00065917
  eigenvalues    EBANDS =      -304.99083991
  atomic energy  EATOM  =      1025.20389953
  Solvation  Ediel_sol  =         0.00000000
  ---------------------------------------------------
  free energy    TOTEN  =       -65.97235328 eV

  energy without entropy =      -65.97169411  energy(sigma->0) =      -65.97202369


--------------------------------------------------------------------------------------------------------




--------------------------------------- Iteration      1(   8)  ---------------------------------------


     EDDAV:  cpu time   27.0577: real time   27.0779
       DOS:  cpu time    0.0025: real time    0.0025
    --------------------------------------------
      LOOP:  cpu time   27.0603: real time   27.0804

 eigenvalue-minimisations  : 12360
 total energy-change (2. order) :-0.2050731E-06  (-0.2050900E-06)
 number of electron      30.0000011 magnetization 
 augmentation part       30.0000011 magnetization 

 Free energy of the ion-electron system (eV)
  ---------------------------------------------------
  alpha Z        PSCENC =        14.64016667
  Ewald energy   TEWEN  =      2593.16580357
  -Hartree energ DENC   =     -3487.10816652
  -exchange      EXHF   =         0.00000000
  -V(xc)+E(xc)   XCENC  =        95.64232799
  PAW double counting   =      2872.31455798    -2874.83944341
  entropy T*S    EENTRO =        -0.00065917
  eigenvalues    EBANDS =      -304.99084012
  atomic energy  EATOM  =      1025.20389953
  Solvation  Ediel_sol  =         0.00000000
  ---------------------------------------------------
  free energy    TOTEN  =       -65.97235348 eV

  energy without entropy =      -65.97169431  energy(sigma->0) =      -65.97202390


--------------------------------------------------------------------------------------------------------




 average (electrostatic) potential at core
  the test charge radii are     0.7672  0.6991
  (the norm of the test charge is              1.0000)
       1 -34.2442       2 -34.2442       3 -57.3025       4 -57.3025       5 -57.3027
       6 -57.3027       7 -57.3025       8 -57.3025
 
 
 
 E-fermi :  -3.7429     XC(G=0):  -2.8044     alpha+bet : -2.3762


 k-point     1 :       0.3330    0.3330    0.0000
  band No.  band energies     occupation 
      1     -18.5022      2.00000
      2     -17.3312      2.00000
      3     -17.3293      2.00000
      4     -12.8640      2.00000
      5     -12.8560      2.00000
      6     -10.9110      2.00000
      7      -8.1960      2.00000
      8      -8.1914      2.00000
      9      -8.0602      2.00000
     10      -7.5374      2.00000
     11      -6.9159      2.00000
     12      -6.6860      2.00000
     13      -6.6807      2.00000
     14      -6.3660      2.00000
     15      -6.3627      2.00000
     16      -1.6063      0.00000
     17      -1.5962      0.00000
     18       3.2747      0.00000
     19       3.2793      0.00000
     20       3.3177      0.00000
     21       3.4335      0.00000
     22       4.0270      0.00000
     23       4.0318      0.00000
     24       4.1275      0.00000

 k-point     2 :       0.3277    0.3277    0.0000
  band No.  band energies     occupation 
      1     -18.5031      2.00000
      2     -17.3530      2.00000
      3     -17.3054      2.00000
      4     -12.9057      2.00000
      5     -12.8165      2.00000
      6     -10.9079      2.00000
      7      -8.2450      2.00000
      8      -8.1767      2.00000
      9      -8.0314      2.00000
     10      -7.5377      2.00000
     11      -6.9195      2.00000
     12      -6.7213      2.00000
     13      -6.6400      2.00000
     14      -6.3934      2.00000
     15      -6.3302      2.00000
     16      -1.6684      0.00000
     17      -1.5344      0.00000
     18       3.2068      0.00000
     19       3.3188      0.00000
     20       3.3480      0.00000
     21       3.4288      0.00000
     22       3.9681      0.00000
     23       4.0762      0.00000
     24       4.1432      0.00000

 k-point     3 :       0.3224    0.3224    0.0000
  band No.  band energies     occupation 
      1     -18.5059      2.00000
      2     -17.3716      2.00000
      3     -17.2809      2.00000
      4     -12.9469      2.00000
      5     -12.7815      2.00000
      6     -10.8992      2.00000
      7      -8.3004      2.00000
      8      -8.2022      2.00000
      9      -7.9659      2.00000
     10      -7.5379      2.00000
     11      -6.9303      2.00000
     12      -6.7532      2.00000
     13      -6.5939      2.00000
     14      -6.4120      2.00000
     15      -6.2969      2.00000
     16      -1.7296      0.00000
     17      -1.4740      0.00000
     18       3.1325      0.00000
     19       3.3595      0.00000
     20       3.3872      0.00000
     21       3.4162      0.00000
     22       3.8998      0.00000
     23       4.1224      0.00000
     24       4.1679      0.00000

 k-point     4 :       0.3171    0.3171    0.0000
  band No.  band energies     occupation 
      1     -18.5106      2.00000
      2     -17.3870      2.00000
      3     -17.2557      2.00000
      4     -12.9875      2.00000
      5     -12.7515      2.00000
      6     -10.8846      2.00000
      7      -8.3614      2.00000
      8      -8.2424      2.00000
      9      -7.8892      2.00000
     10      -7.5375      2.00000
     11      -6.9485      2.00000
     12      -6.7816      2.00000
     13      -6.5433      2.00000
     14      -6.4214      2.00000
     15      -6.2626      2.00000
     16      -1.7899      0.00000
     17      -1.4152      0.00000
     18       3.0587      0.00000
     19       3.3969      0.00000
     20       3.4014      0.00000
     21       3.4284      0.00000
     22       3.8299      0.00000
     23       4.1699      0.00000
     24       4.1930      0.00000

 k-point     5 :       0.3119    0.3119    0.0000
  band No.  band energies     occupation 
      1     -18.5173      2.00000
      2     -17.3989      2.00000
      3     -17.2299      2.00000
      4     -13.0275      2.00000
      5     -12.7264      2.00000
      6     -10.8641      2.00000
      7      -8.4272      2.00000
      8      -8.2897      2.00000
      9      -7.8091      2.00000
     10      -7.5363      2.00000
     11      -6.9739      2.00000
     12      -6.8064      2.00000
     13      -6.4893      2.00000
     14      -6.4221      2.00000
     15      -6.2275      2.00000
     16      -1.8493      0.00000
     17      -1.3579      0.00000
     18       2.9859      0.00000
     19       3.3714      0.00000
     20       3.4445      0.00000
     21       3.4710      0.00000
     22       3.7598      0.00000
     23       4.2157      0.00000
     24       4.2190      0.00000

 k-point     6 :       0.3066    0.3066    0.0000
  band No.  band energies     occupation 
      1     -18.5261      2.00000
      2     -17.4074      2.00000
      3     -17.2034      2.00000
      4     -13.0669      2.00000
      5     -12.7063      2.00000
      6     -10.8376      2.00000
      7      -8.4973      2.00000
      8      -8.3421      2.00000
      9      -7.7276      2.00000
     10      -7.5341      2.00000
     11      -7.0054      2.00000
     12      -6.8275      2.00000
     13      -6.4326      2.00000
     14      -6.4150      2.00000
     15      -6.1914      2.00000
     16      -1.9076      0.00000
     17      -1.3022      0.00000
     18       2.9142      0.00000
     19       3.3404      0.00000
     20       3.4888      0.00000
     21       3.5149      0.00000
     22       3.6903      0.00000
     23       4.2343      0.00000
     24       4.3104      0.00000

 k-point     7 :       0.3013    0.3013    0.0000
  band No.  band energies     occupation 
      1     -18.5369      2.00000
      2     -17.4125      2.00000
      3     -17.1763      2.00000
      4     -13.1056      2.00000
      5     -12.6912      2.00000
      6     -10.8054      2.00000
      7      -8.5709      2.00000
      8      -8.3986      2.00000
      9      -7.6453      2.00000
     10      -7.5311      2.00000
     11      -7.0418      2.00000
     12      -6.8451      2.00000
     13      -6.4014      2.00000
     14      -6.3736      2.00000
     15      -6.1545      2.00000
     16      -1.9649      0.00000
     17      -1.2482      0.00000
     18       2.8436      0.00000
     19       3.3037      0.00000
     20       3.5343      0.00000
     21       3.5600      0.00000
     22       3.6214      0.00000
     23       4.2429      0.00000
     24       4.2846      0.00000

 k-point     8 :       0.2960    0.2960    0.0000
  band No.  band energies     occupation 
      1     -18.5498      2.00000
      2     -17.4141      2.00000
      3     -17.1485      2.00000
      4     -13.1437      2.00000
      5     -12.6809      2.00000
      6     -10.7677      2.00000
      7      -8.6476      2.00000
      8      -8.4589      2.00000
      9      -7.5630      2.00000
     10      -7.5271      2.00000
     11      -7.0818      2.00000
     12      -6.8590      2.00000
     13      -6.3824      2.00000
     14      -6.3130      2.00000
     15      -6.1167      2.00000
     16      -2.0212      0.00000
     17      -1.1958      0.00000
     18       2.7742      0.00000
     19       3.2630      0.00000
     20       3.5533      0.00000
     21       3.5810      0.00000
     22       3.6063      0.00000
     23       4.2139      0.00000
     24       4.2444      0.00000

 k-point     9 :       0.2907    0.2907    0.0000
  band No.  band energies     occupation 
      1     -18.5647      2.00000
      2     -17.4123      2.00000
      3     -17.1202      2.00000
      4     -13.1811      2.00000
      5     -12.6751      2.00000
      6     -10.7247      2.00000
      7      -8.7267      2.00000
      8      -8.5226      2.00000
      9      -7.5224      2.00000
     10      -7.4808      2.00000
     11      -7.1244      2.00000
     12      -6.8694      2.00000
     13      -6.3592      2.00000
     14      -6.2510      2.00000
     15      -6.0781      2.00000
     16      -2.0766      0.00000
     17      -1.1453      0.00000
     18       2.7060      0.00000
     19       3.2178      0.00000
     20       3.4860      0.00000
     21       3.6289      0.00000
     22       3.6539      0.00000
     23       4.1446      0.00000
     24       4.2288      0.00000

 k-point    10 :       0.2854    0.2854    0.0000
  band No.  band energies     occupation 
      1     -18.5814      2.00000
      2     -17.4072      2.00000
      3     -17.0912      2.00000
      4     -13.2178      2.00000
      5     -12.6736      2.00000
      6     -10.6769      2.00000
      7      -8.8078      2.00000
      8      -8.5892      2.00000
      9      -7.5168      2.00000
     10      -7.3993      2.00000
     11      -7.1688      2.00000
     12      -6.8758      2.00000
     13      -6.3326      2.00000
     14      -6.1880      2.00000
     15      -6.0386      2.00000
     16      -2.1308      0.00000
     17      -1.0965      0.00000
     18       2.6391      0.00000
     19       3.1688      0.00000
     20       3.4196      0.00000
     21       3.6780      0.00000
     22       3.7027      0.00000
     23       4.0765      0.00000
     24       4.2023      0.00000

 k-point    11 :       0.2801    0.2801    0.0000
  band No.  band energies     occupation 
      1     -18.5998      2.00000
      2     -17.3990      2.00000
      3     -17.0617      2.00000
      4     -13.2538      2.00000
      5     -12.6760      2.00000
      6     -10.6246      2.00000
      7      -8.8905      2.00000
      8      -8.6586      2.00000
      9      -7.5106      2.00000
     10      -7.3192      2.00000
     11      -7.2143      2.00000
     12      -6.8780      2.00000
     13      -6.3032      2.00000
     14      -6.1242      2.00000
     15      -5.9984      2.00000
     16      -2.1839      0.00000
     17      -1.0495      0.00000
     18       2.5733      0.00000
     19       3.1161      0.00000
     20       3.3541      0.00000
     21       3.7283      0.00000
     22       3.7526      0.00000
     23       4.0098      0.00000
     24       4.1640      0.00000

 k-point    12 :       0.2749    0.2749    0.0000
  band No.  band energies     occupation 
      1     -18.6198      2.00000
      2     -17.3878      2.00000
      3     -17.0316      2.00000
      4     -13.2890      2.00000
      5     -12.6818      2.00000
      6     -10.5685      2.00000
      7      -8.9746      2.00000
      8      -8.7304      2.00000
      9      -7.5037      2.00000
     10      -7.2605      2.00000
     11      -7.2417      2.00000
     12      -6.8751      2.00000
     13      -6.2714      2.00000
     14      -6.0600      2.00000
     15      -5.9573      2.00000
     16      -2.2359      0.00000
     17      -1.0043      0.00000
     18       2.5087      0.00000
     19       3.0602      0.00000
     20       3.2895      0.00000
     21       3.7798      0.00000
     22       3.8035      0.00000
     23       3.9445      0.00000
     24       4.1161      0.00000

 k-point    13 :       0.2696    0.2696    0.0000
  band No.  band energies     occupation 
      1     -18.6411      2.00000
      2     -17.3737      2.00000
      3     -17.0009      2.00000
      4     -13.3236      2.00000
      5     -12.6908      2.00000
      6     -10.5089      2.00000
      7      -9.0594      2.00000
      8      -8.8043      2.00000
      9      -7.4963      2.00000
     10      -7.3070      2.00000
     11      -7.1689      2.00000
     12      -6.8652      2.00000
     13      -6.2377      2.00000
     14      -5.9953      2.00000
     15      -5.9155      2.00000
     16      -2.2868      0.00000
     17      -0.9610      0.00000
     18       2.4453      0.00000
     19       3.0012      0.00000
     20       3.2258      0.00000
     21       3.8324      0.00000
     22       3.8530      0.00000
     23       3.8831      0.00000
     24       4.0612      0.00000

 k-point    14 :       0.2643    0.2643    0.0000
  band No.  band energies     occupation 
      1     -18.6637      2.00000
      2     -17.3570      2.00000
      3     -16.9697      2.00000
      4     -13.3573      2.00000
      5     -12.7026      2.00000
      6     -10.4466      2.00000
      7      -9.1449      2.00000
      8      -8.8802      2.00000
      9      -7.4882      2.00000
     10      -7.3536      2.00000
     11      -7.1042      2.00000
     12      -6.8452      2.00000
     13      -6.2023      2.00000
     14      -5.9305      2.00000
     15      -5.8729      2.00000
     16      -2.3365      0.00000
     17      -0.9195      0.00000
     18       2.3832      0.00000
     19       2.9393      0.00000
     20       3.1631      0.00000
     21       3.8153      0.00000
     22       3.8863      0.00000
     23       3.9113      0.00000
     24       4.0009      0.00000

 k-point    15 :       0.2590    0.2590    0.0000
  band No.  band energies     occupation 
      1     -18.6873      2.00000
      2     -17.3379      2.00000
      3     -16.9380      2.00000
      4     -13.3903      2.00000
      5     -12.7168      2.00000
      6     -10.3820      2.00000
      7      -9.2304      2.00000
      8      -8.9577      2.00000
      9      -7.4797      2.00000
     10      -7.4000      2.00000
     11      -7.0519      2.00000
     12      -6.8110      2.00000
     13      -6.1654      2.00000
     14      -5.8656      2.00000
     15      -5.8296      2.00000
[...]
      1     -18.5226      2.00000
      2     -17.4492      2.00000
      3     -17.1610      2.00000
      4     -13.1476      2.00000
      5     -12.6198      2.00000
      6     -10.8385      2.00000
      7      -8.6010      2.00000
      8      -8.0592      2.00000
      9      -7.9473      2.00000
     10      -7.5707      2.00000
     11      -6.9754      2.00000
     12      -6.7532      2.00000
     13      -6.5262      2.00000
     14      -6.4371      2.00000
     15      -6.1040      2.00000
     16      -1.9674      0.00000
     17      -1.2416      0.00000
     18       3.0806      0.00000
     19       3.1095      0.00000
     20       3.2938      0.00000
     21       3.7367      0.00000
     22       3.8338      0.00000
     23       3.9260      0.00000
     24       4.4848      0.00000

 k-point   182 :       0.2801    0.3595    0.0000
  band No.  band energies     occupation 
      1     -18.5195      2.00000
      2     -17.4393      2.00000
      3     -17.1791      2.00000
      4     -13.1181      2.00000
      5     -12.6420      2.00000
      6     -10.8503      2.00000
      7      -8.5623      2.00000
      8      -8.0616      2.00000
      9      -7.9562      2.00000
     10      -7.5637      2.00000
     11      -6.9672      2.00000
     12      -6.7594      2.00000
     13      -6.5127      2.00000
     14      -6.4621      2.00000
     15      -6.1324      2.00000
     16      -1.9330      0.00000
     17      -1.2751      0.00000
     18       3.0968      0.00000
     19       3.1255      0.00000
     20       3.3176      0.00000
     21       3.6950      0.00000
     22       3.8478      0.00000
     23       3.9403      0.00000
     24       4.4453      0.00000

 k-point   183 :       0.2854    0.3569    0.0000
  band No.  band energies     occupation 
      1     -18.5165      2.00000
      2     -17.4293      2.00000
      3     -17.1968      2.00000
      4     -13.0891      2.00000
      5     -12.6640      2.00000
      6     -10.8611      2.00000
      7      -8.5236      2.00000
      8      -8.0660      2.00000
      9      -7.9658      2.00000
     10      -7.5575      2.00000
     11      -6.9593      2.00000
     12      -6.7631      2.00000
     13      -6.4990      2.00000
     14      -6.4866      2.00000
     15      -6.1600      2.00000
     16      -1.8988      0.00000
     17      -1.3083      0.00000
     18       3.1133      0.00000
     19       3.1417      0.00000
     20       3.3396      0.00000
     21       3.6536      0.00000
     22       3.8625      0.00000
     23       3.9547      0.00000
     24       4.4050      0.00000

 k-point   184 :       0.2907    0.3542    0.0000
  band No.  band energies     occupation 
      1     -18.5137      2.00000
      2     -17.4190      2.00000
      3     -17.2139      2.00000
      4     -13.0607      2.00000
      5     -12.6860      2.00000
      6     -10.8710      2.00000
      7      -8.4847      2.00000
      8      -8.0723      2.00000
      9      -7.9760      2.00000
     10      -7.5523      2.00000
     11      -6.9517      2.00000
     12      -6.7642      2.00000
     13      -6.5107      2.00000
     14      -6.4851      2.00000
     15      -6.1870      2.00000
     16      -1.8648      0.00000
     17      -1.3414      0.00000
     18       3.1301      0.00000
     19       3.1583      0.00000
     20       3.3590      0.00000
     21       3.6125      0.00000
     22       3.8778      0.00000
     23       3.9691      0.00000
     24       4.3672      0.00000

 k-point   185 :       0.2960    0.3516    0.0000
  band No.  band energies     occupation 
      1     -18.5112      2.00000
      2     -17.4086      2.00000
      3     -17.2306      2.00000
      4     -13.0330      2.00000
      5     -12.7079      2.00000
      6     -10.8800      2.00000
      7      -8.4459      2.00000
      8      -8.0805      2.00000
      9      -7.9867      2.00000
     10      -7.5479      2.00000
     11      -6.9446      2.00000
     12      -6.7627      2.00000
     13      -6.5343      2.00000
     14      -6.4710      2.00000
     15      -6.2131      2.00000
     16      -1.8311      0.00000
     17      -1.3743      0.00000
     18       3.1473      0.00000
     19       3.1752      0.00000
     20       3.3764      0.00000
     21       3.5717      0.00000
     22       3.8940      0.00000
     23       3.9835      0.00000
     24       4.3298      0.00000

 k-point   186 :       0.3013    0.3489    0.0000
  band No.  band energies     occupation 
      1     -18.5090      2.00000
      2     -17.3980      2.00000
      3     -17.2466      2.00000
      4     -13.0060      2.00000
      5     -12.7297      2.00000
      6     -10.8879      2.00000
      7      -8.4071      2.00000
      8      -8.0907      2.00000
      9      -7.9980      2.00000
     10      -7.5445      2.00000
     11      -6.9379      2.00000
     12      -6.7586      2.00000
     13      -6.5574      2.00000
     14      -6.4566      2.00000
     15      -6.2383      2.00000
     16      -1.7978      0.00000
     17      -1.4070      0.00000
     18       3.1647      0.00000
     19       3.1923      0.00000
     20       3.3915      0.00000
     21       3.5312      0.00000
     22       3.9108      0.00000
     23       3.9977      0.00000
     24       4.2927      0.00000

 k-point   187 :       0.3066    0.3463    0.0000
  band No.  band energies     occupation 
      1     -18.5070      2.00000
      2     -17.3872      2.00000
      3     -17.2621      2.00000
      4     -12.9798      2.00000
      5     -12.7513      2.00000
      6     -10.8947      2.00000
      7      -8.3684      2.00000
      8      -8.1029      2.00000
      9      -8.0098      2.00000
     10      -7.5419      2.00000
     11      -6.9319      2.00000
     12      -6.7520      2.00000
     13      -6.5798      2.00000
     14      -6.4419      2.00000
     15      -6.2625      2.00000
     16      -1.7646      0.00000
     17      -1.4394      0.00000
     18       3.1824      0.00000
     19       3.2096      0.00000
     20       3.4044      0.00000
     21       3.4911      0.00000
     22       3.9285      0.00000
     23       4.0116      0.00000
     24       4.2563      0.00000

 k-point   188 :       0.3119    0.3436    0.0000
  band No.  band energies     occupation 
      1     -18.5053      2.00000
      2     -17.3762      2.00000
      3     -17.2770      2.00000
      4     -12.9544      2.00000
      5     -12.7729      2.00000
      6     -10.9004      2.00000
      7      -8.3301      2.00000
      8      -8.1170      2.00000
      9      -8.0220      2.00000
     10      -7.5400      2.00000
     11      -6.9266      2.00000
     12      -6.7429      2.00000
     13      -6.6017      2.00000
     14      -6.4270      2.00000
     15      -6.2856      2.00000
     16      -1.7318      0.00000
     17      -1.4717      0.00000
     18       3.2004      0.00000
     19       3.2272      0.00000
     20       3.4148      0.00000
     21       3.4514      0.00000
     22       3.9470      0.00000
     23       4.0248      0.00000
     24       4.2208      0.00000

 k-point   189 :       0.3171    0.3410    0.0000
  band No.  band energies     occupation 
      1     -18.5040      2.00000
      2     -17.3651      2.00000
      3     -17.2912      2.00000
      4     -12.9299      2.00000
      5     -12.7943      2.00000
      6     -10.9049      2.00000
      7      -8.2925      2.00000
      8      -8.1331      2.00000
      9      -8.0342      2.00000
     10      -7.5387      2.00000
     11      -6.9223      2.00000
     12      -6.7315      2.00000
     13      -6.6228      2.00000
     14      -6.4119      2.00000
     15      -6.3074      2.00000
     16      -1.6994      0.00000
     17      -1.5037      0.00000
     18       3.2188      0.00000
     19       3.2448      0.00000
     20       3.4123      0.00000
     21       3.4228      0.00000
     22       3.9662      0.00000
     23       4.0364      0.00000
     24       4.1870      0.00000

 k-point   190 :       0.3224    0.3383    0.0000
  band No.  band energies     occupation 
      1     -18.5030      2.00000
      2     -17.3538      2.00000
      3     -17.3047      2.00000
      4     -12.9063      2.00000
      5     -12.8156      2.00000
      6     -10.9082      2.00000
      7      -8.2562      2.00000
      8      -8.1510      2.00000
      9      -8.0458      2.00000
     10      -7.5379      2.00000
     11      -6.9189      2.00000
     12      -6.7179      2.00000
     13      -6.6432      2.00000
     14      -6.3966      2.00000
     15      -6.3277      2.00000
     16      -1.6672      0.00000
     17      -1.5355      0.00000
     18       3.2374      0.00000
     19       3.2622      0.00000
     20       3.3740      0.00000
     21       3.4287      0.00000
     22       3.9862      0.00000
     23       4.0447      0.00000
     24       4.1570      0.00000

 k-point   191 :       0.3277    0.3357    0.0000
  band No.  band energies     occupation 
      1     -18.5024      2.00000
      2     -17.3424      2.00000
      3     -17.3176      2.00000
      4     -12.8838      2.00000
      5     -12.8367      2.00000
      6     -10.9102      2.00000
      7      -8.2227      2.00000
      8      -8.1709      2.00000
      9      -8.0554      2.00000
     10      -7.5375      2.00000
     11      -6.9167      2.00000
     12      -6.7023      2.00000
     13      -6.6629      2.00000
     14      -6.3810      2.00000
     15      -6.3464      2.00000
     16      -1.6355      0.00000
     17      -1.5670      0.00000
     18       3.2563      0.00000
     19       3.2776      0.00000
     20       3.3382      0.00000
     21       3.4323      0.00000
     22       4.0068      0.00000
     23       4.0447      0.00000
     24       4.1352      0.00000

 k-point   192 :       0.3330    0.3330    0.0000
  band No.  band energies     occupation 
      1     -18.5022      2.00000
      2     -17.3312      2.00000
      3     -17.3293      2.00000
      4     -12.8640      2.00000
      5     -12.8560      2.00000
      6     -10.9110      2.00000
      7      -8.1960      2.00000
      8      -8.1914      2.00000
      9      -8.0602      2.00000
     10      -7.5374      2.00000
     11      -6.9159      2.00000
     12      -6.6860      2.00000
     13      -6.6807      2.00000
     14      -6.3660      2.00000
     15      -6.3627      2.00000
     16      -1.6063      0.00000
     17      -1.5962      0.00000
     18       3.2747      0.00000
     19       3.2793      0.00000
     20       3.3177      0.00000
     21       3.4335      0.00000
     22       4.0270      0.00000
     23       4.0318      0.00000
     24       4.1275      0.00000


--------------------------------------------------------------------------------------------------------


 soft charge-density along one line, spin component           1
         0         1         2         3         4         5         6         7         8         9
 total charge-density along one line
 
 pseudopotential strength for first ion, spin component:           1
  6.729  10.266  -0.000  -0.000   0.000  -0.000  -0.000  -0.000
 10.266  15.658  -0.000  -0.000   0.000  -0.000  -0.000  -0.000
 -0.000  -0.000  -2.303   0.000  -0.000  -3.951   0.000  -0.000
 -0.000  -0.000   0.000  -2.305   0.000   0.000  -3.951   0.000
  0.000   0.000  -0.000   0.000  -2.303  -0.000   0.000  -3.951
 -0.000  -0.000  -3.951   0.000  -0.000  -6.580   0.000  -0.000
 -0.000  -0.000   0.000  -3.951   0.000   0.000  -6.574   0.000
 -0.000  -0.000  -0.000   0.000  -3.951  -0.000   0.000  -6.580
 total augmentation occupancy for first ion, spin component:           1
  2.000   0.000   0.000   0.000   0.000   0.000   0.000   0.000
  0.000   0.000   0.000   0.000   0.000   0.000   0.000   0.000
  0.000   0.000   0.333   0.000   0.000   0.000   0.000   0.000
  0.000   0.000   0.000   0.333   0.000   0.000   0.000   0.000
  0.000   0.000   0.000   0.000   0.333   0.000   0.000   0.000
  0.000   0.000   0.000   0.000   0.000   0.000   0.000   0.000
  0.000   0.000   0.000   0.000   0.000   0.000   0.000   0.000
  0.000   0.000   0.000   0.000   0.000   0.000   0.000   0.000


------------------------ aborting loop because EDIFF is reached ----------------------------------------


 


 total charge     
 
# of ion       s       p       d       tot
------------------------------------------
    1        0.795   1.470   0.000   2.265
    2        0.795   1.470   0.000   2.265
    3        0.869   1.633   0.000   2.502
    4        0.870   1.696   0.000   2.566
    5        0.870   1.709   0.000   2.579
    6        0.870   1.709   0.000   2.579
    7        0.870   1.696   0.000   2.566
    8        0.869   1.633   0.000   2.502
--------------------------------------------------
tot          6.808  13.015   0.000  19.823
 
    CHARGE:  cpu time    1.6162: real time    1.6166
    FORLOC:  cpu time    0.0077: real time    0.0077
    FORNL :  cpu time    2.3697: real time    2.3700
    STRESS:  cpu time   15.1879: real time   15.1902
    FORCOR:  cpu time    0.1132: real time    0.1132
    FORHAR:  cpu time    0.0298: real time    0.0298
    OFIELD:  cpu time    0.0011: real time    0.0011

  FORCE on cell =-STRESS in cart. coord.  units (eV):
  Direction    XX          YY          ZZ          XY          YZ          ZX
  --------------------------------------------------------------------------------------
  Alpha Z    14.64017    14.64017    14.64017
  Ewald    3499.83627  3499.92605 -4406.59780     0.00000    -0.00000    -0.00000
  Hartree  3441.14417  3441.55569 -3393.65515     0.00000    -0.00000    -0.00000
  E(xc)    -107.15187  -107.11473  -110.93529     0.00000    -0.00000    -0.00000
  Local   -7260.45114 -7257.26516  7465.20787    -0.00000     0.00000     0.00000
  n-local   -21.32935   -20.87735    -9.91136    -0.27512     0.00000     0.00000
  augment    -1.68073    -1.69299    -1.73679    -0.00000     0.00000    -0.00000
  Kinetic   435.48960   430.39205   443.50465     3.68506    -0.00000     0.00000
  Fock        0.00000     0.00000     0.00000     0.00000     0.00000     0.00000
  -------------------------------------------------------------------------------------
  Total       0.49712    -0.43627     0.51629     0.00000     0.00000     0.00000
  in kB       2.29878    -2.01738     2.38741     0.00000     0.00000     0.00000
  external pressure =        0.89 kB  Pullay stress =        0.00 kB


 VOLUME and BASIS-vectors are now :
 -----------------------------------------------------------------------------
  energy-cutoff  :      450.00
  volume of cell :      346.48
      direct lattice vectors                 reciprocal lattice vectors
     4.473000000  2.582000000  0.000000000     0.111781802  0.193648335  0.000000000
    -4.473000000  2.582000000  0.000000000    -0.111781802  0.193648335  0.000000000
     0.000000000  0.000000000 15.000000000     0.000000000  0.000000000  0.066666667

  length of vectors
     5.164731648  5.164731648 15.000000000     0.223595279  0.223595279  0.066666667


 FORCES acting on ions
    electron-ion (+dipol)            ewald-force                    non-local-force                 convergence-correction
 -----------------------------------------------------------------------------------------------
   -.918E+00 0.542E-04 0.554E-11   -.304E-01 -.129E-13 -.813E-19   -.542E+00 -.694E-17 -.265E-22   0.718E+00 0.406E-06 0.135E-11
   0.918E+00 0.542E-04 0.971E-12   0.304E-01 0.711E-14 -.516E-19   0.542E+00 0.104E-16 -.265E-22   -.718E+00 0.406E-06 0.136E-11
   0.917E+01 -.192E+02 -.908E-07   -.111E+02 0.193E+02 0.160E-17   0.363E+01 -.529E+01 0.265E-22   0.617E+00 0.101E+01 0.184E-11
   -.917E+01 -.192E+02 -.908E-07   0.111E+02 0.193E+02 0.184E-17   -.363E+01 -.529E+01 0.529E-22   -.617E+00 0.101E+01 0.167E-11
   -.208E+02 0.527E-03 0.263E-10   0.224E+02 -.142E-13 -.323E-18   -.583E+01 -.278E-16 -.331E-22   0.426E-01 -.597E-05 0.174E-11
   0.208E+02 0.527E-03 0.257E-10   -.224E+02 0.147E-13 -.386E-18   0.583E+01 0.555E-16 -.397E-22   -.426E-01 -.597E-05 0.209E-11
   0.917E+01 0.192E+02 0.908E-07   -.111E+02 -.193E+02 -.120E-17   0.363E+01 0.529E+01 0.265E-22   0.617E+00 -.101E+01 0.212E-11
   -.917E+01 0.192E+02 0.908E-07   0.111E+02 -.193E+02 -.140E-17   -.363E+01 0.529E+01 0.000E+00   -.617E+00 -.101E+01 0.184E-11
 -----------------------------------------------------------------------------------------------
   -.262E-11 0.348E-02 0.177E-09   -.142E-13 0.000E+00 -.578E-33   0.444E-15 0.888E-15 -.199E-22   -.309E-12 -.914E-06 0.140E-10
 
 
 POSITION                                       TOTAL-FORCE (eV/Angst)
 -----------------------------------------------------------------------------------
     -1.49100      2.58200      3.75000        -0.771838      0.000000      0.000000
      1.49100      2.58200      3.75000         0.771838      0.000000      0.000000
     -0.74550      1.29100      3.75000         2.286039     -4.098838      0.000000
      0.74550      1.29100      3.75000        -2.286039     -4.098838      0.000000
     -2.98200      2.58200      3.75000        -4.197991      0.000000     -0.000000
      2.98200      2.58200      3.75000         4.197991      0.000000     -0.000000
     -0.74550      3.87300      3.75000         2.286039      4.098838      0.000000
      0.74550      3.87300      3.75000        -2.286039      4.098838      0.000000
 -----------------------------------------------------------------------------------
    total drift:                               -0.000000      0.003474      0.000000


--------------------------------------------------------------------------------------------------------



  FREE ENERGIE OF THE ION-ELECTRON SYSTEM (eV)
  ---------------------------------------------------
  free  energy   TOTEN  =       -65.97235348 eV

  energy  without entropy=      -65.97169431  energy(sigma->0) =      -65.97202390
 


--------------------------------------------------------------------------------------------------------


    POTLOK:  cpu time    0.1135: real time    0.1136


--------------------------------------------------------------------------------------------------------


 writing wavefunctions
     LOOP+:  cpu time  238.4431: real time  240.9992
    4ORBIT:  cpu time    0.0000: real time    0.0000
 


 total charge     
 
# of ion       s       p       d       tot
------------------------------------------
    1        0.795   1.470   0.000   2.265
    2        0.795   1.470   0.000   2.265
    3        0.869   1.633   0.000   2.502
    4        0.870   1.696   0.000   2.566
    5        0.870   1.709   0.000   2.579
    6        0.870   1.709   0.000   2.579
    7        0.870   1.696   0.000   2.566
    8        0.869   1.633   0.000   2.502
--------------------------------------------------
tot          6.808  13.015   0.000  19.823
 

 total amount of memory used by VASP MPI-rank0   278283. kBytes
=======================================================================

   base      :      30000. kBytes
   nonl-proj :     186762. kBytes
   fftplans  :       3727. kBytes
   grid      :      10879. kBytes
   one-center:         24. kBytes
   wavefun   :      46891. kBytes
 
  
  
 General timing and accounting informations for this job:
 ========================================================
  
                  Total CPU time used (sec):      247.550
                            User time (sec):      246.043
                          System time (sec):        1.507
                         Elapsed time (sec):      250.755
  
                   Maximum memory used (kb):      401656.
                   Average memory used (kb):           0.
  
                          Minor page faults:        50330
                          Major page faults:            0
                 Voluntary context switches:        11934
