PROCAR lm decomposed
# of k-points:  192         # of bands:   24         # of ions:    8

 k-point     1 :    0.33300000 0.33300000 0.00000000     weight = 0.00520833

band     1 # energy  -18.50216349 # occ.  2.00000000
 
ion      s     py     pz     px    dxy    dyz    dz2    dxz  x2-y2    tot
    1  0.000  0.008  0.000  0.008  0.000  0.000  0.000  0.000  0.000  0.016
    2  0.000  0.008  0.000  0.008  0.000  0.000  0.000  0.000  0.000  0.016
    3  0.093  0.005  0.000  0.002  0.000  0.000  0.000  0.000  0.000  0.100
    4  0.093  0.005  0.000  0.002  0.000  0.000  0.000  0.000  0.000  0.100
    5  0.093  0.000  0.000  0.007  0.000  0.000  0.000  0.000  0.000  0.100
    6  0.093  0.000  0.000  0.007  0.000  0.000  0.000  0.000  0.000  0.100
    7  0.093  0.005  0.000  0.002  0.000  0.000  0.000  0.000  0.000  0.100
    8  0.093  0.005  0.000  0.002  0.000  0.000  0.000  0.000  0.000  0.100
tot    0.555  0.038  0.000  0.038  0.000  0.000  0.000  0.000  0.000  0.631
 
band     2 # energy  -17.33117819 # occ.  2.00000000
 
ion      s     py     pz     px    dxy    dyz    dz2    dxz  x2-y2    tot
    1  0.056  0.006  0.000  0.006  0.000  0.000  0.000  0.000  0.000  0.068
    2  0.056  0.006  0.000  0.006  0.000  0.000  0.000  0.000  0.000  0.068
    3  0.112  0.003  0.000  0.004  0.000  0.000  0.000  0.000  0.000  0.118
    4  0.112  0.003  0.000  0.004  0.000  0.000  0.000  0.000  0.000  0.118
    5  0.005  0.017  0.000  0.001  0.000  0.000  0.000  0.000  0.000  0.023
    6  0.005  0.017  0.000  0.001  0.000  0.000  0.000  0.000  0.000  0.023
    7  0.112  0.003  0.000  0.004  0.000  0.000  0.000  0.000  0.000  0.118
    8  0.112  0.003  0.000  0.004  0.000  0.000  0.000  0.000  0.000  0.118
tot    0.570  0.056  0.000  0.029  0.000  0.000  0.000  0.000  0.000  0.654
 
band     3 # energy  -17.32927123 # occ.  2.00000000
 
ion      s     py     pz     px    dxy    dyz    dz2    dxz  x2-y2    tot
    1  0.056  0.006  0.000  0.006  0.000  0.000  0.000  0.000  0.000  0.068
    2  0.056  0.006  0.000  0.006  0.000  0.000  0.000  0.000  0.000  0.068
    3  0.041  0.003  0.000  0.011  0.000  0.000  0.000  0.000  0.000  0.055
    4  0.041  0.003  0.000  0.011  0.000  0.000  0.000  0.000  0.000  0.055
    5  0.147  0.002  0.000  0.000  0.000  0.000  0.000  0.000  0.000  0.150
    6  0.147  0.002  0.000  0.000  0.000  0.000  0.000  0.000  0.000  0.150
    7  0.041  0.003  0.000  0.011  0.000  0.000  0.000  0.000  0.000  0.055
    8  0.041  0.003  0.000  0.011  0.000  0.000  0.000  0.000  0.000  0.055
tot    0.569  0.029  0.000  0.056  0.000  0.000  0.000  0.000  0.000  0.654
 
band     4 # energy  -12.86399258 # occ.  2.00000000
 
ion      s     py     pz     px    dxy    dyz    dz2    dxz  x2-y2    tot
    1  0.059  0.009  0.000  0.009  0.000  0.000  0.000  0.000  0.000  0.077
    2  0.059  0.009  0.000  0.009  0.000  0.000  0.000  0.000  0.000  0.077
    3  0.080  0.006  0.000  0.018  0.000  0.000  0.000  0.000  0.000  0.103
    4  0.080  0.006  0.000  0.018  0.000  0.000  0.000  0.000  0.000  0.103
    5  0.022  0.042  0.000  0.011  0.000  0.000  0.000  0.000  0.000  0.075
    6  0.022  0.042  0.000  0.011  0.000  0.000  0.000  0.000  0.000  0.075
    7  0.080  0.006  0.000  0.018  0.000  0.000  0.000  0.000  0.000  0.103
    8  0.080  0.006  0.000  0.018  0.000  0.000  0.000  0.000  0.000  0.103
tot    0.480  0.128  0.000  0.110  0.000  0.000  0.000  0.000  0.000  0.718
 
band     5 # energy  -12.85598945 # occ.  2.00000000
 
ion      s     py     pz     px    dxy    dyz    dz2    dxz  x2-y2    tot
    1  0.059  0.009  0.000  0.009  0.000  0.000  0.000  0.000  0.000  0.077
    2  0.059  0.009  0.000  0.009  0.000  0.000  0.000  0.000  0.000  0.077
    3  0.041  0.020  0.000  0.023  0.000  0.000  0.000  0.000  0.000  0.084
    4  0.041  0.020  0.000  0.023  0.000  0.000  0.000  0.000  0.000  0.084
    5  0.099  0.006  0.000  0.009  0.000  0.000  0.000  0.000  0.000  0.113
    6  0.099  0.006  0.000  0.009  0.000  0.000  0.000  0.000  0.000  0.113
    7  0.041  0.020  0.000  0.023  0.000  0.000  0.000  0.000  0.000  0.084
    8  0.041  0.020  0.000  0.023  0.000  0.000  0.000  0.000  0.000  0.084
tot    0.480  0.110  0.000  0.128  0.000  0.000  0.000  0.000  0.000  0.718
 
band     6 # energy  -10.91100006 # occ.  2.00000000
 
ion      s     py     pz     px    dxy    dyz    dz2    dxz  x2-y2    tot
    1  0.000  0.035  0.000  0.035  0.000  0.000  0.000  0.000  0.000  0.070
    2  0.000  0.035  0.000  0.035  0.000  0.000  0.000  0.000  0.000  0.070
    3  0.000  0.035  0.000  0.046  0.000  0.000  0.000  0.000  0.000  0.081
    4  0.000  0.035  0.000  0.046  0.000  0.000  0.000  0.000  0.000  0.081
    5  0.000  0.052  0.000  0.029  0.000  0.000  0.000  0.000  0.000  0.081
    6  0.000  0.052  0.000  0.029  0.000  0.000  0.000  0.000  0.000  0.081
    7  0.000  0.035  0.000  0.046  0.000  0.000  0.000  0.000  0.000  0.081
    8  0.000  0.035  0.000  0.046  0.000  0.000  0.000  0.000  0.000  0.081
tot    0.000  0.315  0.000  0.313  0.000  0.000  0.000  0.000  0.000  0.628
 
band     7 # energy   -8.19602942 # occ.  2.00000000
 
ion      s     py     pz     px    dxy    dyz    dz2    dxz  x2-y2    tot
    1  0.080  0.005  0.000  0.005  0.000  0.000  0.000  0.000  0.000  0.090
    2  0.080  0.005  0.000  0.005  0.000  0.000  0.000  0.000  0.000  0.090
    3  0.007  0.046  0.000  0.070  0.000  0.000  0.000  0.000  0.000  0.123
    4  0.007  0.046  0.000  0.070  0.000  0.000  0.000  0.000  0.000  0.123
    5  0.017  0.007  0.000  0.012  0.000  0.000  0.000  0.000  0.000  0.036
    6  0.017  0.007  0.000  0.012  0.000  0.000  0.000  0.000  0.000  0.036
    7  0.007  0.046  0.000  0.070  0.000  0.000  0.000  0.000  0.000  0.123
    8  0.007  0.046  0.000  0.070  0.000  0.000  0.000  0.000  0.000  0.123
tot    0.222  0.207  0.000  0.314  0.000  0.000  0.000  0.000  0.000  0.743
 
band     8 # energy   -8.19141534 # occ.  2.00000000
 
ion      s     py     pz     px    dxy    dyz    dz2    dxz  x2-y2    tot
    1  0.080  0.004  0.000  0.006  0.000  0.000  0.000  0.000  0.000  0.090
    2  0.080  0.004  0.000  0.006  0.000  0.000  0.000  0.000  0.000  0.090
    3  0.014  0.046  0.000  0.003  0.000  0.000  0.000  0.000  0.000  0.064
    4  0.014  0.046  0.000  0.003  0.000  0.000  0.000  0.000  0.000  0.064
    5  0.003  0.058  0.000  0.093  0.000  0.000  0.000  0.000  0.000  0.154
    6  0.003  0.058  0.000  0.093  0.000  0.000  0.000  0.000  0.000  0.154
    7  0.014  0.046  0.000  0.003  0.000  0.000  0.000  0.000  0.000  0.064
    8  0.014  0.046  0.000  0.003  0.000  0.000  0.000  0.000  0.000  0.064
tot    0.222  0.309  0.000  0.212  0.000  0.000  0.000  0.000  0.000  0.743
 
band     9 # energy   -8.06016346 # occ.  2.00000000
 
ion      s     py     pz     px    dxy    dyz    dz2    dxz  x2-y2    tot
    1  0.000  0.085  0.000  0.083  0.000  0.000  0.000  0.000  0.000  0.168
    2  0.000  0.085  0.000  0.083  0.000  0.000  0.000  0.000  0.000  0.168
    3  0.049  0.023  0.000  0.008  0.000  0.000  0.000  0.000  0.000  0.080
    4  0.049  0.023  0.000  0.008  0.000  0.000  0.000  0.000  0.000  0.080
    5  0.050  0.000  0.000  0.026  0.000  0.000  0.000  0.000  0.000  0.077
    6  0.050  0.000  0.000  0.026  0.000  0.000  0.000  0.000  0.000  0.077
    7  0.049  0.023  0.000  0.008  0.000  0.000  0.000  0.000  0.000  0.080
    8  0.049  0.023  0.000  0.008  0.000  0.000  0.000  0.000  0.000  0.080
tot    0.299  0.263  0.000  0.248  0.000  0.000  0.000  0.000  0.000  0.810
 
band    10 # energy   -7.53739753 # occ.  2.00000000
 
ion      s     py     pz     px    dxy    dyz    dz2    dxz  x2-y2    tot
    1  0.000  0.023  0.000  0.022  0.000  0.000  0.000  0.000  0.000  0.045
    2  0.000  0.023  0.000  0.022  0.000  0.000  0.000  0.000  0.000  0.045
    3  0.005  0.046  0.000  0.052  0.000  0.000  0.000  0.000  0.000  0.103
    4  0.005  0.046  0.000  0.052  0.000  0.000  0.000  0.000  0.000  0.103
    5  0.005  0.054  0.000  0.044  0.000  0.000  0.000  0.000  0.000  0.102
    6  0.005  0.054  0.000  0.044  0.000  0.000  0.000  0.000  0.000  0.102
    7  0.005  0.046  0.000  0.052  0.000  0.000  0.000  0.000  0.000  0.103
    8  0.005  0.046  0.000  0.052  0.000  0.000  0.000  0.000  0.000  0.103
tot    0.028  0.338  0.000  0.338  0.000  0.000  0.000  0.000  0.000  0.703
 
band    11 # energy   -6.91589281 # occ.  2.00000000
 
ion      s     py     pz     px    dxy    dyz    dz2    dxz  x2-y2    tot
    1  0.000  0.000  0.000  0.000  0.000  0.000  0.000  0.000  0.000  0.000
    2  0.000  0.000  0.000  0.000  0.000  0.000  0.000  0.000  0.000  0.000
    3  0.000  0.000  0.071  0.000  0.000  0.000  0.000  0.000  0.000  0.071
    4  0.000  0.000  0.071  0.000  0.000  0.000  0.000  0.000  0.000  0.071
    5  0.000  0.000  0.071  0.000  0.000  0.000  0.000  0.000  0.000  0.071
    6  0.000  0.000  0.071  0.000  0.000  0.000  0.000  0.000  0.000  0.071
    7  0.000  0.000  0.071  0.000  0.000  0.000  0.000  0.000  0.000  0.071
    8  0.000  0.000  0.071  0.000  0.000  0.000  0.000  0.000  0.000  0.071
tot    0.000  0.000  0.426  0.000  0.000  0.000  0.000  0.000  0.000  0.426
 
band    12 # energy   -6.68596713 # occ.  2.00000000
 
ion      s     py     pz     px    dxy    dyz    dz2    dxz  x2-y2    tot
    1  0.012  0.064  0.000  0.064  0.000  0.000  0.000  0.000  0.000  0.139
    2  0.012  0.064  0.000  0.064  0.000  0.000  0.000  0.000  0.000  0.139
    3  0.004  0.064  0.000  0.001  0.000  0.000  0.000  0.000  0.000  0.069
    4  0.004  0.064  0.000  0.001  0.000  0.000  0.000  0.000  0.000  0.069
    5  0.001  0.057  0.000  0.045  0.000  0.000  0.000  0.000  0.000  0.103
    6  0.001  0.057  0.000  0.045  0.000  0.000  0.000  0.000  0.000  0.103
    7  0.004  0.064  0.000  0.001  0.000  0.000  0.000  0.000  0.000  0.069
    8  0.004  0.064  0.000  0.001  0.000  0.000  0.000  0.000  0.000  0.069
tot    0.041  0.495  0.000  0.224  0.000  0.000  0.000  0.000  0.000  0.761
 
band    13 # energy   -6.68066240 # occ.  2.00000000
 
ion      s     py     pz     px    dxy    dyz    dz2    dxz  x2-y2    tot
    1  0.012  0.063  0.000  0.064  0.000  0.000  0.000  0.000  0.000  0.139
    2  0.012  0.063  0.000  0.064  0.000  0.000  0.000  0.000  0.000  0.139
    3  0.002  0.024  0.000  0.066  0.000  0.000  0.000  0.000  0.000  0.092
    4  0.002  0.024  0.000  0.066  0.000  0.000  0.000  0.000  0.000  0.092
    5  0.005  0.000  0.000  0.053  0.000  0.000  0.000  0.000  0.000  0.058
    6  0.005  0.000  0.000  0.053  0.000  0.000  0.000  0.000  0.000  0.058
    7  0.002  0.024  0.000  0.066  0.000  0.000  0.000  0.000  0.000  0.092
    8  0.002  0.024  0.000  0.066  0.000  0.000  0.000  0.000  0.000  0.092
tot    0.041  0.222  0.000  0.498  0.000  0.000  0.000  0.000  0.000  0.761
 
band    14 # energy   -6.36597521 # occ.  2.00000000
 
ion      s     py     pz     px    dxy    dyz    dz2    dxz  x2-y2    tot
    1  0.000  0.000  0.058  0.000  0.000  0.000  0.000  0.000  0.000  0.058
    2  0.000  0.000  0.058  0.000  0.000  0.000  0.000  0.000  0.000  0.058
    3  0.000  0.000  0.077  0.000  0.000  0.000  0.000  0.000  0.000  0.077
    4  0.000  0.000  0.077  0.000  0.000  0.000  0.000  0.000  0.000  0.077
    5  0.000  0.000  0.007  0.000  0.000  0.000  0.000  0.000  0.000  0.007
    6  0.000  0.000  0.007  0.000  0.000  0.000  0.000  0.000  0.000  0.007
    7  0.000  0.000  0.077  0.000  0.000  0.000  0.000  0.000  0.000  0.077
    8  0.000  0.000  0.077  0.000  0.000  0.000  0.000  0.000  0.000  0.077
tot    0.000  0.000  0.436  0.000  0.000  0.000  0.000  0.000  0.000  0.436
 
band    15 # energy   -6.36266377 # occ.  2.00000000
 
ion      s     py     pz     px    dxy    dyz    dz2    dxz  x2-y2    tot
    1  0.000  0.000  0.058  0.000  0.000  0.000  0.000  0.000  0.000  0.058
    2  0.000  0.000  0.058  0.000  0.000  0.000  0.000  0.000  0.000  0.058
    3  0.000  0.000  0.030  0.000  0.000  0.000  0.000  0.000  0.000  0.030
    4  0.000  0.000  0.030  0.000  0.000  0.000  0.000  0.000  0.000  0.030
    5  0.000  0.000  0.100  0.000  0.000  0.000  0.000  0.000  0.000  0.100
    6  0.000  0.000  0.100  0.000  0.000  0.000  0.000  0.000  0.000  0.100
    7  0.000  0.000  0.030  0.000  0.000  0.000  0.000  0.000  0.000  0.030
    8  0.000  0.000  0.030  0.000  0.000  0.000  0.000  0.000  0.000  0.030
tot    0.000  0.000  0.436  0.000  0.000  0.000  0.000  0.000  0.000  0.436
 
band    16 # energy   -1.60627262 # occ.  0.00000000
 
ion      s     py     pz     px    dxy    dyz    dz2    dxz  x2-y2    tot
    1  0.000  0.000  0.053  0.000  0.000  0.000  0.000  0.000  0.000  0.053
    2  0.000  0.000  0.053  0.000  0.000  0.000  0.000  0.000  0.000  0.053
    3  0.000  0.000  0.080  0.000  0.000  0.000  0.000  0.000  0.000  0.080
    4  0.000  0.000  0.080  0.000  0.000  0.000  0.000  0.000  0.000  0.080
    5  0.000  0.000  0.041  0.000  0.000  0.000  0.000  0.000  0.000  0.041
    6  0.000  0.000  0.041  0.000  0.000  0.000  0.000  0.000  0.000  0.041
    7  0.000  0.000  0.080  0.000  0.000  0.000  0.000  0.000  0.000  0.080
    8  0.000  0.000  0.080  0.000  0.000  0.000  0.000  0.000  0.000  0.080
tot    0.000  0.000  0.508  0.000  0.000  0.000  0.000  0.000  0.000  0.508
 
band    17 # energy   -1.59618250 # occ.  0.00000000
 
ion      s     py     pz     px    dxy    dyz    dz2    dxz  x2-y2    tot
    1  0.000  0.000  0.053  0.000  0.000  0.000  0.000  0.000  0.000  0.053
    2  0.000  0.000  0.053  0.000  0.000  0.000  0.000  0.000  0.000  0.053
    3  0.000  0.000  0.054  0.000  0.000  0.000  0.000  0.000  0.000  0.054
    4  0.000  0.000  0.054  0.000  0.000  0.000  0.000  0.000  0.000  0.054
    5  0.000  0.000  0.094  0.000  0.000  0.000  0.000  0.000  0.000  0.094
    6  0.000  0.000  0.094  0.000  0.000  0.000  0.000  0.000  0.000  0.094
    7  0.000  0.000  0.054  0.000  0.000  0.000  0.000  0.000  0.000  0.054
    8  0.000  0.000  0.054  0.000  0.000  0.000  0.000  0.000  0.000  0.054
tot    0.000  0.000  0.508  0.000  0.000  0.000  0.000  0.000  0.000  0.508
 
band    18 # energy    3.27465927 # occ.  0.00000000
 
ion      s     py     pz     px    dxy    dyz    dz2    dxz  x2-y2    tot
    1  0.002  0.000  0.000  0.000  0.000  0.000  0.000  0.000  0.000  0.002
    2  0.002  0.000  0.000  0.000  0.000  0.000  0.000  0.000  0.000  0.002
    3  0.002  0.002  0.000  0.000  0.000  0.000  0.000  0.000  0.000  0.004
    4  0.002  0.002  0.000  0.000  0.000  0.000  0.000  0.000  0.000  0.004
    5  0.001  0.001  0.000  0.001  0.000  0.000  0.000  0.000  0.000  0.003
    6  0.001  0.001  0.000  0.001  0.000  0.000  0.000  0.000  0.000  0.003
    7  0.002  0.002  0.000  0.000  0.000  0.000  0.000  0.000  0.000  0.004
    8  0.002  0.002  0.000  0.000  0.000  0.000  0.000  0.000  0.000  0.004
tot    0.015  0.009  0.000  0.003  0.000  0.000  0.000  0.000  0.000  0.026
 
band    19 # energy    3.27927255 # occ.  0.00000000
 
ion      s     py     pz     px    dxy    dyz    dz2    dxz  x2-y2    tot
    1  0.002  0.000  0.000  0.000  0.000  0.000  0.000  0.000  0.000  0.002
    2  0.002  0.000  0.000  0.000  0.000  0.000  0.000  0.000  0.000  0.002
    3  0.001  0.001  0.000  0.001  0.000  0.000  0.000  0.000  0.000  0.003
    4  0.001  0.001  0.000  0.001  0.000  0.000  0.000  0.000  0.000  0.003
    5  0.003  0.000  0.000  0.001  0.000  0.000  0.000  0.000  0.000  0.004
    6  0.003  0.000  0.000  0.001  0.000  0.000  0.000  0.000  0.000  0.004
    7  0.001  0.001  0.000  0.001  0.000  0.000  0.000  0.000  0.000  0.003
    8  0.001  0.001  0.000  0.001  0.000  0.000  0.000  0.000  0.000  0.003
tot    0.014  0.003  0.000  0.009  0.000  0.000  0.000  0.000  0.000  0.026
 
band    20 # energy    3.31766947 # occ.  0.00000000
 
ion      s     py     pz     px    dxy    dyz    dz2    dxz  x2-y2    tot
    1  0.000  0.000  0.000  0.000  0.000  0.000  0.000  0.000  0.000  0.001
    2  0.000  0.000  0.000  0.000  0.000  0.000  0.000  0.000  0.000  0.001
    3  0.003  0.000  0.000  0.000  0.000  0.000  0.000  0.000  0.000  0.003
    4  0.003  0.000  0.000  0.000  0.000  0.000  0.000  0.000  0.000  0.003
    5  0.002  0.000  0.000  0.000  0.000  0.000  0.000  0.000  0.000  0.003
    6  0.002  0.000  0.000  0.000  0.000  0.000  0.000  0.000  0.000  0.003
    7  0.003  0.000  0.000  0.000  0.000  0.000  0.000  0.000  0.000  0.003
    8  0.003  0.000  0.000  0.000  0.000  0.000  0.000  0.000  0.000  0.003
tot    0.016  0.002  0.000  0.002  0.000  0.000  0.000  0.000  0.000  0.020
 
band    21 # energy    3.43347829 # occ.  0.00000000
 
ion      s     py     pz     px    dxy    dyz    dz2    dxz  x2-y2    tot
    1  0.000  0.000  0.000  0.000  0.000  0.000  0.000  0.000  0.000  0.000
    2  0.000  0.000  0.000  0.000  0.000  0.000  0.000  0.000  0.000  0.000
    3  0.000  0.000  0.099  0.000  0.000  0.000  0.000  0.000  0.000  0.099
    4  0.000  0.000  0.099  0.000  0.000  0.000  0.000  0.000  0.000  0.099
    5  0.000  0.000  0.099  0.000  0.000  0.000  0.000  0.000  0.000  0.099
    6  0.000  0.000  0.099  0.000  0.000  0.000  0.000  0.000  0.000  0.099
    7  0.000  0.000  0.099  0.000  0.000  0.000  0.000  0.000  0.000  0.099
    8  0.000  0.000  0.099  0.000  0.000  0.000  0.000  0.000  0.000  0.099
tot    0.000  0.000  0.595  0.000  0.000  0.000  0.000  0.000  0.000  0.595
 
band    22 # energy    4.02699383 # occ.  0.00000000
 
ion      s     py     pz     px    dxy    dyz    dz2    dxz  x2-y2    tot
    1  0.000  0.000  0.003  0.000  0.000  0.000  0.000  0.000  0.000  0.003
    2  0.000  0.000  0.003  0.000  0.000  0.000  0.000  0.000  0.000  0.003
    3  0.000  0.000  0.015  0.000  0.000  0.000  0.000  0.000  0.000  0.015
    4  0.000  0.000  0.015  0.000  0.000  0.000  0.000  0.000  0.000  0.015
    5  0.000  0.000  0.020  0.000  0.000  0.000  0.000  0.000  0.000  0.020
    6  0.000  0.000  0.020  0.000  0.000  0.000  0.000  0.000  0.000  0.020
    7  0.000  0.000  0.015  0.000  0.000  0.000  0.000  0.000  0.000  0.015
    8  0.000  0.000  0.015  0.000  0.000  0.000  0.000  0.000  0.000  0.015
tot    0.000  0.000  0.104  0.000  0.000  0.000  0.000  0.000  0.000  0.104
 
band    23 # energy    4.03182398 # occ.  0.00000000
 
ion      s     py     pz     px    dxy    dyz    dz2    dxz  x2-y2    tot
    1  0.000  0.000  0.003  0.000  0.000  0.000  0.000  0.000  0.000  0.003
    2  0.000  0.000  0.003  0.000  0.000  0.000  0.000  0.000  0.000  0.003
    3  0.000  0.000  0.018  0.000  0.000  0.000  0.000  0.000  0.000  0.018
    4  0.000  0.000  0.018  0.000  0.000  0.000  0.000  0.000  0.000  0.018
    5  0.000  0.000  0.014  0.000  0.000  0.000  0.000  0.000  0.000  0.014
    6  0.000  0.000  0.014  0.000  0.000  0.000  0.000  0.000  0.000  0.014
    7  0.000  0.000  0.018  0.000  0.000  0.000  0.000  0.000  0.000  0.018
    8  0.000  0.000  0.018  0.000  0.000  0.000  0.000  0.000  0.000  0.018
tot    0.000  0.000  0.103  0.000  0.000  0.000  0.000  0.000  0.000  0.103
 
band    24 # energy    4.12748225 # occ.  0.00000000
 
ion      s     py     pz     px    dxy    dyz    dz2    dxz  x2-y2    tot
    1  0.000  0.000  0.000  0.000  0.000  0.000  0.000  0.000  0.000  0.000
    2  0.000  0.000  0.000  0.000  0.000  0.000  0.000  0.000  0.000  0.000
    3  0.000  0.000  0.006  0.000  0.000  0.000  0.000  0.000  0.000  0.006
    4  0.000  0.000  0.006  0.000  0.000  0.000  0.000  0.000  0.000  0.006
    5  0.000  0.000  0.005  0.000  0.000  0.000  0.000  0.000  0.000  0.005
    6  0.000  0.000  0.005  0.000  0.000  0.000  0.000  0.000  0.000  0.005
    7  0.000  0.000  0.006  0.000  0.000  0.000  0.000  0.000  0.000  0.006
    8  0.000  0.000  0.006  0.000  0.000  0.000  0.000  0.000  0.000  0.006
tot    0.000  0.000  0.031  0.000  0.000  0.000  0.000  0.000  0.000  0.031
 

 k-point     2 :    0.32771429 0.32771429 0.00000000     weight = 0.00520833

band     1 # energy  -18.50311789 # occ.  2.00000000
 
ion      s     py     pz     px    dxy    dyz    dz2    dxz  x2-y2    tot
    1  0.000  0.008  0.000  0.007  0.000  0.000  0.000  0.000  0.000  0.016
    2  0.000  0.008  0.000  0.007  0.000  0.000  0.000  0.000  0.000  0.016
    3  0.092  0.006  0.000  0.002  0.000  0.000  0.000  0.000  0.000  0.099
    4  0.092  0.006  0.000  0.002  0.000  0.000  0.000  0.000  0.000  0.099
    5  0.094  0.000  0.000  0.007  0.000  0.000  0.000  0.000  0.000  0.102
    6  0.094  0.000  0.000  0.007  0.000  0.000  0.000  0.000  0.000  0.102
    7  0.092  0.006  0.000  0.002  0.000  0.000  0.000  0.000  0.000  0.099
    8  0.092  0.006  0.000  0.002  0.000  0.000  0.000  0.000  0.000  0.099
tot    0.556  0.040  0.000  0.036  0.000  0.000  0.000  0.000  0.000  0.631
 
band     2 # energy  -17.35296084 # occ.  2.00000000
 
ion      s     py     pz     px    dxy    dyz    dz2    dxz  x2-y2    tot
    1  0.056  0.005  0.000  0.007  0.000  0.000  0.000  0.000  0.000  0.068
    2  0.056  0.005  0.000  0.007  0.000  0.000  0.000  0.000  0.000  0.068
    3  0.112  0.003  0.000  0.004  0.000  0.000  0.000  0.000  0.000  0.119
    4  0.112  0.003  0.000  0.004  0.000  0.000  0.000  0.000  0.000  0.119
    5  0.004  0.016  0.000  0.001  0.000  0.000  0.000  0.000  0.000  0.022
    6  0.004  0.016  0.000  0.001  0.000  0.000  0.000  0.000  0.000  0.022
    7  0.112  0.003  0.000  0.004  0.000  0.000  0.000  0.000  0.000  0.119
    8  0.112  0.003  0.000  0.004  0.000  0.000  0.000  0.000  0.000  0.119
tot    0.571  0.053  0.000  0.031  0.000  0.000  0.000  0.000  0.000  0.654
 
band     3 # energy  -17.30541468 # occ.  2.00000000
 
ion      s     py     pz     px    dxy    dyz    dz2    dxz  x2-y2    tot
    1  0.055  0.006  0.000  0.006  0.000  0.000  0.000  0.000  0.000  0.067
    2  0.055  0.006  0.000  0.006  0.000  0.000  0.000  0.000  0.000  0.067
    3  0.041  0.003  0.000  0.011  0.000  0.000  0.000  0.000  0.000  0.055
    4  0.041  0.003  0.000  0.011  0.000  0.000  0.000  0.000  0.000  0.055
    5  0.147  0.003  0.000  0.000  0.000  0.000  0.000  0.000  0.000  0.150
    6  0.147  0.003  0.000  0.000  0.000  0.000  0.000  0.000  0.000  0.150
    7  0.041  0.003  0.000  0.011  0.000  0.000  0.000  0.000  0.000  0.055
    8  0.041  0.003  0.000  0.011  0.000  0.000  0.000  0.000  0.000  0.055
tot    0.568  0.030  0.000  0.056  0.000  0.000  0.000  0.000  0.000  0.655
 
band     4 # energy  -12.90570921 # occ.  2.00000000
 
ion      s     py     pz     px    dxy    dyz    dz2    dxz  x2-y2    tot
    1  0.060  0.008  0.000  0.009  0.000  0.000  0.000  0.000  0.000  0.078
    2  0.060  0.008  0.000  0.009  0.000  0.000  0.000  0.000  0.000  0.078
    3  0.079  0.006  0.000  0.018  0.000  0.000  0.000  0.000  0.000  0.103
    4  0.079  0.006  0.000  0.018  0.000  0.000  0.000  0.000  0.000  0.103
    5  0.022  0.041  0.000  0.011  0.000  0.000  0.000  0.000  0.000  0.075
    6  0.022  0.041  0.000  0.011  0.000  0.000  0.000  0.000  0.000  0.075
    7  0.079  0.006  0.000  0.018  0.000  0.000  0.000  0.000  0.000  0.103
    8  0.079  0.006  0.000  0.018  0.000  0.000  0.000  0.000  0.000  0.103
tot    0.483  0.124  0.000  0.111  0.000  0.000  0.000  0.000  0.000  0.718
 
band     5 # energy  -12.81645634 # occ.  2.00000000
 
ion      s     py     pz     px    dxy    dyz    dz2    dxz  x2-y2    tot
    1  0.057  0.008  0.000  0.011  0.000  0.000  0.000  0.000  0.000  0.077
    2  0.057  0.008  0.000  0.011  0.000  0.000  0.000  0.000  0.000  0.077
    3  0.041  0.018  0.000  0.025  0.000  0.000  0.000  0.000  0.000  0.085
    4  0.041  0.018  0.000  0.025  0.000  0.000  0.000  0.000  0.000  0.085
    5  0.098  0.005  0.000  0.010  0.000  0.000  0.000  0.000  0.000  0.113
    6  0.098  0.005  0.000  0.010  0.000  0.000  0.000  0.000  0.000  0.113
    7  0.041  0.018  0.000  0.025  0.000  0.000  0.000  0.000  0.000  0.085
    8  0.041  0.018  0.000  0.025  0.000  0.000  0.000  0.000  0.000  0.085
tot    0.477  0.100  0.000  0.141  0.000  0.000  0.000  0.000  0.000  0.718
 
band     6 # energy  -10.90790340 # occ.  2.00000000
 
ion      s     py     pz     px    dxy    dyz    dz2    dxz  x2-y2    tot
    1  0.000  0.036  0.000  0.034  0.000  0.000  0.000  0.000  0.000  0.070
    2  0.000  0.036  0.000  0.034  0.000  0.000  0.000  0.000  0.000  0.070
    3  0.000  0.037  0.000  0.044  0.000  0.000  0.000  0.000  0.000  0.081
    4  0.000  0.037  0.000  0.044  0.000  0.000  0.000  0.000  0.000  0.081
    5  0.000  0.053  0.000  0.028  0.000  0.000  0.000  0.000  0.000  0.082
    6  0.000  0.053  0.000  0.028  0.000  0.000  0.000  0.000  0.000  0.082
    7  0.000  0.037  0.000  0.044  0.000  0.000  0.000  0.000  0.000  0.081
    8  0.000  0.037  0.000  0.044  0.000  0.000  0.000  0.000  0.000  0.081
tot    0.001  0.328  0.000  0.299  0.000  0.000  0.000  0.000  0.000  0.628
 
band     7 # energy   -8.24503232 # occ.  2.00000000
 
ion      s     py     pz     px    dxy    dyz    dz2    dxz  x2-y2    tot
    1  0.079  0.007  0.000  0.005  0.000  0.000  0.000  0.000  0.000  0.090
    2  0.079  0.007  0.000  0.005  0.000  0.000  0.000  0.000  0.000  0.090
    3  0.008  0.051  0.000  0.061  0.000  0.000  0.000  0.000  0.000  0.120
    4  0.008  0.051  0.000  0.061  0.000  0.000  0.000  0.000  0.000  0.120
    5  0.016  0.009  0.000  0.014  0.000  0.000  0.000  0.000  0.000  0.040
    6  0.016  0.009  0.000  0.014  0.000  0.000  0.000  0.000  0.000  0.040
    7  0.008  0.051  0.000  0.061  0.000  0.000  0.000  0.000  0.000  0.120
    8  0.008  0.051  0.000  0.061  0.000  0.000  0.000  0.000  0.000  0.120
tot    0.223  0.236  0.000  0.283  0.000  0.000  0.000  0.000  0.000  0.742
 
band     8 # energy   -8.17666525 # occ.  2.00000000
 
ion      s     py     pz     px    dxy    dyz    dz2    dxz  x2-y2    tot
    1  0.065  0.005  0.000  0.036  0.000  0.000  0.000  0.000  0.000  0.106
    2  0.065  0.005  0.000  0.036  0.000  0.000  0.000  0.000  0.000  0.106
    3  0.026  0.022  0.000  0.003  0.000  0.000  0.000  0.000  0.000  0.051
    4  0.026  0.022  0.000  0.003  0.000  0.000  0.000  0.000  0.000  0.051
    5  0.003  0.053  0.000  0.115  0.000  0.000  0.000  0.000  0.000  0.171
    6  0.003  0.053  0.000  0.115  0.000  0.000  0.000  0.000  0.000  0.171
    7  0.026  0.022  0.000  0.003  0.000  0.000  0.000  0.000  0.000  0.051
    8  0.026  0.022  0.000  0.003  0.000  0.000  0.000  0.000  0.000  0.051
tot    0.241  0.205  0.000  0.311  0.000  0.000  0.000  0.000  0.000  0.757
 
band     9 # energy   -8.03141589 # occ.  2.00000000
 
ion      s     py     pz     px    dxy    dyz    dz2    dxz  x2-y2    tot
    1  0.015  0.090  0.000  0.047  0.000  0.000  0.000  0.000  0.000  0.151
    2  0.015  0.090  0.000  0.047  0.000  0.000  0.000  0.000  0.000  0.151
    3  0.037  0.049  0.000  0.009  0.000  0.000  0.000  0.000  0.000  0.094
    4  0.037  0.049  0.000  0.009  0.000  0.000  0.000  0.000  0.000  0.094
    5  0.051  0.008  0.000  0.000  0.000  0.000  0.000  0.000  0.000  0.058
    6  0.051  0.008  0.000  0.000  0.000  0.000  0.000  0.000  0.000  0.058
    7  0.037  0.049  0.000  0.009  0.000  0.000  0.000  0.000  0.000  0.094
    8  0.037  0.049  0.000  0.009  0.000  0.000  0.000  0.000  0.000  0.094
tot    0.278  0.389  0.000  0.129  0.000  0.000  0.000  0.000  0.000  0.796
 
band    10 # energy   -7.53770143 # occ.  2.00000000
 
ion      s     py     pz     px    dxy    dyz    dz2    dxz  x2-y2    tot
    1  0.001  0.026  0.000  0.019  0.000  0.000  0.000  0.000  0.000  0.045
    2  0.001  0.026  0.000  0.019  0.000  0.000  0.000  0.000  0.000  0.045
    3  0.004  0.043  0.000  0.060  0.000  0.000  0.000  0.000  0.000  0.107
    4  0.004  0.043  0.000  0.060  0.000  0.000  0.000  0.000  0.000  0.107
    5  0.005  0.051  0.000  0.036  0.000  0.000  0.000  0.000  0.000  0.092
    6  0.005  0.051  0.000  0.036  0.000  0.000  0.000  0.000  0.000  0.092
    7  0.004  0.043  0.000  0.060  0.000  0.000  0.000  0.000  0.000  0.107
    8  0.004  0.043  0.000  0.060  0.000  0.000  0.000  0.000  0.000  0.107
tot    0.029  0.325  0.000  0.350  0.000  0.000  0.000  0.000  0.000  0.704
 
band    11 # energy   -6.91950693 # occ.  2.00000000
 
ion      s     py     pz     px    dxy    dyz    dz2    dxz  x2-y2    tot
    1  0.000  0.000  0.000  0.000  0.000  0.000  0.000  0.000  0.000  0.000
    2  0.000  0.000  0.000  0.000  0.000  0.000  0.000  0.000  0.000  0.000
    3  0.000  0.000  0.069  0.000  0.000  0.000  0.000  0.000  0.000  0.069
    4  0.000  0.000  0.069  0.000  0.000  0.000  0.000  0.000  0.000  0.069
    5  0.000  0.000  0.074  0.000  0.000  0.000  0.000  0.000  0.000  0.074
    6  0.000  0.000  0.074  0.000  0.000  0.000  0.000  0.000  0.000  0.074
    7  0.000  0.000  0.069  0.000  0.000  0.000  0.000  0.000  0.000  0.069
    8  0.000  0.000  0.069  0.000  0.000  0.000  0.000  0.000  0.000  0.069
tot    0.000  0.000  0.426  0.000  0.000  0.000  0.000  0.000  0.000  0.426
 
band    12 # energy   -6.72128417 # occ.  2.00000000
 
ion      s     py     pz     px    dxy    dyz    dz2    dxz  x2-y2    tot
    1  0.011  0.058  0.000  0.070  0.000  0.000  0.000  0.000  0.000  0.139
    2  0.011  0.058  0.000  0.070  0.000  0.000  0.000  0.000  0.000  0.139
    3  0.004  0.062  0.000  0.001  0.000  0.000  0.000  0.000  0.000  0.068
    4  0.004  0.062  0.000  0.001  0.000  0.000  0.000  0.000  0.000  0.068
    5  0.001  0.054  0.000  0.050  0.000  0.000  0.000  0.000  0.000  0.105
    6  0.001  0.054  0.000  0.050  0.000  0.000  0.000  0.000  0.000  0.105
    7  0.004  0.062  0.000  0.001  0.000  0.000  0.000  0.000  0.000  0.068
    8  0.004  0.062  0.000  0.001  0.000  0.000  0.000  0.000  0.000  0.068
tot    0.041  0.473  0.000  0.245  0.000  0.000  0.000  0.000  0.000  0.760
 
band    13 # energy   -6.64002104 # occ.  2.00000000
 
ion      s     py     pz     px    dxy    dyz    dz2    dxz  x2-y2    tot
    1  0.012  0.059  0.000  0.068  0.000  0.000  0.000  0.000  0.000  0.139
    2  0.012  0.059  0.000  0.068  0.000  0.000  0.000  0.000  0.000  0.139
    3  0.002  0.021  0.000  0.067  0.000  0.000  0.000  0.000  0.000  0.089