 running on   12 total cores
 distrk:  each k-point on   12 cores,    1 groups
 distr:  one band on    1 cores,   12 groups
 using from now: INCAR     
 vasp.5.4.4.18Apr17-6-g9f103f2a35 (build Mar 30 2023 15:39:25) complex          
  
 POSCAR found type information on POSCAR  B  C 
 POSCAR found :  2 types and       8 ions
 scaLAPACK will be used

 ----------------------------------------------------------------------------- 
|                                                                             |
|           W    W    AA    RRRRR   N    N  II  N    N   GGGG   !!!           |
|           W    W   A  A   R    R  NN   N  II  NN   N  G    G  !!!           |
|           W    W  A    A  R    R  N N  N  II  N N  N  G       !!!           |
|           W WW W  AAAAAA  RRRRR   N  N N  II  N  N N  G  GGG   !            |
|           WW  WW  A    A  R   R   N   NN  II  N   NN  G    G                |
|           W    W  A    A  R    R  N    N  II  N    N   GGGG   !!!           |
|                                                                             |
|      For optimal performance we recommend to set                            |
|        NCORE= 4 - approx SQRT( number of cores)                             |
|      NCORE specifies how many cores store one orbital (NPAR=cpu/NCORE).     |
|      This setting can  greatly improve the performance of VASP for DFT.     |
|      The default,   NCORE=1            might be grossly inefficient         |
|      on modern multi-core architectures or massively parallel machines.     |
|      Do your own testing !!!!                                               |
|      Unfortunately you need to use the default for GW and RPA calculations. |
|      (for HF NCORE is supported but not extensively tested yet)             |
|                                                                             |
 ----------------------------------------------------------------------------- 

 LDA part: xc-table for Pade appr. of Perdew
 WARNING: stress and forces are not correct
 POSCAR, INCAR and KPOINTS ok, starting setup
 FFT: planning ...
 WAVECAR not read
 charge-density read from file: BC3                                     
 entering main loop
       N       E                     dE             d eps       ncg     rms          rms(c)
DAV:   1     0.170360341891E+03    0.17036E+03   -0.98596E+03  9216   0.822E+02
DAV:   2    -0.404912716275E+02   -0.21085E+03   -0.19233E+03 15696   0.166E+02
DAV:   3    -0.653942031290E+02   -0.24903E+02   -0.24620E+02 10248   0.716E+01
DAV:   4    -0.659557845944E+02   -0.56158E+00   -0.56069E+00 12036   0.131E+01
DAV:   5    -0.659716472363E+02   -0.15863E-01   -0.15847E-01 12372   0.198E+00
DAV:   6    -0.659723450081E+02   -0.69777E-03   -0.69774E-03 13716   0.420E-01
DAV:   7    -0.659723532773E+02   -0.82692E-05   -0.82691E-05 13032   0.354E-02
DAV:   8    -0.659723534824E+02   -0.20507E-06   -0.20509E-06 12360   0.471E-03
   1 F= -.65972353E+02 E0= -.65972024E+02  d E =-.659172E-03
 writing wavefunctions
