 running on   12 total cores
 distrk:  each k-point on   12 cores,    1 groups
 distr:  one band on    1 cores,   12 groups
 using from now: INCAR     
 vasp.5.4.4.18Apr17-6-g9f103f2a35 (build Mar 30 2023 15:39:25) complex          
  
 POSCAR found type information on POSCAR  B  C 
 POSCAR found :  2 types and       8 ions
 scaLAPACK will be used

 ----------------------------------------------------------------------------- 
|                                                                             |
|           W    W    AA    RRRRR   N    N  II  N    N   GGGG   !!!           |
|           W    W   A  A   R    R  NN   N  II  NN   N  G    G  !!!           |
|           W    W  A    A  R    R  N N  N  II  N N  N  G       !!!           |
|           W WW W  AAAAAA  RRRRR   N  N N  II  N  N N  G  GGG   !            |
|           WW  WW  A    A  R   R   N   NN  II  N   NN  G    G                |
|           W    W  A    A  R    R  N    N  II  N    N   GGGG   !!!           |
|                                                                             |
|      For optimal performance we recommend to set                            |
|        NCORE= 4 - approx SQRT( number of cores)                             |
|      NCORE specifies how many cores store one orbital (NPAR=cpu/NCORE).     |
|      This setting can  greatly improve the performance of VASP for DFT.     |
|      The default,   NCORE=1            might be grossly inefficient         |
|      on modern multi-core architectures or massively parallel machines.     |
|      Do your own testing !!!!                                               |
|      Unfortunately you need to use the default for GW and RPA calculations. |
|      (for HF NCORE is supported but not extensively tested yet)             |
|                                                                             |
 ----------------------------------------------------------------------------- 

 LDA part: xc-table for Pade appr. of Perdew
 POSCAR, INCAR and KPOINTS ok, starting setup
 FFT: planning ...
 WAVECAR not read
 entering main loop
       N       E                     dE             d eps       ncg     rms          rms(c)
DAV:   1     0.208596686129E+03    0.20860E+03   -0.97767E+03  2184   0.793E+02
DAV:   2    -0.394034265742E+02   -0.24800E+03   -0.23363E+03  3360   0.184E+02
DAV:   3    -0.725963848142E+02   -0.33193E+02   -0.32777E+02  2652   0.815E+01
DAV:   4    -0.734156651961E+02   -0.81928E+00   -0.81726E+00  2952   0.159E+01
DAV:   5    -0.734373150415E+02   -0.21650E-01   -0.21621E-01  2676   0.236E+00    0.131E+01
DAV:   6    -0.689783061363E+02    0.44590E+01   -0.52825E+00  2976   0.105E+01    0.740E+00
DAV:   7    -0.673327222416E+02    0.16456E+01   -0.39705E+00  3036   0.910E+00    0.215E+00
DAV:   8    -0.672526005346E+02    0.80122E-01   -0.21618E-01  3192   0.214E+00    0.580E-01
DAV:   9    -0.672347615380E+02    0.17839E-01   -0.16844E-02  2544   0.729E-01    0.175E-01
DAV:  10    -0.672233178649E+02    0.11444E-01   -0.10426E-02  2640   0.410E-01    0.127E-01
DAV:  11    -0.672226420939E+02    0.67577E-03   -0.47842E-03  2364   0.301E-01    0.573E-02
DAV:  12    -0.672228629145E+02   -0.22082E-03   -0.14216E-03  2304   0.141E-01    0.359E-02
DAV:  13    -0.672271078961E+02   -0.42450E-02   -0.49069E-04  2100   0.906E-02    0.210E-02
DAV:  14    -0.672296778897E+02   -0.25700E-02   -0.36177E-04  2364   0.625E-02    0.127E-02
DAV:  15    -0.672301917579E+02   -0.51387E-03   -0.33744E-05  2244   0.217E-02    0.440E-03
DAV:  16    -0.672305244436E+02   -0.33269E-03   -0.35439E-05  2112   0.167E-02    0.185E-03
DAV:  17    -0.672305758958E+02   -0.51452E-04   -0.31489E-06  2448   0.570E-03    0.148E-03
DAV:  18    -0.672306136574E+02   -0.37762E-04   -0.31462E-06  2232   0.552E-03    0.119E-03
DAV:  19    -0.672306196954E+02   -0.60380E-05   -0.14670E-07  1824   0.177E-03    0.512E-04
DAV:  20    -0.672306325165E+02   -0.12821E-04   -0.83731E-08  1548   0.121E-03    0.371E-04
DAV:  21    -0.672306345169E+02   -0.20004E-05   -0.10498E-08  1716   0.417E-04    0.137E-04
DAV:  22    -0.672306352837E+02   -0.76686E-06   -0.10271E-08  1572   0.390E-04
   1 F= -.67230635E+02 E0= -.67230635E+02  d E =-.672306E+02
 curvature:   0.00 expect dE= 0.000E+00 dE for cont linesearch  0.000E+00
 trial: gam= 0.00000 g(F)=  0.990E-04 g(S)=  0.282E-03 ort = 0.000E+00 (trialstep = 0.100E+01)
 search vector abs. value=  0.381E-03
 bond charge predicted
       N       E                     dE             d eps       ncg     rms          rms(c)
DAV:   1    -0.672308583291E+02   -0.22381E-03   -0.21976E-02  2304   0.900E-01    0.664E-02
DAV:   2    -0.672307316442E+02    0.12668E-03   -0.42998E-04  2196   0.109E-01    0.413E-02
DAV:   3    -0.672306496513E+02    0.81993E-04   -0.15185E-04  2292   0.566E-02    0.547E-03
DAV:   4    -0.672306479286E+02    0.17228E-05   -0.47036E-06  2364   0.113E-02    0.302E-03
DAV:   5    -0.672306520608E+02   -0.41322E-05   -0.11934E-06  1764   0.533E-03    0.983E-04
DAV:   6    -0.672306564103E+02   -0.43495E-05   -0.27492E-07  1932   0.231E-03    0.732E-04
DAV:   7    -0.672306659530E+02   -0.95427E-05   -0.96280E-07  2280   0.283E-03    0.484E-04
DAV:   8    -0.672306693870E+02   -0.34340E-05   -0.15389E-07  1908   0.147E-03    0.268E-04
DAV:   9    -0.672306718858E+02   -0.24988E-05   -0.18946E-07  1692   0.115E-03    0.192E-04
DAV:  10    -0.672306736537E+02   -0.17680E-05   -0.10800E-07  1548   0.862E-04    0.102E-04
DAV:  11    -0.672306738648E+02   -0.21106E-06   -0.85402E-09  1812   0.281E-04
   2 F= -.67230674E+02 E0= -.67230674E+02  d E =-.385810E-04
 trial-energy change:   -0.000039  1 .order   -0.000035   -0.000381    0.000311
 step:   0.5503(harm=  0.5503)  dis= 0.00048  next Energy=   -67.230740 (dE=-0.105E-03)
 bond charge predicted
       N       E                     dE             d eps       ncg     rms          rms(c)
DAV:   1    -0.672307817830E+02   -0.10813E-03   -0.44371E-03  2088   0.404E-01    0.297E-02
DAV:   2    -0.672307556948E+02    0.26088E-04   -0.87002E-05  2064   0.494E-02    0.186E-02
DAV:   3    -0.672307388847E+02    0.16810E-04   -0.30494E-05  2172   0.253E-02    0.252E-03
DAV:   4    -0.672307375773E+02    0.13074E-05   -0.83024E-07  2064   0.506E-03    0.132E-03
DAV:   5    -0.672307368244E+02    0.75293E-06   -0.39428E-07  1788   0.310E-03
   3 F= -.67230737E+02 E0= -.67230737E+02  d E =-.101541E-03
 curvature:  -0.28 expect dE=-0.999E-04 dE for cont linesearch -0.138E-07
 trial: gam= 0.96507 g(F)=  0.109E-03 g(S)=  0.254E-03 ort =-0.437E-05 (trialstep = 0.489E+00)
 search vector abs. value=  0.709E-03
 bond charge predicted
       N       E                     dE             d eps       ncg     rms          rms(c)
DAV:   1    -0.672311704789E+02   -0.43290E-03   -0.95756E-03  2556   0.522E-01    0.634E-02
DAV:   2    -0.672309909919E+02    0.17949E-03   -0.21861E-04  2136   0.768E-02    0.331E-02
DAV:   3    -0.672308936815E+02    0.97310E-04   -0.21256E-04  2112   0.646E-02    0.928E-03
DAV:   4    -0.672308932019E+02    0.47955E-06   -0.66290E-06  2496   0.140E-02
   4 F= -.67230893E+02 E0= -.67230893E+02  d E =-.156378E-03
 ZBRENT: can't locate minimum, use default step
 trial-energy change:   -0.000156  1 .order   -0.000194   -0.000175   -0.000213
 step:   1.9542(harm=  1.9542)  dis= 0.00051  next Energy=   -67.231739 (dE=-0.100E-02)
 bond charge predicted
       N       E                     dE             d eps       ncg     rms          rms(c)
DAV:   1    -0.672337396591E+02   -0.28460E-02   -0.85467E-02  2208   0.157E+00    0.189E-01
DAV:   2    -0.672320101183E+02    0.17295E-02   -0.19193E-03  2412   0.231E-01    0.992E-02
DAV:   3    -0.672311700410E+02    0.84008E-03   -0.20160E-03  2304   0.198E-01    0.289E-02
DAV:   4    -0.672311883917E+02   -0.18351E-04   -0.63237E-05  2340   0.432E-02    0.155E-02
DAV:   5    -0.672312079082E+02   -0.19516E-04   -0.34996E-05  2376   0.258E-02    0.698E-03
DAV:   6    -0.672312858502E+02   -0.77942E-04   -0.12838E-05  2376   0.156E-02    0.541E-03
DAV:   7    -0.672313174404E+02   -0.31590E-04   -0.37530E-06  2508   0.652E-03    0.348E-03
DAV:   8    -0.672313615378E+02   -0.44097E-04   -0.11288E-05  2280   0.103E-02    0.224E-03
DAV:   9    -0.672313715084E+02   -0.99705E-05   -0.99519E-07  2280   0.347E-03    0.133E-03
DAV:  10    -0.672313752652E+02   -0.37568E-05   -0.47852E-07  1548   0.314E-03    0.933E-04
DAV:  11    -0.672313765892E+02   -0.13240E-05   -0.12057E-07  1644   0.137E-03    0.451E-04
DAV:  12    -0.672313769239E+02   -0.33475E-06   -0.35924E-08  1620   0.851E-04
   5 F= -.67231377E+02 E0= -.67231377E+02  d E =-.640100E-03
 curvature:  -3.02 expect dE=-0.212E-02 dE for cont linesearch -0.334E-03
 ZBRENT: increasing intervall
 opt :   4.8855  next Energy=   -67.231742 (dE=-0.100E-02)
 bond charge predicted
       N       E                     dE             d eps       ncg     rms          rms(c)
DAV:   1    -0.672415049961E+02   -0.10128E-01   -0.34879E-01  2496   0.316E+00    0.383E-01
DAV:   2    -0.672347390345E+02    0.67660E-02   -0.78923E-03  2220   0.462E-01    0.200E-01
DAV:   3    -0.672316270118E+02    0.31120E-02   -0.78224E-03  2532   0.390E-01    0.567E-02
DAV:   4    -0.672316377962E+02   -0.10784E-04   -0.25693E-04  2412   0.855E-02    0.292E-02
DAV:   5    -0.672316600942E+02   -0.22298E-04   -0.12431E-04  2448   0.490E-02    0.136E-02
DAV:   6    -0.672318214860E+02   -0.16139E-03   -0.37560E-05  2400   0.277E-02    0.923E-03
DAV:   7    -0.672318875128E+02   -0.66027E-04   -0.10124E-05  2496   0.110E-02    0.618E-03
DAV:   8    -0.672319798637E+02   -0.92351E-04   -0.30746E-05  2364   0.172E-02    0.358E-03
DAV:   9    -0.672319998960E+02   -0.20032E-04   -0.27551E-06  2448   0.571E-03    0.251E-03
DAV:  10    -0.672320075915E+02   -0.76955E-05   -0.14548E-06  1560   0.556E-03    0.166E-03
DAV:  11    -0.672320101338E+02   -0.25422E-05   -0.30871E-07  1644   0.232E-03    0.806E-04
DAV:  12    -0.672320110094E+02   -0.87561E-06   -0.12288E-07  1620   0.159E-03
   6 F= -.67232011E+02 E0= -.67232011E+02  d E =-.127418E-02
 curvature:  -3.30 expect dE=-0.107E-01 dE for cont linesearch -0.104E-03
 ZBRENT: increasing intervall
 opt :  10.7480  next Energy=   -67.232121 (dE=-0.138E-02)
 bond charge predicted
       N       E                     dE             d eps       ncg     rms          rms(c)
DAV:   1    -0.672707167622E+02   -0.38707E-01   -0.14211E+00  2472   0.640E+00    0.774E-01
DAV:   2    -0.672434815962E+02    0.27235E-01   -0.31729E-02  2400   0.931E-01    0.403E-01
DAV:   3    -0.672313830445E+02    0.12099E-01   -0.31771E-02  2484   0.785E-01    0.113E-01
DAV:   4    -0.672313879959E+02   -0.49514E-05   -0.10759E-03  2460   0.173E-01    0.577E-02
DAV:   5    -0.672313806073E+02    0.73887E-05   -0.49476E-04  2340   0.982E-02    0.268E-02
DAV:   6    -0.672317849711E+02   -0.40436E-03   -0.13675E-04  2340   0.544E-02    0.178E-02
DAV:   7    -0.672319228476E+02   -0.13788E-03   -0.33820E-05  2424   0.208E-02    0.120E-02
DAV:   8    -0.672321190017E+02   -0.19615E-03   -0.98694E-05  2376   0.320E-02    0.680E-03
DAV:   9    -0.672321569147E+02   -0.37913E-04   -0.75804E-06  2292   0.103E-02    0.432E-03
DAV:  10    -0.672321712853E+02   -0.14371E-04   -0.45357E-06  2232   0.961E-03    0.349E-03
DAV:  11    -0.672321753455E+02   -0.40602E-05   -0.88446E-07  1644   0.429E-03    0.105E-03
DAV:  12    -0.672321776276E+02   -0.22821E-05   -0.31851E-07  1668   0.259E-03    0.485E-04
DAV:  13    -0.672321779015E+02   -0.27390E-06   -0.11387E-07  1776   0.120E-03
   7 F= -.67232178E+02 E0= -.67232178E+02  d E =-.144108E-02
 curvature:  -3.50 expect dE=-0.549E-01 dE for cont linesearch -0.479E-04
 ZBRENT: bracketing found
 ZBRENT: interpolating
 opt :   8.4196  next Energy=   -67.232293 (dE=-0.156E-02)
 bond charge predicted
       N       E                     dE             d eps       ncg     rms          rms(c)
DAV:   1    -0.672384571910E+02   -0.62796E-02   -0.22543E-01  2292   0.253E+00    0.306E-01
DAV:   2    -0.672341606580E+02    0.42965E-02   -0.51432E-03  2280   0.374E-01    0.161E-01
DAV:   3    -0.672321747708E+02    0.19859E-02   -0.52802E-03  2472   0.320E-01    0.466E-02
DAV:   4    -0.672321267831E+02    0.47988E-04   -0.16516E-04  2424   0.688E-02    0.248E-02
DAV:   5    -0.672320706617E+02    0.56121E-04   -0.83127E-05  2412   0.402E-02    0.112E-02
DAV:   6    -0.672321188371E+02   -0.48175E-04   -0.16150E-05  2340   0.206E-02    0.852E-03
DAV:   7    -0.672321528833E+02   -0.34046E-04   -0.45087E-06  2412   0.801E-03    0.554E-03
DAV:   8    -0.672322205255E+02   -0.67642E-04   -0.13702E-05  2268   0.127E-02    0.339E-03
DAV:   9    -0.672322514444E+02   -0.30919E-04   -0.11669E-06  2316   0.421E-03    0.236E-03
DAV:  10    -0.672322695729E+02   -0.18128E-04   -0.97300E-07  1728   0.461E-03    0.123E-03
DAV:  11    -0.672322784565E+02   -0.88836E-05   -0.25392E-07  1572   0.201E-03    0.737E-04
DAV:  12    -0.672322810370E+02   -0.25806E-05   -0.77754E-08  1884   0.124E-03    0.153E-04
DAV:  13    -0.672322828640E+02   -0.18269E-05   -0.50853E-08  1548   0.695E-04    0.783E-05
DAV:  14    -0.672322833133E+02   -0.44937E-06   -0.83843E-09  1980   0.293E-04
   8 F= -.67232283E+02 E0= -.67232283E+02  d E =-.154649E-02
 curvature:  -8.38 expect dE=-0.803E-01 dE for cont linesearch -0.121E-07
 trial: gam=26.67520 g(F)=  0.843E-02 g(S)=  0.115E-02 ort =-0.101E-05 (trialstep = 0.286E-02)
 search vector abs. value=  0.514E+00
 bond charge predicted
       N       E                     dE             d eps       ncg     rms          rms(c)
DAV:   1    -0.672323177261E+02   -0.34862E-04   -0.23781E-04  2244   0.821E-02    0.100E-02
DAV:   2    -0.672323124990E+02    0.52272E-05   -0.52894E-06  2268   0.120E-02    0.525E-03
DAV:   3    -0.672323093723E+02    0.31267E-05   -0.55996E-06  2316   0.104E-02    0.156E-03
DAV:   4    -0.672323093589E+02    0.13349E-07   -0.17438E-07  2064   0.230E-03
   9 F= -.67232309E+02 E0= -.67232309E+02  d E =-.260456E-04
 ZBRENT: can't locate minimum, use default step
 trial-energy change:   -0.000026  1 .order   -0.000028   -0.000027   -0.000028
 step:   0.0114(harm=  0.0114)  dis= 0.00008  next Energy=   -67.232400 (dE=-0.117E-03)
 bond charge predicted
       N       E                     dE             d eps       ncg     rms          rms(c)
DAV:   1    -0.672324505863E+02   -0.14121E-03   -0.21266E-03  2232   0.246E-01    0.299E-02
DAV:   2    -0.672324037262E+02    0.46860E-04   -0.47571E-05  2292   0.360E-02    0.157E-02
DAV:   3    -0.672323778118E+02    0.25914E-04   -0.51106E-05  2256   0.314E-02    0.472E-03
DAV:   4    -0.672323785914E+02   -0.77958E-06   -0.16095E-06  1800   0.703E-03
  10 F= -.67232379E+02 E0= -.67232379E+02  d E =-.952780E-04
 curvature:  -0.47 expect dE=-0.434E-02 dE for cont linesearch -0.102E-03
 ZBRENT: increasing intervall
 opt :   0.0286  next Energy=   -67.232573 (dE=-0.289E-03)
 bond charge predicted
       N       E                     dE             d eps       ncg     rms          rms(c)
DAV:   1    -0.672327825657E+02   -0.40475E-03   -0.84750E-03  2232   0.491E-01    0.596E-02
DAV:   2    -0.672325972828E+02    0.18528E-03   -0.18981E-04  2316   0.722E-02    0.313E-02
DAV:   3    -0.672325015163E+02    0.95767E-04   -0.20615E-04  2304   0.631E-02    0.952E-03
DAV:   4    -0.672325060712E+02   -0.45549E-05   -0.71173E-06  2388   0.142E-02    0.493E-03
DAV:   5    -0.672325108621E+02   -0.47909E-05   -0.38370E-06  2292   0.835E-03    0.245E-03
DAV:   6    -0.672325288904E+02   -0.18028E-04   -0.23308E-06  2280   0.653E-03    0.260E-03
DAV:   7    -0.672325352159E+02   -0.63254E-05   -0.49075E-07  1992   0.282E-03    0.139E-03
DAV:   8    -0.672325475760E+02   -0.12360E-04   -0.25253E-06  2184   0.517E-03    0.145E-03
DAV:   9    -0.672325491236E+02   -0.15476E-05   -0.13855E-07  1752   0.170E-03    0.612E-04
DAV:  10    -0.672325503694E+02   -0.12458E-05   -0.13225E-07  1596   0.156E-03    0.289E-04
DAV:  11    -0.672325507591E+02   -0.38972E-06   -0.29859E-08  1548   0.632E-04
  11 F= -.67232551E+02 E0= -.67232551E+02  d E =-.267446E-03
 curvature:  -0.89 expect dE=-0.771E-02 dE for cont linesearch -0.145E-03
 ZBRENT: increasing intervall
 opt :   0.0630  next Energy=   -67.232815 (dE=-0.532E-03)
 bond charge predicted
       N       E                     dE             d eps       ncg     rms          rms(c)
DAV:   1    -0.672338088000E+02   -0.12584E-02   -0.34471E-02  2472   0.988E-01    0.121E-01
DAV:   2    -0.672331210638E+02    0.68774E-03   -0.77147E-04  2136   0.144E-01    0.631E-02
DAV:   3    -0.672327734682E+02    0.34760E-03   -0.79155E-04  2424   0.124E-01    0.185E-02
DAV:   4    -0.672327765774E+02   -0.31092E-05   -0.27909E-05  2388   0.279E-02    0.926E-03
DAV:   5    -0.672327799649E+02   -0.33876E-05   -0.13066E-05  2340   0.157E-02    0.461E-03
DAV:   6    -0.672328131440E+02   -0.33179E-04   -0.55869E-06  2364   0.106E-02    0.415E-03
DAV:   7    -0.672328237946E+02   -0.10651E-04   -0.10200E-06  2340   0.402E-03    0.240E-03
DAV:   8    -0.672328477537E+02   -0.23959E-04   -0.55946E-06  2280   0.760E-03    0.202E-03
DAV:   9    -0.672328510292E+02   -0.32755E-05   -0.21198E-07  1776   0.198E-03    0.118E-03
DAV:  10    -0.672328539415E+02   -0.29123E-05   -0.47472E-07  1548   0.291E-03    0.623E-04
DAV:  11    -0.672328546056E+02   -0.66408E-06   -0.66424E-08  1608   0.113E-03
  12 F= -.67232855E+02 E0= -.67232855E+02  d E =-.571292E-03
 curvature:  -1.62 expect dE=-0.125E-01 dE for cont linesearch -0.237E-03
 ZBRENT: increasing intervall
 opt :   0.1316  next Energy=   -67.233416 (dE=-0.113E-02)
 bond charge predicted
       N       E                     dE             d eps       ncg     rms          rms(c)
DAV:   1    -0.672372425682E+02   -0.43886E-02   -0.13863E-01  2460   0.198E+00    0.242E-01
DAV:   2    -0.672345101088E+02    0.27325E-02   -0.30915E-03  2184   0.288E-01    0.127E-01
DAV:   3    -0.672331870803E+02    0.13230E-02   -0.31836E-03  2544   0.249E-01    0.371E-02
DAV:   4    -0.672332048001E+02   -0.17720E-04   -0.11343E-04  2376   0.561E-02    0.185E-02
DAV:   5    -0.672332181325E+02   -0.13332E-04   -0.52196E-05  2412   0.314E-02    0.933E-03
DAV:   6    -0.672333137086E+02   -0.95576E-04   -0.22870E-05  2340   0.217E-02    0.821E-03
DAV:   7    -0.672333409027E+02   -0.27194E-04   -0.40383E-06  2472   0.814E-03    0.463E-03
DAV:   8    -0.672333964300E+02   -0.55527E-04   -0.18118E-05  2280   0.140E-02    0.381E-03
DAV:   9    -0.672334031719E+02   -0.67419E-05   -0.55477E-07  1860   0.332E-03    0.248E-03
DAV:  10    -0.672334096227E+02   -0.64508E-05   -0.18049E-06  1968   0.575E-03    0.136E-03
DAV:  11    -0.672334108907E+02   -0.12680E-05   -0.12569E-07  1668   0.180E-03    0.770E-04
DAV:  12    -0.672334109868E+02   -0.96111E-07   -0.74722E-08  1548   0.119E-03
  13 F= -.67233411E+02 E0= -.67233411E+02  d E =-.112767E-02
 curvature:  -3.85 expect dE=-0.226E-01 dE for cont linesearch -0.436E-03
 ZBRENT: increasing intervall
 opt :   0.2690  next Energy=   -67.234318 (dE=-0.204E-02)
 bond charge predicted
       N       E                     dE             d eps       ncg     rms          rms(c)
DAV:   1    -0.672497916150E+02   -0.16381E-01   -0.56112E-01  2472   0.400E+00    0.487E-01
DAV:   2    -0.672388333400E+02    0.10958E-01   -0.12434E-02  2232   0.579E-01    0.255E-01
DAV:   3    -0.672338158131E+02    0.50175E-02   -0.12742E-02  2544   0.497E-01    0.741E-02
DAV:   4    -0.672338366086E+02   -0.20795E-04   -0.45796E-04  2376   0.112E-01    0.366E-02
DAV:   5    -0.672338511832E+02   -0.14575E-04   -0.20724E-04  2424   0.630E-02    0.185E-02
DAV:   6    -0.672341042395E+02   -0.25306E-03   -0.84973E-05  2376   0.428E-02    0.158E-02
DAV:   7    -0.672341803401E+02   -0.76101E-04   -0.15759E-05  2472   0.162E-02    0.886E-03
DAV:   8    -0.672342999197E+02   -0.11958E-03   -0.57583E-05  2280   0.257E-02    0.708E-03
DAV:   9    -0.672343141634E+02   -0.14244E-04   -0.19519E-06  2448   0.630E-03    0.439E-03
DAV:  10    -0.672343260422E+02   -0.11879E-04   -0.48031E-06  2064   0.974E-03    0.250E-03
DAV:  11    -0.672343286803E+02   -0.26381E-05   -0.36433E-07  1644   0.299E-03    0.143E-03
DAV:  12    -0.672343287827E+02   -0.10246E-06   -0.24975E-07  1548   0.225E-03
  14 F= -.67234329E+02 E0= -.67234329E+02  d E =-.204547E-02
 curvature:  -8.00 expect dE=-0.263E-01 dE for cont linesearch -0.508E-03
 ZBRENT: increasing intervall
 opt :   0.5437  next Energy=   -67.235370 (dE=-0.309E-02)
 bond charge predicted
       N       E                     dE             d eps       ncg     rms          rms(c)
DAV:   1    -0.672984267716E+02   -0.64098E-01   -0.22979E+00  2436   0.812E+00    0.988E-01
DAV:   2    -0.672540998858E+02    0.44327E-01   -0.50587E-02  2280   0.117E+00    0.515E-01
DAV:   3    -0.672344925354E+02    0.19607E-01   -0.51432E-02  2544   0.100E+00    0.149E-01
DAV:   4    -0.672344881476E+02    0.43878E-05   -0.20549E-03  2316   0.230E-01    0.723E-02
DAV:   5    -0.672343975603E+02    0.90587E-04   -0.82545E-04  2520   0.127E-01    0.368E-02
DAV:   6    -0.672349911997E+02   -0.59364E-03   -0.30221E-04  2340   0.831E-02    0.295E-02
DAV:   7    -0.672351505311E+02   -0.15933E-03   -0.56511E-05  2520   0.311E-02    0.163E-02
DAV:   8    -0.672353865426E+02   -0.23601E-03   -0.17328E-04  2280   0.456E-02    0.126E-02
DAV:   9    -0.672354120065E+02   -0.25464E-04   -0.61135E-06  2424   0.117E-02    0.686E-03
DAV:  10    -0.672354315091E+02   -0.19503E-04   -0.13206E-05  2136   0.163E-02    0.456E-03
DAV:  11    -0.672354352025E+02   -0.36934E-05   -0.13677E-06  1704   0.565E-03    0.204E-03
DAV:  12    -0.672354357047E+02   -0.50222E-06   -0.68633E-07  1968   0.384E-03
  15 F= -.67235436E+02 E0= -.67235436E+02  d E =-.315239E-02
 curvature: -16.40 expect dE=-0.317E-01 dE for cont linesearch -0.160E-03
 ZBRENT: increasing intervall
 opt :   1.0932  next Energy=   -67.234762 (dE=-0.248E-02)
 bond charge predicted
       N       E                     dE             d eps       ncg     rms          rms(c)
DAV:   1    -0.674967286042E+02   -0.26129E+00   -0.96378E+00  2388   0.167E+01    0.204E+00
DAV:   2    -0.673124311162E+02    0.18430E+00   -0.21521E-01  2376   0.240E+00    0.105E+00
DAV:   3    -0.672353695646E+02    0.77062E-01   -0.20610E-01  2580   0.199E+00    0.297E-01
DAV:   4    -0.672342955057E+02    0.10741E-02   -0.84278E-03  2496   0.458E-01    0.140E-01
DAV:   5    -0.672334310211E+02    0.86448E-03   -0.30843E-03  2640   0.248E-01    0.704E-02
DAV:   6    -0.672345259823E+02   -0.10950E-02   -0.98209E-04  2532   0.152E-01    0.526E-02
DAV:   7    -0.672347621147E+02   -0.23613E-03   -0.17175E-04  2616   0.540E-02    0.281E-02
DAV:   8    -0.672351157649E+02   -0.35365E-03   -0.43919E-04  2244   0.725E-02    0.196E-02
DAV:   9    -0.672351508584E+02   -0.35094E-04   -0.19040E-05  2292   0.206E-02    0.946E-03
DAV:  10    -0.672351614585E+02   -0.10600E-04   -0.29406E-05  2112   0.244E-02    0.862E-03
DAV:  11    -0.672351618624E+02   -0.40394E-06   -0.65052E-06  2400   0.116E-02
  16 F= -.67235162E+02 E0= -.67235162E+02  d E =-.287855E-02
 curvature:  68.89 expect dE= 0.101E+01 dE for cont linesearch  0.984E-03
 ZBRENT: bracketing found
 ZBRENT: interpolating
 opt :   0.7926  next Energy=   -67.235715 (dE=-0.343E-02)
 bond charge predicted
       N       E                     dE             d eps       ncg     rms          rms(c)
DAV:   1    -0.673172808106E+02   -0.82119E-01   -0.29174E+00  2208   0.904E+00    0.110E+00
DAV:   2    -0.672617573111E+02    0.55523E-01   -0.67201E-02  2184   0.134E+00    0.585E-01
DAV:   3    -0.672367191214E+02    0.25038E-01   -0.72492E-02  2712   0.118E+00    0.177E-01
DAV:   4    -0.672359473010E+02    0.77182E-03   -0.23471E-03  2364   0.255E-01    0.945E-02
DAV:   5    -0.672350165484E+02    0.93075E-03   -0.11249E-03  2436   0.147E-01    0.468E-02
DAV:   6    -0.672348620210E+02    0.15453E-03   -0.45924E-04  2424   0.110E-01    0.485E-02
DAV:   7    -0.672349487913E+02   -0.86770E-04   -0.96957E-05  2436   0.449E-02    0.258E-02
DAV:   8    -0.672353954796E+02   -0.44669E-03   -0.24391E-04  2220   0.658E-02    0.234E-02
DAV:   9    -0.672354857295E+02   -0.90250E-04   -0.87232E-06  2232   0.162E-02    0.140E-02
DAV:  10    -0.672356126343E+02   -0.12690E-03   -0.28151E-05  2136   0.246E-02    0.417E-03
DAV:  11    -0.672356390838E+02   -0.26450E-04   -0.12139E-06  2004   0.637E-03    0.292E-03
DAV:  12    -0.672356672864E+02   -0.28203E-04   -0.14504E-06  2064   0.428E-03    0.176E-03
DAV:  13    -0.672356867809E+02   -0.19495E-04   -0.13317E-06  2388   0.364E-03    0.106E-03
DAV:  14    -0.672356889875E+02   -0.22066E-05   -0.63411E-08  2028   0.107E-03    0.106E-03
DAV:  15    -0.672356945397E+02   -0.55522E-05   -0.20795E-07  1596   0.177E-03    0.469E-04
DAV:  16    -0.672356954402E+02   -0.90047E-06   -0.26605E-08  1692   0.727E-04
  17 F= -.67235695E+02 E0= -.67235695E+02  d E =-.341213E-02
 curvature: -19.54 expect dE=-0.100E+00 dE for cont linesearch -0.684E-05
 trial: gam= 0.88030 g(F)=  0.459E-02 g(S)=  0.545E-03 ort =-0.424E-03 (trialstep = 0.161E+00)
 search vector abs. value=  0.403E+00
 bond charge predicted
       N       E                     dE             d eps       ncg     rms          rms(c)
DAV:   1    -0.672524779439E+02   -0.16783E-01   -0.58464E-01  2436   0.408E+00    0.497E-01
DAV:   2    -0.672411243022E+02    0.11354E-01   -0.12606E-02  2364   0.577E-01    0.260E-01
DAV:   3    -0.672358186367E+02    0.53057E-02   -0.13019E-02  2472   0.502E-01    0.727E-02
DAV:   4    -0.672358689041E+02   -0.50267E-04   -0.43558E-04  2448   0.110E-01    0.346E-02
DAV:   5    -0.672358949771E+02   -0.26073E-04   -0.20414E-04  2532   0.624E-02    0.178E-02
DAV:   6    -0.672361582972E+02   -0.26332E-03   -0.77835E-05  2376   0.404E-02    0.147E-02
DAV:   7    -0.672362431842E+02   -0.84887E-04   -0.15983E-05  2496   0.150E-02    0.904E-03
DAV:   8    -0.672363592207E+02   -0.11604E-03   -0.55887E-05  2280   0.254E-02    0.716E-03
DAV:   9    -0.672363714502E+02   -0.12229E-04   -0.22276E-06  2304   0.679E-03    0.386E-03
DAV:  10    -0.672363791462E+02   -0.76960E-05   -0.46039E-06  2064   0.953E-03    0.322E-03
DAV:  11    -0.672363788565E+02    0.28973E-06   -0.55158E-07  1728   0.353E-03
  18 F= -.67236379E+02 E0= -.67236379E+02  d E =-.683416E-03
 ZBRENT: can't locate minimum, use default step
 trial-energy change:   -0.000683  1 .order   -0.000706   -0.000766   -0.000647
 step:   0.6432(harm=  1.0371)  dis= 0.00267  next Energy=   -67.238165 (dE=-0.247E-02)
 bond charge predicted
       N       E                     dE             d eps       ncg     rms          rms(c)
DAV:   1    -0.673855638413E+02   -0.14918E+00   -0.54358E+00  2364   0.125E+01    0.152E+00
DAV:   2    -0.672820735920E+02    0.10349E+00   -0.11612E-01  2424   0.176E+00    0.792E-01
DAV:   3    -0.672365772213E+02    0.45496E-01   -0.11961E-01  2508   0.151E+00    0.219E-01
DAV:   4    -0.672363809896E+02    0.19623E-03   -0.45838E-03  2544   0.342E-01    0.100E-01
DAV:   5    -0.672360350776E+02    0.34591E-03   -0.17842E-03  2664   0.188E-01    0.524E-02
DAV:   6    -0.672369638531E+02   -0.92878E-03   -0.55923E-04  2436   0.114E-01    0.391E-02
DAV:   7    -0.672372085275E+02   -0.24467E-03   -0.12065E-04  2496   0.424E-02    0.237E-02
DAV:   8    -0.672374980661E+02   -0.28954E-03   -0.30005E-04  2244   0.614E-02    0.171E-02
DAV:   9    -0.672375226694E+02   -0.24603E-04   -0.14393E-05  2208   0.179E-02    0.783E-03
DAV:  10    -0.672375272042E+02   -0.45348E-05   -0.22219E-05  2064   0.211E-02    0.802E-03
DAV:  11    -0.672375247525E+02    0.24518E-05   -0.46466E-06  2484   0.982E-03    0.180E-03
DAV:  12    -0.672375291269E+02   -0.43745E-05   -0.96980E-07  1656   0.459E-03    0.146E-03
DAV:  13    -0.672375312814E+02   -0.21545E-05   -0.62647E-07  1980   0.254E-03    0.821E-04
DAV:  14    -0.672375351706E+02   -0.38891E-05   -0.26333E-07  1812   0.209E-03    0.541E-04
DAV:  15    -0.672375374047E+02   -0.22341E-05   -0.64654E-08  1644   0.977E-04    0.160E-04
DAV:  16    -0.672375382259E+02   -0.82122E-06   -0.97537E-09  1848   0.421E-04
  19 F= -.67237538E+02 E0= -.67237538E+02  d E =-.184279E-02
 curvature: -34.99 expect dE=-0.628E-01 dE for cont linesearch -0.983E-04
 ZBRENT: extrapolating
 opt :   0.8165  next Energy=   -67.237630 (dE=-0.193E-02)
 bond charge predicted
       N       E                     dE             d eps       ncg     rms          rms(c)
DAV:   1    -0.672576099595E+02   -0.20073E-01   -0.72437E-01  2256   0.455E+00    0.554E-01
DAV:   2    -0.672435837405E+02    0.14026E-01   -0.15429E-02  2100   0.647E-01    0.290E-01
DAV:   3    -0.672370315980E+02    0.65521E-02   -0.16667E-02  2508   0.568E-01    0.833E-02
DAV:   4    -0.672370978700E+02   -0.66272E-04   -0.58595E-04  2412   0.127E-01    0.398E-02
DAV:   5    -0.672371158498E+02   -0.17980E-04   -0.25631E-04  2484   0.703E-02    0.210E-02
DAV:   6    -0.672374305082E+02   -0.31466E-03   -0.11040E-04  2328   0.491E-02    0.176E-02
DAV:   7    -0.672375238010E+02   -0.93293E-04   -0.21671E-05  2472   0.185E-02    0.104E-02
DAV:   8    -0.672376541627E+02   -0.13036E-03   -0.75913E-05  2328   0.308E-02    0.924E-03
DAV:   9    -0.672376632008E+02   -0.90381E-05   -0.27545E-06  2208   0.797E-03    0.489E-03
DAV:  10    -0.672376679972E+02   -0.47964E-05   -0.67196E-06  2064   0.116E-02    0.336E-03
DAV:  11    -0.672376676191E+02    0.37804E-06   -0.45843E-07  1956   0.339E-03
  20 F= -.67237668E+02 E0= -.67237668E+02  d E =-.197218E-02
 curvature: -32.81 expect dE=-0.110E+00 dE for cont linesearch -0.392E-04
 ZBRENT: increasing intervall
 opt :   1.1632  next Energy=   -67.237780 (dE=-0.208E-02)
 bond charge predicted
       N       E                     dE             d eps       ncg     rms          rms(c)
DAV:   1    -0.673190994236E+02   -0.81431E-01   -0.29760E+00  2436   0.925E+00    0.113E+00
DAV:   2    -0.672619417793E+02    0.57158E-01   -0.64310E-02  2280   0.131E+00    0.587E-01
DAV:   3    -0.672364848639E+02    0.25457E-01   -0.65205E-02  2520   0.113E+00    0.163E-01
DAV:   4    -0.672364581034E+02    0.26760E-04   -0.26727E-03  2424   0.256E-01    0.749E-02
DAV:   5    -0.672363783632E+02    0.79740E-04   -0.10089E-03  2532   0.140E-01    0.396E-02
DAV:   6    -0.672370685749E+02   -0.69021E-03   -0.33841E-04  2412   0.874E-02    0.303E-02
DAV:   7    -0.672372788714E+02   -0.21030E-03   -0.72368E-05  2532   0.327E-02    0.183E-02
DAV:   8    -0.672374971530E+02   -0.21828E-03   -0.17965E-04  2172   0.474E-02    0.131E-02
DAV:   9    -0.672375135627E+02   -0.16410E-04   -0.87538E-06  2112   0.138E-02    0.624E-03
DAV:  10    -0.672375108521E+02    0.27106E-05   -0.13151E-05  2160   0.162E-02    0.578E-03
DAV:  11    -0.672375085524E+02    0.22997E-05   -0.24600E-06  2244   0.719E-03    0.152E-03
DAV:  12    -0.672375111586E+02   -0.26062E-05   -0.78606E-07  1812   0.411E-03    0.136E-03
DAV:  13    -0.672375129988E+02   -0.18401E-05   -0.46523E-07  1812   0.229E-03    0.589E-04
DAV:  14    -0.672375162942E+02   -0.32955E-05   -0.16732E-07  1692   0.159E-03    0.352E-04
DAV:  15    -0.672375178630E+02   -0.15688E-05   -0.37237E-08  1776   0.708E-04    0.129E-04
DAV:  16    -0.672375183192E+02   -0.45615E-06   -0.60663E-09  1968   0.334E-04
  21 F= -.67237518E+02 E0= -.67237518E+02  d E =-.182288E-02
 curvature: -94.01 expect dE=-0.889E+00 dE for cont linesearch -0.383E-03
 ZBRENT: bracketing found
 ZBRENT: interpolating
 opt :   0.9384  next Energy=   -67.237710 (dE=-0.201E-02)
 bond charge predicted
       N       E                     dE             d eps       ncg     rms          rms(c)
DAV:   1    -0.672727988693E+02   -0.35281E-01   -0.12569E+00  2448   0.595E+00    0.727E-01
DAV:   2    -0.672487990937E+02    0.24000E-01   -0.28567E-02  2412   0.860E-01    0.383E-01
DAV:   3    -0.672378269935E+02    0.10972E-01   -0.29403E-02  2760   0.753E-01    0.109E-01
DAV:   4    -0.672375212775E+02    0.30572E-03   -0.95183E-04  2412   0.162E-01    0.538E-02
DAV:   5    -0.672371924925E+02    0.32879E-03   -0.44868E-04  2460   0.922E-02    0.279E-02
DAV:   6    -0.672372507812E+02   -0.58289E-04   -0.12532E-04  2340   0.574E-02    0.261E-02
DAV:   7    -0.672373210139E+02   -0.70233E-04   -0.25640E-05  2400   0.216E-02    0.155E-02
DAV:   8    -0.672375400856E+02   -0.21907E-03   -0.89836E-05  2136   0.379E-02    0.134E-02
DAV:   9    -0.672375846233E+02   -0.44538E-04   -0.34107E-06  2208   0.100E-02    0.817E-03
DAV:  10    -0.672376363524E+02   -0.51729E-04   -0.11905E-05  2064   0.158E-02    0.406E-03
DAV:  11    -0.672376481270E+02   -0.11775E-04   -0.10930E-06  2160   0.478E-03    0.257E-03
DAV:  12    -0.672376550656E+02   -0.69386E-05   -0.44695E-07  1944   0.304E-03    0.652E-04
DAV:  13    -0.672376679656E+02   -0.12900E-04   -0.70958E-07  2136   0.266E-03    0.810E-04
DAV:  14    -0.672376710842E+02   -0.31187E-05   -0.67649E-08  1752   0.957E-04    0.365E-04
DAV:  15    -0.672376739116E+02   -0.28273E-05   -0.85592E-08  1548   0.109E-03    0.229E-04
DAV:  16    -0.672376743039E+02   -0.39235E-06   -0.85376E-09  1548   0.421E-04
  22 F= -.67237674E+02 E0= -.67237674E+02  d E =-.197886E-02
 curvature: -10.38 expect dE=-0.523E-01 dE for cont linesearch -0.259E-05
 trial: gam= 1.47511 g(F)=  0.502E-02 g(S)=  0.196E-04 ort =-0.317E-03 (trialstep = 0.145E+00)
 search vector abs. value=  0.880E+00
 bond charge predicted
       N       E                     dE             d eps       ncg     rms          rms(c)
DAV:   1    -0.672672123010E+02   -0.29538E-01   -0.10401E+00  2340   0.545E+00    0.667E-01
DAV:   2    -0.672468593632E+02    0.20353E-01   -0.22733E-02  2304   0.785E-01    0.349E-01
DAV:   3    -0.672375898086E+02    0.92696E-02   -0.23854E-02  2532   0.681E-01    0.100E-01
DAV:   4    -0.672376506925E+02   -0.60884E-04   -0.92604E-04  2316   0.157E-01    0.472E-02
DAV:   5    -0.672376523908E+02   -0.16983E-05   -0.38358E-04  2496   0.863E-02    0.253E-02
DAV:   6    -0.672380651578E+02   -0.41277E-03   -0.16606E-04  2208   0.606E-02    0.221E-02
DAV:   7    -0.672381653782E+02   -0.10022E-03   -0.28266E-05  2532   0.223E-02    0.123E-02
DAV:   8    -0.672383168282E+02   -0.15145E-03   -0.99892E-05  2220   0.355E-02    0.107E-02
DAV:   9    -0.672383253937E+02   -0.85655E-05   -0.33390E-06  2232   0.889E-03    0.594E-03
DAV:  10    -0.672383284508E+02   -0.30572E-05   -0.92505E-06  2208   0.136E-02    0.367E-03
DAV:  11    -0.672383277814E+02    0.66944E-06   -0.57337E-07  1884   0.380E-03
  23 F= -.67238328E+02 E0= -.67238328E+02  d E =-.653477E-03
 ZBRENT: can't locate minimum, use default step
 trial-energy change:   -0.000653  1 .order   -0.000720   -0.000661   -0.000779
 step:   0.5788(harm=  0.5788)  dis= 0.00201  next Energy=   -67.241262 (dE=-0.359E-02)
 bond charge predicted
       N       E                     dE             d eps       ncg     rms          rms(c)
DAV:   1    -0.675081192395E+02   -0.26979E+00   -0.97791E+00  2388   0.169E+01    0.207E+00
DAV:   2    -0.673198683467E+02    0.18825E+00   -0.21767E-01  2376   0.241E+00    0.106E+00
DAV:   3    -0.672404689741E+02    0.79399E-01   -0.21222E-01  2568   0.202E+00    0.298E-01
DAV:   4    -0.672393955736E+02    0.10734E-02   -0.90561E-03  2520   0.474E-01    0.133E-01
DAV:   5    -0.672386243151E+02    0.77126E-03   -0.32009E-03  2580   0.254E-01    0.715E-02
DAV:   6    -0.672398060052E+02   -0.11817E-02   -0.10452E-03  2364   0.158E-01    0.544E-02
DAV:   7    -0.672400560631E+02   -0.25006E-03   -0.18492E-04  2676   0.563E-02    0.292E-02
DAV:   8    -0.672403443469E+02   -0.28828E-03   -0.45177E-04  2184   0.758E-02    0.219E-02
DAV:   9    -0.672403373906E+02    0.69563E-05   -0.22192E-05  2184   0.227E-02    0.896E-03
DAV:  10    -0.672403098954E+02    0.27495E-04   -0.33152E-05  2316   0.259E-02    0.966E-03
DAV:  11    -0.672403079220E+02    0.19735E-05   -0.82941E-06  2292   0.130E-02    0.214E-03
DAV:  12    -0.672403190772E+02   -0.11155E-04   -0.23948E-06  2292   0.693E-03    0.314E-03
DAV:  13    -0.672403274847E+02   -0.84075E-05   -0.18089E-06  2208   0.499E-03    0.747E-04
DAV:  14    -0.672403359070E+02   -0.84223E-05   -0.22941E-07  1680   0.216E-03    0.340E-04
DAV:  15    -0.672403381704E+02   -0.22635E-05   -0.62675E-08  1740   0.988E-04    0.270E-04
DAV:  16    -0.672403391883E+02   -0.10179E-05   -0.18397E-08  1884   0.602E-04    0.636E-05
DAV:  17    -0.672403393354E+02   -0.14711E-06   -0.24504E-09  1836   0.246E-04
  24 F= -.67240339E+02 E0= -.67240339E+02  d E =-.266503E-02
 curvature: -87.10 expect dE=-0.282E+00 dE for cont linesearch -0.209E-02
 ZBRENT: increasing intervall
 opt :   1.4469  next Energy=   -67.243641 (dE=-0.597E-02)
 bond charge predicted
       N       E                     dE             d eps       ncg     rms          rms(c)
DAV:   1    -0.684276231326E+02   -0.11873E+01   -0.43244E+01  2280   0.360E+01    0.466E+00
DAV:   2    -0.675532079471E+02    0.87442E+00   -0.10811E+00  2616   0.531E+00    0.211E+00
DAV:   3    -0.672666264462E+02    0.28658E+00   -0.66632E-01  2484   0.355E+00    0.575E-01
DAV:   4    -0.672475424988E+02    0.19084E-01   -0.32369E-02  2544   0.868E-01    0.272E-01
DAV:   5    -0.672448612595E+02    0.26812E-02   -0.57141E-03  2568   0.370E-01    0.105E-01
DAV:   6    -0.672448368014E+02    0.24458E-04   -0.35244E-03  2388   0.259E-01    0.736E-02
DAV:   7    -0.672450422065E+02   -0.20541E-03   -0.61464E-04  2256   0.104E-01    0.221E-02
DAV:   8    -0.672448508544E+02    0.19135E-03   -0.44596E-04  2148   0.657E-02    0.214E-02
DAV:   9    -0.672446430156E+02    0.20784E-03   -0.68558E-05  2340   0.371E-02    0.918E-03
DAV:  10    -0.672445895398E+02    0.53476E-04   -0.70055E-06  2304   0.129E-02    0.489E-03
DAV:  11    -0.672446353826E+02   -0.45843E-04   -0.61712E-06  2244   0.103E-02    0.283E-03
DAV:  12    -0.672446905265E+02   -0.55144E-04   -0.86550E-06  2376   0.915E-03    0.119E-03
DAV:  13    -0.672447062134E+02   -0.15687E-04   -0.35006E-07  1908   0.262E-03    0.686E-04
DAV:  14    -0.672447201333E+02   -0.13920E-04   -0.30740E-07  1872   0.182E-03    0.171E-04
DAV:  15    -0.672447213447E+02   -0.12114E-05   -0.25669E-08  2316   0.549E-04    0.807E-05
DAV:  16    -0.672447221544E+02   -0.80969E-06   -0.15168E-08  1824   0.368E-04
  25 F= -.67244722E+02 E0= -.67244722E+02  d E =-.704785E-02
 curvature: ****** expect dE=-0.807E+00 dE for cont linesearch -0.335E-02
 ZBRENT: increasing intervall
 opt :   3.1832  next Energy=   -67.252817 (dE=-0.151E-01)
 bond charge predicted
       N       E                     dE             d eps       ncg     rms          rms(c)
DAV:   1    -0.731831192833E+02   -0.59384E+01   -0.21819E+02  2316   0.835E+01    0.115E+01
DAV:   2    -0.684671543495E+02    0.47160E+01   -0.87768E+00  2436   0.131E+01    0.446E+00
DAV:   3    -0.674044782483E+02    0.10627E+01   -0.24518E+00  2664   0.682E+00    0.133E+00
DAV:   4    -0.672856138734E+02    0.11886E+00   -0.20973E-01  2700   0.215E+00    0.538E-01
DAV:   5    -0.672694466136E+02    0.16167E-01   -0.17837E-02  2892   0.716E-01    0.227E-01
DAV:   6    -0.672599712312E+02    0.94754E-02   -0.10635E-02  2676   0.480E-01    0.140E-01
DAV:   7    -0.672553892634E+02    0.45820E-02   -0.22912E-03  2556   0.219E-01    0.491E-02
DAV:   8    -0.672524272891E+02    0.29620E-02   -0.16902E-03  2232   0.137E-01    0.442E-02
DAV:   9    -0.672511961307E+02    0.12312E-02   -0.21424E-04  2292   0.766E-02    0.266E-02
DAV:  10    -0.672510830655E+02    0.11307E-03   -0.42182E-05  2292   0.331E-02    0.163E-02
DAV:  11    -0.672512619165E+02   -0.17885E-03   -0.37174E-05  2328   0.288E-02    0.568E-03
DAV:  12    -0.672513422191E+02   -0.80303E-04   -0.93858E-06  2568   0.131E-02    0.355E-03
DAV:  13    -0.672513970145E+02   -0.54795E-04   -0.59768E-06  2496   0.878E-03    0.133E-03
DAV:  14    -0.672514056527E+02   -0.86382E-05   -0.37798E-07  2220   0.246E-03    0.521E-04
DAV:  15    -0.672514084605E+02   -0.28078E-05   -0.13548E-07  2112   0.130E-03    0.123E-04
DAV:  16    -0.672514090002E+02   -0.53963E-06   -0.24272E-08  2208   0.538E-04
  26 F= -.67251409E+02 E0= -.67251409E+02  d E =-.137347E-01
 curvature: ****** expect dE=-0.101E+02 dE for cont linesearch -0.154E-03
 trial: gam= 6.81980 g(F)=  0.290E-01 g(S)=  0.148E-02 ort = 0.638E-03 (trialstep = 0.162E-01)
 search vector abs. value=  0.410E+02
 bond charge predicted
       N       E                     dE             d eps       ncg     rms          rms(c)
DAV:   1    -0.672687369750E+02   -0.17329E-01   -0.59542E-01  2400   0.415E+00    0.509E-01
DAV:   2    -0.672569006496E+02    0.11836E-01   -0.13242E-02  2292   0.603E-01    0.266E-01
DAV:   3    -0.672514870464E+02    0.54136E-02   -0.13659E-02  2880   0.523E-01    0.772E-02
DAV:   4    -0.672515412718E+02   -0.54225E-04   -0.60913E-04  2184   0.127E-01    0.337E-02
DAV:   5    -0.672515589269E+02   -0.17655E-04   -0.22364E-04  2640   0.671E-02    0.202E-02
DAV:   6    -0.672518326253E+02   -0.27370E-03   -0.11188E-04  2208   0.496E-02    0.180E-02
DAV:   7    -0.672518936371E+02   -0.61012E-04   -0.19594E-05  2544   0.190E-02    0.910E-03
DAV:   8    -0.672519550207E+02   -0.61384E-04   -0.56222E-05  2256   0.273E-02    0.905E-03
DAV:   9    -0.672519541266E+02    0.89404E-06   -0.28192E-06  2784   0.802E-03
  27 F= -.67251954E+02 E0= -.67251954E+02  d E =-.545126E-03
 ZBRENT: can't locate minimum, use default step
 trial-energy change:   -0.000545  1 .order   -0.000493   -0.000563   -0.000424
 step:   0.0646(harm=  0.0652)  dis= 0.00124  next Energy=   -67.252545 (dE=-0.114E-02)
 bond charge predicted
       N       E                     dE             d eps       ncg     rms          rms(c)
DAV:   1    -0.674080989121E+02   -0.15614E+00   -0.55435E+00  2268   0.128E+01    0.156E+00
DAV:   2    -0.672996908809E+02    0.10841E+00   -0.12086E-01  2148   0.184E+00    0.811E-01
DAV:   3    -0.672531054973E+02    0.46585E-01   -0.12513E-01  2916   0.159E+00    0.237E-01
DAV:   4    -0.672527688928E+02    0.33660E-03   -0.61487E-03  2352   0.399E-01    0.101E-01
DAV:   5    -0.672523515169E+02    0.41738E-03   -0.20326E-03  2520   0.207E-01    0.624E-02
DAV:   6    -0.672532796999E+02   -0.92818E-03   -0.90104E-04  2184   0.148E-01    0.510E-02
DAV:   7    -0.672534074429E+02   -0.12774E-03   -0.16776E-04  2556   0.575E-02    0.242E-02
DAV:   8    -0.672534657537E+02   -0.58311E-04   -0.35498E-04  2184   0.718E-02    0.252E-02
DAV:   9    -0.672534293602E+02    0.36393E-04   -0.30211E-05  2700   0.261E-02    0.774E-03
DAV:  10    -0.672534115663E+02    0.17794E-04   -0.34067E-05  2376   0.270E-02    0.106E-02
DAV:  11    -0.672534292330E+02   -0.17667E-04   -0.83810E-06  2340   0.133E-02    0.364E-03
DAV:  12    -0.672534390690E+02   -0.98359E-05   -0.22086E-06  2076   0.720E-03    0.130E-03
DAV:  13    -0.672534453919E+02   -0.63230E-05   -0.61198E-07  1752   0.299E-03    0.540E-04
DAV:  14    -0.672534458511E+02   -0.45913E-06   -0.53978E-08  2172   0.106E-03
  28 F= -.67253446E+02 E0= -.67253446E+02  d E =-.203685E-02
 curvature: -38.36 expect dE=-0.886E+00 dE for cont linesearch -0.716E-03
 ZBRENT: increasing intervall
 opt :   0.1616  next Energy=   -67.256268 (dE=-0.486E-02)
 bond charge predicted
       N       E                     dE             d eps       ncg     rms          rms(c)
DAV:   1    -0.679160967124E+02   -0.66265E+00   -0.23905E+01  2280   0.268E+01    0.337E+00
DAV:   2    -0.674417359725E+02    0.47436E+00   -0.55656E-01  2208   0.388E+00    0.163E+00
DAV:   3    -0.672643994716E+02    0.17734E+00   -0.43604E-01  2784   0.296E+00    0.449E-01
DAV:   4    -0.672574714635E+02    0.69280E-02   -0.19290E-02  2544   0.701E-01    0.201E-01
DAV:   5    -0.672557601437E+02    0.17113E-02   -0.48493E-03  2604   0.331E-01    0.102E-01
DAV:   6    -0.672563214840E+02   -0.56134E-03   -0.24455E-03  2148   0.228E-01    0.754E-02
DAV:   7    -0.672562694442E+02    0.52040E-04   -0.28434E-04  2268   0.726E-02    0.347E-02
DAV:   8    -0.672558548626E+02    0.41458E-03   -0.56297E-04  2256   0.813E-02    0.302E-02
DAV:   9    -0.672556963747E+02    0.15849E-03   -0.73287E-05  2472   0.407E-02    0.837E-03
DAV:  10    -0.672556819614E+02    0.14413E-04   -0.67449E-06  2364   0.120E-02    0.768E-03
DAV:  11    -0.672557392017E+02   -0.57240E-04   -0.75711E-06  2448   0.117E-02    0.207E-03
DAV:  12    -0.672557668384E+02   -0.27637E-04   -0.21141E-06  2436   0.482E-03    0.483E-04
DAV:  13    -0.672557700786E+02   -0.32402E-05   -0.19124E-07  2016   0.132E-03    0.297E-04
DAV:  14    -0.672557712129E+02   -0.11343E-05   -0.10696E-07  1908   0.885E-04    0.629E-05
DAV:  15    -0.672557712482E+02   -0.35295E-07   -0.88328E-09  2076   0.325E-04
  29 F= -.67255771E+02 E0= -.67255771E+02  d E =-.436225E-02
 curvature: ****** expect dE=-0.228E+01 dE for cont linesearch -0.125E-02
 ZBRENT: increasing intervall
 opt :   0.3556  next Energy=   -67.257551 (dE=-0.614E-02)
 bond charge predicted
       N       E                     dE             d eps       ncg     rms          rms(c)
DAV:   1    -0.704144229249E+02   -0.31587E+01   -0.11286E+02  2400   0.596E+01    0.817E+00
DAV:   2    -0.679584648373E+02    0.24560E+01   -0.31966E+00  2148   0.911E+00    0.325E+00
DAV:   3    -0.673510063445E+02    0.60746E+00   -0.12787E+00  2760   0.510E+00    0.982E-01
DAV:   4    -0.672829998473E+02    0.68006E-01   -0.11508E-01  2676   0.158E+00    0.444E-01
DAV:   5    -0.672730659899E+02    0.99339E-02   -0.10237E-02  2628   0.538E-01    0.179E-01
DAV:   6    -0.672654237133E+02    0.76423E-02   -0.85726E-03  2280   0.414E-01    0.147E-01
DAV:   7    -0.672602998466E+02    0.51239E-02   -0.23305E-03  2136   0.217E-01    0.631E-02
DAV:   8    -0.672584718466E+02    0.18280E-02   -0.61726E-04  2136   0.939E-02    0.498E-02
DAV:   9    -0.672579738973E+02    0.49795E-03   -0.19923E-04  2100   0.750E-02    0.191E-02
DAV:  10    -0.672580000226E+02   -0.26125E-04   -0.27692E-05  2712   0.269E-02    0.873E-03
DAV:  11    -0.672580908690E+02   -0.90846E-04   -0.16085E-05  2112   0.185E-02    0.289E-03
DAV:  12    -0.672581125256E+02   -0.21657E-04   -0.30720E-06  2532   0.798E-03    0.107E-03
DAV:  13    -0.672581146015E+02   -0.20759E-05   -0.23086E-07  1752   0.213E-03    0.327E-04
DAV:  14    -0.672581150157E+02   -0.41417E-06   -0.47678E-08  1968   0.953E-04
  30 F= -.67258115E+02 E0= -.67258115E+02  d E =-.670602E-02
 curvature: ****** expect dE=-0.208E+01 dE for cont linesearch -0.102E-04
 trial: gam= 0.04711 g(F)=  0.495E-02 g(S)=  0.474E-02 ort = 0.139E-02 (trialstep = 0.840E-01)
 search vector abs. value=  0.101E+00
 bond charge predicted
       N       E                     dE             d eps       ncg     rms          rms(c)
DAV:   1    -0.672598967651E+02   -0.17822E-02   -0.36581E-02  2376   0.106E+00    0.128E-01
DAV:   2    -0.672591624498E+02    0.73432E-03   -0.94055E-04  2412   0.165E-01    0.661E-02
DAV:   3    -0.672588226949E+02    0.33975E-03   -0.82930E-04  2652   0.131E-01    0.188E-02
DAV:   4    -0.672588214065E+02    0.12884E-05   -0.40629E-05  2544   0.332E-02    0.843E-03
DAV:   5    -0.672588221299E+02   -0.72343E-06   -0.13685E-05  2340   0.166E-02    0.508E-03
DAV:   6    -0.672588509798E+02   -0.28850E-04   -0.57706E-06  2268   0.109E-02    0.430E-03
DAV:   7    -0.672588614797E+02   -0.10500E-04   -0.10662E-06  2604   0.395E-03    0.269E-03
DAV:   8    -0.672588778783E+02   -0.16399E-04   -0.46685E-06  2208   0.721E-03    0.202E-03
DAV:   9    -0.672588808753E+02   -0.29970E-05   -0.33809E-07  2100   0.246E-03    0.107E-03
DAV:  10    -0.672588825279E+02   -0.16525E-05   -0.40123E-07  1776   0.275E-03    0.629E-04
DAV:  11    -0.672588830094E+02   -0.48154E-06   -0.63411E-08  1548   0.118E-03
  31 F= -.67258883E+02 E0= -.67258883E+02  d E =-.767994E-03
 ZBRENT: can't locate minimum, use default step
 trial-energy change:   -0.000768  1 .order   -0.000771   -0.000820   -0.000722
 step:   0.3362(harm=  0.7026)  dis= 0.00232  next Energy=   -67.261542 (dE=-0.343E-02)
 bond charge predicted
       N       E                     dE             d eps       ncg     rms          rms(c)
DAV:   1    -0.672697903548E+02   -0.10908E-01   -0.33189E-01  2364   0.319E+00    0.386E-01
DAV:   2    -0.672631873208E+02    0.66030E-02   -0.84622E-03  2424   0.494E-01    0.199E-01
DAV:   3    -0.672603484785E+02    0.28388E-02   -0.74673E-03  2604   0.394E-01    0.566E-02
DAV:   4    -0.672603383222E+02    0.10156E-04   -0.36234E-04  2484   0.996E-02    0.254E-02
DAV:   5    -0.672603398364E+02   -0.15141E-05   -0.12319E-04  2256   0.499E-02    0.152E-02
DAV:   6    -0.672604928196E+02   -0.15298E-03   -0.52765E-05  2232   0.337E-02    0.127E-02
DAV:   7    -0.672605319216E+02   -0.39102E-04   -0.81470E-06  2520   0.114E-02    0.803E-03
DAV:   8    -0.672605825735E+02   -0.50652E-04   -0.31720E-05  2280   0.199E-02    0.590E-03
DAV:   9    -0.672605892206E+02   -0.66470E-05   -0.20491E-06  2736   0.660E-03    0.293E-03
DAV:  10    -0.672605932114E+02   -0.39909E-05   -0.19723E-06  2160   0.654E-03    0.185E-03
DAV:  11    -0.672605945081E+02   -0.12967E-05   -0.32903E-07  1704   0.281E-03    0.425E-04
DAV:  12    -0.672605948025E+02   -0.29443E-06   -0.45351E-08  1896   0.113E-03
  32 F= -.67260595E+02 E0= -.67260595E+02  d E =-.247979E-02
 curvature:  -2.36 expect dE=-0.840E-02 dE for cont linesearch -0.580E-03
 ZBRENT: increasing intervall
 opt :   0.8404  next Energy=   -67.261287 (dE=-0.317E-02)
 bond charge predicted
       N       E                     dE             d eps       ncg     rms          rms(c)
DAV:   1    -0.672986884921E+02   -0.38094E-01   -0.13524E+00  2316   0.645E+00    0.780E-01
DAV:   2    -0.672719792934E+02    0.26709E-01   -0.33607E-02  2448   0.994E-01    0.402E-01
DAV:   3    -0.672609195499E+02    0.11060E-01   -0.30368E-02  2772   0.796E-01    0.114E-01
DAV:   4    -0.672608275824E+02    0.91968E-04   -0.14706E-03  2256   0.201E-01    0.512E-02
DAV:   5    -0.672607645137E+02    0.63069E-04   -0.49091E-04  2328   0.101E-01    0.307E-02
DAV:   6    -0.672611357683E+02   -0.37125E-03   -0.20765E-04  2208   0.688E-02    0.256E-02
DAV:   7    -0.672612061259E+02   -0.70358E-04   -0.30244E-05  2424   0.229E-02    0.161E-02
DAV:   8    -0.672612808637E+02   -0.74738E-04   -0.10494E-04  2244   0.380E-02    0.118E-02
DAV:   9    -0.672612886293E+02   -0.77656E-05   -0.68866E-06  2712   0.128E-02    0.531E-03
DAV:  10    -0.672612966860E+02   -0.80566E-05   -0.62720E-06  2244   0.118E-02    0.356E-03
DAV:  11    -0.672612992887E+02   -0.26027E-05   -0.11082E-06  1716   0.518E-03    0.741E-04
DAV:  12    -0.672612999429E+02   -0.65417E-06   -0.13900E-07  1980   0.207E-03
  33 F= -.67261300E+02 E0= -.67261300E+02  d E =-.318493E-02
 curvature:  -2.81 expect dE=-0.208E-01 dE for cont linesearch -0.136E-03
 ZBRENT: bracketing found
 ZBRENT: interpolating
 opt :   0.6856  next Energy=   -67.261471 (dE=-0.336E-02)
 bond charge predicted
       N       E                     dE             d eps       ncg     rms          rms(c)
DAV:   1    -0.672650461152E+02   -0.37468E-02   -0.12802E-01  2328   0.197E+00    0.239E-01
DAV:   2    -0.672625154293E+02    0.25307E-02   -0.33136E-03  2088   0.309E-01    0.124E-01
DAV:   3    -0.672613982512E+02    0.11172E-02   -0.30394E-03  2580   0.249E-01    0.362E-02
DAV:   4    -0.672613558580E+02    0.42393E-04   -0.14484E-04  2064   0.627E-02    0.163E-02
DAV:   5    -0.672613153360E+02    0.40522E-04   -0.48124E-05  2064   0.315E-02    0.964E-03
DAV:   6    -0.672613246678E+02   -0.93319E-05   -0.17020E-05  2064   0.219E-02    0.877E-03
DAV:   7    -0.672613493099E+02   -0.24642E-04   -0.28894E-06  2088   0.907E-03    0.544E-03
DAV:   8    -0.672614196156E+02   -0.70306E-04   -0.11827E-05  2232   0.151E-02    0.429E-03
DAV:   9    -0.672614478615E+02   -0.28246E-04   -0.68033E-07  1596   0.527E-03    0.230E-03
DAV:  10    -0.672614643654E+02   -0.16504E-04   -0.12788E-06  1548   0.627E-03    0.126E-03
DAV:  11    -0.672614672514E+02   -0.28860E-05   -0.17564E-07  1548   0.246E-03    0.358E-04
DAV:  12    -0.672614674584E+02   -0.20696E-06   -0.18510E-08  2280   0.757E-04
  34 F= -.67261467E+02 E0= -.67261467E+02  d E =-.335244E-02
 curvature:  -3.54 expect dE=-0.161E-01 dE for cont linesearch -0.101E-09
 trial: gam= 0.47914 g(F)=  0.350E-02 g(S)=  0.105E-02 ort =-0.170E-05 (trialstep = 0.204E+00)
 search vector abs. value=  0.277E-01
 bond charge predicted
       N       E                     dE             d eps       ncg     rms          rms(c)
DAV:   1    -0.672636428916E+02   -0.21756E-02   -0.73228E-02  2208   0.157E+00    0.152E-01
DAV:   2    -0.672626386759E+02    0.10042E-02   -0.14944E-03  2160   0.215E-01    0.818E-02
DAV:   3    -0.672621020884E+02    0.53659E-03   -0.11796E-03  2616   0.158E-01    0.224E-02
DAV:   4    -0.672621048232E+02   -0.27348E-05   -0.43558E-05  2652   0.359E-02    0.107E-02
DAV:   5    -0.672621116373E+02   -0.68142E-05   -0.15900E-05  2340   0.181E-02    0.516E-03
DAV:   6    -0.672621461326E+02   -0.34495E-04   -0.43774E-06  2244   0.948E-03    0.333E-03
DAV:   7    -0.672621679164E+02   -0.21784E-04   -0.34030E-06  2484   0.589E-03    0.207E-03
DAV:   8    -0.672621866185E+02   -0.18702E-04   -0.39036E-06  2304   0.571E-03    0.143E-03
DAV:   9    -0.672621912352E+02   -0.46166E-05   -0.43974E-07  2112   0.246E-03    0.585E-04
DAV:  10    -0.672621940297E+02   -0.27946E-05   -0.36394E-07  1752   0.184E-03    0.287E-04
DAV:  11    -0.672621947752E+02   -0.74545E-06   -0.46004E-08  1620   0.765E-04
  35 F= -.67262195E+02 E0= -.67262195E+02  d E =-.727317E-03
 trial-energy change:   -0.000727  1 .order   -0.000728   -0.000931   -0.000525
 step:   0.4693(harm=  0.4693)  dis= 0.00380  next Energy=   -67.262536 (dE=-0.107E-02)
 bond charge predicted
       N       E                     dE             d eps       ncg     rms          rms(c)
DAV:   1    -0.672649845367E+02   -0.27905E-02   -0.12356E-01  2328   0.203E+00    0.198E-01
DAV:   2    -0.672632888702E+02    0.16957E-02   -0.24631E-03  2436   0.275E-01    0.106E-01
DAV:   3    -0.672623990467E+02    0.88982E-03   -0.19687E-03  2652   0.204E-01    0.286E-02
DAV:   4    -0.672624044487E+02   -0.54020E-05   -0.70029E-05  2556   0.456E-02    0.136E-02
DAV:   5    -0.672624154537E+02   -0.11005E-04   -0.26780E-05  2328   0.234E-02    0.664E-03
DAV:   6    -0.672624693956E+02   -0.53942E-04   -0.80214E-06  2196   0.129E-02    0.460E-03
DAV:   7    -0.672624986004E+02   -0.29205E-04   -0.53325E-06  2556   0.758E-03    0.270E-03
DAV:   8    -0.672625227874E+02   -0.24187E-04   -0.61548E-06  2280   0.739E-03    0.199E-03
DAV:   9    -0.672625282985E+02   -0.55111E-05   -0.62193E-07  2376   0.315E-03    0.707E-04
DAV:  10    -0.672625317654E+02   -0.34668E-05   -0.45845E-07  1776   0.219E-03    0.373E-04
DAV:  11    -0.672625326869E+02   -0.92156E-06   -0.64757E-08  1728   0.919E-04
  36 F= -.67262533E+02 E0= -.67262533E+02  d E =-.106523E-02
 curvature:  -1.43 expect dE=-0.444E-02 dE for cont linesearch -0.601E-08
 trial: gam= 0.68506 g(F)=  0.175E-02 g(S)=  0.136E-02 ort =-0.108E-04 (trialstep = 0.257E+00)
 search vector abs. value=  0.161E-01
 bond charge predicted
       N       E                     dE             d eps       ncg     rms          rms(c)
DAV:   1    -0.672641916040E+02   -0.16598E-02   -0.66288E-02  2268   0.152E+00    0.133E-01
DAV:   2    -0.672634571291E+02    0.73447E-03   -0.11946E-03  2388   0.190E-01    0.729E-02
DAV:   3    -0.672630123852E+02    0.44474E-03   -0.83381E-04  2568   0.132E-01    0.174E-02
DAV:   4    -0.672630142482E+02   -0.18630E-05   -0.19665E-05  2856   0.252E-02    0.903E-03
DAV:   5    -0.672630260229E+02   -0.11775E-04   -0.79468E-06  2316   0.131E-02    0.346E-03
DAV:   6    -0.672630490085E+02   -0.22986E-04   -0.28319E-06  2352   0.701E-03    0.216E-03
DAV:   7    -0.672630740845E+02   -0.25076E-04   -0.39344E-06  2340   0.625E-03    0.174E-03
DAV:   8    -0.672630892000E+02   -0.15115E-04   -0.26487E-06  2496   0.457E-03    0.110E-03
DAV:   9    -0.672630940513E+02   -0.48513E-05   -0.49294E-07  2112   0.239E-03    0.358E-04
DAV:  10    -0.672630960405E+02   -0.19892E-05   -0.20583E-07  1764   0.133E-03    0.209E-04
DAV:  11    -0.672630965661E+02   -0.52556E-06   -0.24982E-08  1788   0.572E-04
  37 F= -.67263097E+02 E0= -.67263097E+02  d E =-.563879E-03
 trial-energy change:   -0.000564  1 .order   -0.000567   -0.000799   -0.000335
 step:   0.4428(harm=  0.4428)  dis= 0.00308  next Energy=   -67.263220 (dE=-0.687E-03)
 bond charge predicted
       N       E                     dE             d eps       ncg     rms          rms(c)
DAV:   1    -0.672637890756E+02   -0.69304E-03   -0.34517E-02  2376   0.109E+00    0.963E-02
DAV:   2    -0.672634031657E+02    0.38591E-03   -0.61550E-04  2280   0.136E-01    0.525E-02
DAV:   3    -0.672631646923E+02    0.23847E-03   -0.43509E-04  2652   0.948E-02    0.126E-02
DAV:   4    -0.672631649300E+02   -0.23776E-06   -0.10388E-05  2892   0.182E-02    0.649E-03
DAV:   5    -0.672631705814E+02   -0.56514E-05   -0.40176E-06  2352   0.935E-03    0.251E-03
DAV:   6    -0.672631849470E+02   -0.14366E-04   -0.14737E-06  2268   0.498E-03    0.158E-03
DAV:   7    -0.672632008046E+02   -0.15858E-04   -0.21288E-06  2328   0.447E-03    0.124E-03
DAV:   8    -0.672632112757E+02   -0.10471E-04   -0.15227E-06  2484   0.338E-03    0.793E-04
DAV:   9    -0.672632149524E+02   -0.36768E-05   -0.32783E-07  1956   0.186E-03    0.249E-04
DAV:  10    -0.672632163334E+02   -0.13810E-05   -0.12660E-07  1728   0.101E-03    0.149E-04
DAV:  11    -0.672632167285E+02   -0.39506E-06   -0.16605E-08  1692   0.446E-04
  38 F= -.67263217E+02 E0= -.67263217E+02  d E =-.684042E-03
 curvature:  -1.15 expect dE=-0.341E-03 dE for cont linesearch -0.139E-08
 trial: gam= 0.08789 g(F)=  0.713E-04 g(S)=  0.226E-03 ort = 0.442E-05 (trialstep = 0.294E+00)
 search vector abs. value=  0.422E-03
 bond charge predicted
       N       E                     dE             d eps       ncg     rms          rms(c)
DAV:   1    -0.672632903048E+02   -0.73971E-04   -0.14442E-03  2556   0.237E-01    0.215E-02
DAV:   2    -0.672632788321E+02    0.11473E-04   -0.36428E-05  2124   0.361E-02    0.118E-02
DAV:   3    -0.672632734655E+02    0.53666E-05   -0.15319E-05  2340   0.197E-02    0.242E-03
DAV:   4    -0.672632732062E+02    0.25931E-06   -0.94908E-07  2124   0.595E-03
  39 F= -.67263273E+02 E0= -.67263273E+02  d E =-.564778E-04
 trial-energy change:   -0.000056  1 .order   -0.000058   -0.000088   -0.000029
 step:   0.4430(harm=  0.4430)  dis= 0.00049  next Energy=   -67.263283 (dE=-0.659E-04)
 reached required accuracy - stopping structural energy minimisation
 writing wavefunctions
