BC3                                     
           1
     5.174000    0.000000    0.000000
     2.587000    4.481000    0.000000
     0.000000    0.000000   20.000000
   B    C 
   2   6
Direct configuration=     1
   0.17457326  0.17462620  0.00000000
   0.50792519  0.50792234  0.00000000
   0.00000000  0.00000000  0.00000000
   0.52377271  0.00000000  0.00000000
   0.68255138  0.15866994  0.00000000
   0.99994706  0.52387860  0.00000000
   0.15872573  0.68254854  0.00000000
   0.68249844  0.68254854  0.00000000
BC3                                     
           1
     5.171515    0.000000    0.000000
     2.585758    4.478448    0.000000
     0.000000    0.000000   19.978616
   B    C 
   2   6
Direct configuration=     2
   0.17454912  0.17467446 -0.00000000
   0.50794932  0.50787408 -0.00000000
  -0.00010827 -0.00012316 -0.00000000
   0.52400414 -0.00012316 -0.00000000
   0.68259956  0.15857359 -0.00000000
   0.99989888  0.52397495  0.00000000
   0.15849430  0.68267170 -0.00000000
   0.68260671  0.68267170  0.00000000
BC3                                     
           1
     5.172632    0.000000    0.000000
     2.586316    4.479595    0.000000
     0.000000    0.000000   19.988232
   B    C 
   2   6
Direct configuration=     3
   0.17455998  0.17465275 -0.00000000
   0.50793846  0.50789579 -0.00000000
  -0.00005956 -0.00006775 -0.00000000
   0.52390002 -0.00006775 -0.00000000
   0.68257789  0.15861694 -0.00000000
   0.99992056  0.52393160  0.00000000
   0.15859842  0.68261628 -0.00000000
   0.68255800  0.68261628  0.00000000
BC3                                     
           1
     5.172539    0.000000    0.000000
     2.586270    4.479604    0.000000
     0.000000    0.000000   19.968184
   B    C 
   2   6
Direct configuration=     4
   0.17456945  0.17463381 -0.00000000
   0.50792899  0.50791473 -0.00000000
  -0.00008937 -0.00003935 -0.00000000
   0.52390143 -0.00003935 -0.00000000
   0.68257104  0.15863062 -0.00000000
   0.99992740  0.52391792  0.00000000
   0.15859701  0.68258789 -0.00000000
   0.68258781  0.68258789  0.00000000
BC3                                     
           1
     5.172259    0.000000    0.000000
     2.586129    4.479628    0.000000
     0.000000    0.000000   19.908041
   B    C 
   2   6
Direct configuration=     5
   0.17459786  0.17457699 -0.00000000
   0.50790058  0.50797155 -0.00000000
  -0.00017878  0.00004582 -0.00000000
   0.52390567  0.00004582 -0.00000000
   0.68255052  0.15867166 -0.00000000
   0.99994792  0.52387687  0.00000000
   0.15859277  0.68250271 -0.00000000
   0.68267722  0.68250271  0.00000000
BC3                                     
           1
     5.171698    0.000000    0.000000
     2.585849    4.479678    0.000000
     0.000000    0.000000   19.787754
   B    C 
   2   6
Direct configuration=     6
   0.17465468  0.17446336 -0.00000000
   0.50784377  0.50808518 -0.00000000
  -0.00035762  0.00021618 -0.00000000
   0.52391415  0.00021618 -0.00000000
   0.68250948  0.15875375 -0.00000000
   0.99998896  0.52379479  0.00000000
   0.15858429  0.68233236 -0.00000000
   0.68285606  0.68233236  0.00000000
BC3                                     
           1
     5.170577    0.000000    0.000000
     2.585288    4.479776    0.000000
     0.000000    0.000000   19.547181
   B    C 
   2   6
Direct configuration=     7
   0.17476831  0.17423610 -0.00000000
   0.50773013  0.50831244 -0.00000000
  -0.00071531  0.00055688 -0.00000000
   0.52393114  0.00055688 -0.00000000
   0.68242739  0.15891792 -0.00000000
   0.00007105  0.52363062  0.00000000
   0.15856730  0.68199166 -0.00000000
   0.68321375  0.68199166  0.00000000
BC3                                     
           1
     5.171022    0.000000    0.000000
     2.585511    4.479737    0.000000
     0.000000    0.000000   19.642727
   B    C 
   2   6
Direct configuration=     8
   0.17472318  0.17432635 -0.00000000
   0.50777526  0.50822218 -0.00000000
  -0.00057323  0.00042157 -0.00000000
   0.52392437  0.00042157 -0.00000000
   0.68245999  0.15885272 -0.00000000
   0.00003845  0.52369582  0.00000000
   0.15857407  0.68212697 -0.00000000
   0.68307167  0.68212697  0.00000000
BC3                                     
           1
     5.171044    0.000000    0.000000
     2.585522    4.479730    0.000000
     0.000000    0.000000   19.639607
   B    C 
   2   6
Direct configuration=     9
   0.17472411  0.17432450 -0.00000000
   0.50777433  0.50822404 -0.00000000
  -0.00057306  0.00042023 -0.00000000
   0.52392554  0.00042023 -0.00000000
   0.68245780  0.15885711 -0.00000000
   0.00004064  0.52369143  0.00000000
   0.15857290  0.68212830 -0.00000000
   0.68307151  0.68212830  0.00000000
BC3                                     
           1
     5.171109    0.000000    0.000000
     2.585554    4.479711    0.000000
     0.000000    0.000000   19.630247
   B    C 
   2   6
Direct configuration=    10
   0.17472689  0.17431892 -0.00000000
   0.50777155  0.50822962 -0.00000000
  -0.00057256  0.00041622 -0.00000000
   0.52392904  0.00041622 -0.00000000
   0.68245122  0.15887027 -0.00000000
   0.00004722  0.52367827  0.00000000
   0.15856940  0.68213231 -0.00000000
   0.68307100  0.68213231  0.00000000
BC3                                     
           1
     5.171239    0.000000    0.000000
     2.585620    4.479671    0.000000
     0.000000    0.000000   19.611528
   B    C 
   2   6
Direct configuration=    11
   0.17473247  0.17430777 -0.00000000
   0.50776597  0.50824077 -0.00000000
  -0.00057155  0.00040821 -0.00000000
   0.52393605  0.00040821 -0.00000000
   0.68243806  0.15889659 -0.00000000
   0.00006038  0.52365195  0.00000000
   0.15856239  0.68214033 -0.00000000
   0.68306999  0.68214033  0.00000000
BC3                                     
           1
     5.171500    0.000000    0.000000
     2.585750    4.479592    0.000000
     0.000000    0.000000   19.574088
   B    C 
   2   6
Direct configuration=    12
   0.17474362  0.17428547 -0.00000000
   0.50775482  0.50826306 -0.00000000
  -0.00056952  0.00039217 -0.00000000
   0.52395006  0.00039217 -0.00000000
   0.68241174  0.15894922 -0.00000000
   0.00008670  0.52359932  0.00000000
   0.15854838  0.68215637 -0.00000000
   0.68306796  0.68215637  0.00000000
BC3                                     
           1
     5.172021    0.000000    0.000000
     2.586011    4.479433    0.000000
     0.000000    0.000000   19.499210
   B    C 
   2   6
Direct configuration=    13
   0.17476592  0.17424088 -0.00000000
   0.50773252  0.50830766 -0.00000000
  -0.00056547  0.00036009 -0.00000000
   0.52397809  0.00036009 -0.00000000
   0.68235911  0.15905450 -0.00000000
   0.00013934  0.52349404  0.00000000
   0.15852036  0.68218845 -0.00000000
   0.68306391  0.68218845  0.00000000
BC3                                     
           1
     5.173064    0.000000    0.000000
     2.586532    4.479116    0.000000
     0.000000    0.000000   19.349452
   B    C 
   2   6
Direct configuration=    14
   0.17481052  0.17415168 -0.00000000
   0.50768792  0.50839686 -0.00000000
  -0.00055736  0.00029594 -0.00000000
   0.52403413  0.00029594 -0.00000000
   0.68225382  0.15926506 -0.00000000
   0.00024462  0.52328348  0.00000000
   0.15846431  0.68225260 -0.00000000
   0.68305580  0.68225260  0.00000000
BC3                                     
           1
     5.175150    0.000000    0.000000
     2.587575    4.478481    0.000000
     0.000000    0.000000   19.049937
   B    C 
   2   6
Direct configuration=    15
   0.17489972  0.17397327 -0.00000000
   0.50759872  0.50857527 -0.00000000
  -0.00054113  0.00016762 -0.00000000
   0.52414622  0.00016762 -0.00000000
   0.68204325  0.15968621 -0.00000000
   0.00045519  0.52286233  0.00000000
   0.15835222  0.68238092 -0.00000000
   0.68303957  0.68238092  0.00000000
BC3                                     
           1
     5.179321    0.000000    0.000000
     2.589661    4.477212    0.000000
     0.000000    0.000000   18.450907
   B    C 
   2   6
Direct configuration=    16
   0.17507816  0.17361639 -0.00000000
   0.50742028  0.50893214 -0.00000000
  -0.00050861 -0.00008904 -0.00000000
   0.52437037 -0.00008904 -0.00000000
   0.68162204  0.16052864 -0.00000000
   0.00087640  0.52201990  0.00000000
   0.15812807  0.68263758 -0.00000000
   0.68300705  0.68263758  0.00000000
BC3                                     
           1
     5.177039    0.000000    0.000000
     2.588519    4.477906    0.000000
     0.000000    0.000000   18.778658
   B    C 
   2   6
Direct configuration=    17
   0.17498050  0.17381171 -0.00000000
   0.50751794  0.50873683 -0.00000000
  -0.00052647  0.00005143 -0.00000000
   0.52424775  0.00005143 -0.00000000
   0.68185256  0.16006759 -0.00000000
   0.00064588  0.52248095  0.00000000
   0.15825069  0.68249711 -0.00000000
   0.68302491  0.68249711  0.00000000
BC3                                     
           1
     5.176834    0.000000    0.000000
     2.588417    4.478228    0.000000
     0.000000    0.000000   18.630134
   B    C 
   2   6
Direct configuration=    18
   0.17505448  0.17366375 -0.00000000
   0.50744396  0.50888479 -0.00000000
  -0.00053691  0.00003737 -0.00000000
   0.52427226  0.00003737 -0.00000000
   0.68192714  0.15991844 -0.00000000
   0.00057130  0.52263010  0.00000000
   0.15822618  0.68251117 -0.00000000
   0.68303535  0.68251117  0.00000000
BC3                                     
           1
     5.176219    0.000000    0.000000
     2.588110    4.479191    0.000000
     0.000000    0.000000   18.184562
   B    C 
   2   6
Direct configuration=    19
   0.17527639  0.17321992 -0.00000000
   0.50722205  0.50932862 -0.00000000
  -0.00056826 -0.00000481 -0.00000000
   0.52434578 -0.00000481 -0.00000000
   0.68215084  0.15947102 -0.00000000
   0.00034760  0.52307752  0.00000000
   0.15815266  0.68255335 -0.00000000
   0.68306670  0.68255335  0.00000000
BC3                                     
           1
     5.175998    0.000000    0.000000
     2.587999    4.479538    0.000000
     0.000000    0.000000   18.024471
   B    C 
   2   6
Direct configuration=    20
   0.17535611  0.17306049 -0.00000000
   0.50714233  0.50948805 -0.00000000
  -0.00057953 -0.00001996 -0.00000000
   0.52437220 -0.00001996 -0.00000000
   0.68223120  0.15931030 -0.00000000
   0.00026724  0.52323823  0.00000000
   0.15812624  0.68256850 -0.00000000
   0.68307797  0.68256850  0.00000000
BC3                                     
           1
     5.175556    0.000000    0.000000
     2.587778    4.480230    0.000000
     0.000000    0.000000   17.704288
   B    C 
   2   6
Direct configuration=    21
   0.17551553  0.17274165 -0.00000000
   0.50698291  0.50980689 -0.00000000
  -0.00060207 -0.00005026 -0.00000000
   0.52442503 -0.00005026 -0.00000000
   0.68239191  0.15898889 -0.00000000
   0.00010653  0.52355965  0.00000000
   0.15807341  0.68259879 -0.00000000
   0.68310051  0.68259879  0.00000000
BC3                                     
           1
     5.175843    0.000000    0.000000
     2.587921    4.479781    0.000000
     0.000000    0.000000   17.911942
   B    C 
   2   6
Direct configuration=    22
   0.17541215  0.17294840 -0.00000000
   0.50708629  0.50960014 -0.00000000
  -0.00058745 -0.00003061 -0.00000000
   0.52439076 -0.00003061 -0.00000000
   0.68228770  0.15919731 -0.00000000
   0.00021074  0.52335123  0.00000000
   0.15810768  0.68257915 -0.00000000
   0.68308589  0.68257915  0.00000000
BC3                                     
           1
     5.175738    0.000000    0.000000
     2.587869    4.480222    0.000000
     0.000000    0.000000   17.723225
   B    C 
   2   6
Direct configuration=    23
   0.17535613  0.17306044 -0.00000000
   0.50714231  0.50948810 -0.00000000
  -0.00052460 -0.00007936 -0.00000000
   0.52437666 -0.00007936 -0.00000000
   0.68231738  0.15913795 -0.00000000
   0.00018106  0.52341059  0.00000000
   0.15812178  0.68262789 -0.00000000
   0.68302304  0.68262789  0.00000000
BC3                                     
           1
     5.175422    0.000000    0.000000
     2.587711    4.481544    0.000000
     0.000000    0.000000   17.157072
   B    C 
   2   6
Direct configuration=    24
   0.17518809  0.17339654 -0.00000000
   0.50731035  0.50915200 -0.00000000
  -0.00033605 -0.00022558 -0.00000000
   0.52433434 -0.00022558 -0.00000000
   0.68240641  0.15895990 -0.00000000
   0.00009203  0.52358864  0.00000000
   0.15816410  0.68277412 -0.00000000
   0.68283449  0.68277412  0.00000000
BC3                                     
           1
     5.174791    0.000000    0.000000
     2.587395    4.484187    0.000000
     0.000000    0.000000   16.024766
   B    C 
   2   6
Direct configuration=    25
   0.17485209  0.17406852 -0.00000000
   0.50764635  0.50848002 -0.00000000
   0.00004102 -0.00051795 -0.00000000
   0.52424964 -0.00051795 -0.00000000
   0.68258441  0.15860389 -0.00000000
  -0.00008597  0.52394465  0.00000000
   0.15824880  0.68306648 -0.00000000
   0.68245742  0.68306648  0.00000000
BC3                                     
           1
     5.173528    0.000000    0.000000
     2.586764    4.489475    0.000000
     0.000000    0.000000   13.760155
   B    C 
   2   6
Direct configuration=    26
   0.17418050  0.17541171 -0.00000000
   0.50831794  0.50713683 -0.00000000
   0.00079503 -0.00110233 -0.00000000
   0.52408001 -0.00110233 -0.00000000
   0.68294020  0.15789230 -0.00000000
  -0.00044176  0.52465624  0.00000000
   0.15841843  0.68365087 -0.00000000
   0.68170341  0.68365087  0.00000000
BC3                                     
           1
     5.173255    0.000000    0.000000
     2.586627    4.489676    0.000000
     0.000000    0.000000   13.649649
   B    C 
   2   6
Direct configuration=    27
   0.17414608  0.17548054 -0.00000000
   0.50835236  0.50706800 -0.00000000
   0.00080535 -0.00107338 -0.00000000
   0.52404074 -0.00107338 -0.00000000
   0.68296578  0.15784115 -0.00000000
  -0.00046734  0.52470739  0.00000000
   0.15845770  0.68362192 -0.00000000
   0.68169309  0.68362192  0.00000000
BC3                                     
           1
     5.172435    0.000000    0.000000
     2.586218    4.490279    0.000000
     0.000000    0.000000   13.318134
   B    C 
   2   6
Direct configuration=    28
   0.17404283  0.17568704 -0.00000000
   0.50845561  0.50686150 -0.00000000
   0.00083632 -0.00098654 -0.00000000
   0.52392293 -0.00098654 -0.00000000
   0.68304251  0.15768770 -0.00000000
  -0.00054407  0.52486084  0.00000000
   0.15857551  0.68353507 -0.00000000
   0.68166212  0.68353507  0.00000000
BC3                                     
           1
     5.170796    0.000000    0.000000
     2.585398    4.491485    0.000000
     0.000000    0.000000   12.655102
   B    C 
   2   6
Direct configuration=    29
   0.17383636  0.17609998 -0.00000000
   0.50866208  0.50644856 -0.00000000
   0.00089829 -0.00081287 -0.00000000
   0.52368729 -0.00081287 -0.00000000
   0.68319594  0.15738083 -0.00000000
  -0.00069750  0.52516771  0.00000000
   0.15881115  0.68336141 -0.00000000
   0.68160015  0.68336141  0.00000000
BC3                                     
           1
     5.167518    0.000000    0.000000
     2.583759    4.493898    0.000000
     0.000000    0.000000   11.329040
   B    C 
   2   6
Direct configuration=    30
   0.17342353  0.17692565 -0.00000000
   0.50907491  0.50562289 -0.00000000
   0.00102236 -0.00046563 -0.00000000
   0.52321598 -0.00046563 -0.00000000
   0.68350272  0.15676727 -0.00000000
  -0.00100428  0.52578127  0.00000000
   0.15928246  0.68301417 -0.00000000
   0.68147608  0.68301417  0.00000000
BC3                                     
           1
     5.167778    0.000000    0.000000
     2.583889    4.491949    0.000000
     0.000000    0.000000   11.306611
   B    C 
   2   6
Direct configuration=    31
   0.17348818  0.17679636 -0.00000000
   0.50901026  0.50575218 -0.00000000
   0.00096239 -0.00039003 -0.00000000
   0.52320035 -0.00039003 -0.00000000
   0.68346181  0.15684910 -0.00000000
  -0.00096336  0.52569944  0.00000000
   0.15929809  0.68293857 -0.00000000
   0.68153605  0.68293857  0.00000000
BC3                                     
           1
     5.168558    0.000000    0.000000
     2.584279    4.486103    0.000000
     0.000000    0.000000   11.239322
   B    C 
   2   6
Direct configuration=    32
   0.17368219  0.17640833 -0.00000000
   0.50881625  0.50614021 -0.00000000
   0.00078242 -0.00016314 -0.00000000
   0.52315343 -0.00016314 -0.00000000
   0.68333901  0.15709469 -0.00000000
  -0.00084057  0.52545385  0.00000000
   0.15934501  0.68271168 -0.00000000
   0.68171602  0.68271168  0.00000000
BC3                                     
           1
     5.170118    0.000000    0.000000
     2.585059    4.474410    0.000000
     0.000000    0.000000   11.104746
   B    C 
   2   6
Direct configuration=    33
   0.17407073  0.17563125 -0.00000000
   0.50842771  0.50691728 -0.00000000
   0.00042221  0.00029123 -0.00000000
   0.52305927  0.00029123 -0.00000000
   0.68309310  0.15758652 -0.00000000
  -0.00059466  0.52496202  0.00000000
   0.15943917  0.68225730 -0.00000000
   0.68207623  0.68225730  0.00000000
BC3                                     
           1
     5.169640    0.000000    0.000000
     2.584820    4.477998    0.000000
     0.000000    0.000000   11.146050
   B    C 
   2   6
Direct configuration=    34
   0.17395117  0.17587037 -0.00000000
   0.50854727  0.50667816 -0.00000000
   0.00053293  0.00015141 -0.00000000
   0.52308836  0.00015141 -0.00000000
   0.68316877  0.15743517 -0.00000000
  -0.00067033  0.52511337  0.00000000
   0.15941008  0.68239712 -0.00000000
   0.68196551  0.68239712  0.00000000
BC3                                     
           1
     5.172042    0.000000    0.000000
     2.586021    4.477144    0.000000
     0.000000    0.000000   11.120019
   B    C 
   2   6
Direct configuration=    35
   0.17406962  0.17563347 -0.00000000
   0.50842882  0.50691506 -0.00000000
   0.00045420  0.00005686 -0.00000000
   0.52326166  0.00005686 -0.00000000
   0.68298403  0.15780464 -0.00000000
  -0.00048559  0.52474389  0.00000000
   0.15923678  0.68249168 -0.00000000
   0.68204424  0.68249168  0.00000000
BC3                                     
           1
     5.175157    0.000000    0.000000
     2.587578    4.476037    0.000000
     0.000000    0.000000   11.086274
   B    C 
   2   6
Direct configuration=    36
   0.17422320  0.17532630 -0.00000000
   0.50827524  0.50722223 -0.00000000
   0.00035221 -0.00006575 -0.00000000
   0.52348624 -0.00006575 -0.00000000
   0.68274450  0.15828371 -0.00000000
  -0.00024606  0.52426483  0.00000000
   0.15901220  0.68261429 -0.00000000
   0.68214623  0.68261429  0.00000000
BC3                                     
           1
     5.175879    0.000000    0.000000
     2.587940    4.478379    0.000000
     0.000000    0.000000   11.063533
   B    C 
   2   6
Direct configuration=    37
   0.17442299  0.17492674 -0.00000000
   0.50807545  0.50762180 -0.00000000
   0.00007280 -0.00000557 -0.00000000
   0.52370549 -0.00000557 -0.00000000
   0.68263114  0.15851042 -0.00000000
  -0.00013270  0.52403812  0.00000000
   0.15879295  0.68255411 -0.00000000
   0.68242565  0.68255411  0.00000000
BC3                                     
           1
     5.176400    0.000000    0.000000
     2.588200    4.480068    0.000000
     0.000000    0.000000   11.047144
   B    C 
   2   6
Direct configuration=    38
   0.17456690  0.17463891 -0.00000000
   0.50793154  0.50790962 -0.00000000
  -0.00012855  0.00003777 -0.00000000
   0.52386348  0.00003777 -0.00000000
   0.68254949  0.15867373 -0.00000000
  -0.00005105  0.52387481  0.00000000
   0.15863496  0.68251076 -0.00000000
   0.68262699  0.68251076  0.00000000
BC3                                     
           1
     5.174714    0.000000    0.000000
     2.587357    4.480165    0.000000
     0.000000    0.000000   11.044412
   B    C 
   2   6
Direct configuration=    39
   0.17460303  0.17456665 -0.00000000
   0.50789541  0.50798189 -0.00000000
  -0.00011937 -0.00001059 -0.00000000
   0.52390268 -0.00001059 -0.00000000
   0.68254532  0.15868208 -0.00000000
  -0.00004688  0.52386646  0.00000000
   0.15859576  0.68255913 -0.00000000
   0.68261781  0.68255913  0.00000000
