       N       E                     dE             d eps       ncg     rms          rms(c)
DAV:   1     0.171710980427E+03    0.17171E+03   -0.89676E+03  3504   0.792E+02
DAV:   2    -0.373290712118E+02   -0.20904E+03   -0.19231E+03  6252   0.155E+02
DAV:   3    -0.664997818383E+02   -0.29171E+02   -0.28730E+02  4092   0.738E+01
DAV:   4    -0.672120298443E+02   -0.71225E+00   -0.71116E+00  4440   0.144E+01
DAV:   5    -0.672298641966E+02   -0.17834E-01   -0.17826E-01  4416   0.212E+00
DAV:   6    -0.672306141224E+02   -0.74993E-03   -0.74987E-03  4812   0.447E-01
DAV:   7    -0.672306363642E+02   -0.22242E-04   -0.22241E-04  4764   0.629E-02
DAV:   8    -0.672306372109E+02   -0.84669E-06   -0.84651E-06  5400   0.101E-02
   1 F= -.67230637E+02 E0= -.67230637E+02  d E =-.672306E+02
       N       E                     dE             d eps       ncg     rms          rms(c)
DAV:   1    -0.672306186468E+02    0.17717E-04   -0.70422E-03  3828   0.505E-01
DAV:   2    -0.672306292366E+02   -0.10590E-04   -0.10590E-04  5004   0.620E-02
DAV:   3    -0.672306293815E+02   -0.14492E-06   -0.14490E-06  4980   0.647E-03
   2 F= -.67230629E+02 E0= -.67230629E+02  d E =0.782939E-05
       N       E                     dE             d eps       ncg     rms          rms(c)
DAV:   1    -0.672306445367E+02   -0.15300E-04   -0.22808E-03  3696   0.287E-01
DAV:   2    -0.672306479605E+02   -0.34238E-05   -0.34237E-05  4956   0.353E-02
DAV:   3    -0.672306480071E+02   -0.46596E-07   -0.46618E-07  4464   0.373E-03
   3 F= -.67230648E+02 E0= -.67230648E+02  d E =-.107961E-04
       N       E                     dE             d eps       ncg     rms          rms(c)
DAV:   1    -0.672306428555E+02    0.51050E-05   -0.81852E-04  3612   0.178E-01
DAV:   2    -0.672306444988E+02   -0.16433E-05   -0.16433E-05  4668   0.233E-02
DAV:   3    -0.672306445276E+02   -0.28794E-07   -0.28837E-07  3912   0.301E-03
   4 F= -.67230645E+02 E0= -.67230645E+02  d E =0.347950E-05
       N       E                     dE             d eps       ncg     rms          rms(c)
DAV:   1    -0.672306482950E+02   -0.37962E-05   -0.37524E-04  3564   0.120E-01
DAV:   2    -0.672306490363E+02   -0.74132E-06   -0.74133E-06  4704   0.157E-02
   5 F= -.67230649E+02 E0= -.67230649E+02  d E =-.102927E-05
       N       E                     dE             d eps       ncg     rms          rms(c)
DAV:   1    -0.672306490461E+02   -0.75109E-06   -0.28969E-07  3756   0.353E-03
DAV:   2    -0.672306490467E+02   -0.62755E-09   -0.57587E-09  2184   0.469E-04
   6 F= -.67230649E+02 E0= -.67230649E+02  d E =-.103966E-05
       N       E                     dE             d eps       ncg     rms          rms(c)
DAV:   1    -0.672306490482E+02   -0.21168E-08   -0.49967E-08  2124   0.144E-03
DAV:   2    -0.672306490485E+02   -0.26830E-09   -0.27547E-09  2076   0.366E-04
   7 F= -.67230649E+02 E0= -.67230649E+02  d E =-.104141E-05
       N       E                     dE             d eps       ncg     rms          rms(c)
DAV:   1    -0.672306490488E+02   -0.55797E-09   -0.73179E-09  2040   0.547E-04
DAV:   2    -0.672306490488E+02    0.63665E-11   -0.64914E-10  1980   0.169E-04
   8 F= -.67230649E+02 E0= -.67230649E+02  d E =-.104170E-05
       N       E                     dE             d eps       ncg     rms          rms(c)
DAV:   1    -0.672306492848E+02   -0.23606E-06   -0.19407E-05  3576   0.284E-02
DAV:   2    -0.672306493028E+02   -0.17978E-07   -0.17993E-07  3144   0.222E-03
   9 F= -.67230649E+02 E0= -.67230649E+02  d E =-.254044E-06
       N       E                     dE             d eps       ncg     rms          rms(c)
DAV:   1    -0.672306493464E+02   -0.61599E-07   -0.44768E-06  3564   0.135E-02
DAV:   2    -0.672306493508E+02   -0.43783E-08   -0.43135E-08  2112   0.112E-03
  10 F= -.67230649E+02 E0= -.67230649E+02  d E =-.302043E-06
       N       E                     dE             d eps       ncg     rms          rms(c)
DAV:   1    -0.672306493567E+02   -0.10225E-07   -0.83324E-07  3552   0.578E-03
DAV:   2    -0.672306493574E+02   -0.79035E-09   -0.76315E-09  1860   0.508E-04
  11 F= -.67230649E+02 E0= -.67230649E+02  d E =-.308680E-06
       N       E                     dE             d eps       ncg     rms          rms(c)
DAV:   1    -0.672306493576E+02   -0.92177E-09   -0.16043E-08  1860   0.796E-04
DAV:   2    -0.672306493577E+02   -0.15461E-09   -0.16995E-09  1860   0.206E-04
  12 F= -.67230649E+02 E0= -.67230649E+02  d E =-.308966E-06
       N       E                     dE             d eps       ncg     rms          rms(c)
DAV:   1    -0.672306493577E+02   -0.14870E-09   -0.38924E-09  1860   0.424E-04
DAV:   2    -0.672306493577E+02    0.43656E-10   -0.13248E-10  1860   0.828E-05
  13 F= -.67230649E+02 E0= -.67230649E+02  d E =-.308917E-06
       N       E                     dE             d eps       ncg     rms          rms(c)
DAV:   1    -0.672306493578E+02   -0.57298E-10   -0.17032E-09  1860   0.272E-04
DAV:   2    -0.672306493578E+02    0.90949E-11   -0.71499E-11  1860   0.535E-05
  14 F= -.67230649E+02 E0= -.67230649E+02  d E =-.309009E-06
       N       E                     dE             d eps       ncg     rms          rms(c)
DAV:   1    -0.672306493578E+02    0.25466E-10   -0.12866E-10  1848   0.757E-05
DAV:   2    -0.672306493577E+02    0.38199E-10    0.15071E-12  1824   0.212E-05
  15 F= -.67230649E+02 E0= -.67230649E+02  d E =-.308954E-06
       N       E                     dE             d eps       ncg     rms          rms(c)
DAV:   1    -0.672306493578E+02   -0.28194E-10   -0.53193E-11  1824   0.538E-05
DAV:   2    -0.672306493578E+02   -0.12733E-10    0.17096E-11  1824   0.128E-05
  16 F= -.67230649E+02 E0= -.67230649E+02  d E =-.309033E-06
       N       E                     dE             d eps       ncg     rms          rms(c)
DAV:   1    -0.672306493578E+02    0.90949E-12    0.35438E-12  1824   0.268E-05
DAV:   2    -0.672306493578E+02    0.72760E-11    0.27394E-11  1824   0.712E-06
  17 F= -.67230649E+02 E0= -.67230649E+02  d E =-.309012E-06
       N       E                     dE             d eps       ncg     rms          rms(c)
DAV:   1    -0.672306493578E+02   -0.25921E-10    0.17438E-11  1824   0.136E-05
DAV:   2    -0.672306493578E+02   -0.27285E-11    0.22487E-11  1824   0.372E-06
  18 F= -.67230649E+02 E0= -.67230649E+02  d E =-.309048E-06
       N       E                     dE             d eps       ncg     rms          rms(c)
DAV:   1    -0.672306493578E+02    0.59117E-11    0.22821E-11  1824   0.678E-06
DAV:   2    -0.672306493578E+02   -0.23647E-10    0.22483E-11  1824   0.195E-06
  19 F= -.67230649E+02 E0= -.67230649E+02  d E =-.309063E-06
       N       E                     dE             d eps       ncg     rms          rms(c)
DAV:   1    -0.672306493578E+02    0.24556E-10    0.24786E-11  1812   0.342E-06
DAV:   2    -0.672306493578E+02   -0.13642E-10    0.21749E-11  1824   0.100E-06
  20 F= -.67230649E+02 E0= -.67230649E+02  d E =-.309029E-06
       N       E                     dE             d eps       ncg     rms          rms(c)
DAV:   1    -0.672306493578E+02   -0.49567E-10    0.22159E-11  1812   0.171E-06
DAV:   2    -0.672306493578E+02    0.40927E-10    0.26799E-11  1824   0.513E-07
  21 F= -.67230649E+02 E0= -.67230649E+02  d E =-.309024E-06
       N       E                     dE             d eps       ncg     rms          rms(c)
DAV:   1    -0.672306493578E+02    0.59117E-11    0.23149E-11  1812   0.857E-07
DAV:   2    -0.672306493578E+02    0.14552E-10    0.24532E-11  1824   0.259E-07
  22 F= -.67230649E+02 E0= -.67230649E+02  d E =-.309044E-06
       N       E                     dE             d eps       ncg     rms          rms(c)
DAV:   1    -0.672306493578E+02    0.48658E-10    0.23484E-11  1812   0.428E-07
DAV:   2    -0.672306493578E+02   -0.39108E-10    0.24684E-11  1824   0.131E-07
  23 F= -.67230649E+02 E0= -.67230649E+02  d E =-.309049E-06
       N       E                     dE             d eps       ncg     rms          rms(c)
DAV:   1    -0.672306493578E+02   -0.35016E-10    0.21213E-11  1812   0.214E-07
DAV:   2    -0.672306493578E+02    0.30923E-10    0.22847E-11  1824   0.657E-08
  24 F= -.67230649E+02 E0= -.67230649E+02  d E =-.309014E-06
       N       E                     dE             d eps       ncg     rms          rms(c)
DAV:   1    -0.672306493578E+02   -0.16826E-10    0.22592E-11  1812   0.107E-07
DAV:   2    -0.672306493578E+02   -0.18190E-11    0.27326E-11  1824   0.329E-08
  25 F= -.67230649E+02 E0= -.67230649E+02  d E =-.309064E-06
       N       E                     dE             d eps       ncg     rms          rms(c)
DAV:   1    -0.672306493578E+02    0.44110E-10    0.23699E-11  1812   0.535E-08
DAV:   2    -0.672306493578E+02   -0.49113E-10    0.25029E-11  1824   0.164E-08
  26 F= -.67230649E+02 E0= -.67230649E+02  d E =-.309067E-06
       N       E                     dE             d eps       ncg     rms          rms(c)
DAV:   1    -0.672306489920E+02    0.36575E-06   -0.56120E-05  3528   0.483E-02
DAV:   2    -0.672306490466E+02   -0.54614E-07   -0.54603E-07  3780   0.379E-03
  27 F= -.67230649E+02 E0= -.67230649E+02  d E =0.211912E-08
