 vasp.5.4.4.18Apr17-6-g9f103f2a35 (build Mar 30 2023 15:39:25) complex          
  
 executed on             LinuxIFC date 2023.05.23  12:00:38
 running on   12 total cores
 distrk:  each k-point on   12 cores,    1 groups
 distr:  one band on NCORES_PER_BAND=   1 cores,   12 groups


--------------------------------------------------------------------------------------------------------


 INCAR:
 POTCAR:    PAW_PBE B 06Sep2000                   
 POTCAR:    PAW_PBE C 08Apr2002                   

 ----------------------------------------------------------------------------- 
|                                                                             |
|           W    W    AA    RRRRR   N    N  II  N    N   GGGG   !!!           |
|           W    W   A  A   R    R  NN   N  II  NN   N  G    G  !!!           |
|           W    W  A    A  R    R  N N  N  II  N N  N  G       !!!           |
|           W WW W  AAAAAA  RRRRR   N  N N  II  N  N N  G  GGG   !            |
|           WW  WW  A    A  R   R   N   NN  II  N   NN  G    G                |
|           W    W  A    A  R    R  N    N  II  N    N   GGGG   !!!           |
|                                                                             |
|      For optimal performance we recommend to set                            |
|        NCORE= 4 - approx SQRT( number of cores)                             |
|      NCORE specifies how many cores store one orbital (NPAR=cpu/NCORE).     |
|      This setting can  greatly improve the performance of VASP for DFT.     |
|      The default,   NCORE=1            might be grossly inefficient         |
|      on modern multi-core architectures or massively parallel machines.     |
|      Do your own testing !!!!                                               |
|      Unfortunately you need to use the default for GW and RPA calculations. |
|      (for HF NCORE is supported but not extensively tested yet)             |
|                                                                             |
 ----------------------------------------------------------------------------- 

 POTCAR:    PAW_PBE B 06Sep2000                   
   SHA256 =  a32ced30f5ae56fd4d10b4325ff17eb3e4e38ee0f4288bc219fb012fddfa6e97 B/
   COPYR  = (c) Copyright 06Sep2000 Georg Kresse                                
   COPYR  = This file is part of the software VASP. Any use, copying, and all ot
   COPYR  = If you do not have a valid VASP license, you may not use, copy or di
   VRHFIN =B: s2p1                                                              
   LEXCH  = PE                                                                  
   EATOM  =    71.1703 eV,    5.2309 Ry                                         
                                                                                
   TITEL  = PAW_PBE B 06Sep2000                                                 
   LULTRA =        F    use ultrasoft PP ?                                      
   IUNSCR =        1    unscreen: 0-lin 1-nonlin 2-no                           
   RPACOR =    1.200    partial core radius                                     
   POMASS =   10.811; ZVAL   =    3.000    mass and valenz                      
   RCORE  =    1.700    outmost cutoff radius                                   
   RWIGS  =    1.710; RWIGS  =    0.905    wigner-seitz radius (au A)           
   ENMAX  =  318.614; ENMIN  =  238.960 eV                                      
   ICORE  =        2    local potential                                         
   LCOR   =        T    correct aug charges                                     
   LPAW   =        T    paw PP                                                  
   EAUG   =  535.514                                                            
   DEXC   =    0.000                                                            
   RMAX   =    1.732    core radius for proj-oper                               
   RAUG   =    1.300    factor for augmentation sphere                          
   RDEP   =    1.757    radius for radial grids                                 
   RDEPT  =    1.436    core radius for aug-charge                              
                                                                                
   Atomic configuration                                                         
    4 entries                                                                   
     n  l   j            E        occ.                                          
     1  0  0.50      -180.5896   2.0000                                         
     2  0  0.50        -9.4431   2.0000                                         
     2  1  0.50        -3.6068   1.0000                                         
     3  2  1.50        -4.0817   0.0000                                         
   Description                                                                  
     l       E           TYP  RCUT    TYP  RCUT                                 
     0     -9.4430752     23  1.500                                             
     0      0.8675899     23  1.500                                             
     1     -3.6067955     23  1.700                                             
     1      6.1086146     23  1.700                                             
     2     -4.0817478      7  1.700                                             
  local pseudopotential read in
  partial core-charges read in
  partial kinetic energy density read in
  atomic valenz-charges read in
  non local Contribution for L=           0  read in
    real space projection operators read in
  non local Contribution for L=           0  read in
    real space projection operators read in
  non local Contribution for L=           1  read in
    real space projection operators read in
  non local Contribution for L=           1  read in
    real space projection operators read in
    PAW grid and wavefunctions read in
 
   number of l-projection  operators is LMAX  =           4
   number of lm-projection operators is LMMAX =           8
 
 POTCAR:    PAW_PBE C 08Apr2002                   
   SHA256 =  253f7b50bb8d59471dbedb8285d89021f4a42ed1a2c5d38a03a736e69125dd95 C/
   COPYR  = (c) Copyright 08Apr2002 Georg Kresse                                
   COPYR  = This file is part of the software VASP. Any use, copying, and all ot
   COPYR  = If you do not have a valid VASP license, you may not use, copy or di
   VRHFIN =C: s2p2                                                              
   LEXCH  = PE                                                                  
   EATOM  =   147.1560 eV,   10.8157 Ry                                         
                                                                                
   TITEL  = PAW_PBE C 08Apr2002                                                 
   LULTRA =        F    use ultrasoft PP ?                                      
   IUNSCR =        1    unscreen: 0-lin 1-nonlin 2-no                           
   RPACOR =    1.200    partial core radius                                     
   POMASS =   12.011; ZVAL   =    4.000    mass and valenz                      
   RCORE  =    1.500    outmost cutoff radius                                   
   RWIGS  =    1.630; RWIGS  =    0.863    wigner-seitz radius (au A)           
   ENMAX  =  400.000; ENMIN  =  300.000 eV                                      
   ICORE  =        2    local potential                                         
   LCOR   =        T    correct aug charges                                     
   LPAW   =        T    paw PP                                                  
   EAUG   =  644.873                                                            
   DEXC   =    0.000                                                            
   RMAX   =    1.529    core radius for proj-oper                               
   RAUG   =    1.300    factor for augmentation sphere                          
   RDEP   =    1.501    radius for radial grids                                 
   RDEPT  =    1.300    core radius for aug-charge                              
                                                                                
   Atomic configuration                                                         
    4 entries                                                                   
     n  l   j            E        occ.                                          
     1  0  0.50      -273.3789   2.0000                                         
     2  0  0.50       -13.7508   2.0000                                         
     2  1  0.50        -5.2854   2.0000                                         
     3  2  1.50        -5.4423   0.0000                                         
   Description                                                                  
     l       E           TYP  RCUT    TYP  RCUT                                 
     0    -13.7508458     23  1.200                                             
     0     -8.2022199     23  1.200                                             
     1     -5.2854383     23  1.500                                             
     1     34.0145650     23  1.500                                             
     2     -5.4423304      7  1.500                                             
  local pseudopotential read in
  partial core-charges read in
  partial kinetic energy density read in
  atomic valenz-charges read in
  non local Contribution for L=           0  read in
    real space projection operators read in
  non local Contribution for L=           0  read in
    real space projection operators read in
  non local Contribution for L=           1  read in
    real space projection operators read in
  non local Contribution for L=           1  read in
    real space projection operators read in
    PAW grid and wavefunctions read in
 
   number of l-projection  operators is LMAX  =           4
   number of lm-projection operators is LMMAX =           8
 
  PAW_PBE B 06Sep2000                   :
 energy of atom  1       EATOM=  -71.1703
 kinetic energy error for atom=    0.0015 (will be added to EATOM!!)
  PAW_PBE C 08Apr2002                   :
 energy of atom  2       EATOM= -147.1560
 kinetic energy error for atom=    0.0116 (will be added to EATOM!!)
 
 
 POSCAR: BC3 with lattice parameter 5.174Ang, len
  positions in cartesian coordinates
  No initial velocities read in
 exchange correlation table for  LEXCH =        8
   RHO(1)=    0.500       N(1)  =     2000
   RHO(2)=  100.500       N(2)  =     4000
 


--------------------------------------------------------------------------------------------------------


 ion  position               nearest neighbor table
   1  0.175  0.175  0.000-   3 1.56   4 1.56   6 1.57
   2  0.508  0.508  0.000-   8 1.56   7 1.56   5 1.57
   3  0.000  0.000  0.000-   5 1.42   7 1.42   1 1.56
   4  0.524  0.000  0.000-   5 1.42   8 1.42   1 1.56
   5  0.683  0.159  0.000-   4 1.42   3 1.42   2 1.57
   6  1.000  0.524  0.000-   8 1.42   7 1.42   1 1.57
   7  0.159  0.683  0.000-   6 1.42   3 1.42   2 1.56
   8  0.682  0.683  0.000-   6 1.42   4 1.42   2 1.56
 
  LATTYP: Found a base centered orthorhombic cell.
 ALAT       =     5.1740000000
 B/A-ratio  =     1.7321221492
 C/A-ratio  =     3.8654812524
  
  Lattice vectors:
  
 A1 = (   2.5870000000,   4.4810000000,   0.0000000000)
 A2 = (   2.5870000000,  -4.4810000000,   0.0000000000)
 A3 = (   0.0000000000,   0.0000000000, -20.0000000000)


Analysis of symmetry for initial positions (statically):
=====================================================================
 Subroutine PRICEL returns:
 Original cell was already a primitive cell.
 

 Routine SETGRP: Setting up the symmetry group for a 
 base centered orthorhombic supercell.


 Subroutine GETGRP returns: Found  8 space group operations
 (whereof  2 operations were pure point group operations)
 out of a pool of  8 trial point group operations.


The static configuration has the point symmetry C_1h.
 The point group associated with its full space group is D_2h.


Analysis of symmetry for dynamics (positions and initial velocities):
=====================================================================
 Subroutine PRICEL returns:
 Original cell was already a primitive cell.
 

 Routine SETGRP: Setting up the symmetry group for a 
 base centered orthorhombic supercell.


 Subroutine GETGRP returns: Found  8 space group operations
 (whereof  2 operations were pure point group operations)
 out of a pool of  8 trial point group operations.


The dynamic configuration has the point symmetry C_1h.
 The point group associated with its full space group is D_2h.


 Subroutine INISYM returns: Found  8 space group operations
 (whereof  2 operations are pure point group operations),
 and found     1 'primitive' translations

 
 
 KPOINTS: K-points for BC3                        

Automatic generation of k-mesh.
Space group operators:
 irot       det(A)        alpha          n_x          n_y          n_z        tau_x        tau_y        tau_z
    1     1.000000     0.000000     1.000000     0.000000     0.000000     0.000000     0.000000     0.000000
    2    -1.000000   180.000000     0.000000     0.000000     1.000000     0.000000     0.000000     0.000000
    3    -1.000000     0.000000     1.000000     0.000000     0.000000     0.682498    -0.317451     0.000000
    4     1.000000   180.000000     0.000000     0.000000     1.000000     0.682498    -0.317451     0.000000
    5     1.000000   179.999999     0.000000     1.000000     0.000000     0.523773     0.000000     0.000000
    6    -1.000000   179.999999     0.000000     1.000000     0.000000     0.158726     0.682549     0.000000
    7     1.000000   180.000000     1.000000     0.000000     0.000000     0.158726     0.682549     0.000000
    8    -1.000000   180.000000     1.000000     0.000000     0.000000     0.523773     0.000000     0.000000
 
 Subroutine IBZKPT returns following result:
 ===========================================
 
 Found     73 irreducible k-points:
 
 Following reciprocal coordinates:
            Coordinates               Weight
  0.000000  0.000000  0.000000      1.000000
  0.062500 -0.000000  0.000000      4.000000
  0.125000 -0.000000  0.000000      4.000000
  0.187500 -0.000000  0.000000      4.000000
  0.250000 -0.000000  0.000000      4.000000
  0.312500 -0.000000  0.000000      4.000000
  0.375000 -0.000000  0.000000      4.000000
  0.437500 -0.000000  0.000000      4.000000
  0.500000 -0.000000  0.000000      2.000000
  0.000000  0.062500  0.000000      2.000000
  0.125000  0.062500  0.000000      2.000000
  0.187500  0.062500  0.000000      4.000000
  0.250000  0.062500  0.000000      4.000000
  0.312500  0.062500  0.000000      4.000000
  0.375000  0.062500  0.000000      4.000000
  0.437500  0.062500  0.000000      4.000000
  0.500000  0.062500  0.000000      4.000000
 -0.437500  0.062500  0.000000      4.000000
 -0.375000  0.062500  0.000000      4.000000
 -0.312500  0.062500  0.000000      4.000000
 -0.250000  0.062500  0.000000      4.000000
 -0.187500  0.062500  0.000000      4.000000
 -0.125000  0.062500  0.000000      4.000000
 -0.062500  0.062500  0.000000      4.000000
  0.000000  0.125000  0.000000      2.000000
  0.250000  0.125000  0.000000      2.000000
  0.312500  0.125000  0.000000      4.000000
  0.375000  0.125000  0.000000      4.000000
  0.437500  0.125000  0.000000      4.000000
  0.500000  0.125000  0.000000      4.000000
 -0.437500  0.125000  0.000000      4.000000
 -0.375000  0.125000  0.000000      4.000000
 -0.312500  0.125000  0.000000      4.000000
 -0.250000  0.125000  0.000000      4.000000
 -0.187500  0.125000  0.000000      4.000000
 -0.125000  0.125000  0.000000      4.000000
 -0.062500  0.125000  0.000000      4.000000
  0.000000  0.187500  0.000000      2.000000
  0.375000  0.187500  0.000000      2.000000
  0.437500  0.187500  0.000000      4.000000
  0.500000  0.187500  0.000000      4.000000
 -0.437500  0.187500  0.000000      4.000000
 -0.375000  0.187500  0.000000      4.000000
 -0.312500  0.187500  0.000000      4.000000
 -0.250000  0.187500  0.000000      4.000000
 -0.187500  0.187500  0.000000      4.000000
 -0.125000  0.187500  0.000000      4.000000
 -0.062500  0.187500  0.000000      4.000000
  0.000000  0.250000  0.000000      2.000000
  0.500000  0.250000  0.000000      2.000000
 -0.437500  0.250000  0.000000      4.000000
 -0.375000  0.250000  0.000000      4.000000
 -0.312500  0.250000  0.000000      4.000000
 -0.250000  0.250000  0.000000      4.000000
 -0.187500  0.250000  0.000000      4.000000
 -0.125000  0.250000  0.000000      4.000000
 -0.062500  0.250000  0.000000      4.000000
  0.000000  0.312500  0.000000      2.000000
 -0.375000  0.312500  0.000000      2.000000
 -0.312500  0.312500  0.000000      4.000000
 -0.250000  0.312500  0.000000      4.000000
 -0.187500  0.312500  0.000000      4.000000
 -0.125000  0.312500  0.000000      4.000000
 -0.062500  0.312500  0.000000      4.000000
  0.000000  0.375000  0.000000      2.000000
 -0.250000  0.375000  0.000000      2.000000
 -0.187500  0.375000  0.000000      4.000000
 -0.125000  0.375000  0.000000      4.000000
 -0.062500  0.375000  0.000000      4.000000
  0.000000  0.437500  0.000000      2.000000
 -0.125000  0.437500  0.000000      2.000000
 -0.062500  0.437500  0.000000      4.000000
  0.000000  0.500000  0.000000      1.000000
 
 Following cartesian coordinates:
            Coordinates               Weight
  0.000000  0.000000  0.000000      1.000000
  0.012080 -0.006974  0.000000      4.000000
  0.024159 -0.013948  0.000000      4.000000
  0.036239 -0.020922  0.000000      4.000000
  0.048319 -0.027896  0.000000      4.000000
  0.060398 -0.034869  0.000000      4.000000
  0.072478 -0.041843  0.000000      4.000000
  0.084557 -0.048817  0.000000      4.000000
  0.096637 -0.055791  0.000000      2.000000
  0.000000  0.013948  0.000000      2.000000
  0.024159  0.000000  0.000000      2.000000
  0.036239 -0.006974  0.000000      4.000000
  0.048319 -0.013948  0.000000      4.000000
  0.060398 -0.020922  0.000000      4.000000
  0.072478 -0.027896  0.000000      4.000000
  0.084557 -0.034869  0.000000      4.000000
  0.096637 -0.041843  0.000000      4.000000
 -0.084557  0.062765  0.000000      4.000000
 -0.072478  0.055791  0.000000      4.000000
 -0.060398  0.048817  0.000000      4.000000
 -0.048319  0.041843  0.000000      4.000000
 -0.036239  0.034869  0.000000      4.000000
 -0.024159  0.027896  0.000000      4.000000
 -0.012080  0.020922  0.000000      4.000000
  0.000000  0.027896  0.000000      2.000000
  0.048319  0.000000  0.000000      2.000000
  0.060398 -0.006974  0.000000      4.000000
  0.072478 -0.013948  0.000000      4.000000
  0.084557 -0.020922  0.000000      4.000000
  0.096637 -0.027896  0.000000      4.000000
 -0.084557  0.076713  0.000000      4.000000
 -0.072478  0.069739  0.000000      4.000000
 -0.060398  0.062765  0.000000      4.000000
 -0.048319  0.055791  0.000000      4.000000
 -0.036239  0.048817  0.000000      4.000000
 -0.024159  0.041843  0.000000      4.000000
 -0.012080  0.034869  0.000000      4.000000
  0.000000  0.041843  0.000000      2.000000
  0.072478  0.000000  0.000000      2.000000
  0.084557 -0.006974  0.000000      4.000000
  0.096637 -0.013948  0.000000      4.000000
 -0.084557  0.090661  0.000000      4.000000
 -0.072478  0.083687  0.000000      4.000000
 -0.060398  0.076713  0.000000      4.000000
 -0.048319  0.069739  0.000000      4.000000
 -0.036239  0.062765  0.000000      4.000000
 -0.024159  0.055791  0.000000      4.000000
 -0.012080  0.048817  0.000000      4.000000
  0.000000  0.055791  0.000000      2.000000
  0.096637  0.000000  0.000000      2.000000
 -0.084557  0.104608  0.000000      4.000000
 -0.072478  0.097634  0.000000      4.000000
 -0.060398  0.090661  0.000000      4.000000
 -0.048319  0.083687  0.000000      4.000000
 -0.036239  0.076713  0.000000      4.000000
 -0.024159  0.069739  0.000000      4.000000
 -0.012080  0.062765  0.000000      4.000000
  0.000000  0.069739  0.000000      2.000000
 -0.072478  0.111582  0.000000      2.000000
 -0.060398  0.104608  0.000000      4.000000
 -0.048319  0.097634  0.000000      4.000000
 -0.036239  0.090661  0.000000      4.000000
 -0.024159  0.083687  0.000000      4.000000
 -0.012080  0.076713  0.000000      4.000000
  0.000000  0.083687  0.000000      2.000000
 -0.048319  0.111582  0.000000      2.000000
 -0.036239  0.104608  0.000000      4.000000
 -0.024159  0.097634  0.000000      4.000000
 -0.012080  0.090661  0.000000      4.000000
  0.000000  0.097634  0.000000      2.000000
 -0.024159  0.111582  0.000000      2.000000
 -0.012080  0.104608  0.000000      4.000000
  0.000000  0.111582  0.000000      1.000000
 
 TETIRR: Found    392 inequivalent tetrahedra from     1536


--------------------------------------------------------------------------------------------------------




 Dimension of arrays:
   k-points           NKPTS =     73   k-points in BZ     NKDIM =     73   number of bands    NBANDS=     24
   number of dos      NEDOS =    301   number of ions     NIONS =      8
   non local maximal  LDIM  =      4   non local SUM 2l+1 LMDIM =      8
   total plane-waves  NPLWV = 181440
   max r-space proj   IRMAX =      1   max aug-charges    IRDMAX=   6301
   dimension x,y,z NGX =    36 NGY =   36 NGZ =  140
   dimension x,y,z NGXF=    72 NGYF=   72 NGZF=  280
   support grid    NGXF=    72 NGYF=   72 NGZF=  280
   ions per type =               2   6
   NGX,Y,Z   is equivalent  to a cutoff of  11.57, 11.57, 11.64 a.u.
   NGXF,Y,Z  is equivalent  to a cutoff of  23.13, 23.13, 23.27 a.u.

 SYSTEM =  BC3 bandstructure                       
 POSCAR =  BC3 with lattice parameter 5.174Ang, len

 Startparameter for this run:
   NWRITE =      2    write-flag & timer
   PREC   = accura    normal or accurate (medium, high low for compatibility)
   ISTART =      0    job   : 0-new  1-cont  2-samecut
   ICHARG =     11    charge: 1-file 2-atom 10-const
   ISPIN  =      1    spin polarized calculation?
   LNONCOLLINEAR =      F non collinear calculations
   LSORBIT =      F    spin-orbit coupling
   INIWAV =      1    electr: 0-lowe 1-rand  2-diag
   LASPH  =      F    aspherical Exc in radial PAW
   METAGGA=      F    non-selfconsistent MetaGGA calc.

 Electronic Relaxation 1
   ENCUT  =  450.0 eV  33.07 Ry    5.75 a.u.   8.95  8.95 34.59*2*pi/ulx,y,z
   ENINI  =  450.0     initial cutoff
   ENAUG  =  644.9 eV  augmentation charge cutoff
   NELM   =     60;   NELMIN=  2; NELMDL= -5     # of ELM steps 
   EDIFF  = 0.1E-05   stopping-criterion for ELM
   LREAL  =      F    real-space projection
   NLSPLINE    = F    spline interpolate recip. space projectors
   LCOMPAT=      F    compatible to vasp.4.4
   GGA_COMPAT  = T    GGA compatible to vasp.4.4-vasp.4.6
   LMAXPAW     = -100 max onsite density
   LMAXMIX     =    2 max onsite mixed and CHGCAR
   VOSKOWN=      0    Vosko Wilk Nusair interpolation
   ROPT   =    0.00000   0.00000
 Ionic relaxation
   EDIFFG = -.1E-05   stopping-criterion for IOM
   NSW    =     40    number of steps for IOM
   NBLOCK =      1;   KBLOCK =     40    inner block; outer block 
   IBRION =      2    ionic relax: 0-MD 1-quasi-New 2-CG
   NFREE  =      1    steps in history (QN), initial steepest desc. (CG)
   ISIF   =      2    stress and relaxation
   IWAVPR =     11    prediction:  0-non 1-charg 2-wave 3-comb
   ISYM   =      2    0-nonsym 1-usesym 2-fastsym
   LCORR  =      T    Harris-Foulkes like correction to forces

   POTIM  = 0.5000    time-step for ionic-motion
   TEIN   =    0.0    initial temperature
   TEBEG  =    0.0;   TEEND  =   0.0 temperature during run
   SMASS  =  -3.00    Nose mass-parameter (am)
   estimated Nose-frequenzy (Omega)   =  0.10E-29 period in steps =****** mass=  -0.612E-27a.u.
   SCALEE = 1.0000    scale energy and forces
   NPACO  =    256;   APACO  = 16.0  distance and # of slots for P.C.
   PSTRESS=    0.0 pullay stress

  Mass of Ions in am
   POMASS =  10.81 12.01
  Ionic Valenz
   ZVAL   =   3.00  4.00
  Atomic Wigner-Seitz radii
   RWIGS  =  -1.00 -1.00
  virtual crystal weights 
   VCA    =   1.00  1.00
   NELECT =      30.0000    total number of electrons
   NUPDOWN=      -1.0000    fix difference up-down

 DOS related values:
   EMIN   =  10.00;   EMAX   =-10.00  energy-range for DOS
   EFERMI =   0.00
   ISMEAR =    -5;   SIGMA  =   0.20  broadening in eV -4-tet -1-fermi 0-gaus

 Electronic relaxation 2 (details)
   IALGO  =     38    algorithm
   LDIAG  =      T    sub-space diagonalisation (order eigenvalues)
   LSUBROT=      F    optimize rotation matrix (better conditioning)
   TURBO    =      0    0=normal 1=particle mesh
   IRESTART =      0    0=no restart 2=restart with 2 vectors
   NREBOOT  =      0    no. of reboots
   NMIN     =      0    reboot dimension
   EREF     =   0.00    reference energy to select bands
   IMIX   =      4    mixing-type and parameters
     AMIX     =   0.40;   BMIX     =  1.00
     AMIX_MAG =   1.60;   BMIX_MAG =  1.00
     AMIN     =   0.10
     WC   =   100.;   INIMIX=   1;  MIXPRE=   1;  MAXMIX= -45

 Intra band minimization:
   WEIMIN = 0.0010     energy-eigenvalue tresh-hold
   EBREAK =  0.10E-08  absolut break condition
   DEPER  =   0.30     relativ break condition  

   TIME   =   0.40     timestep for ELM

  volume/ion in A,a.u.               =      57.96       391.15
  Fermi-wavevector in a.u.,A,eV,Ry     =   0.657211  1.241949  5.876713  0.431926
  Thomas-Fermi vector in A             =   1.728647
 
 Write flags
   LWAVE        =      T    write WAVECAR
   LDOWNSAMPLE  =      F    k-point downsampling of WAVECAR
   LCHARG       =      T    write CHGCAR
   LVTOT        =      F    write LOCPOT, total local potential
   LVHAR        =      F    write LOCPOT, Hartree potential only
   LELF         =      F    write electronic localiz. function (ELF)
   LORBIT       =     11    0 simple, 1 ext, 2 COOP (PROOUT), +10 PAW based schemes


 Dipole corrections
   LMONO  =      F    monopole corrections only (constant potential shift)
   LDIPOL =      F    correct potential (dipole corrections)
   IDIPOL =      0    1-x, 2-y, 3-z, 4-all directions 
   EPSILON=  1.0000000 bulk dielectric constant

 Exchange correlation treatment:
   GGA     =    --    GGA type
   LEXCH   =     8    internal setting for exchange type
   VOSKOWN=      0    Vosko Wilk Nusair interpolation
   LHFCALC =     F    Hartree Fock is set to
   LHFONE  =     F    Hartree Fock one center treatment
   AEXX    =    0.0000 exact exchange contribution

 Linear response parameters
   LEPSILON=     F    determine dielectric tensor
   LRPA    =     F    only Hartree local field effects (RPA)
   LNABLA  =     F    use nabla operator in PAW spheres
   LVEL    =     F    velocity operator in full k-point grid
   LINTERFAST=   F  fast interpolation
   KINTER  =     0    interpolate to denser k-point grid
   CSHIFT  =0.1000    complex shift for real part using Kramers Kronig
   OMEGAMAX=  -1.0    maximum frequency
   DEG_THRESHOLD= 0.2000000E-02 threshold for treating states as degnerate
   RTIME   =   -0.100 relaxation time in fs
  (WPLASMAI=    0.000 imaginary part of plasma frequency in eV, 0.658/RTIME)
   DFIELD  = 0.0000000 0.0000000 0.0000000 field for delta impulse in time
 
 Orbital magnetization related:
   ORBITALMAG=     F  switch on orbital magnetization
   LCHIMAG   =     F  perturbation theory with respect to B field
   DQ        =  0.001000  dq finite difference perturbation B field
   LLRAUG    =     F  two centre corrections for induced B field



--------------------------------------------------------------------------------------------------------


 conjugate gradient relaxation of ions
 charge density and potential remain constant during run
 non-spin polarized calculation
 Variant of blocked Davidson
 Davidson routine will perform the subspace rotation
 perform sub-space diagonalisation
    after iterative eigenvector-optimisation
 no mixing
 using additional bands            9
 reciprocal scheme for non local part
 use partial core corrections
 calculate Harris-corrections to forces 
   (improved forces if not selfconsistent)
 use gradient corrections 
 WARNING: stress and forces are not correct
  (second derivative of E(xc) not defined)
 use of overlap-Matrix (Vanderbilt PP)
 Fermi weights with tetrahedron method with Bloechl corrections


--------------------------------------------------------------------------------------------------------


  energy-cutoff  :      450.00
  volume of cell :      463.69
      direct lattice vectors                 reciprocal lattice vectors
     5.174000000  0.000000000  0.000000000     0.193274063 -0.111582236  0.000000000
     2.587000000  4.481000000  0.000000000     0.000000000  0.223164472  0.000000000
     0.000000000  0.000000000 20.000000000     0.000000000  0.000000000  0.050000000

  length of vectors
     5.174000000  5.174159835 20.000000000     0.223171366  0.223164472  0.050000000


 
 k-points in units of 2pi/SCALE and weight: K-points for BC3                        
   0.00000000  0.00000000  0.00000000       0.004
   0.01207963 -0.00697389  0.00000000       0.016
   0.02415926 -0.01394778  0.00000000       0.016
   0.03623889 -0.02092167  0.00000000       0.016
   0.04831852 -0.02789556  0.00000000       0.016
   0.06039814 -0.03486945  0.00000000       0.016
   0.07247777 -0.04184334  0.00000000       0.016
   0.08455740 -0.04881723  0.00000000       0.016
   0.09663703 -0.05579112  0.00000000       0.008
   0.00000000  0.01394778  0.00000000       0.008
   0.02415926  0.00000000  0.00000000       0.008
   0.03623889 -0.00697389  0.00000000       0.016
   0.04831852 -0.01394778  0.00000000       0.016
   0.06039814 -0.02092167  0.00000000       0.016
   0.07247777 -0.02789556  0.00000000       0.016
   0.08455740 -0.03486945  0.00000000       0.016
   0.09663703 -0.04184334  0.00000000       0.016
  -0.08455740  0.06276501  0.00000000       0.016
  -0.07247777  0.05579112  0.00000000       0.016
  -0.06039814  0.04881723  0.00000000       0.016
  -0.04831852  0.04184334  0.00000000       0.016
  -0.03623889  0.03486945  0.00000000       0.016
  -0.02415926  0.02789556  0.00000000       0.016
  -0.01207963  0.02092167  0.00000000       0.016
   0.00000000  0.02789556  0.00000000       0.008
   0.04831852  0.00000000  0.00000000       0.008
   0.06039814 -0.00697389  0.00000000       0.016
   0.07247777 -0.01394778  0.00000000       0.016
   0.08455740 -0.02092167  0.00000000       0.016
   0.09663703 -0.02789556  0.00000000       0.016
  -0.08455740  0.07671279  0.00000000       0.016
  -0.07247777  0.06973890  0.00000000       0.016
  -0.06039814  0.06276501  0.00000000       0.016
  -0.04831852  0.05579112  0.00000000       0.016
  -0.03623889  0.04881723  0.00000000       0.016
  -0.02415926  0.04184334  0.00000000       0.016
  -0.01207963  0.03486945  0.00000000       0.016
   0.00000000  0.04184334  0.00000000       0.008
   0.07247777  0.00000000  0.00000000       0.008
   0.08455740 -0.00697389  0.00000000       0.016
   0.09663703 -0.01394778  0.00000000       0.016
  -0.08455740  0.09066057  0.00000000       0.016
  -0.07247777  0.08368668  0.00000000       0.016
  -0.06039814  0.07671279  0.00000000       0.016
  -0.04831852  0.06973890  0.00000000       0.016
  -0.03623889  0.06276501  0.00000000       0.016
  -0.02415926  0.05579112  0.00000000       0.016
  -0.01207963  0.04881723  0.00000000       0.016
   0.00000000  0.05579112  0.00000000       0.008
   0.09663703  0.00000000  0.00000000       0.008
  -0.08455740  0.10460835  0.00000000       0.016
  -0.07247777  0.09763446  0.00000000       0.016
  -0.06039814  0.09066057  0.00000000       0.016
  -0.04831852  0.08368668  0.00000000       0.016
  -0.03623889  0.07671279  0.00000000       0.016
  -0.02415926  0.06973890  0.00000000       0.016
  -0.01207963  0.06276501  0.00000000       0.016
   0.00000000  0.06973890  0.00000000       0.008
  -0.07247777  0.11158224  0.00000000       0.008
  -0.06039814  0.10460835  0.00000000       0.016
  -0.04831852  0.09763446  0.00000000       0.016
  -0.03623889  0.09066057  0.00000000       0.016
  -0.02415926  0.08368668  0.00000000       0.016
  -0.01207963  0.07671279  0.00000000       0.016
   0.00000000  0.08368668  0.00000000       0.008
  -0.04831852  0.11158224  0.00000000       0.008
  -0.03623889  0.10460835  0.00000000       0.016
  -0.02415926  0.09763446  0.00000000       0.016
  -0.01207963  0.09066057  0.00000000       0.016
   0.00000000  0.09763446  0.00000000       0.008
  -0.02415926  0.11158224  0.00000000       0.008
  -0.01207963  0.10460835  0.00000000       0.016
   0.00000000  0.11158224  0.00000000       0.004
 
 k-points in reciprocal lattice and weights: K-points for BC3                        
   0.00000000  0.00000000  0.00000000       0.004
   0.06250000 -0.00000000  0.00000000       0.016
   0.12500000 -0.00000000  0.00000000       0.016
   0.18750000 -0.00000000  0.00000000       0.016
   0.25000000 -0.00000000  0.00000000       0.016
   0.31250000 -0.00000000  0.00000000       0.016
   0.37500000 -0.00000000  0.00000000       0.016
   0.43750000 -0.00000000  0.00000000       0.016
   0.50000000 -0.00000000  0.00000000       0.008
   0.00000000  0.06250000  0.00000000       0.008
   0.12500000  0.06250000  0.00000000       0.008
   0.18750000  0.06250000  0.00000000       0.016
   0.25000000  0.06250000  0.00000000       0.016
   0.31250000  0.06250000  0.00000000       0.016
   0.37500000  0.06250000  0.00000000       0.016
   0.43750000  0.06250000  0.00000000       0.016
   0.50000000  0.06250000  0.00000000       0.016
  -0.43750000  0.06250000  0.00000000       0.016
  -0.37500000  0.06250000  0.00000000       0.016
  -0.31250000  0.06250000  0.00000000       0.016
  -0.25000000  0.06250000  0.00000000       0.016
  -0.18750000  0.06250000  0.00000000       0.016
  -0.12500000  0.06250000  0.00000000       0.016
  -0.06250000  0.06250000  0.00000000       0.016
   0.00000000  0.12500000  0.00000000       0.008
   0.25000000  0.12500000  0.00000000       0.008
   0.31250000  0.12500000  0.00000000       0.016
   0.37500000  0.12500000  0.00000000       0.016
   0.43750000  0.12500000  0.00000000       0.016
   0.50000000  0.12500000  0.00000000       0.016
  -0.43750000  0.12500000  0.00000000       0.016
  -0.37500000  0.12500000  0.00000000       0.016
  -0.31250000  0.12500000  0.00000000       0.016
  -0.25000000  0.12500000  0.00000000       0.016
  -0.18750000  0.12500000  0.00000000       0.016
  -0.12500000  0.12500000  0.00000000       0.016
  -0.06250000  0.12500000  0.00000000       0.016
   0.00000000  0.18750000  0.00000000       0.008
   0.37500000  0.18750000  0.00000000       0.008
   0.43750000  0.18750000  0.00000000       0.016
   0.50000000  0.18750000  0.00000000       0.016
  -0.43750000  0.18750000  0.00000000       0.016
  -0.37500000  0.18750000  0.00000000       0.016
  -0.31250000  0.18750000  0.00000000       0.016
  -0.25000000  0.18750000  0.00000000       0.016
  -0.18750000  0.18750000  0.00000000       0.016
  -0.12500000  0.18750000  0.00000000       0.016
  -0.06250000  0.18750000  0.00000000       0.016
   0.00000000  0.25000000  0.00000000       0.008
   0.50000000  0.25000000  0.00000000       0.008
  -0.43750000  0.25000000  0.00000000       0.016
  -0.37500000  0.25000000  0.00000000       0.016
  -0.31250000  0.25000000  0.00000000       0.016
  -0.25000000  0.25000000  0.00000000       0.016
  -0.18750000  0.25000000  0.00000000       0.016
  -0.12500000  0.25000000  0.00000000       0.016
  -0.06250000  0.25000000  0.00000000       0.016
   0.00000000  0.31250000  0.00000000       0.008
  -0.37500000  0.31250000  0.00000000       0.008
  -0.31250000  0.31250000  0.00000000       0.016
  -0.25000000  0.31250000  0.00000000       0.016
  -0.18750000  0.31250000  0.00000000       0.016
  -0.12500000  0.31250000  0.00000000       0.016
  -0.06250000  0.31250000  0.00000000       0.016
   0.00000000  0.37500000  0.00000000       0.008
  -0.25000000  0.37500000  0.00000000       0.008
  -0.18750000  0.37500000  0.00000000       0.016
  -0.12500000  0.37500000  0.00000000       0.016
  -0.06250000  0.37500000  0.00000000       0.016
   0.00000000  0.43750000  0.00000000       0.008
  -0.12500000  0.43750000  0.00000000       0.008
  -0.06250000  0.43750000  0.00000000       0.016
   0.00000000  0.50000000  0.00000000       0.004
 
 position of ions in fractional coordinates (direct lattice) 
   0.17457326  0.17462620  0.00000000
   0.50792519  0.50792234  0.00000000
   0.00000000  0.00000000  0.00000000
   0.52377271  0.00000000  0.00000000
   0.68255138  0.15866994  0.00000000
   0.99994706  0.52387860  0.00000000
   0.15872573  0.68254854  0.00000000
   0.68249844  0.68254854  0.00000000
 
 position of ions in cartesian coordinates  (Angst):
   1.35500000  0.78250000  0.00000000
   3.94200000  2.27600000  0.00000000
   0.00000000  0.00000000  0.00000000
   2.71000000  0.00000000  0.00000000
   3.94200000  0.71100000  0.00000000
   6.52900000  2.34750000  0.00000000
   2.58700000  3.05850000  0.00000000
   5.29700000  3.05850000  0.00000000
 


--------------------------------------------------------------------------------------------------------


 k-point  1 :   0.0000 0.0000 0.0000  plane waves:    9963
 k-point  2 :   0.0625-0.0000 0.0000  plane waves:    9993
 k-point  3 :   0.1250-0.0000 0.0000  plane waves:   10011
 k-point  4 :   0.1875-0.0000 0.0000  plane waves:   10035
 k-point  5 :   0.2500-0.0000 0.0000  plane waves:   10038
 k-point  6 :   0.3125-0.0000 0.0000  plane waves:   10030
 k-point  7 :   0.3750-0.0000 0.0000  plane waves:   10064
 k-point  8 :   0.4375-0.0000 0.0000  plane waves:   10042
 k-point  9 :   0.5000-0.0000 0.0000  plane waves:   10056
 k-point 10 :   0.0000 0.0625 0.0000  plane waves:    9993
 k-point 11 :   0.1250 0.0625 0.0000  plane waves:    9993
 k-point 12 :   0.1875 0.0625 0.0000  plane waves:   10018
 k-point 13 :   0.2500 0.0625 0.0000  plane waves:   10029
 k-point 14 :   0.3125 0.0625 0.0000  plane waves:   10035
 k-point 15 :   0.3750 0.0625 0.0000  plane waves:   10042
 k-point 16 :   0.4375 0.0625 0.0000  plane waves:   10048
 k-point 17 :   0.5000 0.0625 0.0000  plane waves:   10061
 k-point 18 :  -0.4375 0.0625 0.0000  plane waves:   10061
 k-point 19 :  -0.3750 0.0625 0.0000  plane waves:   10046
 k-point 20 :  -0.3125 0.0625 0.0000  plane waves:   10042
 k-point 21 :  -0.2500 0.0625 0.0000  plane waves:   10035
 k-point 22 :  -0.1875 0.0625 0.0000  plane waves:   10029
 k-point 23 :  -0.1250 0.0625 0.0000  plane waves:   10018
 k-point 24 :  -0.0625 0.0625 0.0000  plane waves:    9993
 k-point 25 :   0.0000 0.1250 0.0000  plane waves:   10013
 k-point 26 :   0.2500 0.1250 0.0000  plane waves:   10029
 k-point 27 :   0.3125 0.1250 0.0000  plane waves:   10032
 k-point 28 :   0.3750 0.1250 0.0000  plane waves:   10059
 k-point 29 :   0.4375 0.1250 0.0000  plane waves:   10065
 k-point 30 :   0.5000 0.1250 0.0000  plane waves:   10072
 k-point 31 :  -0.4375 0.1250 0.0000  plane waves:   10069
 k-point 32 :  -0.3750 0.1250 0.0000  plane waves:   10072
 k-point 33 :  -0.3125 0.1250 0.0000  plane waves:   10065
 k-point 34 :  -0.2500 0.1250 0.0000  plane waves:   10059
 k-point 35 :  -0.1875 0.1250 0.0000  plane waves:   10032
 k-point 36 :  -0.1250 0.1250 0.0000  plane waves:   10029
 k-point 37 :  -0.0625 0.1250 0.0000  plane waves:   10018
 k-point 38 :   0.0000 0.1875 0.0000  plane waves:   10035
 k-point 39 :   0.3750 0.1875 0.0000  plane waves:   10055
 k-point 40 :   0.4375 0.1875 0.0000  plane waves:   10071
 k-point 41 :   0.5000 0.1875 0.0000  plane waves:   10072
 k-point 42 :  -0.4375 0.1875 0.0000  plane waves:   10091
 k-point 43 :  -0.3750 0.1875 0.0000  plane waves:   10091
 k-point 44 :  -0.3125 0.1875 0.0000  plane waves:   10072
 k-point 45 :  -0.2500 0.1875 0.0000  plane waves:   10071
 k-point 46 :  -0.1875 0.1875 0.0000  plane waves:   10055
 k-point 47 :  -0.1250 0.1875 0.0000  plane waves:   10032
 k-point 48 :  -0.0625 0.1875 0.0000  plane waves:   10029
 k-point 49 :   0.0000 0.2500 0.0000  plane waves:   10040
 k-point 50 :   0.5000 0.2500 0.0000  plane waves:   10069
 k-point 51 :  -0.4375 0.2500 0.0000  plane waves:   10085
 k-point 52 :  -0.3750 0.2500 0.0000  plane waves:   10103
 k-point 53 :  -0.3125 0.2500 0.0000  plane waves:   10085
 k-point 54 :  -0.2500 0.2500 0.0000  plane waves:   10069
 k-point 55 :  -0.1875 0.2500 0.0000  plane waves:   10071
 k-point 56 :  -0.1250 0.2500 0.0000  plane waves:   10061
 k-point 57 :  -0.0625 0.2500 0.0000  plane waves:   10035
 k-point 58 :   0.0000 0.3125 0.0000  plane waves:   10030
 k-point 59 :  -0.3750 0.3125 0.0000  plane waves:   10089
 k-point 60 :  -0.3125 0.3125 0.0000  plane waves:   10089
 k-point 61 :  -0.2500 0.3125 0.0000  plane waves:   10085
 k-point 62 :  -0.1875 0.3125 0.0000  plane waves:   10072
 k-point 63 :  -0.1250 0.3125 0.0000  plane waves:   10065
 k-point 64 :  -0.0625 0.3125 0.0000  plane waves:   10042
 k-point 65 :   0.0000 0.3750 0.0000  plane waves:   10064
 k-point 66 :  -0.2500 0.3750 0.0000  plane waves:   10103
 k-point 67 :  -0.1875 0.3750 0.0000  plane waves:   10091
 k-point 68 :  -0.1250 0.3750 0.0000  plane waves:   10072
 k-point 69 :  -0.0625 0.3750 0.0000  plane waves:   10048
 k-point 70 :   0.0000 0.4375 0.0000  plane waves:   10042
 k-point 71 :  -0.1250 0.4375 0.0000  plane waves:   10065
 k-point 72 :  -0.0625 0.4375 0.0000  plane waves:   10061
 k-point 73 :   0.0000 0.5000 0.0000  plane waves:   10056

 maximum and minimum number of plane-waves per node :     10103     9963

 maximum number of plane-waves:     10103
 maximum index in each direction: 
   IXMAX=    9   IYMAX=    8   IZMAX=   34
   IXMIN=   -9   IYMIN=   -9   IZMIN=  -34


 serial   3D FFT for wavefunctions
 parallel 3D FFT for charge:
    minimum data exchange during FFTs selected (reduces bandwidth)


 total amount of memory used by VASP MPI-rank0   168401. kBytes
=======================================================================

   base      :      30000. kBytes
   nonl-proj :      95705. kBytes
   fftplans  :       4815. kBytes
   grid      :      14086. kBytes
   one-center:         24. kBytes
   wavefun   :      23771. kBytes
 
     INWAV:  cpu time    0.0000: real time    0.0000
 initial charge density was supplied:
 number of electron      30.0000002 magnetization 
 keeping initial charge density in first step


--------------------------------------------------------------------------------------------------------


 Maximum index for augmentation-charges          407 (set IRDMAX)


--------------------------------------------------------------------------------------------------------


 First call to EWALD:  gamma=   0.229
 Maximum number of real-space cells 4x 4x 1
 Maximum number of reciprocal cells 2x 2x 6

    FEWALD:  cpu time    0.0018: real time    0.0021


--------------------------------------- Iteration      1(   1)  ---------------------------------------


    POTLOK:  cpu time    0.1465: real time    0.1471
    SETDIJ:  cpu time    0.0024: real time    0.0024
     EDDAV:  cpu time   11.1612: real time   11.1718
 BZINTS: Fermi energy:  5.662381; 30.000000 electrons
         Band energy: -79.394343;  BLOECHL correction: -0.079085
       DOS:  cpu time    0.0166: real time    0.0166
    --------------------------------------------
      LOOP:  cpu time   11.3267: real time   11.3379

 eigenvalue-minimisations  :  3504
 total energy-change (2. order) : 0.1717110E+03  (-0.8967607E+03)
 number of electron      30.0000002 magnetization 
 augmentation part       30.0000002 magnetization 

 Free energy of the ion-electron system (eV)
  ---------------------------------------------------
  alpha Z        PSCENC =        10.93933817
  Ewald energy   TEWEN  =      4060.05404224
  -Hartree energ DENC   =     -4938.58461270
  -exchange      EXHF   =         0.00000000
  -V(xc)+E(xc)   XCENC  =        96.01982328
  PAW double counting   =      2894.03382187    -2896.56098873
  entropy T*S    EENTRO =         0.00000000
  eigenvalues    EBANDS =       -79.39434323
  atomic energy  EATOM  =      1025.20389953
  Solvation  Ediel_sol  =         0.00000000
  ---------------------------------------------------
  free energy    TOTEN  =       171.71098043 eV

  energy without entropy =      171.71098043  energy(sigma->0) =      171.71098043


--------------------------------------------------------------------------------------------------------




--------------------------------------- Iteration      1(   2)  ---------------------------------------


     EDDAV:  cpu time   17.2795: real time   17.3069
 BZINTS: Fermi energy: -1.910132; 30.000000 electrons
         Band energy:-288.434395;  BLOECHL correction: -0.047341
       DOS:  cpu time    0.0157: real time    0.0157
    --------------------------------------------
      LOOP:  cpu time   17.2952: real time   17.3226

 eigenvalue-minimisations  :  6252
 total energy-change (2. order) :-0.2090401E+03  (-0.1923083E+03)
 number of electron      30.0000002 magnetization 
 augmentation part       30.0000002 magnetization 

 Free energy of the ion-electron system (eV)
  ---------------------------------------------------
  alpha Z        PSCENC =        10.93933817
  Ewald energy   TEWEN  =      4060.05404224
  -Hartree energ DENC   =     -4938.58461270
  -exchange      EXHF   =         0.00000000
  -V(xc)+E(xc)   XCENC  =        96.01982328
  PAW double counting   =      2894.03382187    -2896.56098873
  entropy T*S    EENTRO =         0.00000000
  eigenvalues    EBANDS =      -288.43439487
  atomic energy  EATOM  =      1025.20389953
  Solvation  Ediel_sol  =         0.00000000
  ---------------------------------------------------
  free energy    TOTEN  =       -37.32907121 eV

  energy without entropy =      -37.32907121  energy(sigma->0) =      -37.32907121


--------------------------------------------------------------------------------------------------------




--------------------------------------- Iteration      1(   3)  ---------------------------------------


     EDDAV:  cpu time   12.4437: real time   12.4608
 BZINTS: Fermi energy: -4.055499; 30.000000 electrons
         Band energy:-317.605105;  BLOECHL correction:  0.000000
       DOS:  cpu time    0.0033: real time    0.0033
    --------------------------------------------
      LOOP:  cpu time   12.4470: real time   12.4641

 eigenvalue-minimisations  :  4092
 total energy-change (2. order) :-0.2917071E+02  (-0.2873046E+02)
 number of electron      30.0000002 magnetization 
 augmentation part       30.0000002 magnetization 

 Free energy of the ion-electron system (eV)
  ---------------------------------------------------
  alpha Z        PSCENC =        10.93933817
  Ewald energy   TEWEN  =      4060.05404224
  -Hartree energ DENC   =     -4938.58461270
  -exchange      EXHF   =         0.00000000
  -V(xc)+E(xc)   XCENC  =        96.01982328
  PAW double counting   =      2894.03382187    -2896.56098873
  entropy T*S    EENTRO =         0.00000000
  eigenvalues    EBANDS =      -317.60510550
  atomic energy  EATOM  =      1025.20389953
  Solvation  Ediel_sol  =         0.00000000
  ---------------------------------------------------
  free energy    TOTEN  =       -66.49978184 eV

  energy without entropy =      -66.49978184  energy(sigma->0) =      -66.49978184


--------------------------------------------------------------------------------------------------------




--------------------------------------- Iteration      1(   4)  ---------------------------------------


     EDDAV:  cpu time   13.2292: real time   13.2411
 BZINTS: Fermi energy: -4.199918; 30.000000 electrons
         Band energy:-318.317354;  BLOECHL correction:  0.000000
       DOS:  cpu time    0.0032: real time    0.0032
    --------------------------------------------
      LOOP:  cpu time   13.2325: real time   13.2444

 eigenvalue-minimisations  :  4440
 total energy-change (2. order) :-0.7122480E+00  (-0.7111586E+00)
 number of electron      30.0000002 magnetization 
 augmentation part       30.0000002 magnetization 

 Free energy of the ion-electron system (eV)
  ---------------------------------------------------
  alpha Z        PSCENC =        10.93933817
  Ewald energy   TEWEN  =      4060.05404224
  -Hartree energ DENC   =     -4938.58461270
  -exchange      EXHF   =         0.00000000
  -V(xc)+E(xc)   XCENC  =        96.01982328
  PAW double counting   =      2894.03382187    -2896.56098873
  entropy T*S    EENTRO =         0.00000000
  eigenvalues    EBANDS =      -318.31735350
  atomic energy  EATOM  =      1025.20389953
  Solvation  Ediel_sol  =         0.00000000
  ---------------------------------------------------
  free energy    TOTEN  =       -67.21202984 eV

  energy without entropy =      -67.21202984  energy(sigma->0) =      -67.21202984


--------------------------------------------------------------------------------------------------------




--------------------------------------- Iteration      1(   5)  ---------------------------------------


     EDDAV:  cpu time   13.1543: real time   13.1659
 BZINTS: Fermi energy: -4.229998; 30.000000 electrons
         Band energy:-318.335188;  BLOECHL correction:  0.000000
       DOS:  cpu time    0.0032: real time    0.0032
    --------------------------------------------
      LOOP:  cpu time   13.1575: real time   13.1691

 eigenvalue-minimisations  :  4416
 total energy-change (2. order) :-0.1783435E-01  (-0.1782596E-01)
 number of electron      30.0000002 magnetization 
 augmentation part       30.0000002 magnetization 

 Free energy of the ion-electron system (eV)
  ---------------------------------------------------
  alpha Z        PSCENC =        10.93933817
  Ewald energy   TEWEN  =      4060.05404224
  -Hartree energ DENC   =     -4938.58461270
  -exchange      EXHF   =         0.00000000
  -V(xc)+E(xc)   XCENC  =        96.01982328
  PAW double counting   =      2894.03382187    -2896.56098873
  entropy T*S    EENTRO =         0.00000000
  eigenvalues    EBANDS =      -318.33518786
  atomic energy  EATOM  =      1025.20389953
  Solvation  Ediel_sol  =         0.00000000
  ---------------------------------------------------
  free energy    TOTEN  =       -67.22986420 eV

  energy without entropy =      -67.22986420  energy(sigma->0) =      -67.22986420


--------------------------------------------------------------------------------------------------------




--------------------------------------- Iteration      1(   6)  ---------------------------------------


     EDDAV:  cpu time   14.0214: real time   14.0346
 BZINTS: Fermi energy: -4.223719; 30.000000 electrons
         Band energy:-318.335938;  BLOECHL correction:  0.000000
       DOS:  cpu time    0.0028: real time    0.0028
    --------------------------------------------
      LOOP:  cpu time   14.0242: real time   14.0374

 eigenvalue-minimisations  :  4812
 total energy-change (2. order) :-0.7499258E-03  (-0.7498737E-03)
 number of electron      30.0000002 magnetization 
 augmentation part       30.0000002 magnetization 

 Free energy of the ion-electron system (eV)
  ---------------------------------------------------
  alpha Z        PSCENC =        10.93933817
  Ewald energy   TEWEN  =      4060.05404224
  -Hartree energ DENC   =     -4938.58461270
  -exchange      EXHF   =         0.00000000
  -V(xc)+E(xc)   XCENC  =        96.01982328
  PAW double counting   =      2894.03382187    -2896.56098873
  entropy T*S    EENTRO =         0.00000000
  eigenvalues    EBANDS =      -318.33593778
  atomic energy  EATOM  =      1025.20389953
  Solvation  Ediel_sol  =         0.00000000
  ---------------------------------------------------
  free energy    TOTEN  =       -67.23061412 eV

  energy without entropy =      -67.23061412  energy(sigma->0) =      -67.23061412


--------------------------------------------------------------------------------------------------------




--------------------------------------- Iteration      1(   7)  ---------------------------------------


     EDDAV:  cpu time   13.9146: real time   13.9270
 BZINTS: Fermi energy: -4.224282; 30.000000 electrons
         Band energy:-318.335960;  BLOECHL correction:  0.000000
       DOS:  cpu time    0.0028: real time    0.0028
    --------------------------------------------
      LOOP:  cpu time   13.9174: real time   13.9298

 eigenvalue-minimisations  :  4764
 total energy-change (2. order) :-0.2224180E-04  (-0.2224112E-04)
 number of electron      30.0000002 magnetization 
 augmentation part       30.0000002 magnetization 

 Free energy of the ion-electron system (eV)
  ---------------------------------------------------
  alpha Z        PSCENC =        10.93933817
  Ewald energy   TEWEN  =      4060.05404224
  -Hartree energ DENC   =     -4938.58461270
  -exchange      EXHF   =         0.00000000
  -V(xc)+E(xc)   XCENC  =        96.01982328
  PAW double counting   =      2894.03382187    -2896.56098873
  entropy T*S    EENTRO =         0.00000000
  eigenvalues    EBANDS =      -318.33596002
  atomic energy  EATOM  =      1025.20389953
  Solvation  Ediel_sol  =         0.00000000
  ---------------------------------------------------
  free energy    TOTEN  =       -67.23063636 eV

  energy without entropy =      -67.23063636  energy(sigma->0) =      -67.23063636


--------------------------------------------------------------------------------------------------------




--------------------------------------- Iteration      1(   8)  ---------------------------------------


     EDDAV:  cpu time   15.3241: real time   15.3426
 BZINTS: Fermi energy: -4.224396; 30.000000 electrons
         Band energy:-318.335961;  BLOECHL correction:  0.000000
       DOS:  cpu time    0.0028: real time    0.0028
    --------------------------------------------
      LOOP:  cpu time   15.3269: real time   15.3454

 eigenvalue-minimisations  :  5400
 total energy-change (2. order) :-0.8466923E-06  (-0.8465112E-06)
 number of electron      30.0000002 magnetization 
 augmentation part       30.0000002 magnetization 

 Free energy of the ion-electron system (eV)
  ---------------------------------------------------
  alpha Z        PSCENC =        10.93933817
  Ewald energy   TEWEN  =      4060.05404224
  -Hartree energ DENC   =     -4938.58461270
  -exchange      EXHF   =         0.00000000
  -V(xc)+E(xc)   XCENC  =        96.01982328
  PAW double counting   =      2894.03382187    -2896.56098873
  entropy T*S    EENTRO =         0.00000000
  eigenvalues    EBANDS =      -318.33596087
  atomic energy  EATOM  =      1025.20389953
  Solvation  Ediel_sol  =         0.00000000
  ---------------------------------------------------
  free energy    TOTEN  =       -67.23063721 eV

  energy without entropy =      -67.23063721  energy(sigma->0) =      -67.23063721


--------------------------------------------------------------------------------------------------------




 average (electrostatic) potential at core
  the test charge radii are     0.7672  0.6991
  (the norm of the test charge is              1.0000)
       1 -35.0233       2 -35.0232       3 -57.5210       4 -57.5210       5 -57.5202
       6 -57.5203       7 -57.5210       8 -57.5209
 
 
 
 E-fermi :  -4.2244     XC(G=0):  -2.1066     alpha+bet : -1.7756


 k-point     1 :       0.0000    0.0000    0.0000
  band No.  band energies     occupation 
      1     -20.3109      2.00000
      2     -16.4203      2.00000
      3     -16.4195      2.00000
      4     -14.0739      2.00000
      5     -14.0735      2.00000
      6     -13.0037      2.00000
      7     -11.6927      2.00000
      8      -9.1182      2.00000
      9      -8.8954      2.00000
     10      -6.7470      2.00000
     11      -6.7457      2.00000
     12      -4.9216      2.00000
     13      -4.9214      2.00000
     14      -4.2427      2.00000
     15      -4.2400      2.00000
     16      -2.4094      0.00000
     17      -0.6752      0.00000
     18      -0.6746      0.00000
     19      -0.0190      0.00000
     20       0.4153      0.00000
     21       1.2738      0.00000
     22       1.4943      0.00000
     23       2.4932      0.00000
     24       2.8809      0.00000

 k-point     2 :       0.0625   -0.0000    0.0000
  band No.  band energies     occupation 
      1     -20.2956      2.00000
      2     -16.4964      2.00000
      3     -16.4441      2.00000
      4     -14.0954      2.00000
      5     -14.0175      2.00000
      6     -12.9279      2.00000
      7     -11.6009      2.00000
      8      -9.0950      2.00000
      9      -8.9275      2.00000
     10      -6.8167      2.00000
     11      -6.7594      2.00000
     12      -4.9924      2.00000
     13      -4.9332      2.00000
     14      -4.3229      2.00000
     15      -4.2798      2.00000
     16      -2.5345      0.00000
     17      -0.6411      0.00000
     18      -0.4871      0.00000
     19       0.0466      0.00000
     20       0.4444      0.00000
     21       1.3052      0.00000
     22       1.5236      0.00000
     23       2.5226      0.00000
     24       2.9104      0.00000

 k-point     3 :       0.1250   -0.0000    0.0000
  band No.  band energies     occupation 
      1     -20.2504      2.00000
      2     -16.6991      2.00000
      3     -16.5094      2.00000
      4     -14.1636      2.00000
      5     -13.8584      2.00000
      6     -12.7049      2.00000
      7     -11.3449      2.00000
      8      -9.0275      2.00000
      9      -9.0258      2.00000
     10      -7.0184      2.00000
     11      -6.7886      2.00000
     12      -5.1945      2.00000
     13      -4.9660      2.00000
     14      -4.5582      2.00000
     15      -4.3923      2.00000
     16      -2.7894      0.00000
     17      -0.5449      0.00000
     18      -0.1097      0.00000
     19       0.2957      0.00000
     20       0.5316      0.00000
     21       1.4009      0.00000
     22       1.6113      0.00000
     23       2.6108      0.00000
     24       2.9984      0.00000

 k-point     4 :       0.1875   -0.0000    0.0000
  band No.  band energies     occupation 
      1     -20.1774      2.00000
      2     -16.9746      2.00000
      3     -16.5972      2.00000
      4     -14.2661      2.00000
      5     -13.6178      2.00000
      6     -12.3636      2.00000
      7     -10.9632      2.00000
      8      -9.2021      2.00000
      9      -8.9116      2.00000
     10      -7.3303      2.00000
     11      -6.8083      2.00000
     12      -5.4992      2.00000
     13      -5.0134      2.00000
     14      -4.9293      2.00000
     15      -4.5648      2.00000
     16      -3.0413      0.00000
     17      -0.3989      0.00000
     18       0.1905      0.00000
     19       0.6763      0.00000
     20       0.8151      0.00000
     21       1.5687      0.00000
     22       1.7575      0.00000
     23       2.7581      0.00000
     24       3.1444      0.00000

 k-point     5 :       0.2500   -0.0000    0.0000
  band No.  band energies     occupation 
      1     -20.0813      2.00000
      2     -17.2750      2.00000
      3     -16.6892      2.00000
      4     -14.3776      2.00000
      5     -13.3206      2.00000
      6     -11.9454      2.00000
      7     -10.4916      2.00000
      8      -9.4496      2.00000
      9      -8.7551      2.00000
     10      -7.7226      2.00000
     11      -6.7951      2.00000
     12      -5.8663      2.00000
     13      -5.4098      2.00000
     14      -5.0667      2.00000
     15      -4.7777      2.00000
     16      -3.2481      0.00000
     17      -0.2233      0.00000
     18       0.4484      0.00000
     19       0.8782      0.00000
     20       1.4226      0.00000
     21       1.8566      0.00000
     22       1.9620      0.00000
     23       2.9652      0.00000
     24       3.3480      0.00000

 k-point     6 :       0.3125   -0.0000    0.0000
  band No.  band energies     occupation 
      1     -19.9704      2.00000
      2     -17.5643      2.00000
      3     -16.7718      2.00000
      4     -14.4779      2.00000
      5     -12.9929      2.00000
      6     -11.4826      2.00000
      7      -9.9652      2.00000
      8      -9.7509      2.00000
      9      -8.5614      2.00000
     10      -8.1569      2.00000
     11      -6.7411      2.00000
     12      -6.2556      2.00000
     13      -5.9713      2.00000
     14      -5.1176      2.00000
     15      -5.0073      2.00000
     16      -3.4046      0.00000
     17      -0.0427      0.00000
     18       0.6962      0.00000
     19       1.1368      0.00000
     20       1.8678      0.00000
     21       2.2247      0.00000
     22       2.4104      0.00000
     23       3.2350      0.00000
     24       3.6086      0.00000

 k-point     7 :       0.3750   -0.0000    0.0000
  band No.  band energies     occupation 
      1     -19.8593      2.00000
      2     -17.8114      2.00000
      3     -16.8359      2.00000
      4     -14.5554      2.00000
      5     -12.6684      2.00000
      6     -10.9984      2.00000
      7     -10.0668      2.00000
      8      -9.4675      2.00000
      9      -8.5430      2.00000
     10      -8.3425      2.00000
     11      -6.6573      2.00000
     12      -6.6298      2.00000
     13      -6.5858      2.00000
     14      -5.2249      2.00000
     15      -5.1592      2.00000
     16      -3.5139      0.00000
     17       0.1147      0.00000
     18       0.9122      0.00000
     19       1.4519      0.00000
     20       2.2184      0.00000
     21       2.5458      0.00000
     22       3.1003      0.00000
     23       3.2701      0.00000
     24       3.5716      0.00000

 k-point     8 :       0.4375   -0.0000    0.0000
  band No.  band energies     occupation 
      1     -19.7719      2.00000
      2     -17.9834      2.00000
      3     -16.8762      2.00000
      4     -14.6038      2.00000
      5     -12.4045      2.00000
      6     -10.5253      2.00000
      7     -10.3305      2.00000
      8      -9.4071      2.00000
      9      -8.4556      2.00000
     10      -8.1322      2.00000
     11      -7.2240      2.00000
     12      -6.9386      2.00000
     13      -6.5731      2.00000
     14      -5.3919      2.00000
     15      -5.1861      2.00000
     16      -3.5784      0.00000
     17       0.2231      0.00000
     18       1.0630      0.00000
     19       1.8231      0.00000
     20       2.5911      0.00000
     21       2.7329      0.00000
     22       2.9250      0.00000
     23       3.4501      0.00000
     24       3.7878      0.00000

 k-point     9 :       0.5000   -0.0000    0.0000
  band No.  band energies     occupation 
      1     -19.7378      2.00000
      2     -18.0462      2.00000
      3     -16.8900      2.00000
      4     -14.6203      2.00000
      5     -12.2956      2.00000
      6     -10.4402      2.00000
      7     -10.2345      2.00000
      8      -9.6270      2.00000
      9      -8.0291      2.00000
     10      -8.0045      2.00000
     11      -7.7531      2.00000
     12      -7.0755      2.00000
     13      -6.5355      2.00000
     14      -5.4573      2.00000
     15      -5.1955      2.00000
     16      -3.5998      0.00000
     17       0.2618      0.00000
     18       1.1175      0.00000
     19       2.2485      0.00000
     20       2.2522      0.00000
     21       2.9832      0.00000
     22       3.0350      0.00000
     23       3.3621      0.00000
     24       3.3626      0.00000

 k-point    10 :       0.0000    0.0625    0.0000
  band No.  band energies     occupation 
      1     -20.2956      2.00000
      2     -16.4958      2.00000
      3     -16.4447      2.00000
      4     -14.0952      2.00000
      5     -14.0178      2.00000
      6     -12.9278      2.00000
      7     -11.6010      2.00000
      8      -9.0950      2.00000
      9      -8.9275      2.00000
     10      -6.8157      2.00000
     11      -6.7604      2.00000
     12      -4.9922      2.00000
     13      -4.9334      2.00000
     14      -4.3209      2.00000
     15      -4.2818      2.00000
     16      -2.5343      0.00000
     17      -0.6416      0.00000
     18      -0.4870      0.00000
     19       0.0468      0.00000
     20       0.4444      0.00000
     21       1.3052      0.00000
     22       1.5236      0.00000
     23       2.5226      0.00000
     24       2.9104      0.00000

 k-point    11 :       0.1250    0.0625    0.0000
  band No.  band energies     occupation 
      1     -20.2653      2.00000
      2     -16.6307      2.00000
      3     -16.4945      2.00000
      4     -14.1213      2.00000
      5     -13.9313      2.00000
      6     -12.7751      2.00000
      7     -11.4278      2.00000
      8      -9.0488      2.00000
      9      -8.9940      2.00000
     10      -6.9447      2.00000
     11      -6.7881      2.00000
     12      -5.1215      2.00000
     13      -4.9642      2.00000
     14      -4.4786      2.00000
     15      -4.3579      2.00000
     16      -2.7140      0.00000
     17      -0.6059      0.00000
     18      -0.1642      0.00000
     19       0.1847      0.00000
     20       0.5025      0.00000
     21       1.3686      0.00000
     22       1.5821      0.00000
     23       2.5814      0.00000
     24       2.9691      0.00000

 k-point    12 :       0.1875    0.0625    0.0000
  band No.  band energies     occupation 
      1     -20.2062      2.00000
      2     -16.8586      2.00000
      3     -16.5836      2.00000
      4     -14.1761      2.00000
      5     -13.7690      2.00000
      6     -12.4808      2.00000
      7     -11.1126      2.00000
      8      -9.1345      2.00000
      9      -8.9571      2.00000
     10      -7.1810      2.00000
     11      -6.8303      2.00000
     12      -5.3603      2.00000
     13      -5.0265      2.00000
     14      -4.7740      2.00000
     15      -4.5081      2.00000
     16      -2.9343      0.00000
     17      -0.5451      0.00000
     18       0.2484      0.00000
     19       0.5322      0.00000
     20       0.6185      0.00000
     21       1.4984      0.00000
     22       1.6990      0.00000
     23       2.6991      0.00000
     24       3.0862      0.00000

 k-point    13 :       0.2500    0.0625    0.0000
  band No.  band energies     occupation 
      1     -20.1214      2.00000
      2     -17.1368      2.00000
      3     -16.6858      2.00000
      4     -14.2639      2.00000
      5     -13.5241      2.00000
      6     -12.0875      2.00000
      7     -10.6917      2.00000
      8      -9.3538      2.00000
      9      -8.8216      2.00000
     10      -7.5089      2.00000
     11      -6.8505      2.00000
     12      -5.6848      2.00000
     13      -5.1899      2.00000
     14      -5.1031      2.00000
     15      -4.7105      2.00000
     16      -3.1211      0.00000
     17      -0.4436      0.00000
     18       0.5434      0.00000
     19       0.7918      0.00000
     20       1.1279      0.00000
     21       1.7106      0.00000
     22       1.8744      0.00000
     23       2.8760      0.00000
     24       3.2611      0.00000

 k-point    14 :       0.3125    0.0625    0.0000
  band No.  band energies     occupation 
      1     -20.0173      2.00000
      2     -17.4253      2.00000
      3     -16.7825      2.00000
      4     -14.3589      2.00000
      5     -13.2218      2.00000
      6     -11.6377      2.00000
      7     -10.1975      2.00000
      8      -9.6412      2.00000
      9      -8.6461      2.00000
     10      -7.9017      2.00000
     11      -6.8287      2.00000
     12      -6.0570      2.00000
     13      -5.7002      2.00000
     14      -5.1793      2.00000
     15      -4.9414      2.00000
     16      -3.2621      0.00000
     17      -0.3123      0.00000
     18       0.8159      0.00000
     19       1.0221      0.00000
     20       1.6901      0.00000
     21       2.1027      0.00000
     22       2.1080      0.00000
     23       3.1135      0.00000
     24       3.4933      0.00000

 k-point    15 :       0.3750    0.0625    0.0000
  band No.  band energies     occupation 
      1     -19.9050      2.00000
      2     -17.6903      2.00000
      3     -16.8623      2.00000
      4     -14.4415      2.00000
      5     -12.8955      2.00000
      6     -11.1613      2.00000
      7      -9.9701      2.00000
      8      -9.6673      2.00000
      9      -8.4382      2.00000
     10      -8.3130      2.00000
     11      -6.7708      2.00000
     12      -6.4370      2.00000
     13      -6.2725      2.00000
     14      -5.2446      2.00000
     15      -5.1745      2.00000
     16      -3.3624      0.00000
     17      -0.1755      0.00000
     18       1.0662      0.00000
     19       1.3090      0.00000
     20       2.0699      0.00000
     21       2.3999      0.00000
     22       2.7498      0.00000
     23       3.4154      0.00000
     24       3.5804      0.00000

 k-point    16 :       0.4375    0.0625    0.0000
  band No.  band energies     occupation 
      1     -19.8034      2.00000
      2     -17.8998      2.00000
      3     -16.9186      2.00000
      4     -14.5008      2.00000
      5     -12.5909      2.00000
      6     -10.6917      2.00000
      7     -10.2697      2.00000
      8      -9.2905      2.00000
      9      -8.5530      2.00000
     10      -8.2178      2.00000
     11      -6.9337      2.00000
     12      -6.7827      2.00000
     13      -6.6431      2.00000
     14      -5.3767      2.00000
     15      -5.2917      2.00000
     16      -3.4275      0.00000
     17      -0.0620      0.00000
     18       1.2643      0.00000
     19       1.6522      0.00000
     20       2.4254      0.00000
     21       2.7500      0.00000
     22       3.0165      0.00000
     23       3.4124      0.00000
     24       3.7087      0.00000

 k-point    17 :       0.5000    0.0625    0.0000
  band No.  band energies     occupation 
      1     -19.7401      2.00000
      2     -18.0185      2.00000
      3     -16.9476      2.00000
      4     -14.5316      2.00000
      5     -12.3881      2.00000
      6     -10.5256      2.00000
      7     -10.2293      2.00000
      8      -9.4476      2.00000
      9      -8.1938      2.00000
     10      -8.0447      2.00000
     11      -7.5375      2.00000
     12      -7.0214      2.00000
     13      -6.5945      2.00000
     14      -5.5020      2.00000
     15      -5.3164      2.00000
     16      -3.4596      0.00000
     17       0.0026      0.00000
     18       1.3757      0.00000
     19       2.0515      0.00000
     20       2.5065      0.00000
     21       2.8166      0.00000
     22       3.1584      0.00000
     23       3.2568      0.00000
     24       3.6248      0.00000

 k-point    18 :      -0.4375    0.0625    0.0000
  band No.  band energies     occupation 
      1     -19.7401      2.00000
      2     -18.0185      2.00000
      3     -16.9476      2.00000
      4     -14.5316      2.00000
      5     -12.3882      2.00000
      6     -10.5261      2.00000
      7     -10.2285      2.00000
      8      -9.4478      2.00000
      9      -8.1942      2.00000
     10      -8.0447      2.00000
     11      -7.5371      2.00000
     12      -7.0214      2.00000
     13      -6.5945      2.00000
     14      -5.5021      2.00000
     15      -5.3164      2.00000
     16      -3.4595      0.00000
     17       0.0024      0.00000
     18       1.3757      0.00000
     19       2.0515      0.00000
     20       2.5065      0.00000
     21       2.8166      0.00000
     22       3.1583      0.00000
     23       3.2568      0.00000
     24       3.6248      0.00000

 k-point    19 :      -0.3750    0.0625    0.0000
  band No.  band energies     occupation 
      1     -19.8034      2.00000
      2     -17.8996      2.00000
      3     -16.9187      2.00000
      4     -14.5007      2.00000
      5     -12.5912      2.00000
      6     -10.6920      2.00000
      7     -10.2688      2.00000
      8      -9.2908      2.00000
      9      -8.5533      2.00000
     10      -8.2179      2.00000
     11      -6.9331      2.00000
     12      -6.7826      2.00000
     13      -6.6432      2.00000
     14      -5.3770      2.00000
     15      -5.2919      2.00000
     16      -3.4272      0.00000
     17      -0.0624      0.00000
     18       1.2646      0.00000
     19       1.6522      0.00000
     20       2.4254      0.00000
     21       2.7500      0.00000
     22       3.0165      0.00000
     23       3.4122      0.00000
     24       3.7087      0.00000

 k-point    20 :      -0.3125    0.0625    0.0000
  band No.  band energies     occupation 
      1     -19.9050      2.00000
      2     -17.6901      2.00000
      3     -16.8625      2.00000
      4     -14.4413      2.00000
      5     -12.8958      2.00000
      6     -11.1611      2.00000
      7      -9.9697      2.00000
      8      -9.6676      2.00000
      9      -8.4382      2.00000
     10      -8.3131      2.00000
     11      -6.7706      2.00000
     12      -6.4368      2.00000
     13      -6.2720      2.00000
     14      -5.2448      2.00000
     15      -5.1750      2.00000
     16      -3.3620      0.00000
     17      -0.1762      0.00000
     18       1.0665      0.00000
     19       1.3090      0.00000
     20       2.0699      0.00000
     21       2.3999      0.00000
     22       2.7497      0.00000
     23       3.4154      0.00000
     24       3.5805      0.00000

 k-point    21 :      -0.2500    0.0625    0.0000
  band No.  band energies     occupation 
      1     -20.0174      2.00000
      2     -17.4250      2.00000
      3     -16.7828      2.00000
      4     -14.3587      2.00000
      5     -13.2224      2.00000
      6     -11.6374      2.00000
      7     -10.1977      2.00000
      8      -9.6410      2.00000
      9      -8.6461      2.00000
     10      -7.9017      2.00000
     11      -6.8287      2.00000
     12      -6.0568      2.00000
     13      -5.6995      2.00000
     14      -5.1797      2.00000
     15      -4.9421      2.00000
     16      -3.2615      0.00000
     17      -0.3131      0.00000
     18       0.8163      0.00000
     19       1.0221      0.00000
     20       1.6900      0.00000
     21       2.1026      0.00000
     22       2.1080      0.00000
     23       3.1134      0.00000
     24       3.4933      0.00000

 k-point    22 :      -0.1875    0.0625    0.0000
  band No.  band energies     occupation 
      1     -20.1215      2.00000
      2     -17.1364      2.00000
      3     -16.6861      2.00000
      4     -14.2635      2.00000
      5     -13.5247      2.00000
      6     -12.0872      2.00000
      7     -10.6919      2.00000
      8      -9.3537      2.00000
      9      -8.8217      2.00000
     10      -7.5087      2.00000
     11      -6.8507      2.00000
     12      -5.6846      2.00000
     13      -5.1889      2.00000
     14      -5.1035      2.00000
     15      -4.7115      2.00000
     16      -3.1205      0.00000
     17      -0.4446      0.00000
     18       0.5440      0.00000
     19       0.7918      0.00000
     20       1.1277      0.00000
     21       1.7106      0.00000
     22       1.8744      0.00000
     23       2.8760      0.00000
     24       3.2610      0.00000

 k-point    23 :      -0.1250    0.0625    0.0000
  band No.  band energies     occupation 
      1     -20.2062      2.00000
      2     -16.8581      2.00000
      3     -16.5841      2.00000
      4     -14.1756      2.00000
      5     -13.7698      2.00000
      6     -12.4805      2.00000
      7     -11.1128      2.00000
      8      -9.1344      2.00000
      9      -8.9571      2.00000
     10      -7.1804      2.00000
     11      -6.8308      2.00000
     12      -5.3600      2.00000
     13      -5.0269      2.00000
     14      -4.7726      2.00000
     15      -4.5095      2.00000
     16      -2.9337      0.00000
     17      -0.5462      0.00000
     18       0.2489      0.00000
     19       0.5322      0.00000
     20       0.6185      0.00000
     21       1.4984      0.00000
     22       1.6990      0.00000
     23       2.6991      0.00000
     24       3.0862      0.00000

 k-point    24 :      -0.0625    0.0625    0.0000
  band No.  band energies     occupation 
      1     -20.2653      2.00000
      2     -16.6300      2.00000
      3     -16.4952      2.00000
      4     -14.1208      2.00000
      5     -13.9321      2.00000
      6     -12.7748      2.00000
      7     -11.4279      2.00000
      8      -9.0488      2.00000
      9      -8.9939      2.00000
     10      -6.9438      2.00000
     11      -6.7890      2.00000
     12      -5.1213      2.00000
     13      -4.9645      2.00000
     14      -4.4766      2.00000
     15      -4.3599      2.00000
     16      -2.7135      0.00000
     17      -0.6069      0.00000
     18      -0.1640      0.00000
     19       0.1850      0.00000
     20       0.5025      0.00000
     21       1.3686      0.00000
     22       1.5821      0.00000
     23       2.5814      0.00000
     24       2.9691      0.00000

 k-point    25 :       0.0000    0.1250    0.0000
  band No.  band energies     occupation 
      1     -20.2504      2.00000
      2     -16.6985      2.00000
      3     -16.5100      2.00000
      4     -14.1635      2.00000
      5     -13.8588      2.00000
      6     -12.7046      2.00000
      7     -11.3451      2.00000
      8      -9.0275      2.00000
      9      -9.0258      2.00000
     10      -7.0174      2.00000
     11      -6.7896      2.00000
     12      -5.1944      2.00000
     13      -4.9662      2.00000
     14      -4.5564      2.00000
     15      -4.3941      2.00000
     16      -2.7890      0.00000
     17      -0.5454      0.00000
     18      -0.1105      0.00000
     19       0.2965      0.00000
     20       0.5316      0.00000
     21       1.4009      0.00000
     22       1.6113      0.00000
     23       2.6108      0.00000
     24       2.9984      0.00000

 k-point    26 :       0.2500    0.1250    0.0000
  band No.  band energies     occupation 
      1     -20.1351      2.00000
      2     -17.0705      2.00000
      3     -16.7080      2.00000
      4     -14.1530      2.00000
      5     -13.6718      2.00000
      6     -12.1199      2.00000
      7     -10.7642      2.00000
      8      -9.3263      2.00000
      9      -8.8439      2.00000
     10      -7.3935      2.00000
     11      -6.9070      2.00000
     12      -5.5913      2.00000
     13      -5.1582      2.00000
     14      -5.1008      2.00000
     15      -4.7016      2.00000
     16      -3.0443      0.00000
     17      -0.5808      0.00000
     18       0.7631      0.00000
     19       0.8048      0.00000
     20       0.8349      0.00000
     21       1.6647      0.00000
     22       1.8452      0.00000
     23       2.8462      0.00000
     24       3.2321      0.00000

 k-point    27 :       0.3125    0.1250    0.0000
  band No.  band energies     occupation 
      1     -20.0418      2.00000
      2     -17.3148      2.00000
      3     -16.8407      2.00000
      4     -14.1651      2.00000
      5     -13.4834      2.00000
      6     -11.6779      2.00000
      7     -10.3297      2.00000
      8      -9.6015      2.00000
      9      -8.6891      2.00000
     10      -7.6663      2.00000
     11      -6.9619      2.00000
     12      -5.8899      2.00000
     13      -5.5244      2.00000
     14      -5.3094      2.00000
     15      -4.9435      2.00000
     16      -3.0999      0.00000
     17      -0.5820      0.00000
     18       0.9649      0.00000
     19       1.1069      0.00000
[...]
     10      -7.8341      2.00000
     11      -7.6730      2.00000
     12      -6.7886      2.00000
     13      -6.6764      2.00000
     14      -6.4989      2.00000
     15      -6.4663      2.00000
     16      -2.0533      0.00000
     17      -1.5850      0.00000
     18       2.5669      0.00000
     19       3.0115      0.00000
     20       3.0320      0.00000
     21       3.1653      0.00000
     22       3.5611      0.00000
     23       3.6035      0.00000
     24       3.6839      0.00000

 k-point    61 :      -0.2500    0.3125    0.0000
  band No.  band energies     occupation 
      1     -19.6918      2.00000
      2     -17.8357      2.00000
      3     -17.4644      2.00000
      4     -13.6934      2.00000
      5     -13.0465      2.00000
      6     -11.0814      2.00000
      7      -9.5712      2.00000
      8      -8.7623      2.00000
      9      -8.2760      2.00000
     10      -7.9442      2.00000
     11      -7.5515      2.00000
     12      -6.8299      2.00000
     13      -6.7203      2.00000
     14      -6.2066      2.00000
     15      -6.1580      2.00000
     16      -2.4271      0.00000
     17      -1.2181      0.00000
     18       2.1681      0.00000
     19       2.7306      0.00000
     20       3.0771      0.00000
     21       3.1632      0.00000
     22       3.2755      0.00000
     23       3.5304      0.00000
     24       3.5848      0.00000

 k-point    62 :      -0.1875    0.3125    0.0000
  band No.  band energies     occupation 
      1     -19.7561      2.00000
      2     -17.8368      2.00000
      3     -17.2559      2.00000
      4     -13.9931      2.00000
      5     -12.9600      2.00000
      6     -10.7722      2.00000
      7     -10.0815      2.00000
      8      -9.0224      2.00000
      9      -8.2897      2.00000
     10      -8.1109      2.00000
     11      -7.2600      2.00000
     12      -6.7231      2.00000
     13      -6.6833      2.00000
     14      -5.8758      2.00000
     15      -5.7827      2.00000
     16      -2.8014      0.00000
     17      -0.8468      0.00000
     18       1.8251      0.00000
     19       2.2296      0.00000
     20       2.6853      0.00000
     21       2.9253      0.00000
     22       3.1889      0.00000
     23       3.3674      0.00000
     24       3.8757      0.00000

 k-point    63 :      -0.1250    0.3125    0.0000
  band No.  band energies     occupation 
      1     -19.8333      2.00000
      2     -17.7858      2.00000
      3     -17.0416      2.00000
      4     -14.2617      2.00000
      5     -12.9034      2.00000
      6     -10.7534      2.00000
      7     -10.2509      2.00000
      8      -9.3409      2.00000
      9      -8.3410      2.00000
     10      -8.2852      2.00000
     11      -6.9545      2.00000
     12      -6.5840      2.00000
     13      -6.5335      2.00000
     14      -5.5317      2.00000
     15      -5.4407      2.00000
     16      -3.1320      0.00000
     17      -0.4916      0.00000
     18       1.5385      0.00000
     19       1.6446      0.00000
     20       2.3317      0.00000
     21       2.6334      0.00000
     22       3.0769      0.00000
     23       3.3565      0.00000
     24       3.6464      0.00000

 k-point    64 :      -0.0625    0.3125    0.0000
  band No.  band energies     occupation 
      1     -19.9098      2.00000
      2     -17.6916      2.00000
      3     -16.8652      2.00000
      4     -14.4407      2.00000
      5     -12.8974      2.00000
      6     -11.1626      2.00000
      7      -9.9723      2.00000
      8      -9.6660      2.00000
      9      -8.4403      2.00000
     10      -8.3125      2.00000
     11      -6.7715      2.00000
     12      -6.4378      2.00000
     13      -6.2708      2.00000
     14      -5.2462      2.00000
     15      -5.1737      2.00000
     16      -3.3599      0.00000
     17      -0.1758      0.00000
     18       1.0653      0.00000
     19       1.3089      0.00000
     20       2.0701      0.00000
     21       2.3998      0.00000
     22       2.7499      0.00000
     23       3.4155      0.00000
     24       3.5802      0.00000

 k-point    65 :       0.0000    0.3750    0.0000
  band No.  band energies     occupation 
      1     -19.8642      2.00000
      2     -17.8125      2.00000
      3     -16.8387      2.00000
      4     -14.5546      2.00000
      5     -12.6705      2.00000
      6     -10.9996      2.00000
      7     -10.0692      2.00000
      8      -9.4670      2.00000
      9      -8.5415      2.00000
     10      -8.3447      2.00000
     11      -6.6583      2.00000
     12      -6.6304      2.00000
     13      -6.5843      2.00000
     14      -5.2236      2.00000
     15      -5.1609      2.00000
     16      -3.5113      0.00000
     17       0.1151      0.00000
     18       0.9109      0.00000
     19       1.4518      0.00000
     20       2.2185      0.00000
     21       2.5457      0.00000
     22       3.1004      0.00000
     23       3.2699      0.00000
     24       3.5717      0.00000

 k-point    66 :      -0.2500    0.3750    0.0000
  band No.  band energies     occupation 
      1     -19.6667      2.00000
      2     -17.8580      2.00000
      3     -17.5080      2.00000
      4     -13.6662      2.00000
      5     -12.9772      2.00000
      6     -11.2035      2.00000
      7      -9.2669      2.00000
      8      -8.8475      2.00000
      9      -8.2003      2.00000
     10      -7.8642      2.00000
     11      -7.6901      2.00000
     12      -6.8728      2.00000
     13      -6.7990      2.00000
     14      -6.2800      2.00000
     15      -6.2612      2.00000
     16      -2.3361      0.00000
     17      -1.2993      0.00000
     18       2.5880      0.00000
     19       2.6023      0.00000
     20       2.9329      0.00000
     21       3.3054      0.00000
     22       3.5023      0.00000
     23       3.5095      0.00000
     24       3.7126      0.00000

 k-point    67 :      -0.1875    0.3750    0.0000
  band No.  band energies     occupation 
      1     -19.7007      2.00000
      2     -17.9276      2.00000
      3     -17.3038      2.00000
      4     -13.9997      2.00000
      5     -12.7706      2.00000
      6     -10.9754      2.00000
      7      -9.6998      2.00000
      8      -9.0034      2.00000
      9      -8.1491      2.00000
     10      -7.9524      2.00000
     11      -7.5858      2.00000
     12      -6.8876      2.00000
     13      -6.8426      2.00000
     14      -5.9401      2.00000
     15      -5.9330      2.00000
     16      -2.7519      0.00000
     17      -0.8702      0.00000
     18       2.2243      0.00000
     19       2.4036      0.00000
     20       2.6793      0.00000
     21       3.0180      0.00000
     22       3.3337      0.00000
     23       3.4410      0.00000
     24       3.8001      0.00000

 k-point    68 :      -0.1250    0.3750    0.0000
  band No.  band energies     occupation 
      1     -19.7509      2.00000
      2     -17.9417      2.00000
      3     -17.0930      2.00000
      4     -14.2970      2.00000
      5     -12.6385      2.00000
      6     -10.6748      2.00000
      7     -10.1649      2.00000
      8      -9.1474      2.00000
      9      -8.3641      2.00000
     10      -8.0813      2.00000
     11      -7.2781      2.00000
     12      -6.8762      2.00000
     13      -6.7267      2.00000
     14      -5.6229      2.00000
     15      -5.5875      2.00000
     16      -3.1379      0.00000
     17      -0.4442      0.00000
     18       1.8233      0.00000
     19       1.9098      0.00000
     20       2.6927      0.00000
     21       2.8195      0.00000
     22       3.0126      0.00000
     23       3.5291      0.00000
     24       3.7846      0.00000

 k-point    69 :      -0.0625    0.3750    0.0000
  band No.  band energies     occupation 
      1     -19.8085      2.00000
      2     -17.9006      2.00000
      3     -16.9213      2.00000
      4     -14.5001      2.00000
      5     -12.5932      2.00000
      6     -10.6931      2.00000
      7     -10.2711      2.00000
      8      -9.2915      2.00000
      9      -8.5510      2.00000
     10      -8.2203      2.00000
     11      -6.9322      2.00000
     12      -6.7830      2.00000
     13      -6.6440      2.00000
     14      -5.3752      2.00000
     15      -5.2933      2.00000
     16      -3.4251      0.00000
     17      -0.0622      0.00000
     18       1.2634      0.00000
     19       1.6522      0.00000
     20       2.4255      0.00000
     21       2.7499      0.00000
     22       3.0163      0.00000
     23       3.4124      0.00000
     24       3.7086      0.00000

 k-point    70 :       0.0000    0.4375    0.0000
  band No.  band energies     occupation 
      1     -19.7772      2.00000
      2     -17.9841      2.00000
      3     -16.8790      2.00000
      4     -14.6030      2.00000
      5     -12.4070      2.00000
      6     -10.5261      2.00000
      7     -10.3324      2.00000
      8      -9.4086      2.00000
      9      -8.4530      2.00000
     10      -8.1350      2.00000
     11      -7.2222      2.00000
     12      -6.9386      2.00000
     13      -6.5748      2.00000
     14      -5.3899      2.00000
     15      -5.1879      2.00000
     16      -3.5760      0.00000
     17       0.2234      0.00000
     18       1.0617      0.00000
     19       1.8231      0.00000
     20       2.5912      0.00000
     21       2.7328      0.00000
     22       2.9249      0.00000
     23       3.4501      0.00000
     24       3.7557      0.00000

 k-point    71 :      -0.1250    0.4375    0.0000
  band No.  band energies     occupation 
      1     -19.7189      2.00000
      2     -17.9989      2.00000
      3     -17.1103      2.00000
      4     -14.3094      2.00000
      5     -12.5251      2.00000
      6     -10.7727      2.00000
      7      -9.9292      2.00000
      8      -9.2919      2.00000
      9      -7.9940      2.00000
     10      -7.9830      2.00000
     11      -7.7305      2.00000
     12      -7.0053      2.00000
     13      -6.7146      2.00000
     14      -5.6943      2.00000
     15      -5.6061      2.00000
     16      -3.1399      0.00000
     17      -0.4256      0.00000
     18       1.8884      0.00000
     19       2.3333      0.00000
     20       2.3407      0.00000
     21       3.0656      0.00000
     22       3.1374      0.00000
     23       3.4499      0.00000
     24       3.4501      0.00000

 k-point    72 :      -0.0625    0.4375    0.0000
  band No.  band energies     occupation 
      1     -19.7455      2.00000
      2     -18.0191      2.00000
      3     -16.9502      2.00000
      4     -14.5309      2.00000
      5     -12.3907      2.00000
      6     -10.5274      2.00000
      7     -10.2297      2.00000
      8      -9.4496      2.00000
      9      -8.1918      2.00000
     10      -8.0477      2.00000
     11      -7.5351      2.00000
     12      -7.0211      2.00000
     13      -6.5962      2.00000
     14      -5.4998      2.00000
     15      -5.3179      2.00000
     16      -3.4574      0.00000
     17       0.0025      0.00000
     18       1.3746      0.00000
     19       2.0514      0.00000
     20       2.5064      0.00000
     21       2.8166      0.00000
     22       3.1583      0.00000
     23       3.2568      0.00000
     24       3.6247      0.00000

 k-point    73 :       0.0000    0.5000    0.0000
  band No.  band energies     occupation 
      1     -19.7432      2.00000
      2     -18.0467      2.00000
      3     -16.8927      2.00000
      4     -14.6195      2.00000
      5     -12.2982      2.00000
      6     -10.4419      2.00000
      7     -10.2350      2.00000
      8      -9.6288      2.00000
      9      -8.0323      2.00000
     10      -8.0030      2.00000
     11      -7.7503      2.00000
     12      -7.0750      2.00000
     13      -6.5375      2.00000
     14      -5.4551      2.00000
     15      -5.1972      2.00000
     16      -3.5974      0.00000
     17       0.2621      0.00000
     18       1.1162      0.00000
     19       2.2481      0.00000
     20       2.2523      0.00000
     21       2.9830      0.00000
     22       3.0352      0.00000
     23       3.3620      0.00000
     24       3.3625      0.00000


--------------------------------------------------------------------------------------------------------


 soft charge-density along one line, spin component           1
         0         1         2         3         4         5         6         7         8         9
 total charge-density along one line
 
 pseudopotential strength for first ion, spin component:           1
  6.760  10.317   0.000   0.000   0.000   0.000   0.000   0.000
 10.317  15.742   0.000   0.000   0.000   0.000   0.000   0.000
  0.000   0.000  -2.329   0.000  -0.000  -4.001   0.000  -0.000
  0.000   0.000   0.000  -2.335   0.000   0.000  -4.009   0.000
  0.000   0.000  -0.000   0.000  -2.329  -0.000   0.000  -4.001
  0.000   0.000  -4.001   0.000  -0.000  -6.676   0.000  -0.000
  0.000   0.000   0.000  -4.009   0.000   0.000  -6.685   0.000
  0.000   0.000  -0.000   0.000  -4.001  -0.000   0.000  -6.676
 total augmentation occupancy for first ion, spin component:           1
  3.704  -0.948  -0.000   0.000  -0.000   0.000   0.000   0.000
 -0.948   0.262   0.000   0.000  -0.000  -0.000   0.000   0.000
 -0.000   0.000   4.122   0.000  -0.000  -1.098   0.000  -0.000
  0.000   0.000   0.000   0.887   0.000  -0.000  -0.221   0.000
  0.000  -0.000  -0.000   0.000   4.123  -0.000   0.000  -1.098
  0.000  -0.000  -1.098  -0.000  -0.000   0.304   0.000   0.000
  0.000   0.000   0.000  -0.221  -0.000   0.000   0.056  -0.000
  0.000  -0.000  -0.000   0.000  -1.098   0.000  -0.000   0.304


------------------------ aborting loop because EDIFF is reached ----------------------------------------


 


 total charge     
 
# of ion       s       p       d       tot
------------------------------------------
    1        0.755   1.302   0.000   2.057
    2        0.755   1.302   0.000   2.057
    3        0.876   1.757   0.000   2.632
    4        0.876   1.702   0.000   2.579
    5        0.876   1.730   0.000   2.606
    6        0.876   1.730   0.000   2.606
    7        0.876   1.702   0.000   2.579
    8        0.876   1.757   0.000   2.632
--------------------------------------------------
tot          6.766  12.981   0.000  19.747
 
    CHARGE:  cpu time    0.9437: real time    0.9454
    FORLOC:  cpu time    0.0100: real time    0.0101
    FORNL :  cpu time    1.2101: real time    1.2140
    STRESS:  cpu time    8.1343: real time    8.1426
    FORCOR:  cpu time    0.1405: real time    0.1407
    FORHAR:  cpu time    0.0375: real time    0.0375
    OFIELD:  cpu time    0.0014: real time    0.0014

  FORCE on cell =-STRESS in cart. coord.  units (eV):
  Direction    XX          YY          ZZ          XY          YZ          ZX
  --------------------------------------------------------------------------------------
  Alpha Z    10.93934    10.93934    10.93934
  Ewald    4956.90318  4956.88227 -5853.63745    -0.00000     0.00000    -0.00000
  Hartree  4879.74382  4879.73504 -4820.82330    -0.00000    -0.00000    -0.00000
  E(xc)    -107.43076  -107.43074  -111.26158    -0.00000    -0.00000    -0.00000
  Local  -10149.94914-10149.92409 10341.52913     0.00003     0.00000     0.00000
  n-local   -21.61119   -21.60941   -10.32757    -0.28809    -0.00000     0.00000
  augment    -1.79877    -1.79870    -1.79083    -0.00004     0.00000    -0.00000
  Kinetic   433.14021   433.13083   445.19619     3.50087     0.00000     0.00000
  Fock        0.00000     0.00000     0.00000     0.00000     0.00000     0.00000
  -------------------------------------------------------------------------------------
  Total      -0.06330    -0.07546    -0.17607     0.00000     0.00000     0.00000
  in kB      -0.21871    -0.26073    -0.60835     0.00000     0.00000     0.00000
  external pressure =       -0.36 kB  Pullay stress =        0.00 kB


 VOLUME and BASIS-vectors are now :
 -----------------------------------------------------------------------------
  energy-cutoff  :      450.00
  volume of cell :      463.69
      direct lattice vectors                 reciprocal lattice vectors
     5.174000000  0.000000000  0.000000000     0.193274063 -0.111582236  0.000000000
     2.587000000  4.481000000  0.000000000     0.000000000  0.223164472  0.000000000
     0.000000000  0.000000000 20.000000000     0.000000000  0.000000000  0.050000000

  length of vectors
     5.174000000  5.174159835 20.000000000     0.223171366  0.223164472  0.050000000


 FORCES acting on ions
    electron-ion (+dipol)            ewald-force                    non-local-force                 convergence-correction
 -----------------------------------------------------------------------------------------------
   0.258E-05 -.789E-02 0.169E-06   0.502E-12 0.771E-02 0.353E-20   0.477E-16 -.107E-02 0.000E+00   -.107E-03 -.104E-03 0.183E-11
   -.182E-05 0.789E-02 -.174E-06   -.959E-12 -.771E-02 0.568E-20   0.112E-16 0.107E-02 0.000E+00   0.114E-03 0.147E-03 0.172E-11
   -.444E+02 -.256E+02 -.404E-06   0.479E+02 0.276E+02 -.286E-19   -.347E+01 -.200E+01 -.258E-25   0.144E-02 0.987E-03 0.196E-11
   0.444E+02 -.256E+02 0.401E-06   -.479E+02 0.276E+02 0.196E-19   0.347E+01 -.200E+01 0.000E+00   -.143E-02 0.777E-03 0.265E-11
   -.155E-05 -.513E+02 -.488E-06   0.759E-11 0.553E+02 0.821E-20   0.000E+00 -.400E+01 0.000E+00   0.855E-04 0.162E-02 0.273E-11
   -.350E-05 0.513E+02 0.400E-06   0.182E-10 -.553E+02 0.226E-19   0.000E+00 0.400E+01 0.000E+00   -.360E-03 -.176E-02 0.412E-11
   -.444E+02 0.256E+02 -.490E-06   0.479E+02 -.276E+02 -.181E-19   -.347E+01 0.200E+01 0.517E-25   0.172E-02 -.823E-03 0.269E-11
   0.444E+02 0.256E+02 0.372E-06   -.479E+02 -.276E+02 -.129E-19   0.347E+01 0.200E+01 0.000E+00   -.167E-02 -.109E-02 0.324E-11
 -----------------------------------------------------------------------------------------------
   -.860E-05 -.454E-05 -.214E-06   0.142E-13 -.213E-13 0.000E+00   0.444E-15 0.444E-15 0.258E-25   -.208E-03 -.244E-03 0.209E-10
 
 
 POSITION                                       TOTAL-FORCE (eV/Angst)
 -----------------------------------------------------------------------------------
      1.35500      0.78252     -0.00000         0.000000     -0.001388      0.000000
      3.94200      2.27598     -0.00000        -0.000000      0.001388      0.000000
     -0.00033     -0.00015     -0.00000        -0.000391     -0.000270     -0.000000
      2.71033     -0.00015     -0.00000         0.000391     -0.000270     -0.000000
      3.94200      0.71087      0.00000         0.000000      0.002057      0.000000
      6.52900      2.34763     -0.00000         0.000000     -0.002057      0.000000
      2.58667      3.05865      0.00000        -0.000391      0.000270      0.000000
      5.29733      3.05865      0.00000         0.000391      0.000270      0.000000
 -----------------------------------------------------------------------------------
    total drift:                               -0.000217     -0.000248     -0.000000


--------------------------------------------------------------------------------------------------------



  FREE ENERGIE OF THE ION-ELECTRON SYSTEM (eV)
  ---------------------------------------------------
  free  energy   TOTEN  =       -67.23064905 eV

  energy  without entropy=      -67.23064905  energy(sigma->0) =      -67.23064905
 
 d Force =-0.3553837E-06[-0.703E-06,-0.790E-08]  d Energy =-0.3111859E-06-0.442E-07
 d Force =-0.1628063E-02[-0.163E-02,-0.163E-02]  d Ewald  =-0.1628063E-02 0.909E-12


--------------------------------------------------------------------------------------------------------


    POTLOK:  cpu time    0.1404: real time    0.1412


--------------------------------------------------------------------------------------------------------


