<?xml version="1.0" encoding="ISO-8859-1"?>
<modeling>
 <generator>
  <i name="program" type="string">vasp </i>
  <i name="version" type="string">5.4.4.18Apr17-6-g9f103f2a35  </i>
  <i name="subversion" type="string">(build Mar 30 2023 15:39:25) complex            parallel </i>
  <i name="platform" type="string">LinuxIFC </i>
  <i name="date" type="string">2023 05 23 </i>
  <i name="time" type="string">12:00:38 </i>
 </generator>
 <incar>
  <i type="string" name="SYSTEM"> BC3 bandstructure</i>
  <i type="int" name="ISTART">     0</i>
  <i type="string" name="PREC">accurate</i>
  <i type="int" name="ICHARG">    11</i>
  <i type="int" name="IBRION">     2</i>
  <i name="EDIFF">      0.00000100</i>
  <i name="EDIFFG">     -0.00000100</i>
  <i type="int" name="NSW">    40</i>
  <i name="ENCUT">    450.00000000</i>
  <i type="int" name="ISMEAR">    -5</i>
  <i name="SIGMA">      0.20000000</i>
  <i type="int" name="LORBIT">    11</i>
  <v type="int" name="KPOINT_BSE">    -1     0     0     0</v>
 </incar>
 <structure name="primitive_cell" >
  <crystal>
   <varray name="basis" >
    <v>       5.17400000       0.00000000       0.00000000 </v>
    <v>       2.58700000       4.48100000       0.00000000 </v>
    <v>       0.00000000       0.00000000      20.00000000 </v>
   </varray>
   <i name="volume">    463.69388000 </i>
   <varray name="rec_basis" >
    <v>       0.19327406      -0.11158224       0.00000000 </v>
    <v>       0.00000000       0.22316447       0.00000000 </v>
    <v>       0.00000000       0.00000000       0.05000000 </v>
   </varray>
  </crystal>
  <varray name="positions" >
   <v>       0.17457326       0.17462620       0.00000000 </v>
   <v>       0.00000000       0.00000000       0.00000000 </v>
   <v>      -0.47622729       0.00000000       0.00000000 </v>
   <v>      -0.00005294      -0.47612140       0.00000000 </v>
   <v>      -0.31744862       0.15866994       0.00000000 </v>
   <v>      -0.31750156      -0.31745146       0.00000000 </v>
   <v>       0.15872573      -0.31745146       0.00000000 </v>
   <v>      -0.49207481      -0.49207766       0.00000000 </v>
  </varray>
 </structure>
 <varray name="primitive_index" >
  <v type="int" >        1 </v>
  <v type="int" >        3 </v>
  <v type="int" >        4 </v>
  <v type="int" >        6 </v>
  <v type="int" >        5 </v>
  <v type="int" >        8 </v>
  <v type="int" >        7 </v>
  <v type="int" >        2 </v>
 </varray>
 <kpoints>
  <generation param="Gamma">
   <v type="int" name="divisions">      16       16        1 </v>
   <v name="usershift">      0.00000000       0.00000000       0.00000000 </v>
   <v name="genvec1">      0.06250000       0.00000000       0.00000000 </v>
   <v name="genvec2">      0.00000000       0.06250000       0.00000000 </v>
   <v name="genvec3">      0.00000000       0.00000000       1.00000000 </v>
   <v name="shift">      0.00000000       0.00000000       0.00000000 </v>
  </generation>
  <varray name="kpointlist" >
   <v>       0.00000000       0.00000000       0.00000000 </v>
   <v>       0.06250000      -0.00000000       0.00000000 </v>
   <v>       0.12500000      -0.00000000       0.00000000 </v>
   <v>       0.18750000      -0.00000000       0.00000000 </v>
   <v>       0.25000000      -0.00000000       0.00000000 </v>
   <v>       0.31250000      -0.00000000       0.00000000 </v>
   <v>       0.37500000      -0.00000000       0.00000000 </v>
   <v>       0.43750000      -0.00000000       0.00000000 </v>
   <v>       0.50000000      -0.00000000       0.00000000 </v>
   <v>       0.00000000       0.06250000       0.00000000 </v>
   <v>       0.12500000       0.06250000       0.00000000 </v>
   <v>       0.18750000       0.06250000       0.00000000 </v>
   <v>       0.25000000       0.06250000       0.00000000 </v>
   <v>       0.31250000       0.06250000       0.00000000 </v>
   <v>       0.37500000       0.06250000       0.00000000 </v>
   <v>       0.43750000       0.06250000       0.00000000 </v>
   <v>       0.50000000       0.06250000       0.00000000 </v>
   <v>      -0.43750000       0.06250000       0.00000000 </v>
   <v>      -0.37500000       0.06250000       0.00000000 </v>
   <v>      -0.31250000       0.06250000       0.00000000 </v>
   <v>      -0.25000000       0.06250000       0.00000000 </v>
   <v>      -0.18750000       0.06250000       0.00000000 </v>
   <v>      -0.12500000       0.06250000       0.00000000 </v>
   <v>      -0.06250000       0.06250000       0.00000000 </v>
   <v>       0.00000000       0.12500000       0.00000000 </v>
   <v>       0.25000000       0.12500000       0.00000000 </v>
   <v>       0.31250000       0.12500000       0.00000000 </v>
   <v>       0.37500000       0.12500000       0.00000000 </v>
   <v>       0.43750000       0.12500000       0.00000000 </v>
   <v>       0.50000000       0.12500000       0.00000000 </v>
   <v>      -0.43750000       0.12500000       0.00000000 </v>
   <v>      -0.37500000       0.12500000       0.00000000 </v>
   <v>      -0.31250000       0.12500000       0.00000000 </v>
   <v>      -0.25000000       0.12500000       0.00000000 </v>
   <v>      -0.18750000       0.12500000       0.00000000 </v>
   <v>      -0.12500000       0.12500000       0.00000000 </v>
   <v>      -0.06250000       0.12500000       0.00000000 </v>
   <v>       0.00000000       0.18750000       0.00000000 </v>
   <v>       0.37500000       0.18750000       0.00000000 </v>
   <v>       0.43750000       0.18750000       0.00000000 </v>
   <v>       0.50000000       0.18750000       0.00000000 </v>
   <v>      -0.43750000       0.18750000       0.00000000 </v>
   <v>      -0.37500000       0.18750000       0.00000000 </v>
   <v>      -0.31250000       0.18750000       0.00000000 </v>
   <v>      -0.25000000       0.18750000       0.00000000 </v>
   <v>      -0.18750000       0.18750000       0.00000000 </v>
   <v>      -0.12500000       0.18750000       0.00000000 </v>
   <v>      -0.06250000       0.18750000       0.00000000 </v>
   <v>       0.00000000       0.25000000       0.00000000 </v>
   <v>       0.50000000       0.25000000       0.00000000 </v>
   <v>      -0.43750000       0.25000000       0.00000000 </v>
   <v>      -0.37500000       0.25000000       0.00000000 </v>
   <v>      -0.31250000       0.25000000       0.00000000 </v>
   <v>      -0.25000000       0.25000000       0.00000000 </v>
   <v>      -0.18750000       0.25000000       0.00000000 </v>
   <v>      -0.12500000       0.25000000       0.00000000 </v>
   <v>      -0.06250000       0.25000000       0.00000000 </v>
   <v>       0.00000000       0.31250000       0.00000000 </v>
   <v>      -0.37500000       0.31250000       0.00000000 </v>
   <v>      -0.31250000       0.31250000       0.00000000 </v>
   <v>      -0.25000000       0.31250000       0.00000000 </v>
   <v>      -0.18750000       0.31250000       0.00000000 </v>
   <v>      -0.12500000       0.31250000       0.00000000 </v>
   <v>      -0.06250000       0.31250000       0.00000000 </v>
   <v>       0.00000000       0.37500000       0.00000000 </v>
   <v>      -0.25000000       0.37500000       0.00000000 </v>
   <v>      -0.18750000       0.37500000       0.00000000 </v>
   <v>      -0.12500000       0.37500000       0.00000000 </v>
   <v>      -0.06250000       0.37500000       0.00000000 </v>
   <v>       0.00000000       0.43750000       0.00000000 </v>
   <v>      -0.12500000       0.43750000       0.00000000 </v>
   <v>      -0.06250000       0.43750000       0.00000000 </v>
   <v>       0.00000000       0.50000000       0.00000000 </v>
  </varray>
  <varray name="weights" >
   <v>       0.00390625 </v>
   <v>       0.01562500 </v>
   <v>       0.01562500 </v>
   <v>       0.01562500 </v>
   <v>       0.01562500 </v>
   <v>       0.01562500 </v>
   <v>       0.01562500 </v>
   <v>       0.01562500 </v>
   <v>       0.00781250 </v>
   <v>       0.00781250 </v>
   <v>       0.00781250 </v>
   <v>       0.01562500 </v>
   <v>       0.01562500 </v>
   <v>       0.01562500 </v>
   <v>       0.01562500 </v>
   <v>       0.01562500 </v>
   <v>       0.01562500 </v>
   <v>       0.01562500 </v>
   <v>       0.01562500 </v>
   <v>       0.01562500 </v>
   <v>       0.01562500 </v>
   <v>       0.01562500 </v>
   <v>       0.01562500 </v>
   <v>       0.01562500 </v>
   <v>       0.00781250 </v>
   <v>       0.00781250 </v>
   <v>       0.01562500 </v>
   <v>       0.01562500 </v>
   <v>       0.01562500 </v>
   <v>       0.01562500 </v>
   <v>       0.01562500 </v>
   <v>       0.01562500 </v>
   <v>       0.01562500 </v>
   <v>       0.01562500 </v>
   <v>       0.01562500 </v>
   <v>       0.01562500 </v>
   <v>       0.01562500 </v>
   <v>       0.00781250 </v>
   <v>       0.00781250 </v>
   <v>       0.01562500 </v>
   <v>       0.01562500 </v>
   <v>       0.01562500 </v>
   <v>       0.01562500 </v>
   <v>       0.01562500 </v>
   <v>       0.01562500 </v>
   <v>       0.01562500 </v>
   <v>       0.01562500 </v>
   <v>       0.01562500 </v>
   <v>       0.00781250 </v>
   <v>       0.00781250 </v>
   <v>       0.01562500 </v>
   <v>       0.01562500 </v>
   <v>       0.01562500 </v>
   <v>       0.01562500 </v>
   <v>       0.01562500 </v>
   <v>       0.01562500 </v>
   <v>       0.01562500 </v>
   <v>       0.00781250 </v>
   <v>       0.00781250 </v>
   <v>       0.01562500 </v>
   <v>       0.01562500 </v>
   <v>       0.01562500 </v>
   <v>       0.01562500 </v>
   <v>       0.01562500 </v>
   <v>       0.00781250 </v>
   <v>       0.00781250 </v>
   <v>       0.01562500 </v>
   <v>       0.01562500 </v>
   <v>       0.01562500 </v>
   <v>       0.00781250 </v>
   <v>       0.00781250 </v>
   <v>       0.01562500 </v>
   <v>       0.00390625 </v>
  </varray>
  <varray name="tetrahedronlist"  type="int" >
   <v type="int" >        2        1        1        2        2 </v>
   <v type="int" >        4        1        1        2       10 </v>
   <v type="int" >        4        1        2       10       10 </v>
   <v type="int" >        4        1        2        2        2 </v>
   <v type="int" >        4        1        2        2       10 </v>
   <v type="int" >        4        2        2        3       11 </v>
   <v type="int" >        4        2        2        2       11 </v>
   <v type="int" >        4        2        3        3       11 </v>
   <v type="int" >        4        2        3       11       11 </v>
   <v type="int" >        2        2        2       11       11 </v>
   <v type="int" >        4        3        3        4       12 </v>
   <v type="int" >        4        3        3       11       12 </v>
   <v type="int" >        4        3       11       11       12 </v>
   <v type="int" >        4        3        4        4       12 </v>
   <v type="int" >        4        3        4       12       12 </v>
   <v type="int" >        4        3       11       12       12 </v>
   <v type="int" >        4        4        4        5       13 </v>
   <v type="int" >        4        4        4       12       13 </v>
   <v type="int" >        4        4       12       12       13 </v>
   <v type="int" >        4        4        5        5       13 </v>
   <v type="int" >        4        4        5       13       13 </v>
   <v type="int" >        4        4       12       13       13 </v>
   <v type="int" >        4        5        5        6       14 </v>
   <v type="int" >        4        5        5       13       14 </v>
   <v type="int" >        4        5       13       13       14 </v>
   <v type="int" >        4        5        6        6       14 </v>
   <v type="int" >        4        5        6       14       14 </v>
   <v type="int" >        4        5       13       14       14 </v>
   <v type="int" >        4        6        6        7       15 </v>
   <v type="int" >        4        6        6       14       15 </v>
   <v type="int" >        4        6       14       14       15 </v>
   <v type="int" >        4        6        7        7       15 </v>
   <v type="int" >        4        6        7       15       15 </v>
   <v type="int" >        4        6       14       15       15 </v>
   <v type="int" >        4        7        7        8       16 </v>
   <v type="int" >        4        7        7       15       16 </v>
   <v type="int" >        4        7       15       15       16 </v>
   <v type="int" >        4        7        8        8       16 </v>
   <v type="int" >        4        7        8       16       16 </v>
   <v type="int" >        4        7       15       16       16 </v>
   <v type="int" >        4        8        8        9       17 </v>
   <v type="int" >        4        8        8       16       17 </v>
   <v type="int" >        4        8       16       16       17 </v>
   <v type="int" >        4        8        9        9       17 </v>
   <v type="int" >        4        8        9       17       17 </v>
   <v type="int" >        4        8       16       17       17 </v>
   <v type="int" >        4        8        9        9       18 </v>
   <v type="int" >        4        9        9       17       18 </v>
   <v type="int" >        4        9       17       17       18 </v>
   <v type="int" >        4        8        8        9       18 </v>
   <v type="int" >        4        8        9       18       18 </v>
   <v type="int" >        4        9       17       18       18 </v>
   <v type="int" >        4        7        8        8       19 </v>
   <v type="int" >        4        8        8       18       19 </v>
   <v type="int" >        4        8       18       18       19 </v>
   <v type="int" >        4        7        7        8       19 </v>
   <v type="int" >        4        7        8       19       19 </v>
   <v type="int" >        4        8       18       19       19 </v>
   <v type="int" >        4        6        7        7       20 </v>
   <v type="int" >        4        7        7       19       20 </v>
   <v type="int" >        4        7       19       19       20 </v>
   <v type="int" >        4        6        6        7       20 </v>
   <v type="int" >        4        6        7       20       20 </v>
   <v type="int" >        4        7       19       20       20 </v>
   <v type="int" >        4        5        6        6       21 </v>
   <v type="int" >        4        6        6       20       21 </v>
   <v type="int" >        4        6       20       20       21 </v>
   <v type="int" >        4        5        5        6       21 </v>
   <v type="int" >        4        5        6       21       21 </v>
   <v type="int" >        4        6       20       21       21 </v>
   <v type="int" >        4        4        5        5       22 </v>
   <v type="int" >        4        5        5       21       22 </v>
   <v type="int" >        4        5       21       21       22 </v>
   <v type="int" >        4        4        4        5       22 </v>
   <v type="int" >        4        4        5       22       22 </v>
   <v type="int" >        4        5       21       22       22 </v>
   <v type="int" >        4        3        4        4       23 </v>
   <v type="int" >        4        4        4       22       23 </v>
   <v type="int" >        4        4       22       22       23 </v>
   <v type="int" >        4        3        3        4       23 </v>
   <v type="int" >        4        3        4       23       23 </v>
   <v type="int" >        4        4       22       23       23 </v>
   <v type="int" >        4        2        3        3       24 </v>
   <v type="int" >        4        3        3       23       24 </v>
   <v type="int" >        4        3       23       23       24 </v>
   <v type="int" >        4        2        2        3       24 </v>
   <v type="int" >        4        2        3       24       24 </v>
   <v type="int" >        4        3       23       24       24 </v>
   <v type="int" >        4        2        2       10       24 </v>
   <v type="int" >        4        2       10       24       24 </v>
   <v type="int" >        4        2       10       10       24 </v>
   <v type="int" >        4       10       10       24       25 </v>
   <v type="int" >        4       10       24       25       25 </v>
   <v type="int" >        4       10       24       24       25 </v>
   <v type="int" >        2       11       11       12       12 </v>
   <v type="int" >        4       11       12       12       12 </v>
   <v type="int" >        4       12       12       13       26 </v>
   <v type="int" >        4       12       12       12       26 </v>
   <v type="int" >        4       12       13       13       26 </v>
   <v type="int" >        4       12       13       26       26 </v>
   <v type="int" >        2       12       12       26       26 </v>
   <v type="int" >        4       13       13       14       27 </v>
   <v type="int" >        4       13       13       26       27 </v>
   <v type="int" >        4       13       26       26       27 </v>
   <v type="int" >        4       13       14       14       27 </v>
   <v type="int" >        4       13       14       27       27 </v>
   <v type="int" >        4       13       26       27       27 </v>
   <v type="int" >        4       14       14       15       28 </v>
   <v type="int" >        4       14       14       27       28 </v>
   <v type="int" >        4       14       27       27       28 </v>
   <v type="int" >        4       14       15       15       28 </v>
   <v type="int" >        4       14       15       28       28 </v>
   <v type="int" >        4       14       27       28       28 </v>
   <v type="int" >        4       15       15       16       29 </v>
   <v type="int" >        4       15       15       28       29 </v>
   <v type="int" >        4       15       28       28       29 </v>
   <v type="int" >        4       15       16       16       29 </v>
   <v type="int" >        4       15       16       29       29 </v>
   <v type="int" >        4       15       28       29       29 </v>
   <v type="int" >        4       16       16       17       30 </v>
   <v type="int" >        4       16       16       29       30 </v>
   <v type="int" >        4       16       29       29       30 </v>
   <v type="int" >        4       16       17       17       30 </v>
   <v type="int" >        4       16       17       30       30 </v>
   <v type="int" >        4       16       29       30       30 </v>
   <v type="int" >        4       17       17       18       31 </v>
   <v type="int" >        4       17       17       30       31 </v>
   <v type="int" >        4       17       30       30       31 </v>
   <v type="int" >        4       17       18       18       31 </v>
   <v type="int" >        4       17       18       31       31 </v>
   <v type="int" >        4       17       30       31       31 </v>
   <v type="int" >        4       18       18       19       32 </v>
   <v type="int" >        4       18       18       31       32 </v>
   <v type="int" >        4       18       31       31       32 </v>
   <v type="int" >        4       18       19       19       32 </v>
   <v type="int" >        4       18       19       32       32 </v>
   <v type="int" >        4       18       31       32       32 </v>
   <v type="int" >        4       19       19       20       33 </v>
   <v type="int" >        4       19       19       32       33 </v>
   <v type="int" >        4       19       32       32       33 </v>
   <v type="int" >        4       19       20       20       33 </v>
   <v type="int" >        4       19       20       33       33 </v>
   <v type="int" >        4       19       32       33       33 </v>
   <v type="int" >        4       20       20       21       34 </v>
   <v type="int" >        4       20       20       33       34 </v>
   <v type="int" >        4       20       33       33       34 </v>
   <v type="int" >        4       20       21       21       34 </v>
   <v type="int" >        4       20       21       34       34 </v>
   <v type="int" >        4       20       33       34       34 </v>
   <v type="int" >        4       21       21       22       35 </v>
   <v type="int" >        4       21       21       34       35 </v>
   <v type="int" >        4       21       34       34       35 </v>
   <v type="int" >        4       21       22       22       35 </v>
   <v type="int" >        4       21       22       35       35 </v>
   <v type="int" >        4       21       34       35       35 </v>
   <v type="int" >        4       22       22       23       36 </v>
   <v type="int" >        4       22       22       35       36 </v>
   <v type="int" >        4       22       35       35       36 </v>
   <v type="int" >        4       22       23       23       36 </v>
   <v type="int" >        4       22       23       36       36 </v>
   <v type="int" >        4       22       35       36       36 </v>
   <v type="int" >        4       23       23       24       37 </v>
   <v type="int" >        4       23       23       36       37 </v>
   <v type="int" >        4       23       36       36       37 </v>
   <v type="int" >        4       23       24       24       37 </v>
   <v type="int" >        4       23       24       37       37 </v>
   <v type="int" >        4       23       36       37       37 </v>
   <v type="int" >        4       24       24       25       37 </v>
   <v type="int" >        4       24       25       37       37 </v>
   <v type="int" >        4       24       25       25       37 </v>
   <v type="int" >        4       25       25       37       38 </v>
   <v type="int" >        4       25       37       38       38 </v>
   <v type="int" >        4       25       37       37       38 </v>
   <v type="int" >        2       26       26       27       27 </v>
   <v type="int" >        4       26       27       27       27 </v>
   <v type="int" >        4       27       27       28       39 </v>
   <v type="int" >        4       27       27       27       39 </v>
   <v type="int" >        4       27       28       28       39 </v>
   <v type="int" >        4       27       28       39       39 </v>
   <v type="int" >        2       27       27       39       39 </v>
   <v type="int" >        4       28       28       29       40 </v>
   <v type="int" >        4       28       28       39       40 </v>
   <v type="int" >        4       28       39       39       40 </v>
   <v type="int" >        4       28       29       29       40 </v>
   <v type="int" >        4       28       29       40       40 </v>
   <v type="int" >        4       28       39       40       40 </v>
   <v type="int" >        4       29       29       30       41 </v>
   <v type="int" >        4       29       29       40       41 </v>
   <v type="int" >        4       29       40       40       41 </v>
   <v type="int" >        4       29       30       30       41 </v>
   <v type="int" >        4       29       30       41       41 </v>
   <v type="int" >        4       29       40       41       41 </v>
   <v type="int" >        4       30       30       31       42 </v>
   <v type="int" >        4       30       30       41       42 </v>
   <v type="int" >        4       30       41       41       42 </v>
   <v type="int" >        4       30       31       31       42 </v>
   <v type="int" >        4       30       31       42       42 </v>
   <v type="int" >        4       30       41       42       42 </v>
   <v type="int" >        4       31       31       32       43 </v>
   <v type="int" >        4       31       31       42       43 </v>
   <v type="int" >        4       31       42       42       43 </v>
   <v type="int" >        4       31       32       32       43 </v>
   <v type="int" >        4       31       32       43       43 </v>
   <v type="int" >        4       31       42       43       43 </v>
   <v type="int" >        4       32       32       33       44 </v>
   <v type="int" >        4       32       32       43       44 </v>
   <v type="int" >        4       32       43       43       44 </v>
   <v type="int" >        4       32       33       33       44 </v>
   <v type="int" >        4       32       33       44       44 </v>
   <v type="int" >        4       32       43       44       44 </v>
   <v type="int" >        4       33       33       34       45 </v>
   <v type="int" >        4       33       33       44       45 </v>
   <v type="int" >        4       33       44       44       45 </v>
   <v type="int" >        4       33       34       34       45 </v>
   <v type="int" >        4       33       34       45       45 </v>
   <v type="int" >        4       33       44       45       45 </v>
   <v type="int" >        4       34       34       35       46 </v>
   <v type="int" >        4       34       34       45       46 </v>
   <v type="int" >        4       34       45       45       46 </v>
   <v type="int" >        4       34       35       35       46 </v>
   <v type="int" >        4       34       35       46       46 </v>
   <v type="int" >        4       34       45       46       46 </v>
   <v type="int" >        4       35       35       36       47 </v>
   <v type="int" >        4       35       35       46       47 </v>
   <v type="int" >        4       35       46       46       47 </v>
   <v type="int" >        4       35       36       36       47 </v>
   <v type="int" >        4       35       36       47       47 </v>
   <v type="int" >        4       35       46       47       47 </v>
   <v type="int" >        4       36       36       37       48 </v>
   <v type="int" >        4       36       36       47       48 </v>
   <v type="int" >        4       36       47       47       48 </v>
   <v type="int" >        4       36       37       37       48 </v>
   <v type="int" >        4       36       37       48       48 </v>
   <v type="int" >        4       36       47       48       48 </v>
   <v type="int" >        4       37       37       38       48 </v>
   <v type="int" >        4       37       38       48       48 </v>
   <v type="int" >        4       37       38       38       48 </v>
   <v type="int" >        4       38       38       48       49 </v>
   <v type="int" >        4       38       48       49       49 </v>
   <v type="int" >        4       38       48       48       49 </v>
   <v type="int" >        2       39       39       40       40 </v>
   <v type="int" >        4       39       40       40       40 </v>
   <v type="int" >        4       40       40       41       50 </v>
   <v type="int" >        4       40       40       40       50 </v>
   <v type="int" >        4       40       41       41       50 </v>
   <v type="int" >        4       40       41       50       50 </v>
   <v type="int" >        2       40       40       50       50 </v>
   <v type="int" >        4       41       41       42       51 </v>
   <v type="int" >        4       41       41       50       51 </v>
   <v type="int" >        4       41       50       50       51 </v>
   <v type="int" >        4       41       42       42       51 </v>
   <v type="int" >        4       41       42       51       51 </v>
   <v type="int" >        4       41       50       51       51 </v>
   <v type="int" >        4       42       42       43       52 </v>
   <v type="int" >        4       42       42       51       52 </v>
   <v type="int" >        4       42       51       51       52 </v>
   <v type="int" >        4       42       43       43       52 </v>
   <v type="int" >        4       42       43       52       52 </v>
   <v type="int" >        4       42       51       52       52 </v>
   <v type="int" >        4       43       43       44       53 </v>
   <v type="int" >        4       43       43       52       53 </v>
   <v type="int" >        4       43       52       52       53 </v>
   <v type="int" >        4       43       44       44       53 </v>
   <v type="int" >        4       43       44       53       53 </v>
   <v type="int" >        4       43       52       53       53 </v>
   <v type="int" >        4       44       44       45       54 </v>
   <v type="int" >        4       44       44       53       54 </v>
   <v type="int" >        4       44       53       53       54 </v>
   <v type="int" >        4       44       45       45       54 </v>
   <v type="int" >        4       44       45       54       54 </v>
   <v type="int" >        4       44       53       54       54 </v>
   <v type="int" >        4       45       45       46       55 </v>
   <v type="int" >        4       45       45       54       55 </v>
   <v type="int" >        4       45       54       54       55 </v>
   <v type="int" >        4       45       46       46       55 </v>
   <v type="int" >        4       45       46       55       55 </v>
   <v type="int" >        4       45       54       55       55 </v>
   <v type="int" >        4       46       46       47       56 </v>
   <v type="int" >        4       46       46       55       56 </v>
   <v type="int" >        4       46       55       55       56 </v>
   <v type="int" >        4       46       47       47       56 </v>
   <v type="int" >        4       46       47       56       56 </v>
   <v type="int" >        4       46       55       56       56 </v>
   <v type="int" >        4       47       47       48       57 </v>
   <v type="int" >        4       47       47       56       57 </v>
   <v type="int" >        4       47       56       56       57 </v>
   <v type="int" >        4       47       48       48       57 </v>
   <v type="int" >        4       47       48       57       57 </v>
   <v type="int" >        4       47       56       57       57 </v>
   <v type="int" >        4       48       48       49       57 </v>
   <v type="int" >        4       48       49       57       57 </v>
   <v type="int" >        4       48       49       49       57 </v>
   <v type="int" >        4       49       49       57       58 </v>
   <v type="int" >        4       49       57       58       58 </v>
   <v type="int" >        4       49       57       57       58 </v>
   <v type="int" >        2       50       50       51       51 </v>
   <v type="int" >        4       50       51       51       51 </v>
   <v type="int" >        4       51       51       52       59 </v>
   <v type="int" >        4       51       51       51       59 </v>
   <v type="int" >        4       51       52       52       59 </v>
   <v type="int" >        4       51       52       59       59 </v>
   <v type="int" >        2       51       51       59       59 </v>
   <v type="int" >        4       52       52       53       60 </v>
   <v type="int" >        4       52       52       59       60 </v>
   <v type="int" >        4       52       59       59       60 </v>
   <v type="int" >        4       52       53       53       60 </v>
   <v type="int" >        4       52       53       60       60 </v>
   <v type="int" >        4       52       59       60       60 </v>
   <v type="int" >        4       53       53       54       61 </v>
   <v type="int" >        4       53       53       60       61 </v>
   <v type="int" >        4       53       60       60       61 </v>
   <v type="int" >        4       53       54       54       61 </v>
   <v type="int" >        4       53       54       61       61 </v>
   <v type="int" >        4       53       60       61       61 </v>
   <v type="int" >        4       54       54       55       62 </v>
   <v type="int" >        4       54       54       61       62 </v>
   <v type="int" >        4       54       61       61       62 </v>
   <v type="int" >        4       54       55       55       62 </v>
   <v type="int" >        4       54       55       62       62 </v>
   <v type="int" >        4       54       61       62       62 </v>
   <v type="int" >        4       55       55       56       63 </v>
   <v type="int" >        4       55       55       62       63 </v>
   <v type="int" >        4       55       62       62       63 </v>
   <v type="int" >        4       55       56       56       63 </v>
   <v type="int" >        4       55       56       63       63 </v>
   <v type="int" >        4       55       62       63       63 </v>
   <v type="int" >        4       56       56       57       64 </v>
   <v type="int" >        4       56       56       63       64 </v>
   <v type="int" >        4       56       63       63       64 </v>
   <v type="int" >        4       56       57       57       64 </v>
   <v type="int" >        4       56       57       64       64 </v>
   <v type="int" >        4       56       63       64       64 </v>
   <v type="int" >        4       57       57       58       64 </v>
   <v type="int" >        4       57       58       64       64 </v>
   <v type="int" >        4       57       58       58       64 </v>
   <v type="int" >        4       58       58       64       65 </v>
   <v type="int" >        4       58       64       65       65 </v>
   <v type="int" >        4       58       64       64       65 </v>
   <v type="int" >        2       59       59       60       60 </v>
   <v type="int" >        4       59       60       60       60 </v>
   <v type="int" >        4       60       60       61       66 </v>
   <v type="int" >        4       60       60       60       66 </v>
   <v type="int" >        4       60       61       61       66 </v>
   <v type="int" >        4       60       61       66       66 </v>
   <v type="int" >        2       60       60       66       66 </v>
   <v type="int" >        4       61       61       62       67 </v>
   <v type="int" >        4       61       61       66       67 </v>
   <v type="int" >        4       61       66       66       67 </v>
   <v type="int" >        4       61       62       62       67 </v>
   <v type="int" >        4       61       62       67       67 </v>
   <v type="int" >        4       61       66       67       67 </v>
   <v type="int" >        4       62       62       63       68 </v>
   <v type="int" >        4       62       62       67       68 </v>
   <v type="int" >        4       62       67       67       68 </v>
   <v type="int" >        4       62       63       63       68 </v>
   <v type="int" >        4       62       63       68       68 </v>
   <v type="int" >        4       62       67       68       68 </v>
   <v type="int" >        4       63       63       64       69 </v>
   <v type="int" >        4       63       63       68       69 </v>
   <v type="int" >        4       63       68       68       69 </v>
   <v type="int" >        4       63       64       64       69 </v>
   <v type="int" >        4       63       64       69       69 </v>
   <v type="int" >        4       63       68       69       69 </v>
   <v type="int" >        4       64       64       65       69 </v>
   <v type="int" >        4       64       65       69       69 </v>
   <v type="int" >        4       64       65       65       69 </v>
   <v type="int" >        4       65       65       69       70 </v>
   <v type="int" >        4       65       69       70       70 </v>
   <v type="int" >        4       65       69       69       70 </v>
   <v type="int" >        2       66       66       67       67 </v>
   <v type="int" >        4       66       67       67       67 </v>
   <v type="int" >        4       67       67       68       71 </v>
   <v type="int" >        4       67       67       67       71 </v>
   <v type="int" >        4       67       68       68       71 </v>
   <v type="int" >        4       67       68       71       71 </v>
   <v type="int" >        2       67       67       71       71 </v>
   <v type="int" >        4       68       68       69       72 </v>
   <v type="int" >        4       68       68       71       72 </v>
   <v type="int" >        4       68       71       71       72 </v>
   <v type="int" >        4       68       69       69       72 </v>
   <v type="int" >        4       68       69       72       72 </v>
   <v type="int" >        4       68       71       72       72 </v>
   <v type="int" >        4       69       69       70       72 </v>
   <v type="int" >        4       69       70       72       72 </v>
   <v type="int" >        4       69       70       70       72 </v>
   <v type="int" >        4       70       70       72       73 </v>
   <v type="int" >        4       70       72       73       73 </v>
   <v type="int" >        4       70       72       72       73 </v>
   <v type="int" >        2       71       71       72       72 </v>
   <v type="int" >        4       71       72       72       72 </v>
   <v type="int" >        4       72       72       72       73 </v>
   <v type="int" >        2       72       72       73       73 </v>
  </varray>
  <i name="volumeweight">      0.00065104 </i>
 </kpoints>
 <parameters>
  <separator name="general" >
   <i type="string" name="SYSTEM">BC3 bandstructure</i>
   <i type="logical" name="LCOMPAT"> F  </i>
  </separator>
  <separator name="electronic" >
   <i type="string" name="PREC">accura</i>
   <i name="ENMAX">    450.00000000</i>
   <i name="ENAUG">    644.87300000</i>
   <i name="EDIFF">      0.00000100</i>
   <i type="int" name="IALGO">    38</i>
   <i type="int" name="IWAVPR">    11</i>
   <i type="int" name="NBANDS">    24</i>
   <i name="NELECT">     30.00000000</i>
   <i type="int" name="TURBO">     0</i>
   <i type="int" name="IRESTART">     0</i>
   <i type="int" name="NREBOOT">     0</i>
   <i type="int" name="NMIN">     0</i>
   <i name="EREF">      0.00000000</i>
   <separator name="electronic smearing" >
    <i type="int" name="ISMEAR">    -5</i>
    <i name="SIGMA">      0.20000000</i>
    <i name="KSPACING">      0.50000000</i>
    <i type="logical" name="KGAMMA"> T  </i>
   </separator>
   <separator name="electronic projectors" >
    <i type="logical" name="LREAL"> F  </i>
    <v name="ROPT">      0.00000000      0.00000000</v>
    <i type="int" name="LMAXPAW">  -100</i>
    <i type="int" name="LMAXMIX">     2</i>
    <i type="logical" name="NLSPLINE"> F  </i>
   </separator>
   <separator name="electronic startup" >
    <i type="int" name="ISTART">     0</i>
    <i type="int" name="ICHARG">    11</i>
    <i type="int" name="INIWAV">     1</i>
   </separator>
   <separator name="electronic spin" >
    <i type="int" name="ISPIN">     1</i>
    <i type="logical" name="LNONCOLLINEAR"> F  </i>
    <v name="MAGMOM">      1.00000000      1.00000000      1.00000000      1.00000000      1.00000000      1.00000000      1.00000000      1.00000000</v>
    <i name="NUPDOWN">     -1.00000000</i>
    <i type="logical" name="LSORBIT"> F  </i>
    <v name="SAXIS">      0.00000000      0.00000000      1.00000000</v>
    <i type="logical" name="LSPIRAL"> F  </i>
    <v name="QSPIRAL">      0.00000000      0.00000000      0.00000000</v>
    <i type="logical" name="LZEROZ"> F  </i>
   </separator>
   <separator name="electronic exchange-correlation" >
    <i type="logical" name="LASPH"> F  </i>
    <i type="logical" name="LMETAGGA"> F  </i>
   </separator>
   <separator name="electronic convergence" >
    <i type="int" name="NELM">    60</i>
    <i type="int" name="NELMDL">    -5</i>
    <i type="int" name="NELMIN">     2</i>
    <i name="ENINI">    450.00000000</i>
    <separator name="electronic convergence detail" >
     <i type="logical" name="LDIAG"> T  </i>
     <i type="logical" name="LSUBROT"> F  </i>
     <i name="WEIMIN">      0.00100000</i>
     <i name="EBREAK">      0.00000000</i>
     <i name="DEPER">      0.30000000</i>
     <i type="int" name="NRMM">     4</i>
     <i name="TIME">      0.40000000</i>
    </separator>
   </separator>
   <separator name="electronic mixer" >
    <i name="AMIX">      0.40000000</i>
    <i name="BMIX">      1.00000000</i>
    <i name="AMIN">      0.10000000</i>
    <i name="AMIX_MAG">      1.60000000</i>
    <i name="BMIX_MAG">      1.00000000</i>
    <separator name="electronic mixer details" >
     <i type="int" name="IMIX">     4</i>
     <i type="logical" name="MIXFIRST"> F  </i>
     <i type="int" name="MAXMIX">   -45</i>
     <i name="WC">    100.00000000</i>
     <i type="int" name="INIMIX">     1</i>
     <i type="int" name="MIXPRE">     1</i>
     <i type="int" name="MREMOVE">     5</i>
    </separator>
   </separator>
   <separator name="electronic dipolcorrection" >
    <i type="logical" name="LDIPOL"> F  </i>
    <i type="logical" name="LMONO"> F  </i>
    <i type="int" name="IDIPOL">     0</i>
    <i name="EPSILON">      1.00000000</i>
    <v name="DIPOL">   -100.00000000   -100.00000000   -100.00000000</v>
    <i name="EFIELD">      0.00000000</i>
   </separator>
  </separator>
  <separator name="grids" >
   <i type="int" name="NGX">    36</i>
   <i type="int" name="NGY">    36</i>
   <i type="int" name="NGZ">   140</i>
   <i type="int" name="NGXF">    72</i>
   <i type="int" name="NGYF">    72</i>
   <i type="int" name="NGZF">   280</i>
   <i type="logical" name="ADDGRID"> F  </i>
  </separator>
  <separator name="ionic" >
   <i type="int" name="NSW">    40</i>
   <i type="int" name="IBRION">     2</i>
   <i type="int" name="MDALGO">     0</i>
   <i type="int" name="ISIF">     2</i>
   <i name="PSTRESS">      0.00000000</i>
   <i name="EDIFFG">     -0.00000100</i>
   <i type="int" name="NFREE">     1</i>
   <i name="POTIM">      0.50000000</i>
   <i name="SMASS">     -3.00000000</i>
   <i name="SCALEE">      1.00000000</i>
  </separator>
  <separator name="ionic md" >
   <i name="TEBEG">      0.00010000</i>
   <i name="TEEND">      0.00010000</i>
   <i type="int" name="NBLOCK">     1</i>
   <i type="int" name="KBLOCK">    40</i>
   <i type="int" name="NPACO">   256</i>
   <i name="APACO">     16.00000000</i>
  </separator>
  <separator name="symmetry" >
   <i type="int" name="ISYM">     2</i>
   <i name="SYMPREC">      0.00001000</i>
  </separator>
  <separator name="dos" >
   <i type="int" name="LORBIT">    11</i>
   <v name="RWIGS">     -1.00000000     -1.00000000</v>
   <i type="int" name="NEDOS">   301</i>
   <i name="EMIN">     10.00000000</i>
   <i name="EMAX">    -10.00000000</i>
   <i name="EFERMI">      0.00000000</i>
  </separator>
  <separator name="writing" >
   <i type="int" name="NWRITE">     2</i>
   <i type="logical" name="LWAVE"> T  </i>
   <i type="logical" name="LDOWNSAMPLE"> F  </i>
   <i type="logical" name="LCHARG"> T  </i>
   <i type="logical" name="LPARD"> F  </i>
   <i type="logical" name="LVTOT"> F  </i>
   <i type="logical" name="LVHAR"> F  </i>
   <i type="logical" name="LELF"> F  </i>
   <i type="logical" name="LOPTICS"> F  </i>
   <v name="STM">      0.00000000      0.00000000      0.00000000      0.00000000      0.00000000      0.00000000      0.00000000</v>
  </separator>
  <separator name="performance" >
   <i type="int" name="NPAR">    12</i>
   <i type="int" name="NSIM">     4</i>
   <i type="int" name="NBLK">    -1</i>
   <i type="logical" name="LPLANE"> T  </i>
   <i type="logical" name="LSCALAPACK"> T  </i>
   <i type="logical" name="LSCAAWARE"> F  </i>
   <i type="logical" name="LSCALU"> F  </i>
   <i type="logical" name="LASYNC"> F  </i>
   <i type="logical" name="LORBITALREAL"> F  </i>
  </separator>
  <separator name="miscellaneous" >
   <i type="int" name="IDIOT">     3</i>
   <i type="int" name="ISPECIAL">     0</i>
   <i type="logical" name="LMUSIC"> F  </i>
   <v name="POMASS">     10.81100000     12.01100000</v>
   <v name="DARWINR">      0.00000000      0.00000000</v>
   <v name="DARWINV">      1.00000000      1.00000000</v>
   <i type="logical" name="LCORR"> T  </i>
  </separator>
  <i type="logical" name="GGA_COMPAT"> T  </i>
  <i type="logical" name="LBERRY"> F  </i>
  <i type="int" name="ICORELEVEL">     0</i>
  <i type="logical" name="LDAU"> F  </i>
  <i type="int" name="I_CONSTRAINED_M">     0</i>
  <separator name="electronic exchange-correlation" >
   <i type="string" name="GGA">--</i>
   <i type="int" name="VOSKOWN">     0</i>
   <i type="logical" name="LHFCALC"> F  </i>
   <i type="string" name="PRECFOCK"></i>
   <i type="logical" name="LSYMGRAD"> F  </i>
   <i type="logical" name="LHFONE"> F  </i>
   <i type="logical" name="LRHFCALC"> F  </i>
   <i type="logical" name="LTHOMAS"> F  </i>
   <i type="logical" name="LMODELHF"> F  </i>
   <i name="ENCUT4O">     -1.00000000</i>
   <i type="int" name="EXXOEP">     0</i>
   <i type="int" name="FOURORBIT">     0</i>
   <i name="AEXX">      0.00000000</i>
   <i name="HFALPHA">      0.00000000</i>
   <i name="MCALPHA">      0.00000000</i>
   <i name="ALDAX">      1.00000000</i>
   <i name="AGGAX">      1.00000000</i>
   <i name="ALDAC">      1.00000000</i>
   <i name="AGGAC">      1.00000000</i>
   <i type="int" name="NKREDX">     1</i>
   <i type="int" name="NKREDY">     1</i>
   <i type="int" name="NKREDZ">     1</i>
   <i type="logical" name="SHIFTRED"> F  </i>
   <i type="logical" name="ODDONLY"> F  </i>
   <i type="logical" name="EVENONLY"> F  </i>
   <i type="int" name="LMAXFOCK">     0</i>
   <i type="int" name="NMAXFOCKAE">     0</i>
   <i type="logical" name="LFOCKAEDFT"> F  </i>
   <i name="HFSCREEN">      0.00000000</i>
   <i name="HFSCREENC">      0.00000000</i>
   <i type="int" name="NBANDSGWLOW">     0</i>
  </separator>
  <separator name="vdW DFT" >
   <i type="logical" name="LUSE_VDW"> F  </i>
   <i name="Zab_VDW">     -0.84910000</i>
   <i name="PARAM1">      0.12340000</i>
   <i name="PARAM2">      1.00000000</i>
   <i name="PARAM3">      0.00000000</i>
  </separator>
  <separator name="model GW" >
   <i type="int" name="MODEL_GW">     0</i>
   <i name="MODEL_EPS0">     34.77704100</i>
   <i name="MODEL_ALPHA">      1.00000000</i>
  </separator>
  <separator name="linear response parameters" >
   <i type="logical" name="LEPSILON"> F  </i>
   <i type="logical" name="LRPA"> F  </i>
   <i type="logical" name="LNABLA"> F  </i>
   <i type="logical" name="LVEL"> F  </i>
   <i type="int" name="KINTER">     0</i>
   <i name="CSHIFT">      0.10000000</i>
   <i name="OMEGAMAX">     -1.00000000</i>
   <i name="DEG_THRESHOLD">      0.00200000</i>
   <i name="RTIME">     -0.10000000</i>
   <i name="WPLASMAI">      0.00000000</i>
   <v name="DFIELD">      0.00000000      0.00000000      0.00000000</v>
   <v name="WPLASMA">      0.00000000      0.00000000      0.00000000      0.00000000      0.00000000      0.00000000      0.00000000      0.00000000      0.00000000</v>
  </separator>
  <separator name="orbital magnetization" >
   <i type="logical" name="NUCIND"> F  </i>
   <v name="MAGPOS">      0.00000000      0.00000000      0.00000000</v>
   <i type="logical" name="LNICSALL"> T  </i>
   <i type="logical" name="ORBITALMAG"> F  </i>
   <i type="logical" name="LMAGBLOCH"> F  </i>
   <i type="logical" name="LCHIMAG"> F  </i>
   <i type="logical" name="LGAUGE"> T  </i>
   <i type="int" name="MAGATOM">     0</i>
   <v name="MAGDIPOL">      0.00000000      0.00000000      0.00000000</v>
   <v name="AVECCONST">      0.00000000      0.00000000      0.00000000</v>
  </separator>
  <separator name="response functions" >
   <i type="logical" name="LADDER"> F  </i>
   <i type="logical" name="LRPAFORCE"> F  </i>
   <i type="logical" name="LFXC"> F  </i>
   <i type="logical" name="LHARTREE"> T  </i>
   <i type="int" name="IBSE">     0</i>
   <v type="int" name="KPOINT">    -1     0     0     0</v>
   <i type="logical" name="LTCTE"> F  </i>
   <i type="logical" name="LTETE"> F  </i>
   <i type="logical" name="LTRIPLET"> F  </i>
   <i type="logical" name="LFXCEPS"> F  </i>
   <i type="logical" name="LFXHEG"> F  </i>
   <i type="int" name="NATURALO">     2</i>
   <i type="logical" name="L2ORDER"> F  </i>
   <i type="logical" name="LMP2LT"> F  </i>
   <i type="logical" name="LUSEW"> F  </i>
   <i name="ENCUTGW">     -2.00000000</i>
   <i name="ENCUTGWSOFT">     -2.00000000</i>
   <i name="ENCUTLF">     -1.00000000</i>
   <i type="int" name="LMAXMP2">    -1</i>
   <i name="SCISSOR">      0.00000000</i>
   <i type="int" name="NOMEGA">     0</i>
   <i type="int" name="NOMEGAR">     0</i>
   <i type="int" name="NBANDSGW">    -1</i>
   <i type="int" name="NBANDSO">    -1</i>
   <i type="int" name="NBANDSV">    -1</i>
   <i type="int" name="NELM">     1</i>
   <i type="int" name="NELMHF">     1</i>
   <i type="int" name="DIM">     3</i>
   <i type="int" name="ANTIRES">     0</i>
   <i name="OMEGAMAX">    -30.00000000</i>
   <i name="OMEGAMIN">    -30.00000000</i>
   <i name="OMEGATL">   -200.00000000</i>
   <i type="int" name="OMEGAGRID">   140</i>
   <i name="CSHIFT">     -0.10000000</i>
   <i type="logical" name="SELFENERGY"> F  </i>
   <i type="logical" name="LSPECTRAL"> F  </i>
   <i type="logical" name="LSPECTRALGW"> F  </i>
   <i type="logical" name="LSINGLES"> F  </i>
   <i type="logical" name="LFERMIGW"> F  </i>
   <i type="logical" name="ODDONLYGW"> F  </i>
   <i type="logical" name="EVENONLYGW"> F  </i>
   <i type="int" name="NKREDLFX">     1</i>
   <i type="int" name="NKREDLFY">     1</i>
   <i type="int" name="NKREDLFZ">     1</i>
   <i type="int" name="MAXMEM">  2800</i>
   <i type="int" name="TELESCOPE">     0</i>
   <i type="int" name="TAUPAR">     1</i>
   <i type="int" name="OMEGAPAR">    -1</i>
   <i name="LAMBDA">      1.00000000</i>
  </separator>
  <separator name="External order field" >
   <i name="OFIELD_KAPPA">      0.00000000</i>
   <v name="OFIELD_K">      0.00000000      0.00000000      0.00000000</v>
   <i name="OFIELD_Q6_NEAR">      0.00000000</i>
   <i name="OFIELD_Q6_FAR">      0.00000000</i>
   <i name="OFIELD_A">      0.00000000</i>
  </separator>
 </parameters>
 <atominfo>
  <atoms>       8 </atoms>
  <types>       2 </types>
  <array name="atoms" >
   <dimension dim="1">ion</dimension>
   <field type="string">element</field>
   <field type="int">atomtype</field>
   <set>
    <rc><c>B </c><c>   1</c></rc>
    <rc><c>B </c><c>   1</c></rc>
    <rc><c>C </c><c>   2</c></rc>
    <rc><c>C </c><c>   2</c></rc>
    <rc><c>C </c><c>   2</c></rc>
    <rc><c>C </c><c>   2</c></rc>
    <rc><c>C </c><c>   2</c></rc>
    <rc><c>C </c><c>   2</c></rc>
   </set>
  </array>
  <array name="atomtypes" >
   <dimension dim="1">type</dimension>
   <field type="int">atomspertype</field>
   <field type="string">element</field>
   <field>mass</field>
   <field>valence</field>
   <field type="string">pseudopotential</field>
   <set>
    <rc><c>   2</c><c>B </c><c>     10.81100000</c><c>      3.00000000</c><c>  PAW_PBE B 06Sep2000                   </c></rc>
    <rc><c>   6</c><c>C </c><c>     12.01100000</c><c>      4.00000000</c><c>  PAW_PBE C 08Apr2002                   </c></rc>
   </set>
  </array>
 </atominfo>
 <structure name="initialpos" >
  <crystal>
   <varray name="basis" >
    <v>       5.17400000       0.00000000       0.00000000 </v>
    <v>       2.58700000       4.48100000       0.00000000 </v>
    <v>       0.00000000       0.00000000      20.00000000 </v>
   </varray>
   <i name="volume">    463.69388000 </i>
   <varray name="rec_basis" >
    <v>       0.19327406      -0.11158224       0.00000000 </v>
    <v>       0.00000000       0.22316447       0.00000000 </v>
    <v>       0.00000000       0.00000000       0.05000000 </v>
   </varray>
  </crystal>
  <varray name="positions" >
   <v>       0.17457326       0.17462620       0.00000000 </v>
   <v>       0.50792519       0.50792234       0.00000000 </v>
   <v>       0.00000000       0.00000000       0.00000000 </v>
   <v>       0.52377271       0.00000000       0.00000000 </v>
   <v>       0.68255138       0.15866994       0.00000000 </v>
   <v>       0.99994706       0.52387860       0.00000000 </v>
   <v>       0.15872573       0.68254854       0.00000000 </v>
   <v>       0.68249844       0.68254854       0.00000000 </v>
  </varray>
 </structure>
 <calculation>
  <scstep>
   <time name="dav">   11.16   11.17</time>
   <time name="total">   11.33   11.34</time>
   <energy>
    <i name="alphaZ">     10.93933817 </i>
    <i name="ewald">   4060.05404224 </i>
    <i name="hartreedc">  -4938.58461270 </i>
    <i name="XCdc">     96.01982328 </i>
    <i name="pawpsdc">   2894.03382187 </i>
    <i name="pawaedc">  -2896.56098873 </i>
    <i name="eentropy">      0.00000000 </i>
    <i name="bandstr">    -79.39434323 </i>
    <i name="atom">   1025.20389953 </i>
    <i name="e_fr_energy">    171.71098043 </i>
    <i name="e_wo_entrp">    171.71098043 </i>
    <i name="e_0_energy">    171.71098043 </i>
   </energy>
  </scstep>
  <scstep>
   <time name="dav">   17.28   17.31</time>
   <time name="total">   17.30   17.32</time>
   <energy>
    <i name="e_fr_energy">    -37.32907121 </i>
    <i name="e_wo_entrp">    -37.32907121 </i>
    <i name="e_0_energy">    -37.32907121 </i>
   </energy>
  </scstep>
  <scstep>
   <time name="dav">   12.44   12.46</time>
   <time name="total">   12.45   12.46</time>
   <energy>
    <i name="e_fr_energy">    -66.49978184 </i>
    <i name="e_wo_entrp">    -66.49978184 </i>
    <i name="e_0_energy">    -66.49978184 </i>
   </energy>
  </scstep>
  <scstep>
   <time name="dav">   13.23   13.24</time>
   <time name="total">   13.23   13.24</time>
   <energy>
    <i name="e_fr_energy">    -67.21202984 </i>
    <i name="e_wo_entrp">    -67.21202984 </i>
    <i name="e_0_energy">    -67.21202984 </i>
   </energy>
  </scstep>
  <scstep>
   <time name="dav">   13.15   13.17</time>
   <time name="total">   13.16   13.17</time>
   <energy>
    <i name="e_fr_energy">    -67.22986420 </i>
    <i name="e_wo_entrp">    -67.22986420 </i>
    <i name="e_0_energy">    -67.22986420 </i>
   </energy>
  </scstep>
  <scstep>
   <time name="dav">   14.02   14.03</time>
   <time name="total">   14.02   14.04</time>
   <energy>
    <i name="e_fr_energy">    -67.23061412 </i>
    <i name="e_wo_entrp">    -67.23061412 </i>
    <i name="e_0_energy">    -67.23061412 </i>
   </energy>
  </scstep>
  <scstep>
   <time name="dav">   13.91   13.93</time>
   <time name="total">   13.92   13.93</time>
   <energy>
    <i name="e_fr_energy">    -67.23063636 </i>
    <i name="e_wo_entrp">    -67.23063636 </i>
    <i name="e_0_energy">    -67.23063636 </i>
   </energy>
  </scstep>
  <scstep>
   <time name="dav">   15.32   15.34</time>
   <time name="total">   15.33   15.35</time>
   <energy>
    <i name="alphaZ">     10.93933817 </i>
    <i name="ewald">   4060.05404224 </i>
    <i name="hartreedc">  -4938.58461270 </i>
    <i name="XCdc">     96.01982328 </i>
    <i name="pawpsdc">   2894.03382187 </i>
    <i name="pawaedc">  -2896.56098873 </i>
    <i name="eentropy">      0.00000000 </i>
    <i name="bandstr">   -318.33596087 </i>
    <i name="atom">   1025.20389953 </i>
    <i name="e_fr_energy">    -67.23063721 </i>
    <i name="e_wo_entrp">    -67.23063721 </i>
    <i name="e_0_energy">    -67.23063721 </i>
   </energy>
  </scstep>
  <structure>
   <crystal>
    <varray name="basis" >
     <v>       5.17400000       0.00000000       0.00000000 </v>
     <v>       2.58700000       4.48100000       0.00000000 </v>
     <v>       0.00000000       0.00000000      20.00000000 </v>
    </varray>
    <i name="volume">    463.69388000 </i>
    <varray name="rec_basis" >
     <v>       0.19327406      -0.11158224       0.00000000 </v>
     <v>       0.00000000       0.22316447       0.00000000 </v>
     <v>       0.00000000       0.00000000       0.05000000 </v>
    </varray>
   </crystal>
   <varray name="positions" >
    <v>       0.17457326       0.17462620       0.00000000 </v>
    <v>       0.50792519       0.50792234       0.00000000 </v>
    <v>       0.00000000       0.00000000       0.00000000 </v>
    <v>       0.52377271       0.00000000       0.00000000 </v>
    <v>       0.68255138       0.15866994       0.00000000 </v>
    <v>       0.99994706       0.52387860       0.00000000 </v>
    <v>       0.15872573       0.68254854       0.00000000 </v>
    <v>       0.68249844       0.68254854       0.00000000 </v>
   </varray>
  </structure>
  <varray name="forces" >
   <v>       0.00000000       0.00356711       0.00000000 </v>
   <v>       0.00000000      -0.00356711       0.00000000 </v>
   <v>      -0.01271315      -0.00897521       0.00000000 </v>
   <v>       0.01271315      -0.00897521       0.00000000 </v>
   <v>       0.00000000      -0.00357455       0.00000000 </v>
   <v>       0.00000000       0.00357455       0.00000000 </v>
   <v>      -0.01271315       0.00897521       0.00000000 </v>
   <v>       0.01271315       0.00897521       0.00000000 </v>
  </varray>
  <varray name="stress" >
   <v>      -0.32342026      -0.00000000       0.00000000 </v>
   <v>      -0.00000000      -0.35765978       0.00000000 </v>
   <v>       0.00000000       0.00000000      -0.70820231 </v>
  </varray>
  <energy>
   <i name="e_fr_energy">    -67.23063721 </i>
   <i name="e_wo_entrp">    -67.23063721 </i>
   <i name="e_0_energy">      0.00000000 </i>
  </energy>
  <time name="totalsc">  123.76  124.11</time>
 </calculation>
 <calculation>
  <scstep>
   <time name="dav">   11.87   11.88</time>
   <time name="total">   12.02   12.03</time>
   <energy>
    <i name="alphaZ">     10.93933817 </i>
    <i name="ewald">   4060.23844549 </i>
    <i name="hartreedc">  -4938.71588878 </i>
    <i name="XCdc">     96.02273899 </i>
    <i name="pawpsdc">   2894.03382187 </i>
    <i name="pawaedc">  -2896.56098873 </i>
    <i name="eentropy">      0.00000000 </i>
    <i name="bandstr">   -318.39198518 </i>
    <i name="atom">   1025.20389953 </i>
    <i name="e_fr_energy">    -67.23061865 </i>
    <i name="e_wo_entrp">    -67.23061865 </i>
    <i name="e_0_energy">    -67.23061865 </i>
   </energy>
  </scstep>
  <scstep>
   <time name="dav">   14.50   14.51</time>
   <time name="total">   14.50   14.52</time>
   <energy>
    <i name="e_fr_energy">    -67.23062924 </i>
    <i name="e_wo_entrp">    -67.23062924 </i>
    <i name="e_0_energy">    -67.23062924 </i>
   </energy>
  </scstep>
  <scstep>
   <time name="dav">   14.40   14.41</time>
   <time name="total">   14.40   14.42</time>
   <energy>
    <i name="alphaZ">     10.93933817 </i>
    <i name="ewald">   4060.23844549 </i>
    <i name="hartreedc">  -4938.71588878 </i>
    <i name="XCdc">     96.02273899 </i>
    <i name="pawpsdc">   2894.03382187 </i>
    <i name="pawaedc">  -2896.56098873 </i>
    <i name="eentropy">      0.00000000 </i>
    <i name="bandstr">   -318.39199592 </i>
    <i name="atom">   1025.20389953 </i>
    <i name="e_fr_energy">    -67.23062938 </i>
    <i name="e_wo_entrp">    -67.23062938 </i>
    <i name="e_0_energy">    -67.23062938 </i>
   </energy>
  </scstep>
  <structure>
   <crystal>
    <varray name="basis" >
     <v>       5.17400000       0.00000000       0.00000000 </v>
     <v>       2.58700000       4.48100000       0.00000000 </v>
     <v>       0.00000000       0.00000000      20.00000000 </v>
    </varray>
    <i name="volume">    463.69388000 </i>
    <varray name="rec_basis" >
     <v>       0.19327406      -0.11158224       0.00000000 </v>
     <v>       0.00000000       0.22316447       0.00000000 </v>
     <v>       0.00000000       0.00000000       0.05000000 </v>
    </varray>
   </crystal>
   <varray name="positions" >
    <v>       0.17455405       0.17466460       0.00000000 </v>
    <v>       0.50794439       0.50788394       0.00000000 </v>
    <v>      -0.00007022      -0.00009663       0.00000000 </v>
    <v>       0.52393956      -0.00009663       0.00000000 </v>
    <v>       0.68257063       0.15863146       0.00000000 </v>
    <v>       0.99992781       0.52391708       0.00000000 </v>
    <v>       0.15855888       0.68264517       0.00000000 </v>
    <v>       0.68256866       0.68264517       0.00000000 </v>
   </varray>
  </structure>
  <varray name="forces" >
   <v>       0.00000000      -0.01435628       0.00000000 </v>
   <v>      -0.00000000       0.01435628       0.00000000 </v>
   <v>       0.01036929       0.02067891       0.00000000 </v>
   <v>      -0.01036929       0.02067891      -0.00000000 </v>
   <v>       0.00000000      -0.00359305      -0.00000000 </v>
   <v>       0.00000000       0.00359305       0.00000000 </v>
   <v>       0.01036929      -0.02067891       0.00000000 </v>
   <v>      -0.01036929      -0.02067891       0.00000000 </v>
  </varray>
  <varray name="stress" >
   <v>      -0.13994980       0.00000000       0.00000000 </v>
   <v>       0.00000000      -0.14624971       0.00000000 </v>
   <v>       0.00000000       0.00000000      -0.51373903 </v>
  </varray>
  <energy>
   <i name="e_fr_energy">    -67.23062938 </i>
   <i name="e_wo_entrp">    -67.23062938 </i>
   <i name="e_0_energy">      0.00000000 </i>
  </energy>
  <time name="totalsc">   52.27   52.39</time>
 </calculation>
 <calculation>
  <scstep>
   <time name="dav">   11.58   11.59</time>
   <time name="total">   11.73   11.74</time>
   <energy>
    <i name="alphaZ">     10.93933817 </i>
    <i name="ewald">   4060.13339485 </i>
    <i name="hartreedc">  -4938.64112994 </i>
    <i name="XCdc">     96.02107849 </i>
    <i name="pawpsdc">   2894.03382187 </i>
    <i name="pawaedc">  -2896.56098873 </i>
    <i name="eentropy">      0.00000000 </i>
    <i name="bandstr">   -318.36005877 </i>
    <i name="atom">   1025.20389953 </i>
    <i name="e_fr_energy">    -67.23064454 </i>
    <i name="e_wo_entrp">    -67.23064454 </i>
    <i name="e_0_energy">    -67.23064454 </i>
   </energy>
  </scstep>
  <scstep>
   <time name="dav">   14.35   14.37</time>
   <time name="total">   14.36   14.37</time>
   <energy>
    <i name="e_fr_energy">    -67.23064796 </i>
    <i name="e_wo_entrp">    -67.23064796 </i>
    <i name="e_0_energy">    -67.23064796 </i>
   </energy>
  </scstep>
  <scstep>
   <time name="dav">   13.26   13.28</time>
   <time name="total">   13.27   13.28</time>
   <energy>
    <i name="alphaZ">     10.93933817 </i>
    <i name="ewald">   4060.13339485 </i>
    <i name="hartreedc">  -4938.64112994 </i>
    <i name="XCdc">     96.02107849 </i>
    <i name="pawpsdc">   2894.03382187 </i>
    <i name="pawaedc">  -2896.56098873 </i>
    <i name="eentropy">      0.00000000 </i>
    <i name="bandstr">   -318.36006224 </i>
    <i name="atom">   1025.20389953 </i>
    <i name="e_fr_energy">    -67.23064801 </i>
    <i name="e_wo_entrp">    -67.23064801 </i>
    <i name="e_0_energy">    -67.23064801 </i>
   </energy>
  </scstep>
  <structure>
   <crystal>
    <varray name="basis" >
     <v>       5.17400000       0.00000000       0.00000000 </v>
     <v>       2.58700000       4.48100000       0.00000000 </v>
     <v>       0.00000000       0.00000000      20.00000000 </v>
    </varray>
    <i name="volume">    463.69388000 </i>
    <varray name="rec_basis" >
     <v>       0.19327406      -0.11158224       0.00000000 </v>
     <v>       0.00000000       0.22316447       0.00000000 </v>
     <v>       0.00000000       0.00000000       0.05000000 </v>
    </varray>
   </crystal>
   <varray name="positions" >
    <v>       0.17456498       0.17464275       0.00000000 </v>
    <v>       0.50793346       0.50790579       0.00000000 </v>
    <v>      -0.00003026      -0.00004164       0.00000000 </v>
    <v>       0.52384462      -0.00004164       0.00000000 </v>
    <v>       0.68255968       0.15865335       0.00000000 </v>
    <v>       0.99993876       0.52389518       0.00000000 </v>
    <v>       0.15865382       0.68259018       0.00000000 </v>
    <v>       0.68252870       0.68259018       0.00000000 </v>
   </varray>
  </structure>
  <varray name="forces" >
   <v>      -0.00000000      -0.00415964      -0.00000000 </v>
   <v>       0.00000000       0.00415964      -0.00000000 </v>
   <v>      -0.00277964       0.00379386      -0.00000000 </v>
   <v>       0.00277964       0.00379386      -0.00000000 </v>
   <v>       0.00000000      -0.00357265       0.00000000 </v>
   <v>       0.00000000       0.00357265      -0.00000000 </v>
   <v>      -0.00277964      -0.00379386       0.00000000 </v>
   <v>       0.00277964      -0.00379386       0.00000000 </v>
  </varray>
  <varray name="stress" >
   <v>      -0.24446490      -0.00000000       0.00000000 </v>
   <v>      -0.00000000      -0.26684196       0.00000000 </v>
   <v>       0.00000000       0.00000000      -0.62383471 </v>
  </varray>
  <energy>
   <i name="e_fr_energy">    -67.23064801 </i>
   <i name="e_wo_entrp">    -67.23064801 </i>
   <i name="e_0_energy">      0.00000000 </i>
  </energy>
  <time name="totalsc">   50.69   50.79</time>
 </calculation>
 <calculation>
  <scstep>
   <time name="dav">   11.35   11.36</time>
   <time name="total">   11.50   11.51</time>
   <energy>
    <i name="alphaZ">     10.93933817 </i>
    <i name="ewald">   4060.17878383 </i>
    <i name="hartreedc">  -4938.67343633 </i>
    <i name="XCdc">     96.02179622 </i>
    <i name="pawpsdc">   2894.03382187 </i>
    <i name="pawaedc">  -2896.56098873 </i>
    <i name="eentropy">      0.00000000 </i>
    <i name="bandstr">   -318.37385740 </i>
    <i name="atom">   1025.20389953 </i>
    <i name="e_fr_energy">    -67.23064286 </i>
    <i name="e_wo_entrp">    -67.23064286 </i>
    <i name="e_0_energy">    -67.23064286 </i>
   </energy>
  </scstep>
  <scstep>
   <time name="dav">   13.69   13.70</time>
   <time name="total">   13.69   13.70</time>
   <energy>
    <i name="e_fr_energy">    -67.23064450 </i>
    <i name="e_wo_entrp">    -67.23064450 </i>
    <i name="e_0_energy">    -67.23064450 </i>
   </energy>
  </scstep>
  <scstep>
   <time name="dav">   12.03   12.04</time>
   <time name="total">   12.03   12.04</time>
   <energy>
    <i name="alphaZ">     10.93933817 </i>
    <i name="ewald">   4060.17878383 </i>
    <i name="hartreedc">  -4938.67343633 </i>
    <i name="XCdc">     96.02179622 </i>
    <i name="pawpsdc">   2894.03382187 </i>
    <i name="pawaedc">  -2896.56098873 </i>
    <i name="eentropy">      0.00000000 </i>
    <i name="bandstr">   -318.37385908 </i>
    <i name="atom">   1025.20389953 </i>
    <i name="e_fr_energy">    -67.23064453 </i>
    <i name="e_wo_entrp">    -67.23064453 </i>
    <i name="e_0_energy">    -67.23064453 </i>
   </energy>
  </scstep>
  <structure>
   <crystal>
    <varray name="basis" >
     <v>       5.17400000       0.00000000       0.00000000 </v>
     <v>       2.58700000       4.48100000       0.00000000 </v>
     <v>       0.00000000       0.00000000      20.00000000 </v>
    </varray>
    <i name="volume">    463.69388000 </i>
    <varray name="rec_basis" >
     <v>       0.19327406      -0.11158224       0.00000000 </v>
     <v>       0.00000000       0.22316447       0.00000000 </v>
     <v>       0.00000000       0.00000000       0.05000000 </v>
    </varray>
   </crystal>
   <varray name="positions" >
    <v>       0.17458236       0.17460799      -0.00000000 </v>
    <v>       0.50791608       0.50794055      -0.00000000 </v>
    <v>      -0.00008034      -0.00001784      -0.00000000 </v>
    <v>       0.52387089      -0.00001784      -0.00000000 </v>
    <v>       0.68257919       0.15861433       0.00000000 </v>
    <v>       0.99991925       0.52393421      -0.00000000 </v>
    <v>       0.15862755       0.68256638       0.00000000 </v>
    <v>       0.68257878       0.68256638       0.00000000 </v>
   </varray>
  </structure>
  <varray name="forces" >
   <v>      -0.00000000       0.00464497      -0.00000000 </v>
   <v>       0.00000000      -0.00464497       0.00000000 </v>
   <v>       0.00486252      -0.00851026       0.00000000 </v>
   <v>      -0.00486252      -0.00851026       0.00000000 </v>
   <v>       0.00000000       0.01264619       0.00000000 </v>
   <v>       0.00000000      -0.01264619       0.00000000 </v>
   <v>       0.00486252       0.00851026       0.00000000 </v>
   <v>      -0.00486252       0.00851026       0.00000000 </v>
  </varray>
  <varray name="stress" >
   <v>      -0.16517767       0.00000000       0.00000000 </v>
   <v>       0.00000000      -0.24856778       0.00000000 </v>
   <v>       0.00000000       0.00000000      -0.57635887 </v>
  </varray>
  <energy>
   <i name="e_fr_energy">    -67.23064453 </i>
   <i name="e_wo_entrp">    -67.23064453 </i>
   <i name="e_0_energy">      0.00000000 </i>
  </energy>
  <time name="totalsc">   48.60   48.70</time>
 </calculation>
 <calculation>
  <scstep>
   <time name="dav">   11.28   11.29</time>
   <time name="total">   11.43   11.44</time>
   <energy>
    <i name="alphaZ">     10.93933817 </i>
    <i name="ewald">   4060.14803419 </i>
    <i name="hartreedc">  -4938.65155389 </i>
    <i name="XCdc">     96.02131003 </i>
    <i name="pawpsdc">   2894.03382187 </i>
    <i name="pawaedc">  -2896.56098873 </i>
    <i name="eentropy">      0.00000000 </i>
    <i name="bandstr">   -318.36450946 </i>
    <i name="atom">   1025.20389953 </i>
    <i name="e_fr_energy">    -67.23064830 </i>
    <i name="e_wo_entrp">    -67.23064830 </i>
    <i name="e_0_energy">    -67.23064830 </i>
   </energy>
  </scstep>
  <scstep>
   <time name="dav">   13.79   13.80</time>
   <time name="total">   13.79   13.80</time>
   <energy>
    <i name="alphaZ">     10.93933817 </i>
    <i name="ewald">   4060.14803419 </i>
    <i name="hartreedc">  -4938.65155389 </i>
    <i name="XCdc">     96.02131003 </i>
    <i name="pawpsdc">   2894.03382187 </i>
    <i name="pawaedc">  -2896.56098873 </i>
    <i name="eentropy">      0.00000000 </i>
    <i name="bandstr">   -318.36451020 </i>
    <i name="atom">   1025.20389953 </i>
    <i name="e_fr_energy">    -67.23064904 </i>
    <i name="e_wo_entrp">    -67.23064904 </i>
    <i name="e_0_energy">    -67.23064904 </i>
   </energy>
  </scstep>
  <structure>
   <crystal>
    <varray name="basis" >
     <v>       5.17400000       0.00000000       0.00000000 </v>
     <v>       2.58700000       4.48100000       0.00000000 </v>
     <v>       0.00000000       0.00000000      20.00000000 </v>
    </varray>
    <i name="volume">    463.69388000 </i>
    <varray name="rec_basis" >
     <v>       0.19327406      -0.11158224       0.00000000 </v>
     <v>       0.00000000       0.22316447       0.00000000 </v>
     <v>       0.00000000       0.00000000       0.05000000 </v>
    </varray>
   </crystal>
   <varray name="positions" >
    <v>       0.17457059       0.17463153      -0.00000000 </v>
    <v>       0.50792785       0.50791701      -0.00000000 </v>
    <v>      -0.00004643      -0.00003396      -0.00000000 </v>
    <v>       0.52385310      -0.00003396      -0.00000000 </v>
    <v>       0.68256598       0.15864076       0.00000000 </v>
    <v>       0.99993246       0.52390778      -0.00000000 </v>
    <v>       0.15864534       0.68258250       0.00000000 </v>
    <v>       0.68254487       0.68258250       0.00000000 </v>
   </varray>
  </structure>
  <varray name="forces" >
   <v>      -0.00000000      -0.00134596       0.00000000 </v>
   <v>      -0.00000000       0.00134596       0.00000000 </v>
   <v>      -0.00055030       0.00001224      -0.00000000 </v>
   <v>       0.00055030       0.00001224      -0.00000000 </v>
   <v>      -0.00000000       0.00151661       0.00000000 </v>
   <v>      -0.00000000      -0.00151661      -0.00000000 </v>
   <v>      -0.00055030      -0.00001224       0.00000000 </v>
   <v>       0.00055030      -0.00001224       0.00000000 </v>
  </varray>
  <varray name="stress" >
   <v>      -0.21858447       0.00000000       0.00000000 </v>
   <v>       0.00000000      -0.26024448       0.00000000 </v>
   <v>       0.00000000       0.00000000      -0.60846102 </v>
  </varray>
  <energy>
   <i name="e_fr_energy">    -67.23064904 </i>
   <i name="e_wo_entrp">    -67.23064904 </i>
   <i name="e_0_energy">      0.00000000 </i>
  </energy>
  <time name="totalsc">   36.57   36.67</time>
 </calculation>
 <calculation>
  <scstep>
   <time name="dav">   11.69   11.70</time>
   <time name="total">   11.84   11.85</time>
   <energy>
    <i name="alphaZ">     10.93933817 </i>
    <i name="ewald">   4060.14877334 </i>
    <i name="hartreedc">  -4938.65208010 </i>
    <i name="XCdc">     96.02132172 </i>
    <i name="pawpsdc">   2894.03382187 </i>
    <i name="pawaedc">  -2896.56098873 </i>
    <i name="eentropy">      0.00000000 </i>
    <i name="bandstr">   -318.36473484 </i>
    <i name="atom">   1025.20389953 </i>
    <i name="e_fr_energy">    -67.23064905 </i>
    <i name="e_wo_entrp">    -67.23064905 </i>
    <i name="e_0_energy">    -67.23064905 </i>
   </energy>
  </scstep>
  <scstep>
   <time name="dav">    8.37    8.38</time>
   <time name="total">    8.38    8.38</time>
   <energy>
    <i name="alphaZ">     10.93933817 </i>
    <i name="ewald">   4060.14877334 </i>
    <i name="hartreedc">  -4938.65208010 </i>
    <i name="XCdc">     96.02132172 </i>
    <i name="pawpsdc">   2894.03382187 </i>
    <i name="pawaedc">  -2896.56098873 </i>
    <i name="eentropy">      0.00000000 </i>
    <i name="bandstr">   -318.36473484 </i>
    <i name="atom">   1025.20389953 </i>
    <i name="e_fr_energy">    -67.23064905 </i>
    <i name="e_wo_entrp">    -67.23064905 </i>
    <i name="e_0_energy">    -67.23064905 </i>
   </energy>
  </scstep>
  <structure>
   <crystal>
    <varray name="basis" >
     <v>       5.17400000       0.00000000       0.00000000 </v>
     <v>       2.58700000       4.48100000       0.00000000 </v>
     <v>       0.00000000       0.00000000      20.00000000 </v>
    </varray>
    <i name="volume">    463.69388000 </i>
    <varray name="rec_basis" >
     <v>       0.19327406      -0.11158224       0.00000000 </v>
     <v>       0.00000000       0.22316447       0.00000000 </v>
     <v>       0.00000000       0.00000000       0.05000000 </v>
    </varray>
   </crystal>
   <varray name="positions" >
    <v>       0.17457087       0.17463096      -0.00000000 </v>
    <v>       0.50792757       0.50791758      -0.00000000 </v>
    <v>      -0.00004724      -0.00003357      -0.00000000 </v>
    <v>       0.52385353      -0.00003357      -0.00000000 </v>
    <v>       0.68256629       0.15864012       0.00000000 </v>
    <v>       0.99993215       0.52390842      -0.00000000 </v>
    <v>       0.15864492       0.68258211       0.00000000 </v>
    <v>       0.68254568       0.68258211       0.00000000 </v>
   </varray>
  </structure>
  <varray name="forces" >
   <v>       0.00000000      -0.00117703      -0.00000000 </v>
   <v>       0.00000000       0.00117703       0.00000000 </v>
   <v>      -0.00018687      -0.00036244       0.00000000 </v>
   <v>       0.00018687      -0.00036244       0.00000000 </v>
   <v>       0.00000000       0.00191795       0.00000000 </v>
   <v>      -0.00000000      -0.00191795       0.00000000 </v>
   <v>      -0.00018687       0.00036244       0.00000000 </v>
   <v>       0.00018687       0.00036244      -0.00000000 </v>
  </varray>
  <varray name="stress" >
   <v>      -0.21781981      -0.00000000       0.00000000 </v>
   <v>       0.00000000      -0.26055909       0.00000000 </v>
   <v>       0.00000000       0.00000000      -0.60789179 </v>
  </varray>
  <energy>
   <i name="e_fr_energy">    -67.23064905 </i>
   <i name="e_wo_entrp">    -67.23064905 </i>
   <i name="e_0_energy">      0.00000000 </i>
  </energy>
  <time name="totalsc">   31.56   31.65</time>
 </calculation>
 <calculation>
  <scstep>
   <time name="dav">    8.22    8.23</time>
   <time name="total">    8.37    8.38</time>
   <energy>
    <i name="alphaZ">     10.93933817 </i>
    <i name="ewald">   4060.14841405 </i>
    <i name="hartreedc">  -4938.65182432 </i>
    <i name="XCdc">     96.02131603 </i>
    <i name="pawpsdc">   2894.03382187 </i>
    <i name="pawaedc">  -2896.56098873 </i>
    <i name="eentropy">      0.00000000 </i>
    <i name="bandstr">   -318.36462565 </i>
    <i name="atom">   1025.20389953 </i>
    <i name="e_fr_energy">    -67.23064905 </i>
    <i name="e_wo_entrp">    -67.23064905 </i>
    <i name="e_0_energy">    -67.23064905 </i>
   </energy>
  </scstep>
  <scstep>
   <time name="dav">    8.13    8.13</time>
   <time name="total">    8.13    8.14</time>
   <energy>
    <i name="alphaZ">     10.93933817 </i>
    <i name="ewald">   4060.14841405 </i>
    <i name="hartreedc">  -4938.65182432 </i>
    <i name="XCdc">     96.02131603 </i>
    <i name="pawpsdc">   2894.03382187 </i>
    <i name="pawaedc">  -2896.56098873 </i>
    <i name="eentropy">      0.00000000 </i>
    <i name="bandstr">   -318.36462565 </i>
    <i name="atom">   1025.20389953 </i>
    <i name="e_fr_energy">    -67.23064905 </i>
    <i name="e_wo_entrp">    -67.23064905 </i>
    <i name="e_0_energy">    -67.23064905 </i>
   </energy>
  </scstep>
  <structure>
   <crystal>
    <varray name="basis" >
     <v>       5.17400000       0.00000000       0.00000000 </v>
     <v>       2.58700000       4.48100000       0.00000000 </v>
     <v>       0.00000000       0.00000000      20.00000000 </v>
    </varray>
    <i name="volume">    463.69388000 </i>
    <varray name="rec_basis" >
     <v>       0.19327406      -0.11158224       0.00000000 </v>
     <v>       0.00000000       0.22316447       0.00000000 </v>
     <v>       0.00000000       0.00000000       0.05000000 </v>
    </varray>
   </crystal>
   <varray name="positions" >
    <v>       0.17457074       0.17463124      -0.00000000 </v>
    <v>       0.50792770       0.50791730      -0.00000000 </v>
    <v>      -0.00004685      -0.00003376      -0.00000000 </v>
    <v>       0.52385332      -0.00003376      -0.00000000 </v>
    <v>       0.68256614       0.15864043       0.00000000 </v>
    <v>       0.99993230       0.52390811      -0.00000000 </v>
    <v>       0.15864512       0.68258230       0.00000000 </v>
    <v>       0.68254529       0.68258230       0.00000000 </v>
   </varray>
  </structure>
  <varray name="forces" >
   <v>      -0.00000000      -0.00125355       0.00000000 </v>
   <v>       0.00000000       0.00125355       0.00000000 </v>
   <v>      -0.00029555      -0.00024902       0.00000000 </v>
   <v>       0.00029555      -0.00024902      -0.00000000 </v>
   <v>      -0.00000000       0.00175078       0.00000000 </v>
   <v>      -0.00000000      -0.00175078      -0.00000000 </v>
   <v>      -0.00029555       0.00024902       0.00000000 </v>
   <v>       0.00029555       0.00024902       0.00000000 </v>
  </varray>
  <varray name="stress" >
   <v>      -0.21850168      -0.00000000       0.00000000 </v>
   <v>       0.00000000      -0.26050801       0.00000000 </v>
   <v>       0.00000000       0.00000000      -0.60813900 </v>
  </varray>
  <energy>
   <i name="e_fr_energy">    -67.23064905 </i>
   <i name="e_wo_entrp">    -67.23064905 </i>
   <i name="e_0_energy">      0.00000000 </i>
  </energy>
  <time name="totalsc">   27.90   27.98</time>
 </calculation>
 <calculation>
  <scstep>
   <time name="dav">    8.05    8.06</time>
   <time name="total">    8.20    8.21</time>
   <energy>
    <i name="alphaZ">     10.93933817 </i>
    <i name="ewald">   4060.14829224 </i>
    <i name="hartreedc">  -4938.65173760 </i>
    <i name="XCdc">     96.02131411 </i>
    <i name="pawpsdc">   2894.03382187 </i>
    <i name="pawaedc">  -2896.56098873 </i>
    <i name="eentropy">      0.00000000 </i>
    <i name="bandstr">   -318.36458863 </i>
    <i name="atom">   1025.20389953 </i>
    <i name="e_fr_energy">    -67.23064905 </i>
    <i name="e_wo_entrp">    -67.23064905 </i>
    <i name="e_0_energy">    -67.23064905 </i>
   </energy>
  </scstep>
  <scstep>
   <time name="dav">    7.92    7.92</time>
   <time name="total">    7.92    7.93</time>
   <energy>
    <i name="alphaZ">     10.93933817 </i>
    <i name="ewald">   4060.14829224 </i>
    <i name="hartreedc">  -4938.65173760 </i>
    <i name="XCdc">     96.02131411 </i>
    <i name="pawpsdc">   2894.03382187 </i>
    <i name="pawaedc">  -2896.56098873 </i>
    <i name="eentropy">      0.00000000 </i>
    <i name="bandstr">   -318.36458863 </i>
    <i name="atom">   1025.20389953 </i>
    <i name="e_fr_energy">    -67.23064905 </i>
    <i name="e_wo_entrp">    -67.23064905 </i>
[...]
    <i name="ewald">   4060.14666420 </i>
    <i name="hartreedc">  -4938.65057806 </i>
    <i name="XCdc">     96.02128838 </i>
    <i name="pawpsdc">   2894.03382187 </i>
    <i name="pawaedc">  -2896.56098873 </i>
    <i name="eentropy">      0.00000000 </i>
    <i name="bandstr">   -318.36409472 </i>
    <i name="atom">   1025.20389953 </i>
    <i name="e_fr_energy">    -67.23064936 </i>
    <i name="e_wo_entrp">    -67.23064936 </i>
    <i name="e_0_energy">    -67.23064936 </i>
   </energy>
  </scstep>
  <structure>
   <crystal>
    <varray name="basis" >
     <v>       5.17400000       0.00000000       0.00000000 </v>
     <v>       2.58700000       4.48100000       0.00000000 </v>
     <v>       0.00000000       0.00000000      20.00000000 </v>
    </varray>
    <i name="volume">    463.69388000 </i>
    <varray name="rec_basis" >
     <v>       0.19327406      -0.11158224       0.00000000 </v>
     <v>       0.00000000       0.22316447       0.00000000 </v>
     <v>       0.00000000       0.00000000       0.05000000 </v>
    </varray>
   </crystal>
   <varray name="positions" >
    <v>       0.17458163       0.17460945      -0.00000000 </v>
    <v>       0.50791681       0.50793908      -0.00000000 </v>
    <v>      -0.00005449      -0.00003427      -0.00000000 </v>
    <v>       0.52386147      -0.00003427       0.00000000 </v>
    <v>       0.68255622       0.15866026       0.00000000 </v>
    <v>       0.99994222       0.52388827      -0.00000000 </v>
    <v>       0.15863697       0.68258280      -0.00000000 </v>
    <v>       0.68255293       0.68258280       0.00000000 </v>
   </varray>
  </structure>
  <varray name="forces" >
   <v>       0.00000000      -0.00004402      -0.00000000 </v>
   <v>       0.00000000       0.00004402      -0.00000000 </v>
   <v>       0.00013892       0.00004297      -0.00000000 </v>
   <v>      -0.00013892       0.00004297       0.00000000 </v>
   <v>       0.00000000       0.00012777      -0.00000000 </v>
   <v>       0.00000000      -0.00012777       0.00000000 </v>
   <v>       0.00013892      -0.00004297      -0.00000000 </v>
   <v>      -0.00013892      -0.00004297      -0.00000000 </v>
  </varray>
  <varray name="stress" >
   <v>      -0.21817633       0.00000000       0.00000000 </v>
   <v>       0.00000000      -0.26466886       0.00000000 </v>
   <v>       0.00000000       0.00000000      -0.61005665 </v>
  </varray>
  <energy>
   <i name="e_fr_energy">    -67.23064936 </i>
   <i name="e_wo_entrp">    -67.23064936 </i>
   <i name="e_0_energy">      0.00000000 </i>
  </energy>
  <time name="totalsc">   26.62   26.72</time>
 </calculation>
 <calculation>
  <scstep>
   <time name="dav">    7.54    7.56</time>
   <time name="total">    7.69    7.70</time>
   <energy>
    <i name="alphaZ">     10.93933817 </i>
    <i name="ewald">   4060.14666419 </i>
    <i name="hartreedc">  -4938.65057805 </i>
    <i name="XCdc">     96.02128838 </i>
    <i name="pawpsdc">   2894.03382187 </i>
    <i name="pawaedc">  -2896.56098873 </i>
    <i name="eentropy">      0.00000000 </i>
    <i name="bandstr">   -318.36409471 </i>
    <i name="atom">   1025.20389953 </i>
    <i name="e_fr_energy">    -67.23064936 </i>
    <i name="e_wo_entrp">    -67.23064936 </i>
    <i name="e_0_energy">    -67.23064936 </i>
   </energy>
  </scstep>
  <scstep>
   <time name="dav">    7.56    7.58</time>
   <time name="total">    7.56    7.58</time>
   <energy>
    <i name="alphaZ">     10.93933817 </i>
    <i name="ewald">   4060.14666419 </i>
    <i name="hartreedc">  -4938.65057805 </i>
    <i name="XCdc">     96.02128838 </i>
    <i name="pawpsdc">   2894.03382187 </i>
    <i name="pawaedc">  -2896.56098873 </i>
    <i name="eentropy">      0.00000000 </i>
    <i name="bandstr">   -318.36409471 </i>
    <i name="atom">   1025.20389953 </i>
    <i name="e_fr_energy">    -67.23064936 </i>
    <i name="e_wo_entrp">    -67.23064936 </i>
    <i name="e_0_energy">    -67.23064936 </i>
   </energy>
  </scstep>
  <structure>
   <crystal>
    <varray name="basis" >
     <v>       5.17400000       0.00000000       0.00000000 </v>
     <v>       2.58700000       4.48100000       0.00000000 </v>
     <v>       0.00000000       0.00000000      20.00000000 </v>
    </varray>
    <i name="volume">    463.69388000 </i>
    <varray name="rec_basis" >
     <v>       0.19327406      -0.11158224       0.00000000 </v>
     <v>       0.00000000       0.22316447       0.00000000 </v>
     <v>       0.00000000       0.00000000       0.05000000 </v>
    </varray>
   </crystal>
   <varray name="positions" >
    <v>       0.17458163       0.17460945      -0.00000000 </v>
    <v>       0.50791681       0.50793909      -0.00000000 </v>
    <v>      -0.00005449      -0.00003427      -0.00000000 </v>
    <v>       0.52386147      -0.00003427       0.00000000 </v>
    <v>       0.68255622       0.15866026       0.00000000 </v>
    <v>       0.99994222       0.52388827      -0.00000000 </v>
    <v>       0.15863697       0.68258280      -0.00000000 </v>
    <v>       0.68255293       0.68258280       0.00000000 </v>
   </varray>
  </structure>
  <varray name="forces" >
   <v>       0.00000000      -0.00004403       0.00000000 </v>
   <v>      -0.00000000       0.00004403       0.00000000 </v>
   <v>       0.00013891       0.00004297       0.00000000 </v>
   <v>      -0.00013891       0.00004297       0.00000000 </v>
   <v>       0.00000000       0.00012779       0.00000000 </v>
   <v>       0.00000000      -0.00012779      -0.00000000 </v>
   <v>       0.00013891      -0.00004297       0.00000000 </v>
   <v>      -0.00013891      -0.00004297       0.00000000 </v>
  </varray>
  <varray name="stress" >
   <v>      -0.21817634      -0.00000000       0.00000000 </v>
   <v>      -0.00000000      -0.26466888       0.00000000 </v>
   <v>       0.00000000       0.00000000      -0.61005666 </v>
  </varray>
  <energy>
   <i name="e_fr_energy">    -67.23064936 </i>
   <i name="e_wo_entrp">    -67.23064936 </i>
   <i name="e_0_energy">      0.00000000 </i>
  </energy>
  <time name="totalsc">   26.58   26.69</time>
 </calculation>
 <calculation>
  <scstep>
   <time name="dav">    7.54    7.56</time>
   <time name="total">    7.69    7.71</time>
   <energy>
    <i name="alphaZ">     10.93933817 </i>
    <i name="ewald">   4060.14666418 </i>
    <i name="hartreedc">  -4938.65057805 </i>
    <i name="XCdc">     96.02128838 </i>
    <i name="pawpsdc">   2894.03382187 </i>
    <i name="pawaedc">  -2896.56098873 </i>
    <i name="eentropy">      0.00000000 </i>
    <i name="bandstr">   -318.36409471 </i>
    <i name="atom">   1025.20389953 </i>
    <i name="e_fr_energy">    -67.23064936 </i>
    <i name="e_wo_entrp">    -67.23064936 </i>
    <i name="e_0_energy">    -67.23064936 </i>
   </energy>
  </scstep>
  <scstep>
   <time name="dav">    7.57    7.58</time>
   <time name="total">    7.57    7.58</time>
   <energy>
    <i name="alphaZ">     10.93933817 </i>
    <i name="ewald">   4060.14666418 </i>
    <i name="hartreedc">  -4938.65057805 </i>
    <i name="XCdc">     96.02128838 </i>
    <i name="pawpsdc">   2894.03382187 </i>
    <i name="pawaedc">  -2896.56098873 </i>
    <i name="eentropy">      0.00000000 </i>
    <i name="bandstr">   -318.36409471 </i>
    <i name="atom">   1025.20389953 </i>
    <i name="e_fr_energy">    -67.23064936 </i>
    <i name="e_wo_entrp">    -67.23064936 </i>
    <i name="e_0_energy">    -67.23064936 </i>
   </energy>
  </scstep>
  <structure>
   <crystal>
    <varray name="basis" >
     <v>       5.17400000       0.00000000       0.00000000 </v>
     <v>       2.58700000       4.48100000       0.00000000 </v>
     <v>       0.00000000       0.00000000      20.00000000 </v>
    </varray>
    <i name="volume">    463.69388000 </i>
    <varray name="rec_basis" >
     <v>       0.19327406      -0.11158224       0.00000000 </v>
     <v>       0.00000000       0.22316447       0.00000000 </v>
     <v>       0.00000000       0.00000000       0.05000000 </v>
    </varray>
   </crystal>
   <varray name="positions" >
    <v>       0.17458163       0.17460945      -0.00000000 </v>
    <v>       0.50791681       0.50793909      -0.00000000 </v>
    <v>      -0.00005449      -0.00003427      -0.00000000 </v>
    <v>       0.52386147      -0.00003427       0.00000000 </v>
    <v>       0.68255622       0.15866026       0.00000000 </v>
    <v>       0.99994222       0.52388827      -0.00000000 </v>
    <v>       0.15863697       0.68258280      -0.00000000 </v>
    <v>       0.68255293       0.68258280       0.00000000 </v>
   </varray>
  </structure>
  <varray name="forces" >
   <v>      -0.00000000      -0.00004404      -0.00000000 </v>
   <v>       0.00000000       0.00004404      -0.00000000 </v>
   <v>       0.00013891       0.00004296       0.00000000 </v>
   <v>      -0.00013891       0.00004296      -0.00000000 </v>
   <v>      -0.00000000       0.00012780      -0.00000000 </v>
   <v>       0.00000000      -0.00012780       0.00000000 </v>
   <v>       0.00013891      -0.00004296      -0.00000000 </v>
   <v>      -0.00013891      -0.00004296      -0.00000000 </v>
  </varray>
  <varray name="stress" >
   <v>      -0.21817633       0.00000000       0.00000000 </v>
   <v>       0.00000000      -0.26466888       0.00000000 </v>
   <v>       0.00000000       0.00000000      -0.61005668 </v>
  </varray>
  <energy>
   <i name="e_fr_energy">    -67.23064936 </i>
   <i name="e_wo_entrp">    -67.23064936 </i>
   <i name="e_0_energy">      0.00000000 </i>
  </energy>
  <time name="totalsc">   26.59   26.72</time>
 </calculation>
 <calculation>
  <scstep>
   <time name="dav">    7.54    7.56</time>
   <time name="total">    7.69    7.71</time>
   <energy>
    <i name="alphaZ">     10.93933817 </i>
    <i name="ewald">   4060.14666418 </i>
    <i name="hartreedc">  -4938.65057805 </i>
    <i name="XCdc">     96.02128838 </i>
    <i name="pawpsdc">   2894.03382187 </i>
    <i name="pawaedc">  -2896.56098873 </i>
    <i name="eentropy">      0.00000000 </i>
    <i name="bandstr">   -318.36409471 </i>
    <i name="atom">   1025.20389953 </i>
    <i name="e_fr_energy">    -67.23064936 </i>
    <i name="e_wo_entrp">    -67.23064936 </i>
    <i name="e_0_energy">    -67.23064936 </i>
   </energy>
  </scstep>
  <scstep>
   <time name="dav">    7.56    7.58</time>
   <time name="total">    7.57    7.58</time>
   <energy>
    <i name="alphaZ">     10.93933817 </i>
    <i name="ewald">   4060.14666418 </i>
    <i name="hartreedc">  -4938.65057805 </i>
    <i name="XCdc">     96.02128838 </i>
    <i name="pawpsdc">   2894.03382187 </i>
    <i name="pawaedc">  -2896.56098873 </i>
    <i name="eentropy">      0.00000000 </i>
    <i name="bandstr">   -318.36409471 </i>
    <i name="atom">   1025.20389953 </i>
    <i name="e_fr_energy">    -67.23064936 </i>
    <i name="e_wo_entrp">    -67.23064936 </i>
    <i name="e_0_energy">    -67.23064936 </i>
   </energy>
  </scstep>
  <structure>
   <crystal>
    <varray name="basis" >
     <v>       5.17400000       0.00000000       0.00000000 </v>
     <v>       2.58700000       4.48100000       0.00000000 </v>
     <v>       0.00000000       0.00000000      20.00000000 </v>
    </varray>
    <i name="volume">    463.69388000 </i>
    <varray name="rec_basis" >
     <v>       0.19327406      -0.11158224       0.00000000 </v>
     <v>       0.00000000       0.22316447       0.00000000 </v>
     <v>       0.00000000       0.00000000       0.05000000 </v>
    </varray>
   </crystal>
   <varray name="positions" >
    <v>       0.17458163       0.17460945      -0.00000000 </v>
    <v>       0.50791681       0.50793909      -0.00000000 </v>
    <v>      -0.00005449      -0.00003427      -0.00000000 </v>
    <v>       0.52386147      -0.00003427       0.00000000 </v>
    <v>       0.68255622       0.15866026       0.00000000 </v>
    <v>       0.99994222       0.52388827      -0.00000000 </v>
    <v>       0.15863697       0.68258280      -0.00000000 </v>
    <v>       0.68255293       0.68258280       0.00000000 </v>
   </varray>
  </structure>
  <varray name="forces" >
   <v>      -0.00000000      -0.00004404       0.00000000 </v>
   <v>       0.00000000       0.00004404       0.00000000 </v>
   <v>       0.00013890       0.00004296       0.00000000 </v>
   <v>      -0.00013890       0.00004296       0.00000000 </v>
   <v>      -0.00000000       0.00012780       0.00000000 </v>
   <v>       0.00000000      -0.00012780       0.00000000 </v>
   <v>       0.00013890      -0.00004296       0.00000000 </v>
   <v>      -0.00013890      -0.00004296       0.00000000 </v>
  </varray>
  <varray name="stress" >
   <v>      -0.21817634      -0.00000000       0.00000000 </v>
   <v>       0.00000000      -0.26466889       0.00000000 </v>
   <v>       0.00000000       0.00000000      -0.61005668 </v>
  </varray>
  <energy>
   <i name="e_fr_energy">    -67.23064936 </i>
   <i name="e_wo_entrp">    -67.23064936 </i>
   <i name="e_0_energy">      0.00000000 </i>
  </energy>
  <time name="totalsc">   26.58   26.71</time>
 </calculation>
 <calculation>
  <scstep>
   <time name="dav">    7.54    7.56</time>
   <time name="total">    7.69    7.71</time>
   <energy>
    <i name="alphaZ">     10.93933817 </i>
    <i name="ewald">   4060.14666417 </i>
    <i name="hartreedc">  -4938.65057804 </i>
    <i name="XCdc">     96.02128838 </i>
    <i name="pawpsdc">   2894.03382187 </i>
    <i name="pawaedc">  -2896.56098873 </i>
    <i name="eentropy">      0.00000000 </i>
    <i name="bandstr">   -318.36409471 </i>
    <i name="atom">   1025.20389953 </i>
    <i name="e_fr_energy">    -67.23064936 </i>
    <i name="e_wo_entrp">    -67.23064936 </i>
    <i name="e_0_energy">    -67.23064936 </i>
   </energy>
  </scstep>
  <scstep>
   <time name="dav">    7.56    7.58</time>
   <time name="total">    7.57    7.58</time>
   <energy>
    <i name="alphaZ">     10.93933817 </i>
    <i name="ewald">   4060.14666417 </i>
    <i name="hartreedc">  -4938.65057804 </i>
    <i name="XCdc">     96.02128838 </i>
    <i name="pawpsdc">   2894.03382187 </i>
    <i name="pawaedc">  -2896.56098873 </i>
    <i name="eentropy">      0.00000000 </i>
    <i name="bandstr">   -318.36409471 </i>
    <i name="atom">   1025.20389953 </i>
    <i name="e_fr_energy">    -67.23064936 </i>
    <i name="e_wo_entrp">    -67.23064936 </i>
    <i name="e_0_energy">    -67.23064936 </i>
   </energy>
  </scstep>
  <structure>
   <crystal>
    <varray name="basis" >
     <v>       5.17400000       0.00000000       0.00000000 </v>
     <v>       2.58700000       4.48100000       0.00000000 </v>
     <v>       0.00000000       0.00000000      20.00000000 </v>
    </varray>
    <i name="volume">    463.69388000 </i>
    <varray name="rec_basis" >
     <v>       0.19327406      -0.11158224       0.00000000 </v>
     <v>       0.00000000       0.22316447       0.00000000 </v>
     <v>       0.00000000       0.00000000       0.05000000 </v>
    </varray>
   </crystal>
   <varray name="positions" >
    <v>       0.17458163       0.17460945      -0.00000000 </v>
    <v>       0.50791681       0.50793909      -0.00000000 </v>
    <v>      -0.00005449      -0.00003427      -0.00000000 </v>
    <v>       0.52386147      -0.00003427       0.00000000 </v>
    <v>       0.68255622       0.15866026       0.00000000 </v>
    <v>       0.99994222       0.52388827      -0.00000000 </v>
    <v>       0.15863697       0.68258280      -0.00000000 </v>
    <v>       0.68255293       0.68258280       0.00000000 </v>
   </varray>
  </structure>
  <varray name="forces" >
   <v>      -0.00000000      -0.00004404       0.00000000 </v>
   <v>       0.00000000       0.00004404       0.00000000 </v>
   <v>       0.00013890       0.00004296       0.00000000 </v>
   <v>      -0.00013890       0.00004296       0.00000000 </v>
   <v>       0.00000000       0.00012781       0.00000000 </v>
   <v>       0.00000000      -0.00012781       0.00000000 </v>
   <v>       0.00013890      -0.00004296       0.00000000 </v>
   <v>      -0.00013890      -0.00004296       0.00000000 </v>
  </varray>
  <varray name="stress" >
   <v>      -0.21817633       0.00000000       0.00000000 </v>
   <v>       0.00000000      -0.26466890       0.00000000 </v>
   <v>       0.00000000       0.00000000      -0.61005669 </v>
  </varray>
  <energy>
   <i name="e_fr_energy">    -67.23064936 </i>
   <i name="e_wo_entrp">    -67.23064936 </i>
   <i name="e_0_energy">      0.00000000 </i>
  </energy>
  <time name="totalsc">   26.56   26.66</time>
 </calculation>
 <calculation>
  <scstep>
   <time name="dav">   11.14   11.16</time>
   <time name="total">   11.29   11.31</time>
   <energy>
    <i name="alphaZ">     10.93933817 </i>
    <i name="ewald">   4060.14829224 </i>
    <i name="hartreedc">  -4938.65173760 </i>
    <i name="XCdc">     96.02131411 </i>
    <i name="pawpsdc">   2894.03382187 </i>
    <i name="pawaedc">  -2896.56098873 </i>
    <i name="eentropy">      0.00000000 </i>
    <i name="bandstr">   -318.36458858 </i>
    <i name="atom">   1025.20389953 </i>
    <i name="e_fr_energy">    -67.23064899 </i>
    <i name="e_wo_entrp">    -67.23064899 </i>
    <i name="e_0_energy">    -67.23064899 </i>
   </energy>
  </scstep>
  <scstep>
   <time name="dav">   11.79   11.80</time>
   <time name="total">   11.79   11.81</time>
   <energy>
    <i name="alphaZ">     10.93933817 </i>
    <i name="ewald">   4060.14829224 </i>
    <i name="hartreedc">  -4938.65173760 </i>
    <i name="XCdc">     96.02131411 </i>
    <i name="pawpsdc">   2894.03382187 </i>
    <i name="pawaedc">  -2896.56098873 </i>
    <i name="eentropy">      0.00000000 </i>
    <i name="bandstr">   -318.36458863 </i>
    <i name="atom">   1025.20389953 </i>
    <i name="e_fr_energy">    -67.23064905 </i>
    <i name="e_wo_entrp">    -67.23064905 </i>
    <i name="e_0_energy">    -67.23064905 </i>
   </energy>
  </scstep>
  <structure>
   <crystal>
    <varray name="basis" >
     <v>       5.17400000       0.00000000       0.00000000 </v>
     <v>       2.58700000       4.48100000       0.00000000 </v>
     <v>       0.00000000       0.00000000      20.00000000 </v>
    </varray>
    <i name="volume">    463.69388000 </i>
    <varray name="rec_basis" >
     <v>       0.19327406      -0.11158224       0.00000000 </v>
     <v>       0.00000000       0.22316447       0.00000000 </v>
     <v>       0.00000000       0.00000000       0.05000000 </v>
    </varray>
   </crystal>
   <varray name="positions" >
    <v>       0.17457069       0.17463133      -0.00000000 </v>
    <v>       0.50792775       0.50791721      -0.00000000 </v>
    <v>      -0.00004671      -0.00003382      -0.00000000 </v>
    <v>       0.52385325      -0.00003382      -0.00000000 </v>
    <v>       0.68256609       0.15864054       0.00000000 </v>
    <v>       0.99993235       0.52390800      -0.00000000 </v>
    <v>       0.15864519       0.68258236       0.00000000 </v>
    <v>       0.68254515       0.68258236       0.00000000 </v>
   </varray>
  </structure>
  <varray name="forces" >
   <v>       0.00000000      -0.00138818       0.00000000 </v>
   <v>      -0.00000000       0.00138818       0.00000000 </v>
   <v>      -0.00039146      -0.00027036      -0.00000000 </v>
   <v>       0.00039146      -0.00027036      -0.00000000 </v>
   <v>       0.00000000       0.00205725       0.00000000 </v>
   <v>       0.00000000      -0.00205725       0.00000000 </v>
   <v>      -0.00039146       0.00027036       0.00000000 </v>
   <v>       0.00039146       0.00027036       0.00000000 </v>
  </varray>
  <varray name="stress" >
   <v>      -0.21870743       0.00000000       0.00000000 </v>
   <v>       0.00000000      -0.26073307       0.00000000 </v>
   <v>       0.00000000       0.00000000      -0.60835411 </v>
  </varray>
  <energy>
   <i name="e_fr_energy">    -67.23064905 </i>
   <i name="e_wo_entrp">    -67.23064905 </i>
   <i name="e_0_energy">      0.00000000 </i>
  </energy>
