BC3 bandstructure                       
           1
     5.174000    0.000000    0.000000
     2.587000    4.481000    0.000000
     0.000000    0.000000   20.000000
   B    C 
   2   6
Direct configuration=     1
   0.17457326  0.17462620  0.00000000
   0.50792519  0.50792234  0.00000000
   0.00000000  0.00000000  0.00000000
   0.52377271  0.00000000  0.00000000
   0.68255138  0.15866994  0.00000000
   0.99994706  0.52387860  0.00000000
   0.15872573  0.68254854  0.00000000
   0.68249844  0.68254854  0.00000000
Direct configuration=     2
   0.17455405  0.17466460  0.00000000
   0.50794439  0.50788394  0.00000000
  -0.00007022 -0.00009663  0.00000000
   0.52393956 -0.00009663  0.00000000
   0.68257063  0.15863146  0.00000000
   0.99992781  0.52391708  0.00000000
   0.15855888  0.68264517  0.00000000
   0.68256866  0.68264517  0.00000000
Direct configuration=     3
   0.17456498  0.17464275  0.00000000
   0.50793346  0.50790579  0.00000000
  -0.00003026 -0.00004164  0.00000000
   0.52384462 -0.00004164  0.00000000
   0.68255968  0.15865335  0.00000000
   0.99993876  0.52389518  0.00000000
   0.15865382  0.68259018  0.00000000
   0.68252870  0.68259018  0.00000000
Direct configuration=     4
   0.17458236  0.17460799 -0.00000000
   0.50791608  0.50794055 -0.00000000
  -0.00008034 -0.00001784 -0.00000000
   0.52387089 -0.00001784 -0.00000000
   0.68257919  0.15861433  0.00000000
   0.99991925  0.52393421 -0.00000000
   0.15862755  0.68256638  0.00000000
   0.68257878  0.68256638  0.00000000
Direct configuration=     5
   0.17457059  0.17463153 -0.00000000
   0.50792785  0.50791701 -0.00000000
  -0.00004643 -0.00003396 -0.00000000
   0.52385310 -0.00003396 -0.00000000
   0.68256598  0.15864076  0.00000000
   0.99993246  0.52390778 -0.00000000
   0.15864534  0.68258250  0.00000000
   0.68254487  0.68258250  0.00000000
Direct configuration=     6
   0.17457087  0.17463096 -0.00000000
   0.50792757  0.50791758 -0.00000000
  -0.00004724 -0.00003357 -0.00000000
   0.52385353 -0.00003357 -0.00000000
   0.68256629  0.15864012  0.00000000
   0.99993215  0.52390842 -0.00000000
   0.15864492  0.68258211  0.00000000
   0.68254568  0.68258211  0.00000000
Direct configuration=     7
   0.17457074  0.17463124 -0.00000000
   0.50792770  0.50791730 -0.00000000
  -0.00004685 -0.00003376 -0.00000000
   0.52385332 -0.00003376 -0.00000000
   0.68256614  0.15864043  0.00000000
   0.99993230  0.52390811 -0.00000000
   0.15864512  0.68258230  0.00000000
   0.68254529  0.68258230  0.00000000
Direct configuration=     8
   0.17457069  0.17463133 -0.00000000
   0.50792775  0.50791721 -0.00000000
  -0.00004671 -0.00003382 -0.00000000
   0.52385325 -0.00003382 -0.00000000
   0.68256609  0.15864054  0.00000000
   0.99993235  0.52390800 -0.00000000
   0.15864519  0.68258236  0.00000000
   0.68254515  0.68258236  0.00000000
Direct configuration=     9
   0.17457712  0.17461846 -0.00000000
   0.50792132  0.50793007 -0.00000000
  -0.00005129 -0.00003408 -0.00000000
   0.52385808 -0.00003408  0.00000000
   0.68256029  0.15865214  0.00000000
   0.99993816  0.52389640 -0.00000000
   0.15864036  0.68258262 -0.00000000
   0.68254973  0.68258262  0.00000000
Direct configuration=    10
   0.17458015  0.17461240 -0.00000000
   0.50791829  0.50793613 -0.00000000
  -0.00005344 -0.00003421 -0.00000000
   0.52386036 -0.00003421  0.00000000
   0.68255755  0.15865760  0.00000000
   0.99994089  0.52389093 -0.00000000
   0.15863808  0.68258274 -0.00000000
   0.68255188  0.68258274  0.00000000
Direct configuration=    11
   0.17458145  0.17460981 -0.00000000
   0.50791699  0.50793873 -0.00000000
  -0.00005437 -0.00003426 -0.00000000
   0.52386133 -0.00003426  0.00000000
   0.68255638  0.15865995  0.00000000
   0.99994206  0.52388859 -0.00000000
   0.15863711  0.68258280 -0.00000000
   0.68255281  0.68258280  0.00000000
Direct configuration=    12
   0.17458163  0.17460945 -0.00000000
   0.50791681  0.50793909 -0.00000000
  -0.00005449 -0.00003427 -0.00000000
   0.52386147 -0.00003427  0.00000000
   0.68255622  0.15866026  0.00000000
   0.99994222  0.52388827 -0.00000000
   0.15863697  0.68258280 -0.00000000
   0.68255293  0.68258280  0.00000000
Direct configuration=    13
   0.17458153  0.17460965 -0.00000000
   0.50791691  0.50793888 -0.00000000
  -0.00005442 -0.00003426 -0.00000000
   0.52386139 -0.00003426  0.00000000
   0.68255631  0.15866008  0.00000000
   0.99994213  0.52388846 -0.00000000
   0.15863705  0.68258280 -0.00000000
   0.68255286  0.68258280  0.00000000
Direct configuration=    14
   0.17458159  0.17460953 -0.00000000
   0.50791685  0.50793901 -0.00000000
  -0.00005447 -0.00003426 -0.00000000
   0.52386144 -0.00003426  0.00000000
   0.68255625  0.15866020  0.00000000
   0.99994219  0.52388834 -0.00000000
   0.15863700  0.68258280 -0.00000000
   0.68255291  0.68258280  0.00000000
Direct configuration=    15
   0.17458161  0.17460950 -0.00000000
   0.50791683  0.50793904 -0.00000000
  -0.00005448 -0.00003427 -0.00000000
   0.52386145 -0.00003427  0.00000000
   0.68255624  0.15866023  0.00000000
   0.99994220  0.52388831 -0.00000000
   0.15863699  0.68258280 -0.00000000
   0.68255292  0.68258280  0.00000000
Direct configuration=    16
   0.17458162  0.17460948 -0.00000000
   0.50791682  0.50793906 -0.00000000
  -0.00005448 -0.00003427 -0.00000000
   0.52386146 -0.00003427  0.00000000
   0.68255623  0.15866024  0.00000000
   0.99994221  0.52388829 -0.00000000
   0.15863698  0.68258280 -0.00000000
   0.68255292  0.68258280  0.00000000
Direct configuration=    17
   0.17458162  0.17460946 -0.00000000
   0.50791682  0.50793907 -0.00000000
  -0.00005449 -0.00003427 -0.00000000
   0.52386146 -0.00003427  0.00000000
   0.68255623  0.15866025  0.00000000
   0.99994221  0.52388828 -0.00000000
   0.15863698  0.68258280 -0.00000000
   0.68255293  0.68258280  0.00000000
Direct configuration=    18
   0.17458163  0.17460946 -0.00000000
   0.50791682  0.50793908 -0.00000000
  -0.00005449 -0.00003427 -0.00000000
   0.52386146 -0.00003427  0.00000000
   0.68255622  0.15866026  0.00000000
   0.99994222  0.52388828 -0.00000000
   0.15863698  0.68258280 -0.00000000
   0.68255293  0.68258280  0.00000000
Direct configuration=    19
   0.17458163  0.17460946 -0.00000000
   0.50791681  0.50793908 -0.00000000
  -0.00005449 -0.00003427 -0.00000000
   0.52386147 -0.00003427  0.00000000
   0.68255622  0.15866026  0.00000000
   0.99994222  0.52388828 -0.00000000
   0.15863697  0.68258280 -0.00000000
   0.68255293  0.68258280  0.00000000
Direct configuration=    20
   0.17458163  0.17460945 -0.00000000
   0.50791681  0.50793908 -0.00000000
  -0.00005449 -0.00003427 -0.00000000
   0.52386147 -0.00003427  0.00000000
   0.68255622  0.15866026  0.00000000
   0.99994222  0.52388827 -0.00000000
   0.15863697  0.68258280 -0.00000000
   0.68255293  0.68258280  0.00000000
Direct configuration=    21
   0.17458163  0.17460945 -0.00000000
   0.50791681  0.50793908 -0.00000000
  -0.00005449 -0.00003427 -0.00000000
   0.52386147 -0.00003427  0.00000000
   0.68255622  0.15866026  0.00000000
   0.99994222  0.52388827 -0.00000000
   0.15863697  0.68258280 -0.00000000
   0.68255293  0.68258280  0.00000000
Direct configuration=    22
   0.17458163  0.17460945 -0.00000000
   0.50791681  0.50793908 -0.00000000
  -0.00005449 -0.00003427 -0.00000000
   0.52386147 -0.00003427  0.00000000
   0.68255622  0.15866026  0.00000000
   0.99994222  0.52388827 -0.00000000
   0.15863697  0.68258280 -0.00000000
   0.68255293  0.68258280  0.00000000
Direct configuration=    23
   0.17458163  0.17460945 -0.00000000
   0.50791681  0.50793909 -0.00000000
  -0.00005449 -0.00003427 -0.00000000
   0.52386147 -0.00003427  0.00000000
   0.68255622  0.15866026  0.00000000
   0.99994222  0.52388827 -0.00000000
   0.15863697  0.68258280 -0.00000000
   0.68255293  0.68258280  0.00000000
Direct configuration=    24
   0.17458163  0.17460945 -0.00000000
   0.50791681  0.50793909 -0.00000000
  -0.00005449 -0.00003427 -0.00000000
   0.52386147 -0.00003427  0.00000000
   0.68255622  0.15866026  0.00000000
   0.99994222  0.52388827 -0.00000000
   0.15863697  0.68258280 -0.00000000
   0.68255293  0.68258280  0.00000000
Direct configuration=    25
   0.17458163  0.17460945 -0.00000000
   0.50791681  0.50793909 -0.00000000
  -0.00005449 -0.00003427 -0.00000000
   0.52386147 -0.00003427  0.00000000
   0.68255622  0.15866026  0.00000000
   0.99994222  0.52388827 -0.00000000
   0.15863697  0.68258280 -0.00000000
   0.68255293  0.68258280  0.00000000
Direct configuration=    26
   0.17458163  0.17460945 -0.00000000
   0.50791681  0.50793909 -0.00000000
  -0.00005449 -0.00003427 -0.00000000
   0.52386147 -0.00003427  0.00000000
   0.68255622  0.15866026  0.00000000
   0.99994222  0.52388827 -0.00000000
   0.15863697  0.68258280 -0.00000000
   0.68255293  0.68258280  0.00000000
