   8   8   0   0
  0.2469169E+02  0.5174038E-09  0.5174038E-09  0.8520222E-09  0.5000000E-15
  1.000000000000000E-004
  CAR 
 BC3-optical                             
    111.50987367    -24.73319667 2400     -2.39989637      1.00000000
    -24.733  0.0000E+00  0.0000E+00
    -24.676  0.0000E+00  0.0000E+00
    -24.620  0.0000E+00  0.0000E+00
    -24.563  0.0000E+00  0.0000E+00
    -24.506  0.0000E+00  0.0000E+00
    -24.449  0.0000E+00  0.0000E+00
    -24.392  0.0000E+00  0.0000E+00
    -24.336  0.0000E+00  0.0000E+00
    -24.279  0.0000E+00  0.0000E+00
    -24.222  0.0000E+00  0.0000E+00
    -24.165  0.0000E+00  0.0000E+00
    -24.108  0.0000E+00  0.0000E+00
    -24.052  0.0000E+00  0.0000E+00
    -23.995  0.0000E+00  0.0000E+00
    -23.938  0.0000E+00  0.0000E+00
    -23.881  0.0000E+00  0.0000E+00
    -23.825  0.0000E+00  0.0000E+00
    -23.768  0.0000E+00  0.0000E+00
    -23.711  0.0000E+00  0.0000E+00
    -23.654  0.0000E+00  0.0000E+00
    -23.597  0.0000E+00  0.0000E+00
    -23.541  0.0000E+00  0.0000E+00
    -23.484  0.0000E+00  0.0000E+00
    -23.427  0.0000E+00  0.0000E+00
    -23.370  0.0000E+00  0.0000E+00
    -23.313  0.0000E+00  0.0000E+00
    -23.257  0.0000E+00  0.0000E+00
    -23.200  0.0000E+00  0.0000E+00
    -23.143  0.0000E+00  0.0000E+00
    -23.086  0.0000E+00  0.0000E+00
    -23.029  0.0000E+00  0.0000E+00
    -22.973  0.0000E+00  0.0000E+00
    -22.916  0.0000E+00  0.0000E+00
    -22.859  0.0000E+00  0.0000E+00
    -22.802  0.0000E+00  0.0000E+00
    -22.745  0.0000E+00  0.0000E+00
    -22.689  0.0000E+00  0.0000E+00
    -22.632  0.0000E+00  0.0000E+00
    -22.575  0.0000E+00  0.0000E+00
    -22.518  0.0000E+00  0.0000E+00
    -22.462  0.0000E+00  0.0000E+00
    -22.405  0.0000E+00  0.0000E+00
    -22.348  0.0000E+00  0.0000E+00
    -22.291  0.0000E+00  0.0000E+00
    -22.234  0.0000E+00  0.0000E+00
    -22.178  0.0000E+00  0.0000E+00
    -22.121  0.0000E+00  0.0000E+00
    -22.064  0.0000E+00  0.0000E+00
    -22.007  0.0000E+00  0.0000E+00
    -21.950  0.0000E+00  0.0000E+00
    -21.894  0.0000E+00  0.0000E+00
    -21.837  0.0000E+00  0.0000E+00
    -21.780  0.0000E+00  0.0000E+00
    -21.723  0.0000E+00  0.0000E+00
    -21.666  0.0000E+00  0.0000E+00
    -21.610  0.0000E+00  0.0000E+00
    -21.553  0.0000E+00  0.0000E+00
    -21.496  0.0000E+00  0.0000E+00
    -21.439  0.0000E+00  0.0000E+00
    -21.382  0.0000E+00  0.0000E+00
    -21.326  0.0000E+00  0.0000E+00
    -21.269  0.0000E+00  0.0000E+00
    -21.212  0.0000E+00  0.0000E+00
    -21.155  0.0000E+00  0.0000E+00
    -21.099  0.0000E+00  0.0000E+00
    -21.042  0.0000E+00  0.0000E+00
    -20.985  0.0000E+00  0.0000E+00
    -20.928  0.0000E+00  0.0000E+00
    -20.871  0.0000E+00  0.0000E+00
    -20.815  0.0000E+00  0.0000E+00
    -20.758  0.0000E+00  0.0000E+00
    -20.701  0.0000E+00  0.0000E+00
    -20.644  0.0000E+00  0.0000E+00
    -20.587  0.0000E+00  0.0000E+00
    -20.531  0.0000E+00  0.0000E+00
    -20.474  0.0000E+00  0.0000E+00
    -20.417  0.0000E+00  0.0000E+00
    -20.360  0.0000E+00  0.0000E+00
    -20.303  0.0000E+00  0.0000E+00
    -20.247  0.0000E+00  0.0000E+00
    -20.190  0.0000E+00  0.0000E+00
    -20.133  0.0000E+00  0.0000E+00
    -20.076  0.0000E+00  0.0000E+00
    -20.019  0.0000E+00  0.0000E+00
    -19.963  0.0000E+00  0.0000E+00
    -19.906  0.0000E+00  0.0000E+00
    -19.849  0.0000E+00  0.0000E+00
    -19.792  0.0000E+00  0.0000E+00
    -19.736  0.0000E+00  0.0000E+00
    -19.679  0.0000E+00  0.0000E+00
    -19.622  0.0000E+00  0.0000E+00
    -19.565  0.0000E+00  0.0000E+00
    -19.508  0.0000E+00  0.0000E+00
    -19.452  0.0000E+00  0.0000E+00
    -19.395  0.0000E+00  0.0000E+00
    -19.338  0.0000E+00  0.0000E+00
    -19.281  0.0000E+00  0.0000E+00
    -19.224  0.0000E+00  0.0000E+00
    -19.168  0.0000E+00  0.0000E+00
    -19.111  0.0000E+00  0.0000E+00
    -19.054  0.0000E+00  0.0000E+00
    -18.997  0.0000E+00  0.0000E+00
    -18.940  0.0000E+00  0.0000E+00
    -18.884  0.0000E+00  0.0000E+00
    -18.827  0.0000E+00  0.0000E+00
    -18.770  0.0000E+00  0.0000E+00
    -18.713  0.0000E+00  0.0000E+00
    -18.656  0.0000E+00  0.0000E+00
    -18.600  0.0000E+00  0.0000E+00
    -18.543  0.8746E-01  0.4967E-02
    -18.486  0.1625E+01  0.9723E-01
    -18.429  0.2571E+01  0.2432E+00
    -18.373  0.4380E+00  0.2681E+00
    -18.316  0.3236E+01  0.4519E+00
    -18.259  0.1106E+01  0.5147E+00
    -18.202  0.4380E+01  0.7634E+00
    -18.145  0.1465E+01  0.8466E+00
    -18.089  0.2996E+01  0.1017E+01
    -18.032  0.3263E+01  0.1202E+01
    -17.975  0.5843E+01  0.1534E+01
    -17.918  0.4708E+01  0.1801E+01
    -17.861  0.3480E+01  0.1999E+01
    -17.805  0.1845E-01  0.2000E+01
    -17.748  0.0000E+00  0.2000E+01
    -17.691  0.0000E+00  0.2000E+01
    -17.634  0.0000E+00  0.2000E+01
    -17.577  0.0000E+00  0.2000E+01
    -17.521  0.0000E+00  0.2000E+01
    -17.464  0.0000E+00  0.2000E+01
    -17.407  0.0000E+00  0.2000E+01
    -17.350  0.0000E+00  0.2000E+01
    -17.293  0.0000E+00  0.2000E+01
    -17.237  0.0000E+00  0.2000E+01
    -17.180  0.0000E+00  0.2000E+01
    -17.123  0.0000E+00  0.2000E+01
    -17.066  0.0000E+00  0.2000E+01
    -17.010  0.0000E+00  0.2000E+01
    -16.953  0.0000E+00  0.2000E+01
    -16.896  0.0000E+00  0.2000E+01
    -16.839  0.0000E+00  0.2000E+01
    -16.782  0.0000E+00  0.2000E+01
    -16.726  0.0000E+00  0.2000E+01
    -16.669  0.0000E+00  0.2000E+01
    -16.612  0.0000E+00  0.2000E+01
    -16.555  0.0000E+00  0.2000E+01
    -16.498  0.0000E+00  0.2000E+01
    -16.442  0.0000E+00  0.2000E+01
    -16.385  0.0000E+00  0.2000E+01
    -16.328  0.1059E-14  0.2000E+01
    -16.271  0.4063E+00  0.2023E+01
    -16.214  0.2979E+01  0.2192E+01
    -16.158  0.2880E+01  0.2356E+01
    -16.101  0.1284E+01  0.2429E+01
    -16.044  0.4933E+01  0.2709E+01
    -15.987  0.4337E+01  0.2955E+01
    -15.930  0.9778E+00  0.3011E+01
    -15.874  0.2379E+01  0.3146E+01
    -15.817  0.2077E+01  0.3264E+01
    -15.760  0.1018E-09  0.3264E+01
    -15.703  0.3739E+01  0.3476E+01
    -15.647  0.2131E+01  0.3597E+01
    -15.590  0.1110E+01  0.3660E+01
    -15.533  0.1825E+01  0.3764E+01
    -15.476  0.1610E+01  0.3855E+01
    -15.419  0.4052E+01  0.4085E+01
    -15.363  0.2073E+00  0.4097E+01
    -15.306  0.5707E+01  0.4421E+01
    -15.249  0.1611E+00  0.4431E+01
    -15.192  0.2934E+01  0.4597E+01
    -15.135  0.3511E+01  0.4797E+01
    -15.079  0.4561E+01  0.5056E+01
    -15.022  0.3834E+01  0.5273E+01
    -14.965  0.2034E+01  0.5389E+01
    -14.908  0.4238E+01  0.5630E+01
    -14.851  0.1638E+00  0.5639E+01
    -14.795  0.8717E+00  0.5688E+01
    -14.738  0.3530E+01  0.5889E+01
    -14.681  0.1355E+01  0.5966E+01
    -14.624  0.6013E+00  0.6000E+01
    -14.567  0.0000E+00  0.6000E+01
    -14.511  0.0000E+00  0.6000E+01
    -14.454  0.0000E+00  0.6000E+01
    -14.397  0.0000E+00  0.6000E+01
    -14.340  0.0000E+00  0.6000E+01
    -14.284  0.0000E+00  0.6000E+01
    -14.227  0.0000E+00  0.6000E+01
    -14.170  0.0000E+00  0.6000E+01
    -14.113  0.0000E+00  0.6000E+01
    -14.056  0.0000E+00  0.6000E+01
    -14.000  0.0000E+00  0.6000E+01
    -13.943  0.0000E+00  0.6000E+01
    -13.886  0.0000E+00  0.6000E+01
    -13.829  0.0000E+00  0.6000E+01
    -13.772  0.0000E+00  0.6000E+01
    -13.716  0.0000E+00  0.6000E+01
    -13.659  0.0000E+00  0.6000E+01
    -13.602  0.0000E+00  0.6000E+01
    -13.545  0.0000E+00  0.6000E+01
    -13.488  0.0000E+00  0.6000E+01
    -13.432  0.0000E+00  0.6000E+01
    -13.375  0.0000E+00  0.6000E+01
    -13.318  0.0000E+00  0.6000E+01
    -13.261  0.0000E+00  0.6000E+01
    -13.205  0.0000E+00  0.6000E+01
    -13.148  0.0000E+00  0.6000E+01
    -13.091  0.0000E+00  0.6000E+01
    -13.034  0.0000E+00  0.6000E+01
    -12.977  0.0000E+00  0.6000E+01
    -12.921  0.0000E+00  0.6000E+01
    -12.864  0.3180E-02  0.6000E+01
    -12.807  0.2052E+01  0.6117E+01
    -12.750  0.1521E+00  0.6125E+01
    -12.693  0.2662E+01  0.6277E+01
    -12.637  0.3801E+01  0.6492E+01
    -12.580  0.2334E+01  0.6625E+01
    -12.523  0.2935E+01  0.6792E+01
    -12.466  0.8063E-01  0.6796E+01
    -12.409  0.4321E+01  0.7042E+01
    -12.353  0.1479E+01  0.7126E+01
    -12.296  0.9290E+01  0.7653E+01
    -12.239  0.1459E+01  0.7736E+01
    -12.182  0.1461E+01  0.7819E+01
    -12.125  0.6476E-02  0.7819E+01
    -12.069  0.1160E+01  0.7885E+01
    -12.012  0.1737E+01  0.7984E+01
    -11.955  0.3894E-01  0.7986E+01
    -11.898  0.3703E+01  0.8196E+01
    -11.842  0.7069E+00  0.8237E+01
    -11.785  0.2926E+01  0.8403E+01
    -11.728  0.1251E+00  0.8410E+01
    -11.671  0.1342E+01  0.8486E+01
    -11.614  0.0000E+00  0.8486E+01
    -11.558  0.1029E+00  0.8492E+01
    -11.501  0.2258E+01  0.8620E+01
    -11.444  0.1278E+01  0.8693E+01
    -11.387  0.5341E+01  0.8996E+01
    -11.330  0.8026E+00  0.9042E+01
    -11.274  0.1182E-06  0.9042E+01
    -11.217  0.3162E+01  0.9221E+01
    -11.160  0.1727E-01  0.9222E+01
    -11.103  0.1408E+01  0.9302E+01
    -11.046  0.4461E+01  0.9556E+01
    -10.990  0.2932E+01  0.9722E+01
    -10.933  0.2800E-02  0.9722E+01
    -10.876  0.1445E+01  0.9804E+01
    -10.819  0.1215E+01  0.9873E+01
    -10.762  0.2747E+00  0.9889E+01
    -10.706  0.2252E+01  0.1002E+02
    -10.649  0.3618E+01  0.1022E+02
    -10.592  0.0000E+00  0.1022E+02
    -10.535  0.3258E-01  0.1022E+02
    -10.479  0.7011E+00  0.1026E+02
    -10.422  0.0000E+00  0.1026E+02
    -10.365  0.1368E-04  0.1026E+02
    -10.308  0.2934E+01  0.1043E+02
    -10.251  0.0000E+00  0.1043E+02
    -10.195  0.1254E-02  0.1043E+02
    -10.138  0.1466E+01  0.1051E+02
    -10.081  0.0000E+00  0.1051E+02
    -10.024  0.0000E+00  0.1051E+02
     -9.967  0.3272E-14  0.1051E+02
     -9.911  0.1620E+00  0.1052E+02
     -9.854  0.8260E-01  0.1053E+02
     -9.797  0.4918E-09  0.1053E+02
     -9.740  0.2996E+01  0.1070E+02
     -9.683  0.2874E+01  0.1086E+02
     -9.627  0.0000E+00  0.1086E+02
     -9.570  0.3279E-02  0.1086E+02
     -9.513  0.1953E+01  0.1097E+02
     -9.456  0.1137E+01  0.1104E+02
     -9.399  0.3302E+00  0.1106E+02
     -9.343  0.2940E+01  0.1122E+02
     -9.286  0.1462E+01  0.1131E+02
     -9.229  0.0000E+00  0.1131E+02
     -9.172  0.2081E-01  0.1131E+02
     -9.116  0.3682E+01  0.1152E+02
     -9.059  0.3634E+01  0.1172E+02
     -9.002  0.1467E+01  0.1181E+02
     -8.945  0.5539E+01  0.1212E+02
     -8.888  0.1779E+01  0.1222E+02
     -8.832  0.1833E-01  0.1222E+02
     -8.775  0.2935E+01  0.1239E+02
     -8.718  0.4182E+00  0.1241E+02
     -8.661  0.1644E+01  0.1251E+02
     -8.604  0.1386E+00  0.1251E+02
     -8.548  0.0000E+00  0.1251E+02
     -8.491  0.1404E+00  0.1252E+02
     -8.434  0.4431E+01  0.1277E+02
     -8.377  0.6229E+01  0.1313E+02
     -8.320  0.4586E+01  0.1339E+02
     -8.264  0.4006E+01  0.1362E+02
     -8.207  0.4177E+00  0.1364E+02
     -8.150  0.0000E+00  0.1364E+02
     -8.093  0.1866E+00  0.1365E+02
     -8.036  0.1281E+01  0.1372E+02
     -7.980  0.1469E+01  0.1381E+02
     -7.923  0.5622E+01  0.1412E+02
     -7.866  0.2780E+00  0.1414E+02
     -7.809  0.7713E+00  0.1418E+02
     -7.753  0.2865E+01  0.1435E+02
     -7.696  0.9778E-02  0.1435E+02
     -7.639  0.4697E+01  0.1461E+02
     -7.582  0.3045E+01  0.1479E+02
     -7.525  0.6921E+01  0.1518E+02
     -7.469  0.0000E+00  0.1518E+02
     -7.412  0.1758E-10  0.1518E+02
     -7.355  0.2120E+01  0.1530E+02
     -7.298  0.3419E+01  0.1550E+02
     -7.241  0.4951E+01  0.1578E+02
     -7.185  0.2527E+01  0.1592E+02
     -7.128  0.1985E+01  0.1603E+02
     -7.071  0.4008E+00  0.1606E+02
     -7.014  0.3695E+01  0.1627E+02
     -6.957  0.4380E+01  0.1651E+02
     -6.901  0.5754E-06  0.1651E+02
     -6.844  0.1504E+01  0.1660E+02
     -6.787  0.4066E+01  0.1683E+02
     -6.730  0.3554E+00  0.1685E+02
     -6.673  0.2601E+01  0.1700E+02
     -6.617  0.2561E+01  0.1714E+02
     -6.560  0.5339E+01  0.1745E+02
     -6.503  0.4743E+01  0.1772E+02
     -6.446  0.5734E+01  0.1804E+02
     -6.390  0.1581E+01  0.1813E+02
     -6.333  0.3546E+01  0.1833E+02
     -6.276  0.4886E+01  0.1861E+02
     -6.219  0.6051E+01  0.1895E+02
     -6.162  0.3854E+01  0.1917E+02
     -6.106  0.3554E+01  0.1937E+02
     -6.049  0.5405E-01  0.1938E+02
     -5.992  0.4449E+00  0.1940E+02
     -5.935  0.3390E+01  0.1960E+02
     -5.878  0.2228E+01  0.1972E+02
     -5.822  0.2924E+01  0.1989E+02
     -5.765  0.1114E-01  0.1989E+02
     -5.708  0.3264E-05  0.1989E+02
     -5.651  0.5795E+01  0.2022E+02
     -5.594  0.6512E+00  0.2026E+02
     -5.538  0.8890E+00  0.2031E+02
     -5.481  0.1853E-03  0.2031E+02
     -5.424  0.4386E+01  0.2055E+02
     -5.367  0.1534E-01  0.2056E+02
     -5.310  0.2915E+01  0.2072E+02
     -5.254  0.2451E+01  0.2086E+02
     -5.197  0.5398E+01  0.2117E+02
     -5.140  0.1709E+01  0.2126E+02
     -5.083  0.7970E+01  0.2172E+02
     -5.027  0.1066E+02  0.2232E+02
     -4.970  0.1121E+02  0.2296E+02
     -4.913  0.2937E+01  0.2313E+02
     -4.856  0.4830E+01  0.2340E+02
     -4.799  0.5960E+01  0.2374E+02
     -4.743  0.5096E+01  0.2403E+02
     -4.686  0.1443E-02  0.2403E+02
     -4.629  0.6006E-02  0.2403E+02
     -4.572  0.2827E+01  0.2419E+02
     -4.515  0.1569E+01  0.2428E+02
     -4.459  0.4758E+01  0.2455E+02
     -4.402  0.4316E+01  0.2479E+02
     -4.345  0.2592E+01  0.2494E+02
     -4.288  0.1540E+01  0.2503E+02
     -4.231  0.1467E+01  0.2511E+02
     -4.175  0.8508E+00  0.2516E+02
     -4.118  0.6188E+00  0.2519E+02
     -4.061  0.4599E+01  0.2546E+02
     -4.004  0.6527E+01  0.2583E+02
     -3.947  0.3170E+01  0.2601E+02
     -3.891  0.3974E+00  0.2603E+02
     -3.834  0.7314E+01  0.2644E+02
     -3.777  0.1530E-01  0.2645E+02
     -3.720  0.2919E+01  0.2661E+02
     -3.664  0.7289E+00  0.2665E+02
     -3.607  0.1011E+02  0.2723E+02
     -3.550  0.5966E+01  0.2757E+02
     -3.493  0.1893E+01  0.2767E+02
     -3.436  0.4069E+01  0.2790E+02
     -3.380  0.2256E+01  0.2803E+02
     -3.323  0.7283E+01  0.2845E+02
     -3.266  0.4750E+01  0.2872E+02
     -3.209  0.6942E+01  0.2911E+02
     -3.152  0.1645E+01  0.2920E+02
     -3.096  0.3386E+00  0.2922E+02
     -3.039  0.1164E-02  0.2922E+02
     -2.982  0.2931E+01  0.2939E+02
     -2.925  0.2200E+01  0.2951E+02
     -2.868  0.1948E+01  0.2962E+02
     -2.812  0.2570E+00  0.2964E+02
     -2.755  0.6633E-04  0.2964E+02
     -2.698  0.1468E+01  0.2972E+02
     -2.641  0.1467E+01  0.2981E+02
     -2.584  0.1467E+01  0.2989E+02
     -2.528  0.1265E+01  0.2996E+02
     -2.471  0.3358E+00  0.2998E+02
     -2.414  0.3554E+00  0.3000E+02
     -2.357  0.0000E+00  0.3000E+02
     -2.301  0.0000E+00  0.3000E+02
     -2.244  0.0000E+00  0.3000E+02
     -2.187  0.0000E+00  0.3000E+02
     -2.130  0.0000E+00  0.3000E+02
     -2.073  0.0000E+00  0.3000E+02
     -2.017  0.0000E+00  0.3000E+02
     -1.960  0.0000E+00  0.3000E+02
     -1.903  0.0000E+00  0.3000E+02
     -1.846  0.3560E-03  0.3000E+02
     -1.789  0.1108E+01  0.3006E+02
     -1.733  0.1093E+01  0.3012E+02
     -1.676  0.2429E+00  0.3014E+02
     -1.619  0.1225E+01  0.3021E+02
     -1.562  0.2949E+01  0.3038E+02
     -1.505  0.2920E+01  0.3054E+02
     -1.449  0.3650E+01  0.3075E+02
     -1.392  0.7519E+00  0.3079E+02
     -1.335  0.1166E-04  0.3079E+02
     -1.278  0.4091E+01  0.3102E+02
     -1.221  0.3136E+00  0.3104E+02
     -1.165  0.4394E+01  0.3129E+02
     -1.108  0.3536E+01  0.3149E+02
     -1.051  0.2338E+01  0.3162E+02
     -0.994  0.0000E+00  0.3162E+02
     -0.938  0.0000E+00  0.3162E+02
     -0.881  0.2717E-01  0.3163E+02
     -0.824  0.2846E+01  0.3179E+02
     -0.767  0.6180E-01  0.3179E+02
     -0.710  0.0000E+00  0.3179E+02
     -0.654  0.2182E-03  0.3179E+02
     -0.597  0.2716E+01  0.3195E+02
     -0.540  0.4626E+00  0.3197E+02
     -0.483  0.0000E+00  0.3197E+02
     -0.426  0.0000E+00  0.3197E+02
     -0.370  0.0000E+00  0.3197E+02
     -0.313  0.0000E+00  0.3197E+02
     -0.256  0.0000E+00  0.3197E+02
     -0.199  0.0000E+00  0.3197E+02
     -0.142  0.0000E+00  0.3197E+02
     -0.086  0.1597E-08  0.3197E+02
     -0.029  0.9613E+00  0.3203E+02
      0.028  0.1689E-01  0.3203E+02
      0.085  0.0000E+00  0.3203E+02
      0.142  0.0000E+00  0.3203E+02
      0.198  0.0000E+00  0.3203E+02
      0.255  0.0000E+00  0.3203E+02
      0.312  0.0000E+00  0.3203E+02
      0.369  0.0000E+00  0.3203E+02
      0.425  0.0000E+00  0.3203E+02
      0.482  0.1296E-04  0.3203E+02
      0.539  0.2934E+01  0.3219E+02
      0.596  0.0000E+00  0.3219E+02
      0.653  0.0000E+00  0.3219E+02
      0.709  0.4983E-07  0.3219E+02
      0.766  0.1461E+01  0.3228E+02
      0.823  0.6174E-02  0.3228E+02
      0.880  0.0000E+00  0.3228E+02
      0.937  0.0000E+00  0.3228E+02
      0.993  0.7005E-14  0.3228E+02
      1.050  0.2493E+01  0.3242E+02
      1.107  0.5233E+01  0.3272E+02
      1.164  0.2565E+01  0.3286E+02
      1.221  0.1936E+01  0.3297E+02
      1.277  0.2914E+01  0.3314E+02
      1.334  0.1383E+01  0.3322E+02
      1.391  0.1571E+01  0.3331E+02
      1.448  0.2936E+01  0.3347E+02
      1.505  0.4464E-05  0.3347E+02
      1.561  0.4256E+01  0.3371E+02
      1.618  0.1851E+00  0.3372E+02
      1.675  0.2894E+01  0.3389E+02
      1.732  0.5023E-15  0.3389E+02
      1.788  0.7993E+00  0.3393E+02
      1.845  0.9126E+00  0.3399E+02
      1.902  0.1485E+01  0.3407E+02
      1.959  0.3297E+01  0.3426E+02
      2.016  0.2800E+01  0.3442E+02
      2.072  0.1138E+01  0.3448E+02
      2.129  0.1886E+01  0.3459E+02
      2.186  0.2075E+01  0.3471E+02
      2.243  0.6304E+00  0.3474E+02
      2.300  0.3785E+01  0.3496E+02
      2.356  0.2245E-01  0.3496E+02
      2.413  0.1523E+01  0.3504E+02
      2.470  0.4346E+01  0.3529E+02
      2.527  0.6166E-01  0.3530E+02
      2.584  0.3390E+01  0.3549E+02
      2.640  0.2418E+01  0.3562E+02
      2.697  0.6788E-10  0.3563E+02
      2.754  0.1379E+01  0.3570E+02
      2.811  0.2817E+01  0.3586E+02
      2.868  0.4579E+01  0.3612E+02
      2.924  0.3695E+01  0.3633E+02
      2.981  0.2332E-01  0.3633E+02
      3.038  0.2913E+01  0.3650E+02
      3.095  0.4128E-04  0.3650E+02
      3.151  0.2934E+01  0.3667E+02
      3.208  0.1213E+01  0.3674E+02
      3.265  0.1722E+01  0.3683E+02
      3.322  0.5118E+01  0.3712E+02
      3.379  0.5151E+01  0.3742E+02
      3.435  0.1708E-02  0.3742E+02
      3.492  0.5106E-01  0.3742E+02
      3.549  0.2884E+01  0.3758E+02
      3.606  0.2281E-14  0.3758E+02
      3.663  0.1541E+01  0.3767E+02
      3.719  0.1394E+01  0.3775E+02
      3.776  0.1458E+01  0.3783E+02
      3.833  0.5868E+01  0.3817E+02
      3.890  0.1262E-01  0.3817E+02
      3.947  0.3674E+01  0.3838E+02
      4.003  0.2193E+01  0.3850E+02
      4.060  0.7966E+00  0.3855E+02
      4.117  0.2345E+01  0.3868E+02
      4.174  0.1260E+01  0.3875E+02
      4.231  0.6738E-02  0.3875E+02
      4.287  0.3419E+01  0.3894E+02
      4.344  0.9909E+00  0.3900E+02
      4.401  0.1465E+01  0.3908E+02
      4.458  0.4390E+01  0.3933E+02
      4.514  0.1513E+01  0.3942E+02
      4.571  0.2122E+01  0.3954E+02
      4.628  0.2478E+01  0.3968E+02
      4.685  0.1269E+01  0.3975E+02
      4.742  0.3148E+01  0.3993E+02
      4.798  0.4575E+01  0.4019E+02
      4.855  0.4213E+01  0.4043E+02
      4.912  0.2934E+01  0.4060E+02
      4.969  0.5432E-03  0.4060E+02
      5.026  0.2476E+01  0.4074E+02
      5.082  0.1926E+01  0.4085E+02
      5.139  0.2507E+01  0.4099E+02
      5.196  0.7146E+01  0.4140E+02
      5.253  0.3553E+01  0.4160E+02
      5.310  0.2179E-01  0.4160E+02
      5.366  0.3209E+01  0.4178E+02
      5.423  0.1172E+01  0.4185E+02
      5.480  0.1056E-01  0.4185E+02
      5.537  0.5859E+01  0.4218E+02
      5.594  0.3199E+01  0.4236E+02
      5.650  0.6217E+01  0.4272E+02
      5.707  0.7700E+00  0.4276E+02
      5.764  0.1623E+01  0.4285E+02
      5.821  0.2943E+01  0.4302E+02
      5.877  0.1228E+01  0.4309E+02
      5.934  0.6648E+01  0.4347E+02
      5.991  0.4632E+01  0.4373E+02
      6.048  0.2332E+01  0.4386E+02
      6.105  0.2939E+01  0.4403E+02
      6.161  0.5475E+01  0.4434E+02
      6.218  0.1857E+01  0.4444E+02
      6.275  0.1775E+01  0.4455E+02
      6.332  0.4580E+01  0.4481E+02
      6.389  0.5302E+01  0.4511E+02
      6.445  0.5712E+00  0.4514E+02
      6.502  0.4834E+01  0.4541E+02
      6.559  0.1282E+02  0.4614E+02
      6.616  0.4876E+01  0.4642E+02
      6.673  0.1482E+01  0.4650E+02
      6.729  0.7147E+00  0.4654E+02
      6.786  0.1317E+02  0.4729E+02
      6.843  0.2158E+01  0.4741E+02
      6.900  0.1699E+01  0.4751E+02
      6.957  0.8996E+01  0.4802E+02
      7.013  0.3159E+01  0.4820E+02
      7.070  0.2715E+01  0.4835E+02
      7.127  0.9796E+01  0.4891E+02
      7.184  0.3338E+01  0.4910E+02
      7.240  0.4846E+01  0.4938E+02
      7.297  0.6883E+01  0.4977E+02
      7.354  0.4349E+01  0.5001E+02
      7.411  0.2144E+01  0.5014E+02
      7.468  0.7784E+01  0.5058E+02
      7.524  0.1101E+02  0.5120E+02
      7.581  0.7975E+01  0.5166E+02
      7.638  0.5576E+01  0.5197E+02
      7.695  0.3177E+01  0.5215E+02
      7.752  0.1458E+01  0.5224E+02
      7.808  0.4457E+01  0.5249E+02
      7.865  0.4868E+01  0.5277E+02
      7.922  0.4343E+01  0.5301E+02
      7.979  0.3386E+01  0.5320E+02
      8.036  0.1066E+02  0.5381E+02
      8.092  0.8703E+01  0.5430E+02
      8.149  0.6244E+01  0.5466E+02
      8.206  0.9573E+01  0.5520E+02
      8.263  0.1042E+02  0.5579E+02
      8.320  0.2280E+00  0.5581E+02
      8.376  0.8199E+01  0.5627E+02
      8.433  0.1011E+02  0.5685E+02
      8.490  0.1472E+01  0.5693E+02
      8.547  0.5093E+01  0.5722E+02
      8.603  0.8188E+01  0.5768E+02
      8.660  0.1117E+02  0.5832E+02
      8.717  0.1111E+02  0.5895E+02
      8.774  0.8062E+01  0.5941E+02
      8.831  0.1485E+01  0.5949E+02
      8.887  0.4549E+01  0.5975E+02
      8.944  0.3351E+01  0.5994E+02
      9.001  0.2703E+01  0.6009E+02
      9.058  0.6871E+01  0.6048E+02
      9.115  0.9170E+01  0.6101E+02
      9.171  0.7149E+01  0.6141E+02
      9.228  0.5461E+01  0.6172E+02
      9.285  0.9074E+01  0.6224E+02
      9.342  0.4502E+01  0.6249E+02
      9.399  0.6042E+01  0.6284E+02
      9.455  0.7625E+01  0.6327E+02
      9.512  0.1476E+02  0.6411E+02
      9.569  0.4709E+01  0.6437E+02
      9.626  0.4330E-02  0.6438E+02
      9.683  0.3347E+01  0.6457E+02
      9.739  0.1282E+02  0.6529E+02
      9.796  0.7560E+01  0.6572E+02
      9.853  0.5410E+01  0.6603E+02
      9.910  0.3934E+01  0.6625E+02
      9.966  0.5065E+01  0.6654E+02
     10.023  0.2974E+01  0.6671E+02
     10.080  0.3314E+01  0.6690E+02
     10.137  0.1470E+01  0.6698E+02
     10.194  0.4718E+01  0.6725E+02
     10.250  0.5483E+01  0.6756E+02
     10.307  0.6268E+01  0.6792E+02
     10.364  0.3108E+01  0.6809E+02
     10.421  0.9525E+01  0.6863E+02
     10.478  0.4686E+01  0.6890E+02
     10.534  0.3632E+01  0.6911E+02
     10.591  0.8175E+01  0.6957E+02
     10.648  0.4379E+01  0.6982E+02
     10.705  0.9765E+00  0.6987E+02
     10.762  0.5698E+01  0.7020E+02
     10.818  0.3932E+01  0.7042E+02
     10.875  0.3088E+01  0.7060E+02
     10.932  0.6251E+01  0.7095E+02
     10.989  0.1251E+01  0.7102E+02
     11.046  0.8772E+01  0.7152E+02
     11.102  0.8489E+01  0.7200E+02
     11.159  0.5317E+01  0.7231E+02
     11.216  0.1328E-01  0.7231E+02
     11.273  0.1455E+01  0.7239E+02
     11.329  0.5665E+01  0.7271E+02
     11.386  0.2263E+01  0.7284E+02
     11.443  0.6256E+01  0.7319E+02
     11.500  0.7958E-07  0.7319E+02
     11.557  0.2925E+01  0.7336E+02
     11.613  0.4409E+01  0.7361E+02
     11.670  0.8724E+00  0.7366E+02
     11.727  0.8666E+01  0.7415E+02
     11.784  0.4139E+01  0.7439E+02
     11.841  0.3242E+01  0.7457E+02
     11.897  0.8515E+01  0.7506E+02
     11.954  0.9445E+01  0.7559E+02
     12.011  0.4578E+01  0.7585E+02
     12.068  0.7079E+01  0.7625E+02
     12.125  0.1096E+02  0.7688E+02
     12.181  0.1659E+02  0.7782E+02
     12.238  0.3679E+01  0.7803E+02
     12.295  0.5334E+01  0.7833E+02
     12.352  0.7776E+01  0.7877E+02
     12.409  0.7395E+01  0.7919E+02
     12.465  0.1505E+01  0.7928E+02
     12.522  0.2215E+01  0.7940E+02
     12.579  0.8910E+01  0.7991E+02
     12.636  0.3188E+01  0.8009E+02
     12.692  0.1088E+02  0.8071E+02
     12.749  0.4176E+01  0.8095E+02
     12.806  0.1470E+01  0.8103E+02
     12.863  0.7671E+01  0.8146E+02
     12.920  0.4261E+01  0.8171E+02
     12.976  0.5463E+01  0.8202E+02
     13.033  0.1188E+02  0.8269E+02
     13.090  0.6983E+01  0.8309E+02
     13.147  0.3980E+01  0.8331E+02
     13.204  0.5228E+01  0.8361E+02
     13.260  0.6026E+01  0.8395E+02
     13.317  0.1110E+02  0.8458E+02
     13.374  0.1211E+01  0.8465E+02
     13.431  0.4256E+01  0.8489E+02
     13.488  0.3586E+01  0.8510E+02
     13.544  0.2757E+01  0.8525E+02
     13.601  0.7236E+01  0.8567E+02
     13.658  0.3840E+01  0.8588E+02
     13.715  0.7174E+01  0.8629E+02
     13.772  0.6260E+01  0.8665E+02
     13.828  0.5671E+01  0.8697E+02
     13.885  0.9343E+01  0.8750E+02
     13.942  0.7474E+01  0.8792E+02
     13.999  0.8969E+01  0.8843E+02
     14.055  0.6130E+01  0.8878E+02
     14.112  0.7943E+01  0.8923E+02
     14.169  0.3161E+01  0.8941E+02
     14.226  0.1081E+02  0.9003E+02
     14.283  0.6580E+01  0.9040E+02
     14.339  0.1313E+02  0.9115E+02
     14.396  0.8830E+01  0.9165E+02
     14.453  0.2994E+01  0.9182E+02
     14.510  0.1048E+02  0.9241E+02
     14.567  0.2776E+01  0.9257E+02
     14.623  0.1795E+01  0.9267E+02
     14.680  0.8063E+01  0.9313E+02
     14.737  0.4086E+01  0.9336E+02
     14.794  0.4849E+00  0.9339E+02
     14.851  0.9308E+00  0.9344E+02
     14.907  0.9633E+01  0.9399E+02
     14.964  0.8227E+01  0.9446E+02
     15.021  0.5362E+01  0.9476E+02
     15.078  0.1019E+02  0.9534E+02
     15.135  0.1616E+01  0.9543E+02
     15.191  0.4411E+01  0.9568E+02
     15.248  0.6442E+01  0.9605E+02
     15.305  0.2747E+01  0.9620E+02
     15.362  0.3689E+01  0.9641E+02
     15.418  0.5274E+01  0.9671E+02
     15.475  0.3113E+01  0.9689E+02
     15.532  0.4098E+01  0.9712E+02
     15.589  0.1772E+01  0.9722E+02
     15.646  0.5031E+01  0.9751E+02
     15.702  0.3668E+01  0.9772E+02
     15.759  0.1072E+02  0.9832E+02
     15.816  0.2816E+01  0.9848E+02
     15.873  0.5876E+01  0.9882E+02
     15.930  0.1410E+01  0.9890E+02
     15.986  0.4380E+01  0.9915E+02
     16.043  0.6363E+01  0.9951E+02
     16.100  0.6904E+01  0.9990E+02
     16.157  0.8536E+01  0.1004E+03
     16.214  0.6641E+01  0.1008E+03
     16.270  0.1517E+01  0.1008E+03
     16.327  0.4373E+01  0.1011E+03
     16.384  0.3143E+01  0.1013E+03
     16.441  0.5654E+01  0.1016E+03
     16.498  0.6138E+01  0.1019E+03
     16.554  0.7581E+01  0.1024E+03
     16.611  0.1260E+02  0.1031E+03
     16.668  0.3956E+01  0.1033E+03
     16.725  0.8061E+01  0.1038E+03
     16.781  0.6927E+01  0.1042E+03
     16.838  0.6240E+01  0.1045E+03
     16.895  0.7370E+01  0.1049E+03
     16.952  0.4229E+01  0.1052E+03
     17.009  0.6281E+01  0.1055E+03
     17.065  0.6216E+01  0.1059E+03
     17.122  0.9694E+01  0.1064E+03
     17.179  0.9825E+01  0.1070E+03
     17.236  0.1107E+02  0.1076E+03
     17.293  0.7784E+01  0.1081E+03
     17.349  0.5447E+01  0.1084E+03
     17.406  0.3560E+01  0.1086E+03
     17.463  0.8975E+01  0.1091E+03
     17.520  0.1204E+02  0.1098E+03
     17.577  0.1062E+02  0.1104E+03
     17.633  0.6196E+01  0.1107E+03
     17.690  0.1772E+01  0.1108E+03
     17.747  0.6717E+01  0.1112E+03
     17.804  0.1761E+01  0.1113E+03
     17.861  0.4701E+01  0.1116E+03
     17.917  0.1058E+01  0.1116E+03
     17.974  0.5824E+01  0.1120E+03
     18.031  0.8796E+01  0.1125E+03
     18.088  0.8888E+01  0.1130E+03
     18.144  0.4381E+01  0.1132E+03
     18.201  0.8487E+01  0.1137E+03
     18.258  0.6421E+01  0.1141E+03
     18.315  0.4888E+00  0.1141E+03
     18.372  0.5332E+01  0.1144E+03
     18.428  0.6631E+01  0.1148E+03
     18.485  0.1262E+02  0.1155E+03
     18.542  0.8308E+01  0.1160E+03
     18.599  0.7308E+01  0.1164E+03
     18.656  0.8233E+01  0.1168E+03
     18.712  0.5981E+01  0.1172E+03
     18.769  0.2565E+01  0.1173E+03
     18.826  0.1109E+02  0.1180E+03
     18.883  0.5335E+01  0.1183E+03
     18.940  0.6750E+01  0.1186E+03
     18.996  0.1048E+02  0.1192E+03
     19.053  0.4986E+01  0.1195E+03
     19.110  0.5511E+01  0.1198E+03
     19.167  0.1239E+02  0.1205E+03
     19.224  0.5304E+01  0.1208E+03
     19.280  0.8333E+01  0.1213E+03
     19.337  0.5516E+01  0.1216E+03
     19.394  0.9475E+01  0.1222E+03
     19.451  0.1216E+02  0.1229E+03
     19.507  0.1960E+01  0.1230E+03
     19.564  0.7259E+01  0.1234E+03
     19.621  0.7814E+01  0.1238E+03
     19.678  0.1224E+02  0.1245E+03
     19.735  0.7413E+01  0.1249E+03
     19.791  0.8028E+01  0.1254E+03
     19.848  0.8026E+01  0.1259E+03
     19.905  0.6218E+01  0.1262E+03
     19.962  0.1163E+02  0.1269E+03
     20.019  0.2871E+01  0.1270E+03
     20.075  0.1159E+02  0.1277E+03
     20.132  0.1260E+02  0.1284E+03
     20.189  0.6853E+01  0.1288E+03
     20.246  0.8028E+01  0.1293E+03
     20.303  0.4256E+01  0.1295E+03
     20.359  0.1215E+02  0.1302E+03
     20.416  0.8520E+01  0.1307E+03
     20.473  0.9865E+01  0.1312E+03
     20.530  0.3567E+01  0.1314E+03
     20.587  0.4786E+01  0.1317E+03
     20.643  0.1535E+02  0.1326E+03
     20.700  0.1721E+02  0.1336E+03
     20.757  0.6182E+01  0.1339E+03
     20.814  0.4367E+01  0.1342E+03
     20.870  0.2828E+01  0.1343E+03
     20.927  0.9593E+01  0.1349E+03
     20.984  0.9778E+01  0.1354E+03
     21.041  0.5112E+01  0.1357E+03
     21.098  0.1287E+02  0.1364E+03
     21.154  0.7162E+01  0.1368E+03
     21.211  0.8417E+01  0.1373E+03
     21.268  0.2796E+01  0.1375E+03
     21.325  0.5281E+01  0.1378E+03
     21.382  0.5613E+00  0.1378E+03
     21.438  0.8182E+01  0.1383E+03
     21.495  0.2055E+02  0.1394E+03
     21.552  0.4914E+01  0.1397E+03
     21.609  0.2791E+01  0.1399E+03
     21.666  0.3566E+01  0.1401E+03
     21.722  0.1204E+02  0.1408E+03
     21.779  0.7275E+01  0.1412E+03
     21.836  0.3061E+00  0.1412E+03
     21.893  0.2401E+01  0.1413E+03
     21.950  0.7265E+01  0.1417E+03
     22.006  0.9284E+01  0.1423E+03
     22.063  0.4961E+01  0.1426E+03
     22.120  0.5843E+01  0.1429E+03