<?xml version="1.0" encoding="ISO-8859-1"?>
<modeling>
 <generator>
  <i name="program" type="string">vasp </i>
  <i name="version" type="string">5.4.4.18Apr17-6-g9f103f2a35  </i>
  <i name="subversion" type="string">(build Mar 30 2023 15:39:25) complex            parallel </i>
  <i name="platform" type="string">LinuxIFC </i>
  <i name="date" type="string">2023 06 23 </i>
  <i name="time" type="string">19:15:55 </i>
 </generator>
 <incar>
  <i type="string" name="SYSTEM"> BC3-optical</i>
  <i type="int" name="ISTART">     1</i>
  <i type="string" name="PREC">accurate</i>
  <i type="string" name="ALGO"> Exact</i>
  <i type="int" name="ICHARG">     2</i>
  <i name="EDIFF">      0.00000001</i>
  <i name="ENCUT">    450.00000000</i>
  <i type="int" name="NBANDS">   512</i>
  <i type="int" name="NEDOS">  2400</i>
  <i type="logical" name="LREAL"> F  </i>
  <i type="int" name="ISMEAR">     0</i>
  <i name="SIGMA">      0.01000000</i>
  <i type="int" name="NWRITE">     3</i>
  <i type="logical" name="LOPTICS"> T  </i>
  <v type="int" name="KPOINT_BSE">    -1     0     0     0</v>
  <i name="CSHIFT">      0.10000000</i>
  <i name="CSHIFT">      0.10000000</i>
 </incar>
 <structure name="primitive_cell" >
  <crystal>
   <varray name="basis" >
    <v>       4.48084843       2.58701885       0.00000000 </v>
    <v>      -4.48084843       2.58701885       0.00000000 </v>
    <v>       0.00000000       0.00000000       8.52022140 </v>
   </varray>
   <i name="volume">    197.53348383 </i>
   <varray name="rec_basis" >
    <v>       0.11158601       0.19327265       0.00000000 </v>
    <v>      -0.11158601       0.19327265       0.00000000 </v>
    <v>       0.00000000       0.00000000       0.11736784 </v>
   </varray>
  </crystal>
  <varray name="positions" >
   <v>       0.33333300      -0.33333400       0.25000000 </v>
   <v>       0.15869124       0.31738348       0.25000000 </v>
   <v>      -0.31738448      -0.15869224       0.25000000 </v>
   <v>       0.15869124      -0.15869224       0.25000000 </v>
   <v>      -0.15869224       0.15869124       0.25000000 </v>
   <v>       0.31738348       0.15869124       0.25000000 </v>
   <v>      -0.15869224      -0.31738448       0.25000000 </v>
   <v>      -0.33333400       0.33333300       0.25000000 </v>
  </varray>
 </structure>
 <varray name="primitive_index" >
  <v type="int" >        1 </v>
  <v type="int" >        3 </v>
  <v type="int" >        7 </v>
  <v type="int" >        5 </v>
  <v type="int" >        6 </v>
  <v type="int" >        4 </v>
  <v type="int" >        8 </v>
  <v type="int" >        2 </v>
 </varray>
 <kpoints>
  <generation param="Gamma">
   <v type="int" name="divisions">      12       12        1 </v>
   <v name="usershift">      0.00000000       0.00000000       0.00000000 </v>
   <v name="genvec1">      0.08333333       0.00000000       0.00000000 </v>
   <v name="genvec2">      0.00000000       0.08333333       0.00000000 </v>
   <v name="genvec3">      0.00000000       0.00000000       1.00000000 </v>
   <v name="shift">      0.00000000       0.00000000       0.00000000 </v>
  </generation>
  <varray name="kpointlist" >
   <v>       0.00000000       0.00000000       0.00000000 </v>
   <v>       0.08333333       0.00000000       0.00000000 </v>
   <v>       0.16666667       0.00000000       0.00000000 </v>
   <v>       0.25000000      -0.00000000       0.00000000 </v>
   <v>       0.33333333      -0.00000000       0.00000000 </v>
   <v>       0.41666667       0.00000000       0.00000000 </v>
   <v>       0.50000000      -0.00000000       0.00000000 </v>
   <v>       0.08333333       0.08333333       0.00000000 </v>
   <v>       0.16666667       0.08333333       0.00000000 </v>
   <v>       0.25000000       0.08333333       0.00000000 </v>
   <v>       0.33333333       0.08333333       0.00000000 </v>
   <v>       0.41666667       0.08333333       0.00000000 </v>
   <v>       0.16666667       0.16666667       0.00000000 </v>
   <v>       0.25000000       0.16666667       0.00000000 </v>
   <v>       0.33333333       0.16666667       0.00000000 </v>
   <v>       0.41666667       0.16666667       0.00000000 </v>
   <v>       0.25000000       0.25000000       0.00000000 </v>
   <v>       0.33333333       0.25000000       0.00000000 </v>
   <v>       0.33333333       0.33333333       0.00000000 </v>
  </varray>
  <varray name="weights" >
   <v>       0.00694444 </v>
   <v>       0.04166667 </v>
   <v>       0.04166667 </v>
   <v>       0.04166667 </v>
   <v>       0.04166667 </v>
   <v>       0.04166667 </v>
   <v>       0.02083333 </v>
   <v>       0.04166667 </v>
   <v>       0.08333333 </v>
   <v>       0.08333333 </v>
   <v>       0.08333333 </v>
   <v>       0.08333333 </v>
   <v>       0.04166667 </v>
   <v>       0.08333333 </v>
   <v>       0.08333333 </v>
   <v>       0.04166667 </v>
   <v>       0.04166667 </v>
   <v>       0.08333333 </v>
   <v>       0.01388889 </v>
  </varray>
 </kpoints>
 <parameters>
  <separator name="general" >
   <i type="string" name="SYSTEM">BC3-optical</i>
   <i type="logical" name="LCOMPAT"> F  </i>
  </separator>
  <separator name="electronic" >
   <i type="string" name="PREC">accura</i>
   <i name="ENMAX">    450.00000000</i>
   <i name="ENAUG">    644.87300000</i>
   <i name="EDIFF">      0.00000001</i>
   <i type="int" name="IALGO">    90</i>
   <i type="int" name="IWAVPR">    10</i>
   <i type="int" name="NBANDS">   516</i>
   <i name="NELECT">     30.00000000</i>
   <i type="int" name="TURBO">     0</i>
   <i type="int" name="IRESTART">     0</i>
   <i type="int" name="NREBOOT">     0</i>
   <i type="int" name="NMIN">     0</i>
   <i name="EREF">      0.00000000</i>
   <separator name="electronic smearing" >
    <i type="int" name="ISMEAR">     0</i>
    <i name="SIGMA">      0.01000000</i>
    <i name="KSPACING">      0.50000000</i>
    <i type="logical" name="KGAMMA"> T  </i>
   </separator>
   <separator name="electronic projectors" >
    <i type="logical" name="LREAL"> F  </i>
    <v name="ROPT">      0.00000000      0.00000000</v>
    <i type="int" name="LMAXPAW">  -100</i>
    <i type="int" name="LMAXMIX">     2</i>
    <i type="logical" name="NLSPLINE"> F  </i>
   </separator>
   <separator name="electronic startup" >
    <i type="int" name="ISTART">     1</i>
    <i type="int" name="ICHARG">     2</i>
    <i type="int" name="INIWAV">     1</i>
   </separator>
   <separator name="electronic spin" >
    <i type="int" name="ISPIN">     1</i>
    <i type="logical" name="LNONCOLLINEAR"> F  </i>
    <v name="MAGMOM">      1.00000000      1.00000000      1.00000000      1.00000000      1.00000000      1.00000000      1.00000000      1.00000000</v>
    <i name="NUPDOWN">     -1.00000000</i>
    <i type="logical" name="LSORBIT"> F  </i>
    <v name="SAXIS">      0.00000000      0.00000000      1.00000000</v>
    <i type="logical" name="LSPIRAL"> F  </i>
    <v name="QSPIRAL">      0.00000000      0.00000000      0.00000000</v>
    <i type="logical" name="LZEROZ"> F  </i>
   </separator>
   <separator name="electronic exchange-correlation" >
    <i type="logical" name="LASPH"> F  </i>
    <i type="logical" name="LMETAGGA"> F  </i>
   </separator>
   <separator name="electronic convergence" >
    <i type="int" name="NELM">    60</i>
    <i type="int" name="NELMDL">     0</i>
    <i type="int" name="NELMIN">     2</i>
    <i name="ENINI">    450.00000000</i>
    <separator name="electronic convergence detail" >
     <i type="logical" name="LDIAG"> T  </i>
     <i type="logical" name="LSUBROT"> F  </i>
     <i name="WEIMIN">      0.00000000</i>
     <i name="EBREAK">      0.00000000</i>
     <i name="DEPER">      0.30000000</i>
     <i type="int" name="NRMM">     4</i>
     <i name="TIME">      0.40000000</i>
    </separator>
   </separator>
   <separator name="electronic mixer" >
    <i name="AMIX">      0.40000000</i>
    <i name="BMIX">      1.00000000</i>
    <i name="AMIN">      0.10000000</i>
    <i name="AMIX_MAG">      1.60000000</i>
    <i name="BMIX_MAG">      1.00000000</i>
    <separator name="electronic mixer details" >
     <i type="int" name="IMIX">     4</i>
     <i type="logical" name="MIXFIRST"> F  </i>
     <i type="int" name="MAXMIX">   -45</i>
     <i name="WC">    100.00000000</i>
     <i type="int" name="INIMIX">     1</i>
     <i type="int" name="MIXPRE">     1</i>
     <i type="int" name="MREMOVE">     5</i>
    </separator>
   </separator>
   <separator name="electronic dipolcorrection" >
    <i type="logical" name="LDIPOL"> F  </i>
    <i type="logical" name="LMONO"> F  </i>
    <i type="int" name="IDIPOL">     0</i>
    <i name="EPSILON">      1.00000000</i>
    <v name="DIPOL">   -100.00000000   -100.00000000   -100.00000000</v>
    <i name="EFIELD">      0.00000000</i>
   </separator>
  </separator>
  <separator name="grids" >
   <i type="int" name="NGX">    36</i>
   <i type="int" name="NGY">    36</i>
   <i type="int" name="NGZ">    60</i>
   <i type="int" name="NGXF">    72</i>
   <i type="int" name="NGYF">    72</i>
   <i type="int" name="NGZF">   120</i>
   <i type="logical" name="ADDGRID"> F  </i>
  </separator>
  <separator name="ionic" >
   <i type="int" name="NSW">     0</i>
   <i type="int" name="IBRION">    -1</i>
   <i type="int" name="MDALGO">     0</i>
   <i type="int" name="ISIF">     2</i>
   <i name="PSTRESS">      0.00000000</i>
   <i name="EDIFFG">      0.00000010</i>
   <i type="int" name="NFREE">     0</i>
   <i name="POTIM">      0.50000000</i>
   <i name="SMASS">     -3.00000000</i>
   <i name="SCALEE">      1.00000000</i>
  </separator>
  <separator name="ionic md" >
   <i name="TEBEG">      0.00010000</i>
   <i name="TEEND">      0.00010000</i>
   <i type="int" name="NBLOCK">     1</i>
   <i type="int" name="KBLOCK">     1</i>
   <i type="int" name="NPACO">   256</i>
   <i name="APACO">     16.00000000</i>
  </separator>
  <separator name="symmetry" >
   <i type="int" name="ISYM">     2</i>
   <i name="SYMPREC">      0.00001000</i>
  </separator>
  <separator name="dos" >
   <i type="int" name="LORBIT">     0</i>
   <v name="RWIGS">     -1.00000000     -1.00000000</v>
   <i type="int" name="NEDOS">  2400</i>
   <i name="EMIN">     10.00000000</i>
   <i name="EMAX">    -10.00000000</i>
   <i name="EFERMI">      0.00000000</i>
  </separator>
  <separator name="writing" >
   <i type="int" name="NWRITE">     3</i>
   <i type="logical" name="LWAVE"> T  </i>
   <i type="logical" name="LDOWNSAMPLE"> F  </i>
   <i type="logical" name="LCHARG"> T  </i>
   <i type="logical" name="LPARD"> F  </i>
   <i type="logical" name="LVTOT"> F  </i>
   <i type="logical" name="LVHAR"> F  </i>
   <i type="logical" name="LELF"> F  </i>
   <i type="logical" name="LOPTICS"> T  </i>
   <v name="STM">      0.00000000      0.00000000      0.00000000      0.00000000      0.00000000      0.00000000      0.00000000</v>
  </separator>
  <separator name="performance" >
   <i type="int" name="NPAR">    12</i>
   <i type="int" name="NSIM">     4</i>
   <i type="int" name="NBLK">    -1</i>
   <i type="logical" name="LPLANE"> T  </i>
   <i type="logical" name="LSCALAPACK"> T  </i>
   <i type="logical" name="LSCAAWARE"> T  </i>
   <i type="logical" name="LSCALU"> F  </i>
   <i type="logical" name="LASYNC"> F  </i>
   <i type="logical" name="LORBITALREAL"> F  </i>
  </separator>
  <separator name="miscellaneous" >
   <i type="int" name="IDIOT">     3</i>
   <i type="int" name="ISPECIAL">     0</i>
   <i type="logical" name="LMUSIC"> F  </i>
   <v name="POMASS">     10.81100000     12.01100000</v>
   <v name="DARWINR">      0.00000000      0.00000000</v>
   <v name="DARWINV">      1.00000000      1.00000000</v>
   <i type="logical" name="LCORR"> T  </i>
  </separator>
  <i type="logical" name="GGA_COMPAT"> T  </i>
  <i type="logical" name="LBERRY"> F  </i>
  <i type="int" name="ICORELEVEL">     0</i>
  <i type="logical" name="LDAU"> F  </i>
  <i type="int" name="I_CONSTRAINED_M">     0</i>
  <separator name="electronic exchange-correlation" >
   <i type="string" name="GGA">--</i>
   <i type="int" name="VOSKOWN">     0</i>
   <i type="logical" name="LHFCALC"> F  </i>
   <i type="string" name="PRECFOCK"></i>
   <i type="logical" name="LSYMGRAD"> F  </i>
   <i type="logical" name="LHFONE"> F  </i>
   <i type="logical" name="LRHFCALC"> F  </i>
   <i type="logical" name="LTHOMAS"> F  </i>
   <i type="logical" name="LMODELHF"> F  </i>
   <i name="ENCUT4O">     -1.00000000</i>
   <i type="int" name="EXXOEP">     0</i>
   <i type="int" name="FOURORBIT">     0</i>
   <i name="AEXX">      0.00000000</i>
   <i name="HFALPHA">      0.00000000</i>
   <i name="MCALPHA">      0.00000000</i>
   <i name="ALDAX">      1.00000000</i>
   <i name="AGGAX">      1.00000000</i>
   <i name="ALDAC">      1.00000000</i>
   <i name="AGGAC">      1.00000000</i>
   <i type="int" name="NKREDX">     1</i>
   <i type="int" name="NKREDY">     1</i>
   <i type="int" name="NKREDZ">     1</i>
   <i type="logical" name="SHIFTRED"> F  </i>
   <i type="logical" name="ODDONLY"> F  </i>
   <i type="logical" name="EVENONLY"> F  </i>
   <i type="int" name="LMAXFOCK">     0</i>
   <i type="int" name="NMAXFOCKAE">     0</i>
   <i type="logical" name="LFOCKAEDFT"> F  </i>
   <i name="HFSCREEN">      0.00000000</i>
   <i name="HFSCREENC">      0.00000000</i>
   <i type="int" name="NBANDSGWLOW">     0</i>
  </separator>
  <separator name="vdW DFT" >
   <i type="logical" name="LUSE_VDW"> F  </i>
   <i name="Zab_VDW">     -0.84910000</i>
   <i name="PARAM1">      0.12340000</i>
   <i name="PARAM2">      1.00000000</i>
   <i name="PARAM3">      0.00000000</i>
  </separator>
  <separator name="model GW" >
   <i type="int" name="MODEL_GW">     0</i>
   <i name="MODEL_EPS0">     14.81501129</i>
   <i name="MODEL_ALPHA">      1.00000000</i>
  </separator>
  <separator name="linear response parameters" >
   <i type="logical" name="LEPSILON"> F  </i>
   <i type="logical" name="LRPA"> F  </i>
   <i type="logical" name="LNABLA"> F  </i>
   <i type="logical" name="LVEL"> F  </i>
   <i type="int" name="KINTER">     0</i>
   <i name="CSHIFT">      0.10000000</i>
   <i name="OMEGAMAX">     -1.00000000</i>
   <i name="DEG_THRESHOLD">      0.00200000</i>
   <i name="RTIME">     -0.10000000</i>
   <i name="WPLASMAI">      0.00000000</i>
   <v name="DFIELD">      0.00000000      0.00000000      0.00000000</v>
   <v name="WPLASMA">      0.00000000      0.00000000      0.00000000      0.00000000      0.00000000      0.00000000      0.00000000      0.00000000      0.00000000</v>
  </separator>
  <separator name="orbital magnetization" >
   <i type="logical" name="NUCIND"> F  </i>
   <v name="MAGPOS">      0.00000000      0.00000000      0.00000000</v>
   <i type="logical" name="LNICSALL"> T  </i>
   <i type="logical" name="ORBITALMAG"> F  </i>
   <i type="logical" name="LMAGBLOCH"> F  </i>
   <i type="logical" name="LCHIMAG"> F  </i>
   <i type="logical" name="LGAUGE"> T  </i>
   <i type="int" name="MAGATOM">     0</i>
   <v name="MAGDIPOL">      0.00000000      0.00000000      0.00000000</v>
   <v name="AVECCONST">      0.00000000      0.00000000      0.00000000</v>
  </separator>
  <separator name="response functions" >
   <i type="logical" name="LADDER"> F  </i>
   <i type="logical" name="LRPAFORCE"> F  </i>
   <i type="logical" name="LFXC"> F  </i>
   <i type="logical" name="LHARTREE"> T  </i>
   <i type="int" name="IBSE">     0</i>
   <v type="int" name="KPOINT">    -1     0     0     0</v>
   <i type="logical" name="LTCTE"> F  </i>
   <i type="logical" name="LTETE"> F  </i>
   <i type="logical" name="LTRIPLET"> F  </i>
   <i type="logical" name="LFXCEPS"> F  </i>
   <i type="logical" name="LFXHEG"> F  </i>
   <i type="int" name="NATURALO">     2</i>
   <i type="logical" name="L2ORDER"> F  </i>
   <i type="logical" name="LMP2LT"> F  </i>
   <i type="logical" name="LUSEW"> F  </i>
   <i name="ENCUTGW">     -2.00000000</i>
   <i name="ENCUTGWSOFT">     -2.00000000</i>
   <i name="ENCUTLF">     -1.00000000</i>
   <i type="int" name="LMAXMP2">    -1</i>
   <i name="SCISSOR">      0.00000000</i>
   <i type="int" name="NOMEGA">     0</i>
   <i type="int" name="NOMEGAR">     0</i>
   <i type="int" name="NBANDSGW">    -1</i>
   <i type="int" name="NBANDSO">    -1</i>
   <i type="int" name="NBANDSV">    -1</i>
   <i type="int" name="NELM">     1</i>
   <i type="int" name="NELMHF">     1</i>
   <i type="int" name="DIM">     3</i>
   <i type="int" name="ANTIRES">     0</i>
   <i name="OMEGAMAX">    -30.00000000</i>
   <i name="OMEGAMIN">    -30.00000000</i>
   <i name="OMEGATL">   -200.00000000</i>
   <i type="int" name="OMEGAGRID">   140</i>
   <i name="CSHIFT">      0.10000000</i>
   <i type="logical" name="SELFENERGY"> F  </i>
   <i type="logical" name="LSPECTRAL"> F  </i>
   <i type="logical" name="LSPECTRALGW"> F  </i>
   <i type="logical" name="LSINGLES"> F  </i>
   <i type="logical" name="LFERMIGW"> F  </i>
   <i type="logical" name="ODDONLYGW"> F  </i>
   <i type="logical" name="EVENONLYGW"> F  </i>
   <i type="int" name="NKREDLFX">     1</i>
   <i type="int" name="NKREDLFY">     1</i>
   <i type="int" name="NKREDLFZ">     1</i>
   <i type="int" name="MAXMEM">  2800</i>
   <i type="int" name="TELESCOPE">     0</i>
   <i type="int" name="TAUPAR">     1</i>
   <i type="int" name="OMEGAPAR">    -1</i>
   <i name="LAMBDA">      1.00000000</i>
  </separator>
  <separator name="External order field" >
   <i name="OFIELD_KAPPA">      0.00000000</i>
   <v name="OFIELD_K">      0.00000000      0.00000000      0.00000000</v>
   <i name="OFIELD_Q6_NEAR">      0.00000000</i>
   <i name="OFIELD_Q6_FAR">      0.00000000</i>
   <i name="OFIELD_A">      0.00000000</i>
  </separator>
 </parameters>
 <atominfo>
  <atoms>       8 </atoms>
  <types>       2 </types>
  <array name="atoms" >
   <dimension dim="1">ion</dimension>
   <field type="string">element</field>
   <field type="int">atomtype</field>
   <set>
    <rc><c>B </c><c>   1</c></rc>
    <rc><c>B </c><c>   1</c></rc>
    <rc><c>C </c><c>   2</c></rc>
    <rc><c>C </c><c>   2</c></rc>
    <rc><c>C </c><c>   2</c></rc>
    <rc><c>C </c><c>   2</c></rc>
    <rc><c>C </c><c>   2</c></rc>
    <rc><c>C </c><c>   2</c></rc>
   </set>
  </array>
  <array name="atomtypes" >
   <dimension dim="1">type</dimension>
   <field type="int">atomspertype</field>
   <field type="string">element</field>
   <field>mass</field>
   <field>valence</field>
   <field type="string">pseudopotential</field>
   <set>
    <rc><c>   2</c><c>B </c><c>     10.81100000</c><c>      3.00000000</c><c>  PAW_PBE B 06Sep2000                   </c></rc>
    <rc><c>   6</c><c>C </c><c>     12.01100000</c><c>      4.00000000</c><c>  PAW_PBE C 08Apr2002                   </c></rc>
   </set>
  </array>
 </atominfo>
 <structure name="initialpos" >
  <crystal>
   <varray name="basis" >
    <v>       4.48084843       2.58701885       0.00000000 </v>
    <v>      -4.48084843       2.58701885       0.00000000 </v>
    <v>       0.00000000       0.00000000       8.52022140 </v>
   </varray>
   <i name="volume">    197.53348383 </i>
   <varray name="rec_basis" >
    <v>       0.11158601       0.19327265       0.00000000 </v>
    <v>      -0.11158601       0.19327265       0.00000000 </v>
    <v>       0.00000000       0.00000000       0.11736784 </v>
   </varray>
  </crystal>
  <varray name="positions" >
   <v>       0.33333300       0.66666600       0.25000000 </v>
   <v>       0.66666600       0.33333300       0.25000000 </v>
   <v>       0.15869124       0.31738348       0.25000000 </v>
   <v>       0.31738348       0.15869124       0.25000000 </v>
   <v>       0.15869124       0.84130776       0.25000000 </v>
   <v>       0.84130776       0.15869124       0.25000000 </v>
   <v>       0.68261552       0.84130776       0.25000000 </v>
   <v>       0.84130776       0.68261552       0.25000000 </v>
  </varray>
 </structure>
 <calculation>
  <scstep>
   <time name="diag"> 1039.51 1188.31</time>
   <time name="total"> 1039.78 1188.96</time>
   <energy>
    <i name="alphaZ">     25.67921176 </i>
    <i name="ewald">    700.27145080 </i>
    <i name="hartreedc">  -1524.76618073 </i>
    <i name="XCdc">     91.14273073 </i>
    <i name="pawpsdc">    738.13200929 </i>
    <i name="pawaedc">   -739.83780425 </i>
    <i name="eentropy">     -0.00000000 </i>
    <i name="bandstr">   -389.26594481 </i>
    <i name="atom">   1025.20389953 </i>
    <i name="e_fr_energy">    -73.44062769 </i>
    <i name="e_wo_entrp">    -73.44062769 </i>
    <i name="e_0_energy">    -73.44062769 </i>
   </energy>
  </scstep>
  <scstep>
   <time name="diag"> 1015.86 1146.37</time>
   <time name="total"> 1016.00 1146.51</time>
   <energy>
    <i name="e_fr_energy">    -68.99901163 </i>
    <i name="e_wo_entrp">    -68.99901163 </i>
    <i name="e_0_energy">    -68.99901163 </i>
   </energy>
  </scstep>
  <scstep>
   <time name="diag"> 1019.95 1168.74</time>
   <time name="total"> 1020.32 1169.11</time>
   <energy>
    <i name="e_fr_energy">    -67.35394036 </i>
    <i name="e_wo_entrp">    -67.35394036 </i>
    <i name="e_0_energy">    -67.35394036 </i>
   </energy>
  </scstep>
  <scstep>
   <time name="diag"> 1025.49 1163.46</time>
   <time name="total"> 1025.66 1163.63</time>
   <energy>
    <i name="e_fr_energy">    -67.24757337 </i>
    <i name="e_wo_entrp">    -67.24757337 </i>
    <i name="e_0_energy">    -67.24757337 </i>
   </energy>
  </scstep>
  <scstep>
   <time name="diag"> 1060.93 1205.62</time>
   <time name="total"> 1061.07 1205.75</time>
   <energy>
    <i name="e_fr_energy">    -67.22049319 </i>
    <i name="e_wo_entrp">    -67.22049319 </i>
    <i name="e_0_energy">    -67.22049319 </i>
   </energy>
  </scstep>
  <scstep>
   <time name="diag"> 1044.54 1174.74</time>
   <time name="total"> 1044.90 1175.10</time>
   <energy>
    <i name="e_fr_energy">    -67.21907962 </i>
    <i name="e_wo_entrp">    -67.21907962 </i>
    <i name="e_0_energy">    -67.21907962 </i>
   </energy>
  </scstep>
  <scstep>
   <time name="diag">  815.27  877.20</time>
   <time name="total">  815.49  877.50</time>
   <energy>
    <i name="e_fr_energy">    -67.22295241 </i>
    <i name="e_wo_entrp">    -67.22295241 </i>
    <i name="e_0_energy">    -67.22295241 </i>
   </energy>
  </scstep>
  <scstep>
   <time name="diag">  581.10  581.10</time>
   <time name="total">  581.21  581.22</time>
   <energy>
    <i name="e_fr_energy">    -67.22702477 </i>
    <i name="e_wo_entrp">    -67.22702477 </i>
    <i name="e_0_energy">    -67.22702477 </i>
   </energy>
  </scstep>
  <scstep>
   <time name="diag">  575.84  575.85</time>
   <time name="total">  575.96  575.96</time>
   <energy>
    <i name="e_fr_energy">    -67.22770203 </i>
    <i name="e_wo_entrp">    -67.22770203 </i>
    <i name="e_0_energy">    -67.22770203 </i>
   </energy>
  </scstep>
  <scstep>
   <time name="diag">  578.28  578.29</time>
   <time name="total">  578.40  578.41</time>
   <energy>
    <i name="e_fr_energy">    -67.22771724 </i>
    <i name="e_wo_entrp">    -67.22771724 </i>
    <i name="e_0_energy">    -67.22771724 </i>
   </energy>
  </scstep>
  <scstep>
   <time name="diag">  577.84  577.85</time>
   <time name="total">  577.96  577.97</time>
   <energy>
    <i name="e_fr_energy">    -67.22773009 </i>
    <i name="e_wo_entrp">    -67.22773009 </i>
    <i name="e_0_energy">    -67.22773009 </i>
   </energy>
  </scstep>
  <scstep>
   <time name="diag">  577.69  577.70</time>
   <time name="total">  577.81  577.82</time>
   <energy>
    <i name="e_fr_energy">    -67.22773016 </i>
    <i name="e_wo_entrp">    -67.22773016 </i>
    <i name="e_0_energy">    -67.22773016 </i>
   </energy>
  </scstep>
  <scstep>
   <time name="diag">  566.62  566.63</time>
   <time name="total">  566.74  566.75</time>
   <energy>
    <i name="e_fr_energy">    -67.22773024 </i>
    <i name="e_wo_entrp">    -67.22773024 </i>
    <i name="e_0_energy">    -67.22773024 </i>
   </energy>
  </scstep>
  <scstep>
   <time name="diag">  577.54  577.55</time>
   <time name="total">  577.59  577.60</time>
   <energy>
    <i name="alphaZ">     25.67921176 </i>
    <i name="ewald">    700.27145080 </i>
    <i name="hartreedc">  -1646.75291199 </i>
    <i name="XCdc">     96.02426133 </i>
    <i name="pawpsdc">   2894.38113021 </i>
    <i name="pawaedc">  -2896.90834130 </i>
    <i name="eentropy">     -0.00000000 </i>
    <i name="bandstr">   -265.12643058 </i>
    <i name="atom">   1025.20389953 </i>
    <i name="e_fr_energy">    -67.22773025 </i>
    <i name="e_wo_entrp">    -67.22773025 </i>
    <i name="e_0_energy">    -67.22773025 </i>
   </energy>
  </scstep>
  <structure>
   <crystal>
    <varray name="basis" >
     <v>       4.48084843       2.58701885       0.00000000 </v>
     <v>      -4.48084843       2.58701885       0.00000000 </v>
     <v>       0.00000000       0.00000000       8.52022140 </v>
    </varray>
    <i name="volume">    197.53348383 </i>
    <varray name="rec_basis" >
     <v>       0.11158601       0.19327265       0.00000000 </v>
     <v>      -0.11158601       0.19327265       0.00000000 </v>
     <v>       0.00000000       0.00000000       0.11736784 </v>
    </varray>
   </crystal>
   <varray name="positions" >
    <v>       0.33333300       0.66666600       0.25000000 </v>
    <v>       0.66666600       0.33333300       0.25000000 </v>
    <v>       0.15869124       0.31738348       0.25000000 </v>
    <v>       0.31738348       0.15869124       0.25000000 </v>
    <v>       0.15869124       0.84130776       0.25000000 </v>
    <v>       0.84130776       0.15869124       0.25000000 </v>
    <v>       0.68261552       0.84130776       0.25000000 </v>
    <v>       0.84130776       0.68261552       0.25000000 </v>
   </varray>
  </structure>
  <varray name="forces" >
   <v>       0.00000000      -0.00000000       0.00000000 </v>
   <v>       0.00000000      -0.00000000       0.00000000 </v>
   <v>      -0.00064694       0.00112054      -0.00000000 </v>
   <v>       0.00064694       0.00112054      -0.00000000 </v>
   <v>       0.00129389      -0.00000000       0.00000000 </v>
   <v>      -0.00129389      -0.00000000      -0.00000000 </v>
   <v>      -0.00064694      -0.00112054       0.00000000 </v>
   <v>       0.00064694      -0.00112054       0.00000000 </v>
  </varray>
  <varray name="stress" >
   <v>      -0.53277497       0.00000000      -0.00000000 </v>
   <v>       0.00000000      -0.53277489       0.00000000 </v>
   <v>       0.00000000       0.00000000      -1.27118548 </v>
  </varray>
  <energy>
   <i name="e_fr_energy">    -67.22773025 </i>
   <i name="e_wo_entrp">    -67.22773025 </i>
   <i name="e_0_energy">     -0.00000000 </i>
  </energy>
  <time name="totalsc">11066.1311972.27</time>
  <eigenvalues>
   <array>
    <dimension dim="1">band</dimension>
    <dimension dim="2">kpoint</dimension>
    <dimension dim="3">spin</dimension>
    <field>eigene</field>
    <field>occ</field>
    <set>
     <set comment="spin 1">
      <set comment="kpoint 1">
       <r>  -18.5403    1.0000 </r>
       <r>  -14.6488    1.0000 </r>
       <r>  -14.6488    1.0000 </r>
       <r>  -12.2992    1.0000 </r>
       <r>  -12.2992    1.0000 </r>
       <r>  -11.2307    1.0000 </r>
       <r>   -9.9135    1.0000 </r>
       <r>   -7.3452    1.0000 </r>
       <r>   -7.1249    1.0000 </r>
       <r>   -4.9710    1.0000 </r>
       <r>   -4.9710    1.0000 </r>
       <r>   -3.1493    1.0000 </r>
       <r>   -3.1492    1.0000 </r>
       <r>   -2.4667    1.0000 </r>
       <r>   -2.4666    1.0000 </r>
       <r>   -0.6315    0.0000 </r>
       <r>    1.1011    0.0000 </r>
       <r>    1.1012    0.0000 </r>
       <r>    1.7906    0.0000 </r>
       <r>    1.9217    0.0000 </r>
       <r>    4.5207    0.0000 </r>
       <r>    5.9130    0.0000 </r>
       <r>    6.3151    0.0000 </r>
       <r>    6.3151    0.0000 </r>
       <r>    7.6726    0.0000 </r>
       <r>    8.0796    0.0000 </r>
       <r>    8.0797    0.0000 </r>
       <r>    8.9955    0.0000 </r>
       <r>    9.1419    0.0000 </r>
       <r>    9.1419    0.0000 </r>
       <r>    9.2976    0.0000 </r>
       <r>    9.2976    0.0000 </r>
       <r>    9.5160    0.0000 </r>
       <r>   10.3273    0.0000 </r>
       <r>   10.6836    0.0000 </r>
       <r>   10.6836    0.0000 </r>
       <r>   11.3540    0.0000 </r>
       <r>   11.3541    0.0000 </r>
       <r>   11.3922    0.0000 </r>
       <r>   11.3995    0.0000 </r>
       <r>   11.9841    0.0000 </r>
       <r>   13.0008    0.0000 </r>
       <r>   13.0008    0.0000 </r>
       <r>   13.0285    0.0000 </r>
       <r>   13.1319    0.0000 </r>
       <r>   13.1319    0.0000 </r>
       <r>   13.1825    0.0000 </r>
       <r>   13.5279    0.0000 </r>
       <r>   15.6135    0.0000 </r>
       <r>   15.8008    0.0000 </r>
       <r>   15.8008    0.0000 </r>
       <r>   16.4913    0.0000 </r>
       <r>   18.2923    0.0000 </r>
       <r>   18.2923    0.0000 </r>
       <r>   18.8601    0.0000 </r>
       <r>   18.8602    0.0000 </r>
       <r>   19.1473    0.0000 </r>
       <r>   19.2290    0.0000 </r>
       <r>   19.5333    0.0000 </r>
       <r>   19.5333    0.0000 </r>
       <r>   19.7217    0.0000 </r>
       <r>   19.9888    0.0000 </r>
       <r>   19.9888    0.0000 </r>
       <r>   20.0167    0.0000 </r>
       <r>   20.4546    0.0000 </r>
       <r>   21.0813    0.0000 </r>
       <r>   21.3027    0.0000 </r>
       <r>   21.3027    0.0000 </r>
       <r>   22.8793    0.0000 </r>
       <r>   23.2968    0.0000 </r>
       <r>   23.2968    0.0000 </r>
       <r>   23.4397    0.0000 </r>
       <r>   23.4397    0.0000 </r>
       <r>   23.5738    0.0000 </r>
       <r>   24.0936    0.0000 </r>
       <r>   24.0936    0.0000 </r>
       <r>   24.4126    0.0000 </r>
       <r>   24.4126    0.0000 </r>
       <r>   24.5372    0.0000 </r>
       <r>   24.6374    0.0000 </r>
       <r>   24.8763    0.0000 </r>
       <r>   25.2174    0.0000 </r>
       <r>   25.2174    0.0000 </r>
       <r>   26.6516    0.0000 </r>
       <r>   26.6516    0.0000 </r>
       <r>   26.7538    0.0000 </r>
       <r>   26.7538    0.0000 </r>
       <r>   26.8463    0.0000 </r>
       <r>   27.0341    0.0000 </r>
       <r>   27.1216    0.0000 </r>
       <r>   27.7308    0.0000 </r>
       <r>   27.7308    0.0000 </r>
       <r>   27.7998    0.0000 </r>
       <r>   27.7998    0.0000 </r>
       <r>   27.8401    0.0000 </r>
       <r>   28.2967    0.0000 </r>
       <r>   28.2967    0.0000 </r>
       <r>   28.7936    0.0000 </r>
       <r>   28.7936    0.0000 </r>
       <r>   28.9524    0.0000 </r>
       <r>   29.6489    0.0000 </r>
       <r>   30.2897    0.0000 </r>
       <r>   31.1920    0.0000 </r>
       <r>   31.1920    0.0000 </r>
       <r>   31.4239    0.0000 </r>
       <r>   31.4816    0.0000 </r>
       <r>   31.4816    0.0000 </r>
       <r>   31.8841    0.0000 </r>
       <r>   32.0865    0.0000 </r>
       <r>   32.0865    0.0000 </r>
       <r>   32.4044    0.0000 </r>
       <r>   32.6844    0.0000 </r>
       <r>   33.2983    0.0000 </r>
       <r>   33.2983    0.0000 </r>
       <r>   33.3127    0.0000 </r>
       <r>   33.3127    0.0000 </r>
       <r>   33.4606    0.0000 </r>
       <r>   34.0099    0.0000 </r>
       <r>   34.9816    0.0000 </r>
       <r>   34.9816    0.0000 </r>
       <r>   35.0442    0.0000 </r>
       <r>   35.0442    0.0000 </r>
       <r>   35.2268    0.0000 </r>
       <r>   35.2268    0.0000 </r>
       <r>   35.8334    0.0000 </r>
       <r>   35.8655    0.0000 </r>
       <r>   35.8655    0.0000 </r>
       <r>   36.0454    0.0000 </r>
       <r>   36.6964    0.0000 </r>
       <r>   36.6964    0.0000 </r>
       <r>   37.0546    0.0000 </r>
       <r>   37.3010    0.0000 </r>
       <r>   37.3124    0.0000 </r>
       <r>   37.3124    0.0000 </r>
       <r>   37.3416    0.0000 </r>
       <r>   37.3416    0.0000 </r>
       <r>   37.3663    0.0000 </r>
       <r>   37.4564    0.0000 </r>
       <r>   37.4564    0.0000 </r>
       <r>   37.6595    0.0000 </r>
       <r>   37.8898    0.0000 </r>
       <r>   37.9469    0.0000 </r>
       <r>   38.2105    0.0000 </r>
       <r>   38.2105    0.0000 </r>
       <r>   38.5577    0.0000 </r>
       <r>   38.8474    0.0000 </r>
       <r>   38.8474    0.0000 </r>
       <r>   40.8943    0.0000 </r>
       <r>   42.2089    0.0000 </r>
       <r>   42.2089    0.0000 </r>
       <r>   42.3915    0.0000 </r>
       <r>   43.7541    0.0000 </r>
       <r>   43.7541    0.0000 </r>
       <r>   43.9385    0.0000 </r>
       <r>   43.9385    0.0000 </r>
       <r>   44.3103    0.0000 </r>
       <r>   44.3103    0.0000 </r>
       <r>   44.3566    0.0000 </r>
       <r>   44.4926    0.0000 </r>
       <r>   44.4926    0.0000 </r>
       <r>   44.7977    0.0000 </r>
       <r>   45.3264    0.0000 </r>
       <r>   45.3264    0.0000 </r>
       <r>   45.6092    0.0000 </r>
       <r>   45.6092    0.0000 </r>
       <r>   46.0655    0.0000 </r>
       <r>   46.5987    0.0000 </r>
       <r>   46.8263    0.0000 </r>
       <r>   47.8871    0.0000 </r>
       <r>   47.9682    0.0000 </r>
       <r>   48.7262    0.0000 </r>
       <r>   48.7262    0.0000 </r>
       <r>   48.9385    0.0000 </r>
       <r>   49.0206    0.0000 </r>
       <r>   49.0207    0.0000 </r>
       <r>   49.1895    0.0000 </r>
       <r>   49.3789    0.0000 </r>
       <r>   49.5076    0.0000 </r>
       <r>   49.5077    0.0000 </r>
       <r>   49.7124    0.0000 </r>
       <r>   49.7124    0.0000 </r>
       <r>   50.1370    0.0000 </r>
       <r>   50.3457    0.0000 </r>
       <r>   50.3458    0.0000 </r>
       <r>   50.5718    0.0000 </r>
       <r>   50.6150    0.0000 </r>
       <r>   50.6150    0.0000 </r>
       <r>   51.5785    0.0000 </r>
       <r>   51.5785    0.0000 </r>
       <r>   51.7184    0.0000 </r>
       <r>   52.0203    0.0000 </r>
       <r>   52.4951    0.0000 </r>
       <r>   52.4951    0.0000 </r>
       <r>   52.5049    0.0000 </r>
       <r>   52.5049    0.0000 </r>
       <r>   52.8867    0.0000 </r>
       <r>   53.4918    0.0000 </r>
       <r>   53.4918    0.0000 </r>
       <r>   53.4926    0.0000 </r>
       <r>   53.8300    0.0000 </r>
       <r>   53.8300    0.0000 </r>
       <r>   53.9143    0.0000 </r>
       <r>   54.2916    0.0000 </r>
       <r>   54.3186    0.0000 </r>
       <r>   54.3186    0.0000 </r>
       <r>   54.4694    0.0000 </r>
       <r>   54.4695    0.0000 </r>
       <r>   54.6490    0.0000 </r>
       <r>   54.9433    0.0000 </r>
       <r>   54.9433    0.0000 </r>
       <r>   55.2684    0.0000 </r>
       <r>   55.3383    0.0000 </r>
       <r>   55.6000    0.0000 </r>
       <r>   55.7091    0.0000 </r>
       <r>   55.8562    0.0000 </r>
       <r>   55.8562    0.0000 </r>
       <r>   55.9784    0.0000 </r>
       <r>   55.9785    0.0000 </r>
       <r>   56.0273    0.0000 </r>
       <r>   56.4062    0.0000 </r>
       <r>   56.4062    0.0000 </r>
       <r>   57.0541    0.0000 </r>
       <r>   57.0541    0.0000 </r>
       <r>   57.1684    0.0000 </r>
       <r>   57.1813    0.0000 </r>
       <r>   57.1813    0.0000 </r>
       <r>   57.4345    0.0000 </r>
       <r>   57.4759    0.0000 </r>
       <r>   57.4759    0.0000 </r>
       <r>   57.6909    0.0000 </r>
       <r>   57.6909    0.0000 </r>
       <r>   57.8660    0.0000 </r>
       <r>   57.8786    0.0000 </r>
       <r>   57.9830    0.0000 </r>
       <r>   57.9830    0.0000 </r>
       <r>   58.0113    0.0000 </r>
       <r>   58.0225    0.0000 </r>
       <r>   58.1490    0.0000 </r>
       <r>   58.1490    0.0000 </r>
       <r>   58.1727    0.0000 </r>
       <r>   58.3631    0.0000 </r>
       <r>   58.3631    0.0000 </r>
       <r>   58.3839    0.0000 </r>
       <r>   58.3839    0.0000 </r>
       <r>   58.8988    0.0000 </r>
       <r>   58.8988    0.0000 </r>
       <r>   59.0563    0.0000 </r>
       <r>   59.7119    0.0000 </r>
       <r>   59.7119    0.0000 </r>
       <r>   59.9710    0.0000 </r>
       <r>   60.2200    0.0000 </r>
       <r>   60.6108    0.0000 </r>
       <r>   60.6108    0.0000 </r>
       <r>   60.9781    0.0000 </r>
       <r>   61.1585    0.0000 </r>
       <r>   61.1585    0.0000 </r>
       <r>   62.1187    0.0000 </r>
       <r>   62.1187    0.0000 </r>
       <r>   62.7654    0.0000 </r>
       <r>   63.2527    0.0000 </r>
       <r>   63.6720    0.0000 </r>
       <r>   63.6720    0.0000 </r>
       <r>   65.3916    0.0000 </r>
       <r>   65.3916    0.0000 </r>
       <r>   65.7610    0.0000 </r>
       <r>   65.7610    0.0000 </r>
       <r>   65.9659    0.0000 </r>
       <r>   66.0271    0.0000 </r>
       <r>   66.1788    0.0000 </r>
       <r>   66.1788    0.0000 </r>
       <r>   66.2120    0.0000 </r>
       <r>   66.2537    0.0000 </r>
       <r>   66.3494    0.0000 </r>
       <r>   66.3494    0.0000 </r>
       <r>   66.5925    0.0000 </r>
       <r>   66.7507    0.0000 </r>
       <r>   66.7508    0.0000 </r>
       <r>   66.8896    0.0000 </r>
       <r>   67.0713    0.0000 </r>
       <r>   67.0713    0.0000 </r>
       <r>   67.2113    0.0000 </r>
       <r>   67.2989    0.0000 </r>
       <r>   67.2989    0.0000 </r>
       <r>   67.3851    0.0000 </r>
       <r>   67.6908    0.0000 </r>
       <r>   67.6908    0.0000 </r>
       <r>   68.2115    0.0000 </r>
       <r>   68.2115    0.0000 </r>
       <r>   68.5114    0.0000 </r>
       <r>   68.5114    0.0000 </r>
       <r>   68.6015    0.0000 </r>
       <r>   68.6015    0.0000 </r>
       <r>   68.6157    0.0000 </r>
       <r>   68.6247    0.0000 </r>
       <r>   68.6344    0.0000 </r>
       <r>   68.9972    0.0000 </r>
       <r>   69.2825    0.0000 </r>
       <r>   69.3119    0.0000 </r>
       <r>   69.3119    0.0000 </r>
       <r>   69.4176    0.0000 </r>
       <r>   69.4177    0.0000 </r>
       <r>   69.5744    0.0000 </r>
       <r>   69.9786    0.0000 </r>
       <r>   69.9786    0.0000 </r>
       <r>   70.2573    0.0000 </r>
       <r>   70.7134    0.0000 </r>
       <r>   70.7134    0.0000 </r>
       <r>   71.1024    0.0000 </r>
       <r>   71.2748    0.0000 </r>
       <r>   71.7878    0.0000 </r>
       <r>   72.4061    0.0000 </r>
       <r>   72.4061    0.0000 </r>
       <r>   72.4156    0.0000 </r>
       <r>   72.6734    0.0000 </r>
       <r>   72.7043    0.0000 </r>
       <r>   72.7043    0.0000 </r>
       <r>   72.7429    0.0000 </r>
       <r>   72.7472    0.0000 </r>
       <r>   72.7472    0.0000 </r>
       <r>   73.3727    0.0000 </r>
       <r>   73.3727    0.0000 </r>
       <r>   73.3751    0.0000 </r>
       <r>   73.3751    0.0000 </r>
       <r>   73.4653    0.0000 </r>
       <r>   73.4653    0.0000 </r>
       <r>   73.6715    0.0000 </r>
       <r>   73.9920    0.0000 </r>
       <r>   74.0075    0.0000 </r>
       <r>   74.0075    0.0000 </r>
       <r>   74.4828    0.0000 </r>
       <r>   75.0597    0.0000 </r>
       <r>   75.0597    0.0000 </r>
       <r>   75.1478    0.0000 </r>
       <r>   75.8349    0.0000 </r>
       <r>   76.6256    0.0000 </r>
       <r>   76.6256    0.0000 </r>
       <r>   76.8710    0.0000 </r>
       <r>   77.0277    0.0000 </r>
       <r>   77.5077    0.0000 </r>
       <r>   77.7840    0.0000 </r>
       <r>   77.7840    0.0000 </r>
       <r>   77.8734    0.0000 </r>
       <r>   77.8734    0.0000 </r>
       <r>   77.9113    0.0000 </r>
       <r>   77.9113    0.0000 </r>
       <r>   78.0212    0.0000 </r>
       <r>   78.3211    0.0000 </r>
       <r>   78.3211    0.0000 </r>
       <r>   78.6119    0.0000 </r>
       <r>   78.6120    0.0000 </r>
       <r>   78.6572    0.0000 </r>
       <r>   78.9605    0.0000 </r>
       <r>   78.9606    0.0000 </r>
       <r>   79.3666    0.0000 </r>
       <r>   79.4510    0.0000 </r>
       <r>   79.4510    0.0000 </r>
       <r>   79.9352    0.0000 </r>
       <r>   79.9352    0.0000 </r>
       <r>   80.0121    0.0000 </r>
       <r>   80.0897    0.0000 </r>
       <r>   80.7824    0.0000 </r>
       <r>   80.7825    0.0000 </r>
       <r>   81.0321    0.0000 </r>
       <r>   81.0321    0.0000 </r>
       <r>   81.1526    0.0000 </r>
       <r>   81.3520    0.0000 </r>
       <r>   81.3520    0.0000 </r>
       <r>   81.3784    0.0000 </r>
       <r>   81.4070    0.0000 </r>
       <r>   81.5901    0.0000 </r>
       <r>   81.8722    0.0000 </r>
       <r>   81.9254    0.0000 </r>
       <r>   81.9254    0.0000 </r>
       <r>   81.9366    0.0000 </r>
       <r>   81.9366    0.0000 </r>
       <r>   82.3570    0.0000 </r>
       <r>   82.6418    0.0000 </r>
       <r>   82.6418    0.0000 </r>
       <r>   82.6462    0.0000 </r>
       <r>   82.7812    0.0000 </r>
       <r>   82.7880    0.0000 </r>
       <r>   82.9769    0.0000 </r>
       <r>   83.0263    0.0000 </r>
       <r>   83.0263    0.0000 </r>
       <r>   83.0285    0.0000 </r>
       <r>   83.0285    0.0000 </r>
       <r>   84.1896    0.0000 </r>
       <r>   84.1896    0.0000 </r>
       <r>   84.2833    0.0000 </r>
       <r>   84.2833    0.0000 </r>
       <r>   84.9984    0.0000 </r>
       <r>   84.9984    0.0000 </r>
       <r>   85.6300    0.0000 </r>
       <r>   85.6549    0.0000 </r>
       <r>   85.6549    0.0000 </r>
       <r>   86.5747    0.0000 </r>
       <r>   86.8479    0.0000 </r>
       <r>   86.8479    0.0000 </r>
       <r>   87.6634    0.0000 </r>
       <r>   88.4822    0.0000 </r>
       <r>   88.4822    0.0000 </r>
       <r>   89.1168    0.0000 </r>
       <r>   89.7621    0.0000 </r>
       <r>   89.7621    0.0000 </r>
       <r>   90.2041    0.0000 </r>
       <r>   90.2041    0.0000 </r>
       <r>   90.3667    0.0000 </r>
       <r>   91.1495    0.0000 </r>
       <r>   91.7127    0.0000 </r>
       <r>   91.7128    0.0000 </r>
       <r>   91.7477    0.0000 </r>
       <r>   91.7477    0.0000 </r>
       <r>   91.7833    0.0000 </r>
       <r>   92.0133    0.0000 </r>
       <r>   92.0926    0.0000 </r>
       <r>   92.1247    0.0000 </r>
       <r>   92.1961    0.0000 </r>
       <r>   92.1961    0.0000 </r>
       <r>   92.2186    0.0000 </r>
       <r>   92.2186    0.0000 </r>
       <r>   92.2763    0.0000 </r>
       <r>   92.5633    0.0000 </r>
       <r>   93.0951    0.0000 </r>
       <r>   93.2759    0.0000 </r>
       <r>   93.2759    0.0000 </r>
       <r>   93.5665    0.0000 </r>
       <r>   93.5665    0.0000 </r>
       <r>   93.8782    0.0000 </r>
       <r>   94.5586    0.0000 </r>
       <r>   94.5586    0.0000 </r>
       <r>   94.6939    0.0000 </r>
       <r>   94.6939    0.0000 </r>
       <r>   95.2238    0.0000 </r>
       <r>   95.2238    0.0000 </r>
       <r>   95.3031    0.0000 </r>
       <r>   95.4568    0.0000 </r>
       <r>   95.4740    0.0000 </r>
       <r>   95.5496    0.0000 </r>
       <r>   95.5496    0.0000 </r>
       <r>   95.5565    0.0000 </r>
       <r>   95.5565    0.0000 </r>
       <r>   95.5648    0.0000 </r>
       <r>   95.6407    0.0000 </r>
       <r>   95.6407    0.0000 </r>
       <r>   95.6413    0.0000 </r>
       <r>   95.8103    0.0000 </r>
       <r>   95.8103    0.0000 </r>
       <r>   95.8886    0.0000 </r>
       <r>   95.8974    0.0000 </r>
       <r>   95.8974    0.0000 </r>
       <r>   95.9135    0.0000 </r>
       <r>   95.9762    0.0000 </r>
       <r>   96.3296    0.0000 </r>
       <r>   96.3296    0.0000 </r>
       <r>   96.3488    0.0000 </r>
       <r>   96.6568    0.0000 </r>
       <r>   96.6568    0.0000 </r>
       <r>   96.9390    0.0000 </r>
       <r>   97.1876    0.0000 </r>
       <r>   97.2840    0.0000 </r>
       <r>   97.2841    0.0000 </r>
       <r>   97.3371    0.0000 </r>
       <r>   97.9581    0.0000 </r>
       <r>   97.9581    0.0000 </r>
       <r>   98.0972    0.0000 </r>
       <r>   98.4877    0.0000 </r>
       <r>   98.4877    0.0000 </r>
       <r>   98.7806    0.0000 </r>
       <r>   98.9778    0.0000 </r>
       <r>   98.9778    0.0000 </r>
       <r>   99.0057    0.0000 </r>
       <r>   99.0240    0.0000 </r>
       <r>   99.0507    0.0000 </r>
       <r>   99.0507    0.0000 </r>
       <r>   99.1151    0.0000 </r>
       <r>   99.1151    0.0000 </r>
       <r>   99.4659    0.0000 </r>
       <r>   99.4659    0.0000 </r>
       <r>   99.5170    0.0000 </r>
       <r>   99.5659    0.0000 </r>
       <r>   99.5659    0.0000 </r>
       <r>   99.7694    0.0000 </r>
       <r>   99.7695    0.0000 </r>
       <r>   99.8003    0.0000 </r>
       <r>   99.8003    0.0000 </r>
       <r>   99.8280    0.0000 </r>
       <r>   99.8525    0.0000 </r>
       <r>   99.8823    0.0000 </r>
       <r>   99.9428    0.0000 </r>
       <r>   99.9428    0.0000 </r>
       <r>   99.9738    0.0000 </r>
       <r>  100.1660    0.0000 </r>
       <r>  100.2554    0.0000 </r>
       <r>  100.2554    0.0000 </r>
       <r>  100.4135    0.0000 </r>
       <r>  100.4135    0.0000 </r>
       <r>  100.5639    0.0000 </r>
       <r>  100.5639    0.0000 </r>
       <r>  100.8155    0.0000 </r>
       <r>  100.8155    0.0000 </r>
       <r>  100.9114    0.0000 </r>
       <r>  100.9114    0.0000 </r>
       <r>  101.0315    0.0000 </r>
       <r>  101.4289    0.0000 </r>
       <r>  101.6459    0.0000 </r>
       <r>  102.3055    0.0000 </r>
       <r>  102.3365    0.0000 </r>
       <r>  102.3755    0.0000 </r>
       <r>  102.3755    0.0000 </r>
       <r>  102.4342    0.0000 </r>
       <r>  102.4342    0.0000 </r>
       <r>  102.4403    0.0000 </r>
       <r>  102.4595    0.0000 </r>
       <r>  102.4595    0.0000 </r>
       <r>  102.4843    0.0000 </r>
       <r>  102.4844    0.0000 </r>
      </set>
      <set comment="kpoint 2">
       <r>  -18.5132    1.0000 </r>
       <r>  -14.7809    1.0000 </r>
       <r>  -14.6912    1.0000 </r>
       <r>  -12.3384    1.0000 </r>
       <r>  -12.2008    1.0000 </r>
       <r>  -11.0961    1.0000 </r>
       <r>   -9.7531    1.0000 </r>
       <r>   -7.3040    1.0000 </r>
       <r>   -7.1822    1.0000 </r>
       <r>   -5.0944    1.0000 </r>
       <r>   -4.9934    1.0000 </r>
       <r>   -3.2737    1.0000 </r>
       <r>   -3.1697    1.0000 </r>
       <r>   -2.6092    1.0000 </r>
       <r>   -2.5354    1.0000 </r>
       <r>   -0.8361    0.0000 </r>
       <r>    1.1605    0.0000 </r>
       <r>    1.4116    0.0000 </r>
       <r>    1.9153    0.0000 </r>
       <r>    1.9734    0.0000 </r>
       <r>    4.5728    0.0000 </r>
       <r>    5.9692    0.0000 </r>
       <r>    6.3866    0.0000 </r>
       <r>    6.4781    0.0000 </r>
       <r>    7.6627    0.0000 </r>
       <r>    8.0377    0.0000 </r>
       <r>    8.2336    0.0000 </r>
       <r>    8.2352    0.0000 </r>
       <r>    8.6808    0.0000 </r>
       <r>    8.7555    0.0000 </r>
       <r>    9.8480    0.0000 </r>
       <r>    9.8619    0.0000 </r>
       <r>    9.9124    0.0000 </r>
       <r>   10.3759    0.0000 </r>
       <r>   10.3995    0.0000 </r>
       <r>   10.4193    0.0000 </r>
       <r>   10.9077    0.0000 </r>
       <r>   11.4137    0.0000 </r>
       <r>   11.6687    0.0000 </r>
       <r>   12.0448    0.0000 </r>
       <r>   12.1516    0.0000 </r>
       <r>   12.3345    0.0000 </r>
       <r>   12.5608    0.0000 </r>
       <r>   12.8381    0.0000 </r>
       <r>   13.0972    0.0000 </r>
       <r>   13.6279    0.0000 </r>
       <r>   13.8001    0.0000 </r>
       <r>   14.2603    0.0000 </r>
       <r>   15.5623    0.0000 </r>
       <r>   15.6614    0.0000 </r>
       <r>   15.7181    0.0000 </r>
       <r>   16.2792    0.0000 </r>
       <r>   18.0211    0.0000 </r>
       <r>   18.0716    0.0000 </r>
       <r>   18.6452    0.0000 </r>
       <r>   18.9834    0.0000 </r>
       <r>   18.9928    0.0000 </r>
       <r>   19.3961    0.0000 </r>
       <r>   19.4430    0.0000 </r>
       <r>   19.8594    0.0000 </r>
       <r>   19.9227    0.0000 </r>
       <r>   19.9355    0.0000 </r>
       <r>   20.0222    0.0000 </r>
       <r>   20.0695    0.0000 </r>
       <r>   20.4469    0.0000 </r>
       <r>   20.9480    0.0000 </r>
       <r>   21.1306    0.0000 </r>
       <r>   21.1701    0.0000 </r>
       <r>   22.3006    0.0000 </r>
       <r>   22.5129    0.0000 </r>
       <r>   23.0923    0.0000 </r>
       <r>   23.5592    0.0000 </r>
       <r>   23.5744    0.0000 </r>
       <r>   23.6015    0.0000 </r>
       <r>   23.8165    0.0000 </r>
       <r>   24.0248    0.0000 </r>
       <r>   24.2674    0.0000 </r>
       <r>   24.5217    0.0000 </r>
       <r>   24.8306    0.0000 </r>
       <r>   24.9676    0.0000 </r>
       <r>   25.0475    0.0000 </r>
       <r>   25.5521    0.0000 </r>
       <r>   25.6964    0.0000 </r>
       <r>   25.7980    0.0000 </r>
       <r>   25.9189    0.0000 </r>
       <r>   26.1275    0.0000 </r>
       <r>   26.3973    0.0000 </r>
       <r>   26.9094    0.0000 </r>
       <r>   26.9234    0.0000 </r>
       <r>   27.0815    0.0000 </r>
       <r>   27.0849    0.0000 </r>
       <r>   27.5813    0.0000 </r>
       <r>   27.8918    0.0000 </r>
       <r>   28.1065    0.0000 </r>
       <r>   28.6632    0.0000 </r>
       <r>   28.9184    0.0000 </r>
       <r>   29.0466    0.0000 </r>
       <r>   29.1763    0.0000 </r>
       <r>   29.2646    0.0000 </r>
       <r>   29.6366    0.0000 </r>
       <r>   29.6478    0.0000 </r>
       <r>   30.1213    0.0000 </r>
       <r>   30.1818    0.0000 </r>
       <r>   30.7678    0.0000 </r>
       <r>   31.1259    0.0000 </r>
       <r>   31.8749    0.0000 </r>
       <r>   31.9108    0.0000 </r>
       <r>   32.0148    0.0000 </r>
       <r>   32.0886    0.0000 </r>
       <r>   32.5461    0.0000 </r>
       <r>   32.6542    0.0000 </r>
       <r>   32.9444    0.0000 </r>
       <r>   33.0816    0.0000 </r>
       <r>   33.3384    0.0000 </r>
       <r>   33.4640    0.0000 </r>
       <r>   33.5848    0.0000 </r>
       <r>   33.6087    0.0000 </r>
       <r>   33.8445    0.0000 </r>
       <r>   34.0075    0.0000 </r>
       <r>   34.0686    0.0000 </r>
       <r>   34.1281    0.0000 </r>
       <r>   34.2291    0.0000 </r>
       <r>   35.1281    0.0000 </r>
       <r>   35.9146    0.0000 </r>
       <r>   35.9610    0.0000 </r>
       <r>   35.9882    0.0000 </r>
       <r>   36.2332    0.0000 </r>
       <r>   36.3840    0.0000 </r>
       <r>   36.5942    0.0000 </r>
       <r>   36.7596    0.0000 </r>
       <r>   36.8647    0.0000 </r>
       <r>   37.0219    0.0000 </r>
       <r>   37.1188    0.0000 </r>
       <r>   37.2090    0.0000 </r>
       <r>   37.4568    0.0000 </r>
       <r>   37.5348    0.0000 </r>
       <r>   37.8830    0.0000 </r>
       <r>   37.9740    0.0000 </r>
       <r>   38.0606    0.0000 </r>
       <r>   38.1707    0.0000 </r>
       <r>   38.3342    0.0000 </r>
       <r>   38.4488    0.0000 </r>
       <r>   38.9582    0.0000 </r>
       <r>   39.0151    0.0000 </r>
       <r>   39.1512    0.0000 </r>
       <r>   39.7411    0.0000 </r>
       <r>   39.8913    0.0000 </r>
       <r>   40.4036    0.0000 </r>
       <r>   41.6591    0.0000 </r>
       <r>   41.7874    0.0000 </r>
       <r>   42.0183    0.0000 </r>
       <r>   43.0529    0.0000 </r>
       <r>   43.1371    0.0000 </r>
       <r>   43.1853    0.0000 </r>
       <r>   43.3711    0.0000 </r>
       <r>   43.6680    0.0000 </r>
       <r>   43.9100    0.0000 </r>
       <r>   44.3356    0.0000 </r>
       <r>   44.4581    0.0000 </r>
       <r>   44.7940    0.0000 </r>
       <r>   44.8728    0.0000 </r>
       <r>   45.0487    0.0000 </r>
       <r>   45.2335    0.0000 </r>
       <r>   46.1032    0.0000 </r>
       <r>   46.2269    0.0000 </r>
       <r>   46.3651    0.0000 </r>
       <r>   46.4216    0.0000 </r>
       <r>   46.8963    0.0000 </r>
       <r>   47.1013    0.0000 </r>
       <r>   48.0085    0.0000 </r>
       <r>   48.2044    0.0000 </r>
       <r>   48.2685    0.0000 </r>
       <r>   48.4867    0.0000 </r>
       <r>   48.4867    0.0000 </r>
       <r>   48.6077    0.0000 </r>
       <r>   49.4193    0.0000 </r>
       <r>   49.4674    0.0000 </r>
       <r>   49.4813    0.0000 </r>
       <r>   49.4971    0.0000 </r>
       <r>   50.1891    0.0000 </r>
       <r>   50.2489    0.0000 </r>
       <r>   50.3481    0.0000 </r>
       <r>   50.4411    0.0000 </r>
       <r>   50.7495    0.0000 </r>
       <r>   50.7703    0.0000 </r>
       <r>   51.0252    0.0000 </r>
       <r>   51.0836    0.0000 </r>
       <r>   51.2201    0.0000 </r>
       <r>   51.2372    0.0000 </r>
       <r>   51.3233    0.0000 </r>
       <r>   52.0790    0.0000 </r>
       <r>   52.1310    0.0000 </r>
       <r>   52.3383    0.0000 </r>
       <r>   52.5341    0.0000 </r>
       <r>   52.6621    0.0000 </r>
       <r>   52.7051    0.0000 </r>
       <r>   52.7968    0.0000 </r>
       <r>   52.9839    0.0000 </r>
       <r>   53.1591    0.0000 </r>
       <r>   53.4564    0.0000 </r>
       <r>   53.6301    0.0000 </r>
       <r>   53.6776    0.0000 </r>
       <r>   53.8575    0.0000 </r>
       <r>   54.1638    0.0000 </r>
       <r>   54.4158    0.0000 </r>
       <r>   54.5037    0.0000 </r>
       <r>   54.6902    0.0000 </r>
       <r>   54.7543    0.0000 </r>
       <r>   54.8263    0.0000 </r>
       <r>   54.8421    0.0000 </r>
       <r>   54.8679    0.0000 </r>
       <r>   55.0431    0.0000 </r>
       <r>   55.0736    0.0000 </r>
       <r>   55.3025    0.0000 </r>
       <r>   55.4662    0.0000 </r>
       <r>   55.5311    0.0000 </r>
       <r>   55.6692    0.0000 </r>
       <r>   56.1756    0.0000 </r>
       <r>   56.1912    0.0000 </r>
       <r>   56.2449    0.0000 </r>
       <r>   56.3750    0.0000 </r>
       <r>   56.4639    0.0000 </r>
       <r>   56.5464    0.0000 </r>
       <r>   56.5747    0.0000 </r>
       <r>   56.8251    0.0000 </r>
       <r>   56.8859    0.0000 </r>
       <r>   57.0189    0.0000 </r>
       <r>   57.0577    0.0000 </r>
       <r>   57.1652    0.0000 </r>
       <r>   57.2095    0.0000 </r>
       <r>   57.4579    0.0000 </r>
       <r>   57.6391    0.0000 </r>
       <r>   57.6791    0.0000 </r>
       <r>   57.7261    0.0000 </r>
       <r>   58.0939    0.0000 </r>
       <r>   58.1463    0.0000 </r>
       <r>   58.2340    0.0000 </r>
       <r>   58.6067    0.0000 </r>
       <r>   58.7254    0.0000 </r>
       <r>   58.7317    0.0000 </r>
       <r>   59.1755    0.0000 </r>
       <r>   59.4085    0.0000 </r>
       <r>   59.5037    0.0000 </r>
       <r>   60.0199    0.0000 </r>
       <r>   60.0306    0.0000 </r>
       <r>   60.2943    0.0000 </r>
       <r>   60.3322    0.0000 </r>
       <r>   60.4211    0.0000 </r>
       <r>   60.5725    0.0000 </r>
       <r>   60.5849    0.0000 </r>
       <r>   60.7327    0.0000 </r>
       <r>   61.0217    0.0000 </r>
       <r>   61.0341    0.0000 </r>
       <r>   61.3763    0.0000 </r>
       <r>   61.5507    0.0000 </r>
       <r>   61.6702    0.0000 </r>
       <r>   62.1374    0.0000 </r>
       <r>   62.2604    0.0000 </r>
       <r>   62.7760    0.0000 </r>
       <r>   63.5386    0.0000 </r>
       <r>   63.8106    0.0000 </r>
       <r>   64.0655    0.0000 </r>
       <r>   64.1332    0.0000 </r>
       <r>   64.1393    0.0000 </r>
       <r>   64.1615    0.0000 </r>
       <r>   64.2112    0.0000 </r>
       <r>   64.4574    0.0000 </r>
       <r>   65.0710    0.0000 </r>
       <r>   65.2099    0.0000 </r>
       <r>   65.3051    0.0000 </r>
       <r>   65.6032    0.0000 </r>
       <r>   65.6439    0.0000 </r>
       <r>   65.8292    0.0000 </r>
       <r>   66.3752    0.0000 </r>
       <r>   66.4268    0.0000 </r>
       <r>   66.4561    0.0000 </r>
       <r>   66.6966    0.0000 </r>
       <r>   66.7485    0.0000 </r>
       <r>   66.8655    0.0000 </r>
       <r>   66.8769    0.0000 </r>
       <r>   67.1461    0.0000 </r>
       <r>   67.1550    0.0000 </r>
       <r>   67.4064    0.0000 </r>
       <r>   67.5691    0.0000 </r>
       <r>   67.6359    0.0000 </r>
       <r>   67.8043    0.0000 </r>
       <r>   67.8925    0.0000 </r>
       <r>   68.2152    0.0000 </r>
       <r>   68.3085    0.0000 </r>
       <r>   68.5106    0.0000 </r>
       <r>   68.5845    0.0000 </r>
       <r>   69.0390    0.0000 </r>
       <r>   69.1340    0.0000 </r>
       <r>   69.1491    0.0000 </r>
       <r>   69.3886    0.0000 </r>
       <r>   69.7238    0.0000 </r>
       <r>   69.7471    0.0000 </r>
       <r>   69.8479    0.0000 </r>
       <r>   69.8762    0.0000 </r>
       <r>   70.1228    0.0000 </r>
       <r>   70.3301    0.0000 </r>
       <r>   70.4921    0.0000 </r>
       <r>   70.4967    0.0000 </r>
       <r>   70.6342    0.0000 </r>
       <r>   70.6996    0.0000 </r>
       <r>   70.9202    0.0000 </r>
       <r>   70.9263    0.0000 </r>
       <r>   71.0767    0.0000 </r>
       <r>   71.3548    0.0000 </r>
       <r>   71.4285    0.0000 </r>
       <r>   71.4422    0.0000 </r>
       <r>   71.4481    0.0000 </r>
       <r>   71.5697    0.0000 </r>
       <r>   71.6282    0.0000 </r>
       <r>   72.8180    0.0000 </r>
       <r>   72.9641    0.0000 </r>
       <r>   72.9941    0.0000 </r>
       <r>   73.0840    0.0000 </r>
       <r>   73.5707    0.0000 </r>
       <r>   73.6158    0.0000 </r>
       <r>   73.7438    0.0000 </r>
       <r>   73.7774    0.0000 </r>
       <r>   74.0381    0.0000 </r>
       <r>   74.0873    0.0000 </r>
       <r>   74.2790    0.0000 </r>
       <r>   74.5998    0.0000 </r>
       <r>   74.6212    0.0000 </r>
       <r>   74.6645    0.0000 </r>
       <r>   74.8909    0.0000 </r>
       <r>   74.9799    0.0000 </r>
       <r>   75.3516    0.0000 </r>
       <r>   75.5207    0.0000 </r>
       <r>   75.9478    0.0000 </r>
       <r>   76.2251    0.0000 </r>
       <r>   76.3269    0.0000 </r>
       <r>   76.4378    0.0000 </r>
       <r>   76.6432    0.0000 </r>
       <r>   77.0400    0.0000 </r>
       <r>   77.0610    0.0000 </r>
       <r>   77.2144    0.0000 </r>
       <r>   77.3628    0.0000 </r>
       <r>   77.4198    0.0000 </r>
       <r>   77.5806    0.0000 </r>
       <r>   77.7200    0.0000 </r>
       <r>   77.9108    0.0000 </r>
       <r>   78.2082    0.0000 </r>
       <r>   78.2427    0.0000 </r>
       <r>   78.2612    0.0000 </r>
       <r>   78.2907    0.0000 </r>
       <r>   78.6760    0.0000 </r>
       <r>   78.7094    0.0000 </r>
       <r>   78.7275    0.0000 </r>
       <r>   79.0150    0.0000 </r>
       <r>   79.1421    0.0000 </r>
       <r>   79.1515    0.0000 </r>
       <r>   79.2345    0.0000 </r>
       <r>   79.2612    0.0000 </r>
       <r>   79.3174    0.0000 </r>
       <r>   79.5721    0.0000 </r>
       <r>   79.6689    0.0000 </r>
       <r>   79.8982    0.0000 </r>
       <r>   79.9118    0.0000 </r>
       <r>   80.1923    0.0000 </r>
       <r>   80.2444    0.0000 </r>
       <r>   80.4263    0.0000 </r>
       <r>   80.4901    0.0000 </r>
       <r>   80.5611    0.0000 </r>
       <r>   80.9882    0.0000 </r>
       <r>   81.2651    0.0000 </r>
       <r>   81.3481    0.0000 </r>
       <r>   81.8540    0.0000 </r>
       <r>   81.8852    0.0000 </r>
       <r>   82.0023    0.0000 </r>
       <r>   82.2395    0.0000 </r>
       <r>   82.6005    0.0000 </r>
       <r>   82.7009    0.0000 </r>
       <r>   82.9487    0.0000 </r>
       <r>   83.1451    0.0000 </r>
       <r>   83.1783    0.0000 </r>
       <r>   83.4019    0.0000 </r>
       <r>   83.4858    0.0000 </r>
       <r>   83.9376    0.0000 </r>
       <r>   84.0937    0.0000 </r>
       <r>   84.1838    0.0000 </r>
       <r>   84.3310    0.0000 </r>
       <r>   84.6606    0.0000 </r>
       <r>   84.8569    0.0000 </r>
       <r>   84.8822    0.0000 </r>
       <r>   85.1654    0.0000 </r>
       <r>   85.4277    0.0000 </r>
       <r>   85.4483    0.0000 </r>
       <r>   85.6360    0.0000 </r>
       <r>   85.9702    0.0000 </r>
       <r>   85.9975    0.0000 </r>
       <r>   86.1189    0.0000 </r>
       <r>   86.2743    0.0000 </r>
       <r>   86.7391    0.0000 </r>
       <r>   87.2595    0.0000 </r>
       <r>   87.3630    0.0000 </r>
       <r>   87.9322    0.0000 </r>
       <r>   87.9946    0.0000 </r>
       <r>   88.1374    0.0000 </r>
       <r>   88.2755    0.0000 </r>
       <r>   88.4795    0.0000 </r>
       <r>   88.7955    0.0000 </r>
       <r>   89.8355    0.0000 </r>
       <r>   90.5749    0.0000 </r>
       <r>   90.6763    0.0000 </r>
       <r>   90.7112    0.0000 </r>
       <r>   91.1599    0.0000 </r>
       <r>   91.1680    0.0000 </r>
       <r>   91.2909    0.0000 </r>
       <r>   91.3412    0.0000 </r>
       <r>   91.6520    0.0000 </r>
       <r>   91.9248    0.0000 </r>
       <r>   91.9549    0.0000 </r>
       <r>   92.0274    0.0000 </r>
       <r>   92.0603    0.0000 </r>
       <r>   92.1269    0.0000 </r>
       <r>   92.1423    0.0000 </r>
       <r>   92.2067    0.0000 </r>
       <r>   92.2102    0.0000 </r>
       <r>   92.7072    0.0000 </r>
       <r>   92.7229    0.0000 </r>
       <r>   92.9206    0.0000 </r>
       <r>   93.2587    0.0000 </r>
       <r>   93.3464    0.0000 </r>
       <r>   93.3774    0.0000 </r>
       <r>   93.4009    0.0000 </r>
       <r>   93.6882    0.0000 </r>
       <r>   93.7349    0.0000 </r>
       <r>   94.0006    0.0000 </r>
       <r>   94.0550    0.0000 </r>
       <r>   94.3248    0.0000 </r>
       <r>   94.4155    0.0000 </r>
       <r>   94.4392    0.0000 </r>
       <r>   94.6421    0.0000 </r>
       <r>   94.7394    0.0000 </r>
       <r>   94.7541    0.0000 </r>
       <r>   95.1124    0.0000 </r>
       <r>   95.3504    0.0000 </r>
       <r>   95.5217    0.0000 </r>
       <r>   95.5490    0.0000 </r>
       <r>   95.5971    0.0000 </r>
       <r>   95.6215    0.0000 </r>
       <r>   95.8077    0.0000 </r>
       <r>   95.9462    0.0000 </r>
       <r>   95.9517    0.0000 </r>
       <r>   95.9920    0.0000 </r>
       <r>   96.0128    0.0000 </r>
       <r>   96.1187    0.0000 </r>
       <r>   96.1294    0.0000 </r>
       <r>   96.2115    0.0000 </r>
       <r>   96.4844    0.0000 </r>
       <r>   96.5926    0.0000 </r>
       <r>   96.6526    0.0000 </r>
       <r>   97.3917    0.0000 </r>
       <r>   97.4073    0.0000 </r>
       <r>   97.4605    0.0000 </r>
       <r>   97.5336    0.0000 </r>
       <r>   97.6893    0.0000 </r>
       <r>   97.8448    0.0000 </r>
       <r>   97.8817    0.0000 </r>
       <r>   97.9179    0.0000 </r>
       <r>   97.9666    0.0000 </r>
       <r>   98.1116    0.0000 </r>
       <r>   98.2884    0.0000 </r>
       <r>   98.2949    0.0000 </r>
       <r>   98.3126    0.0000 </r>
       <r>   98.3792    0.0000 </r>
       <r>   98.5915    0.0000 </r>
       <r>   98.6327    0.0000 </r>
       <r>   98.6543    0.0000 </r>
       <r>   98.6854    0.0000 </r>
       <r>   98.8739    0.0000 </r>
       <r>   98.9115    0.0000 </r>
       <r>   98.9734    0.0000 </r>
       <r>   99.0002    0.0000 </r>
       <r>   99.0508    0.0000 </r>
       <r>   99.2070    0.0000 </r>
       <r>   99.3127    0.0000 </r>
       <r>   99.3550    0.0000 </r>
       <r>   99.5189    0.0000 </r>
       <r>   99.7420    0.0000 </r>
       <r>   99.7605    0.0000 </r>
       <r>   99.8542    0.0000 </r>
       <r>   99.9466    0.0000 </r>
       <r>   99.9521    0.0000 </r>
       <r>   99.9779    0.0000 </r>
       <r>  100.0959    0.0000 </r>
       <r>  100.1275    0.0000 </r>
       <r>  100.1833    0.0000 </r>
       <r>  100.3100    0.0000 </r>
       <r>  100.3421    0.0000 </r>
       <r>  100.6017    0.0000 </r>
       <r>  100.6172    0.0000 </r>
       <r>  101.0132    0.0000 </r>
       <r>  101.0133    0.0000 </r>
       <r>  101.0185    0.0000 </r>
       <r>  101.1945    0.0000 </r>
       <r>  101.2473    0.0000 </r>
       <r>  101.4348    0.0000 </r>
       <r>  101.5939    0.0000 </r>
       <r>  101.6486    0.0000 </r>
       <r>  101.6633    0.0000 </r>
       <r>  101.7172    0.0000 </r>
       <r>  101.7536    0.0000 </r>
       <r>  101.9208    0.0000 </r>
       <r>  101.9819    0.0000 </r>
       <r>  102.0094    0.0000 </r>
       <r>  102.1345    0.0000 </r>
       <r>  102.1792    0.0000 </r>
       <r>  102.2226    0.0000 </r>
       <r>  102.2584    0.0000 </r>
       <r>  102.6392    0.0000 </r>
       <r>  102.6427    0.0000 </r>
      </set>
      <set comment="kpoint 3">
       <r>  -18.4341    1.0000 </r>
       <r>  -15.1059    1.0000 </r>
       <r>  -14.7954    1.0000 </r>
       <r>  -12.4549    1.0000 </r>
       <r>  -11.9317    1.0000 </r>
       <r>  -10.7149    1.0000 </r>
       <r>   -9.3237    1.0000 </r>
       <r>   -7.3645    1.0000 </r>
       <r>   -7.1816    1.0000 </r>
       <r>   -5.4404    1.0000 </r>
       <r>   -5.0296    1.0000 </r>
       <r>   -3.6157    1.0000 </r>
       <r>   -3.2240    1.0000 </r>
       <r>   -3.0165    1.0000 </r>
       <r>   -2.7272    1.0000 </r>
       <r>   -1.1839    0.0000 </r>
       <r>    1.3238    0.0000 </r>
       <r>    1.8881    0.0000 </r>
       <r>    2.1281    0.0000 </r>
       <r>    2.4358    0.0000 </r>
       <r>    4.7294    0.0000 </r>
       <r>    6.1240    0.0000 </r>
       <r>    6.5551    0.0000 </r>
       <r>    6.9440    0.0000 </r>
       <r>    6.9598    0.0000 </r>
       <r>    7.9146    0.0000 </r>
       <r>    8.1729    0.0000 </r>
       <r>    8.2020    0.0000 </r>
       <r>    8.5790    0.0000 </r>
       <r>    8.7436    0.0000 </r>
       <r>    9.0740    0.0000 </r>
       <r>    9.9077    0.0000 </r>
       <r>    9.9160    0.0000 </r>
       <r>   10.4672    0.0000 </r>
       <r>   10.5716    0.0000 </r>
       <r>   10.5788    0.0000 </r>
       <r>   10.9114    0.0000 </r>
       <r>   11.5894    0.0000 </r>
       <r>   11.8802    0.0000 </r>
       <r>   12.1077    0.0000 </r>
       <r>   12.1424    0.0000 </r>
       <r>   12.3419    0.0000 </r>
       <r>   12.6423    0.0000 </r>
       <r>   13.0075    0.0000 </r>
       <r>   13.4775    0.0000 </r>
       <r>   14.1695    0.0000 </r>
       <r>   14.3858    0.0000 </r>
       <r>   15.1545    0.0000 </r>
       <r>   15.2765    0.0000 </r>
       <r>   15.3889    0.0000 </r>
       <r>   15.7997    0.0000 </r>
       <r>   16.1743    0.0000 </r>
       <r>   17.3574    0.0000 </r>
       <r>   17.5941    0.0000 </r>
       <r>   17.8616    0.0000 </r>
       <r>   19.0273    0.0000 </r>
       <r>   19.0831    0.0000 </r>
       <r>   19.1612    0.0000 </r>
       <r>   19.5522    0.0000 </r>
       <r>   19.8344    0.0000 </r>
       <r>   19.9231    0.0000 </r>
       <r>   20.1859    0.0000 </r>
       <r>   20.2006    0.0000 </r>
       <r>   20.2953    0.0000 </r>
       <r>   20.4610    0.0000 </r>
       <r>   20.6854    0.0000 </r>
       <r>   20.9076    0.0000 </r>
       <r>   20.9177    0.0000 </r>
       <r>   20.9658    0.0000 </r>
       <r>   21.2974    0.0000 </r>
       <r>   23.1084    0.0000 </r>
       <r>   23.7417    0.0000 </r>
       <r>   23.7808    0.0000 </r>
       <r>   23.9368    0.0000 </r>
       <r>   24.0480    0.0000 </r>
       <r>   24.1155    0.0000 </r>
       <r>   24.2288    0.0000 </r>
       <r>   24.2478    0.0000 </r>
       <r>   24.4571    0.0000 </r>
       <r>   24.5114    0.0000 </r>
       <r>   24.6934    0.0000 </r>
       <r>   24.7126    0.0000 </r>
       <r>   25.1039    0.0000 </r>
       <r>   25.1717    0.0000 </r>
       <r>   25.2293    0.0000 </r>
       <r>   26.4776    0.0000 </r>
       <r>   26.6052    0.0000 </r>
       <r>   26.9337    0.0000 </r>
       <r>   27.0663    0.0000 </r>
       <r>   27.5561    0.0000 </r>
       <r>   27.7010    0.0000 </r>
       <r>   28.0595    0.0000 </r>
       <r>   28.1032    0.0000 </r>
       <r>   28.1118    0.0000 </r>
       <r>   28.1885    0.0000 </r>
       <r>   29.1207    0.0000 </r>
       <r>   29.1320    0.0000 </r>
       <r>   29.6998    0.0000 </r>
       <r>   29.7331    0.0000 </r>
       <r>   29.7997    0.0000 </r>
       <r>   30.2525    0.0000 </r>
       <r>   30.3510    0.0000 </r>
       <r>   30.5885    0.0000 </r>
       <r>   30.9582    0.0000 </r>
       <r>   30.9705    0.0000 </r>
       <r>   31.5020    0.0000 </r>
       <r>   31.7567    0.0000 </r>
       <r>   31.9397    0.0000 </r>
       <r>   32.6385    0.0000 </r>
       <r>   32.7569    0.0000 </r>
       <r>   32.8169    0.0000 </r>
       <r>   32.8397    0.0000 </r>
       <r>   32.9283    0.0000 </r>
       <r>   33.0869    0.0000 </r>
       <r>   33.1632    0.0000 </r>
       <r>   33.2361    0.0000 </r>
       <r>   33.7486    0.0000 </r>
       <r>   33.7648    0.0000 </r>
       <r>   33.9660    0.0000 </r>
       <r>   34.0186    0.0000 </r>
       <r>   34.2044    0.0000 </r>
       <r>   34.6047    0.0000 </r>
       <r>   34.9498    0.0000 </r>
       <r>   35.2437    0.0000 </r>
       <r>   35.4874    0.0000 </r>
       <r>   36.2302    0.0000 </r>
       <r>   36.5183    0.0000 </r>
       <r>   36.7573    0.0000 </r>
       <r>   36.8777    0.0000 </r>
       <r>   37.0315    0.0000 </r>
       <r>   37.0646    0.0000 </r>
       <r>   37.4346    0.0000 </r>
       <r>   37.5842    0.0000 </r>
       <r>   37.9624    0.0000 </r>
       <r>   38.0094    0.0000 </r>
       <r>   38.1555    0.0000 </r>
       <r>   38.4170    0.0000 </r>
       <r>   38.8542    0.0000 </r>
       <r>   38.8811    0.0000 </r>
       <r>   39.1132    0.0000 </r>
       <r>   39.2447    0.0000 </r>
       <r>   39.8819    0.0000 </r>
       <r>   39.9875    0.0000 </r>
       <r>   40.0175    0.0000 </r>
       <r>   40.2079    0.0000 </r>
       <r>   40.3686    0.0000 </r>
       <r>   40.5672    0.0000 </r>
       <r>   40.9918    0.0000 </r>
       <r>   41.4309    0.0000 </r>
       <r>   41.5055    0.0000 </r>
       <r>   41.6760    0.0000 </r>
       <r>   41.6996    0.0000 </r>
       <r>   41.7220    0.0000 </r>
       <r>   41.9303    0.0000 </r>
       <r>   42.6752    0.0000 </r>
       <r>   42.7148    0.0000 </r>
       <r>   43.5865    0.0000 </r>
       <r>   43.8867    0.0000 </r>
       <r>   44.2380    0.0000 </r>
       <r>   44.5378    0.0000 </r>
       <r>   44.5403    0.0000 </r>
       <r>   44.7224    0.0000 </r>
       <r>   44.7919    0.0000 </r>
       <r>   45.3049    0.0000 </r>
       <r>   45.7839    0.0000 </r>
       <r>   46.2576    0.0000 </r>
       <r>   46.9417    0.0000 </r>
       <r>   47.1444    0.0000 </r>
       <r>   47.2395    0.0000 </r>
       <r>   47.3560    0.0000 </r>
       <r>   47.5831    0.0000 </r>
       <r>   47.7528    0.0000 </r>
       <r>   48.0740    0.0000 </r>
       <r>   48.1983    0.0000 </r>
       <r>   48.7077    0.0000 </r>
       <r>   48.8128    0.0000 </r>
       <r>   48.9407    0.0000 </r>
       <r>   49.0230    0.0000 </r>
       <r>   49.0710    0.0000 </r>
       <r>   49.1833    0.0000 </r>
       <r>   49.6233    0.0000 </r>
       <r>   50.0096    0.0000 </r>
       <r>   50.4447    0.0000 </r>
       <r>   50.7960    0.0000 </r>
       <r>   50.8175    0.0000 </r>
       <r>   51.0702    0.0000 </r>
       <r>   51.0973    0.0000 </r>
       <r>   51.2646    0.0000 </r>
       <r>   51.6052    0.0000 </r>
       <r>   51.7024    0.0000 </r>
       <r>   51.7616    0.0000 </r>
       <r>   51.7799    0.0000 </r>
       <r>   51.8773    0.0000 </r>
       <r>   52.1730    0.0000 </r>
       <r>   52.2752    0.0000 </r>
       <r>   52.3139    0.0000 </r>
       <r>   52.4321    0.0000 </r>
       <r>   52.4735    0.0000 </r>
       <r>   52.9221    0.0000 </r>
       <r>   52.9401    0.0000 </r>
       <r>   53.1255    0.0000 </r>
       <r>   53.2064    0.0000 </r>
       <r>   53.2902    0.0000 </r>
       <r>   53.3798    0.0000 </r>
       <r>   53.6811    0.0000 </r>
       <r>   53.9041    0.0000 </r>
       <r>   53.9563    0.0000 </r>
       <r>   54.2682    0.0000 </r>
       <r>   54.5095    0.0000 </r>
       <r>   54.6353    0.0000 </r>
       <r>   54.6388    0.0000 </r>
       <r>   54.6881    0.0000 </r>
       <r>   54.9549    0.0000 </r>
       <r>   55.2356    0.0000 </r>
       <r>   55.5023    0.0000 </r>
       <r>   55.5858    0.0000 </r>
       <r>   55.6711    0.0000 </r>
       <r>   56.0427    0.0000 </r>
       <r>   56.1326    0.0000 </r>
       <r>   56.4570    0.0000 </r>
       <r>   56.4874    0.0000 </r>
       <r>   56.6230    0.0000 </r>
       <r>   56.7015    0.0000 </r>
       <r>   56.7793    0.0000 </r>
       <r>   56.7801    0.0000 </r>
       <r>   56.8025    0.0000 </r>
       <r>   57.0056    0.0000 </r>
       <r>   57.0066    0.0000 </r>
       <r>   57.2368    0.0000 </r>
       <r>   57.3407    0.0000 </r>
       <r>   57.4834    0.0000 </r>
       <r>   57.8336    0.0000 </r>
       <r>   57.9182    0.0000 </r>
       <r>   58.1056    0.0000 </r>
       <r>   58.2455    0.0000 </r>
       <r>   58.4224    0.0000 </r>
       <r>   58.4813    0.0000 </r>
       <r>   59.4516    0.0000 </r>
       <r>   59.4563    0.0000 </r>
       <r>   59.8112    0.0000 </r>
       <r>   59.9746    0.0000 </r>
       <r>   60.0811    0.0000 </r>
       <r>   60.0917    0.0000 </r>
       <r>   60.2638    0.0000 </r>
       <r>   61.1602    0.0000 </r>
       <r>   61.3572    0.0000 </r>
       <r>   61.3716    0.0000 </r>
       <r>   61.5326    0.0000 </r>
       <r>   61.5417    0.0000 </r>
       <r>   61.6584    0.0000 </r>
       <r>   61.7090    0.0000 </r>
       <r>   61.7498    0.0000 </r>
       <r>   61.8022    0.0000 </r>
       <r>   61.9057    0.0000 </r>
       <r>   62.0189    0.0000 </r>
       <r>   62.0238    0.0000 </r>
       <r>   62.3300    0.0000 </r>
       <r>   62.5653    0.0000 </r>
       <r>   62.9404    0.0000 </r>
       <r>   63.0027    0.0000 </r>
       <r>   63.0147    0.0000 </r>
       <r>   63.1569    0.0000 </r>
       <r>   63.1792    0.0000 </r>
       <r>   63.6481    0.0000 </r>
       <r>   63.8384    0.0000 </r>
       <r>   64.5425    0.0000 </r>
       <r>   64.5654    0.0000 </r>
       <r>   64.5866    0.0000 </r>
       <r>   64.6965    0.0000 </r>
       <r>   64.7318    0.0000 </r>
       <r>   64.9493    0.0000 </r>
       <r>   65.1634    0.0000 </r>
       <r>   65.2316    0.0000 </r>
       <r>   65.2661    0.0000 </r>
       <r>   65.9334    0.0000 </r>
       <r>   65.9874    0.0000 </r>
       <r>   66.1768    0.0000 </r>
       <r>   66.2473    0.0000 </r>
       <r>   66.2570    0.0000 </r>
       <r>   66.3764    0.0000 </r>
       <r>   66.4075    0.0000 </r>
       <r>   66.7719    0.0000 </r>
       <r>   67.2470    0.0000 </r>
       <r>   67.4248    0.0000 </r>
       <r>   67.5070    0.0000 </r>
       <r>   67.6463    0.0000 </r>
       <r>   67.9536    0.0000 </r>
       <r>   68.1121    0.0000 </r>
       <r>   68.1307    0.0000 </r>
       <r>   68.4140    0.0000 </r>
       <r>   68.4233    0.0000 </r>
       <r>   68.9782    0.0000 </r>
       <r>   69.2038    0.0000 </r>
       <r>   69.2284    0.0000 </r>
       <r>   69.4678    0.0000 </r>
       <r>   69.5242    0.0000 </r>
       <r>   69.9148    0.0000 </r>
       <r>   69.9249    0.0000 </r>
       <r>   70.1112    0.0000 </r>
       <r>   70.1375    0.0000 </r>
       <r>   70.2368    0.0000 </r>
       <r>   70.2394    0.0000 </r>
       <r>   71.1069    0.0000 </r>
       <r>   71.3740    0.0000 </r>
       <r>   71.8423    0.0000 </r>
       <r>   71.8744    0.0000 </r>
       <r>   72.1543    0.0000 </r>
       <r>   72.4509    0.0000 </r>
       <r>   72.5701    0.0000 </r>
       <r>   72.6800    0.0000 </r>
       <r>   72.8245    0.0000 </r>
       <r>   72.8464    0.0000 </r>
       <r>   72.8694    0.0000 </r>
       <r>   72.9487    0.0000 </r>
       <r>   73.2455    0.0000 </r>
       <r>   73.2690    0.0000 </r>
       <r>   73.4245    0.0000 </r>
       <r>   73.5394    0.0000 </r>
       <r>   73.7491    0.0000 </r>
       <r>   74.0139    0.0000 </r>
       <r>   74.1464    0.0000 </r>
       <r>   74.1779    0.0000 </r>
       <r>   74.2703    0.0000 </r>
       <r>   74.2903    0.0000 </r>
       <r>   74.4060    0.0000 </r>
       <r>   74.4292    0.0000 </r>
       <r>   74.9345    0.0000 </r>
       <r>   75.1801    0.0000 </r>
       <r>   75.2354    0.0000 </r>
       <r>   75.5101    0.0000 </r>
       <r>   75.6743    0.0000 </r>
       <r>   75.8107    0.0000 </r>
       <r>   76.0990    0.0000 </r>
       <r>   76.3046    0.0000 </r>
       <r>   76.3550    0.0000 </r>
       <r>   76.4491    0.0000 </r>
       <r>   76.5580    0.0000 </r>
       <r>   76.7580    0.0000 </r>
       <r>   76.7796    0.0000 </r>
       <r>   76.8412    0.0000 </r>
       <r>   76.8907    0.0000 </r>
       <r>   77.0644    0.0000 </r>
       <r>   77.2053    0.0000 </r>
       <r>   77.2098    0.0000 </r>
       <r>   77.2651    0.0000 </r>
       <r>   77.5168    0.0000 </r>
       <r>   77.9975    0.0000 </r>
       <r>   78.0429    0.0000 </r>
       <r>   78.1376    0.0000 </r>
       <r>   78.3209    0.0000 </r>
       <r>   78.4194    0.0000 </r>
       <r>   78.8013    0.0000 </r>
       <r>   78.8751    0.0000 </r>
       <r>   78.8780    0.0000 </r>
       <r>   78.9060    0.0000 </r>
       <r>   79.1304    0.0000 </r>
       <r>   79.2140    0.0000 </r>
       <r>   79.2184    0.0000 </r>
       <r>   79.6083    0.0000 </r>
       <r>   79.6841    0.0000 </r>
       <r>   79.9031    0.0000 </r>
       <r>   79.9117    0.0000 </r>
       <r>   80.0249    0.0000 </r>
       <r>   80.2832    0.0000 </r>
       <r>   80.3424    0.0000 </r>
       <r>   80.3745    0.0000 </r>
       <r>   80.4647    0.0000 </r>
       <r>   80.9587    0.0000 </r>
       <r>   81.3427    0.0000 </r>
       <r>   81.3717    0.0000 </r>
       <r>   81.9811    0.0000 </r>
       <r>   82.2948    0.0000 </r>
       <r>   82.4543    0.0000 </r>
       <r>   82.4851    0.0000 </r>
       <r>   83.0253    0.0000 </r>
       <r>   83.1184    0.0000 </r>
       <r>   83.6797    0.0000 </r>
       <r>   83.8270    0.0000 </r>
       <r>   83.9231    0.0000 </r>
       <r>   84.2105    0.0000 </r>
       <r>   84.3311    0.0000 </r>
       <r>   84.6183    0.0000 </r>
       <r>   84.6613    0.0000 </r>
       <r>   84.8472    0.0000 </r>
       <r>   84.9400    0.0000 </r>
       <r>   85.0504    0.0000 </r>
       <r>   85.2029    0.0000 </r>
       <r>   85.4069    0.0000 </r>
       <r>   85.4362    0.0000 </r>
       <r>   86.0062    0.0000 </r>
       <r>   86.0772    0.0000 </r>
       <r>   86.1274    0.0000 </r>
       <r>   86.4064    0.0000 </r>
       <r>   86.4259    0.0000 </r>
       <r>   86.5872    0.0000 </r>
       <r>   87.0219    0.0000 </r>
       <r>   87.0540    0.0000 </r>
       <r>   87.4051    0.0000 </r>
       <r>   87.5456    0.0000 </r>
       <r>   87.6281    0.0000 </r>
       <r>   87.6893    0.0000 </r>
       <r>   87.7694    0.0000 </r>
       <r>   87.8628    0.0000 </r>
       <r>   88.1814    0.0000 </r>
       <r>   88.4175    0.0000 </r>
       <r>   88.8077    0.0000 </r>
       <r>   88.9624    0.0000 </r>
       <r>   89.1116    0.0000 </r>
       <r>   89.1164    0.0000 </r>
       <r>   89.3527    0.0000 </r>
       <r>   90.1022    0.0000 </r>
       <r>   90.1514    0.0000 </r>
       <r>   90.1541    0.0000 </r>
       <r>   90.5435    0.0000 </r>
       <r>   90.5817    0.0000 </r>
       <r>   90.6225    0.0000 </r>
       <r>   90.7796    0.0000 </r>
       <r>   90.8776    0.0000 </r>
       <r>   90.9427    0.0000 </r>
       <r>   91.1693    0.0000 </r>
       <r>   91.2612    0.0000 </r>
       <r>   91.6811    0.0000 </r>
       <r>   91.8827    0.0000 </r>
       <r>   92.1035    0.0000 </r>
       <r>   92.2480    0.0000 </r>
       <r>   92.2647    0.0000 </r>
       <r>   92.3925    0.0000 </r>
       <r>   92.4657    0.0000 </r>
       <r>   92.7122    0.0000 </r>
       <r>   92.7417    0.0000 </r>
       <r>   93.0355    0.0000 </r>
       <r>   93.2906    0.0000 </r>
       <r>   93.6392    0.0000 </r>
       <r>   93.7194    0.0000 </r>
       <r>   93.8359    0.0000 </r>
       <r>   94.0397    0.0000 </r>
       <r>   94.0625    0.0000 </r>
       <r>   94.1577    0.0000 </r>
       <r>   94.2586    0.0000 </r>
[...]
       <r>    89.8155    10.8945   837.0756 </r>
       <r>    89.8723    18.1506   838.1065 </r>
       <r>    89.9291     4.4761   838.3607 </r>
       <r>    89.9859    11.1610   838.9945 </r>
       <r>    90.0426    11.4767   839.6463 </r>
       <r>    90.0994    10.8011   840.2597 </r>
       <r>    90.1562    15.4025   841.1345 </r>
       <r>    90.2130     7.6352   841.5681 </r>
       <r>    90.2698    10.0690   842.1399 </r>
       <r>    90.3266    10.7616   842.7512 </r>
       <r>    90.3834    11.8152   843.4222 </r>
       <r>    90.4402    10.6909   844.0294 </r>
       <r>    90.4970     7.1092   844.4331 </r>
       <r>    90.5538    13.4485   845.1969 </r>
       <r>    90.6106    12.6191   845.9135 </r>
       <r>    90.6674    11.2548   846.5527 </r>
       <r>    90.7241    14.8974   847.3988 </r>
       <r>    90.7809    13.0358   848.1391 </r>
       <r>    90.8377    15.4339   849.0156 </r>
       <r>    90.8945    16.1572   849.9332 </r>
       <r>    90.9513    12.9426   850.6682 </r>
       <r>    91.0081    11.0544   851.2960 </r>
       <r>    91.0649    22.6720   852.5836 </r>
       <r>    91.1217    11.8252   853.2552 </r>
       <r>    91.1785    14.6828   854.0890 </r>
       <r>    91.2353     7.2069   854.4983 </r>
       <r>    91.2921     9.5754   855.0421 </r>
       <r>    91.3489    17.2419   856.0213 </r>
       <r>    91.4056     5.0800   856.3098 </r>
       <r>    91.4624     9.0926   856.8262 </r>
       <r>    91.5192    15.3328   857.6970 </r>
       <r>    91.5760    13.6598   858.4728 </r>
       <r>    91.6328    16.6221   859.4168 </r>
       <r>    91.6896    15.2352   860.2820 </r>
       <r>    91.7464    13.5192   861.0498 </r>
       <r>    91.8032    11.1823   861.6849 </r>
       <r>    91.8600    11.0425   862.3120 </r>
       <r>    91.9168    18.6186   863.3694 </r>
       <r>    91.9736    14.2573   864.1791 </r>
       <r>    92.0304    14.6861   865.0131 </r>
       <r>    92.0871    16.0830   865.9265 </r>
       <r>    92.1439    10.9481   866.5483 </r>
       <r>    92.2007     6.0814   866.8937 </r>
       <r>    92.2575    16.7896   867.8472 </r>
       <r>    92.3143    24.1737   869.2200 </r>
       <r>    92.3711    10.6370   869.8242 </r>
       <r>    92.4279     6.0304   870.1667 </r>
       <r>    92.4847    14.9331   871.0147 </r>
       <r>    92.5415    10.8168   871.6291 </r>
       <r>    92.5983    16.2565   872.5523 </r>
       <r>    92.6551     7.1473   872.9582 </r>
       <r>    92.7119    12.3054   873.6571 </r>
       <r>    92.7686    27.2966   875.2073 </r>
       <r>    92.8254    15.4941   876.0872 </r>
       <r>    92.8822    13.4843   876.8530 </r>
       <r>    92.9390    16.5120   877.7909 </r>
       <r>    92.9958    11.5656   878.4477 </r>
       <r>    93.0526     7.1010   878.8510 </r>
       <r>    93.1094    10.0117   879.4196 </r>
       <r>    93.1662    10.2358   880.0009 </r>
       <r>    93.2230    15.4438   880.8780 </r>
       <r>    93.2798    15.8779   881.7798 </r>
       <r>    93.3366    16.2545   882.7029 </r>
       <r>    93.3934    22.6290   883.9881 </r>
       <r>    93.4501    15.4700   884.8667 </r>
       <r>    93.5069    12.4890   885.5760 </r>
       <r>    93.5637    16.0575   886.4879 </r>
       <r>    93.6205    14.7861   887.3276 </r>
       <r>    93.6773    16.7509   888.2790 </r>
       <r>    93.7341    21.4542   889.4974 </r>
       <r>    93.7909     9.3380   890.0277 </r>
       <r>    93.8477    19.3688   891.1277 </r>
       <r>    93.9045     8.0109   891.5827 </r>
       <r>    93.9613     5.0321   891.8685 </r>
       <r>    94.0181    16.6105   892.8119 </r>
       <r>    94.0748    17.1964   893.7885 </r>
       <r>    94.1316     8.4517   894.2685 </r>
       <r>    94.1884     6.1662   894.6188 </r>
       <r>    94.2452    10.8591   895.2355 </r>
       <r>    94.3020     8.5883   895.7232 </r>
       <r>    94.3588    13.3413   896.4809 </r>
       <r>    94.4156    12.2481   897.1765 </r>
       <r>    94.4724    15.2954   898.0451 </r>
       <r>    94.5292    17.0584   899.0139 </r>
       <r>    94.5860    21.7061   900.2466 </r>
       <r>    94.6428    13.5301   901.0150 </r>
       <r>    94.6996     7.5563   901.4442 </r>
       <r>    94.7563    15.0289   902.2977 </r>
       <r>    94.8131    10.5544   902.8971 </r>
       <r>    94.8699    12.9476   903.6325 </r>
       <r>    94.9267     9.2189   904.1560 </r>
       <r>    94.9835    10.2208   904.7365 </r>
       <r>    95.0403     5.8367   905.0679 </r>
       <r>    95.0971    12.2275   905.7624 </r>
       <r>    95.1539     6.8481   906.1513 </r>
       <r>    95.2107    17.0789   907.1213 </r>
       <r>    95.2675    10.6742   907.7275 </r>
       <r>    95.3243     7.2546   908.1395 </r>
       <r>    95.3811    18.0614   909.1652 </r>
       <r>    95.4378    13.0088   909.9041 </r>
       <r>    95.4946    17.9063   910.9210 </r>
       <r>    95.5514    14.3194   911.7343 </r>
       <r>    95.6082    11.6432   912.3955 </r>
       <r>    95.6650    23.5146   913.7310 </r>
       <r>    95.7218    18.0443   914.7557 </r>
       <r>    95.7786     8.9618   915.2647 </r>
       <r>    95.8354    11.3739   915.9107 </r>
       <r>    95.8922    10.6498   916.5155 </r>
       <r>    95.9490    11.9559   917.1946 </r>
       <r>    96.0058    17.3784   918.1816 </r>
       <r>    96.0626     6.0815   918.5270 </r>
       <r>    96.1193     8.2789   918.9971 </r>
       <r>    96.1761    14.7091   919.8325 </r>
       <r>    96.2329    12.8969   920.5649 </r>
       <r>    96.2897    14.8196   921.4066 </r>
       <r>    96.3465    14.8401   922.2494 </r>
       <r>    96.4033     6.3901   922.6123 </r>
       <r>    96.4601    10.9523   923.2343 </r>
       <r>    96.5169     8.6973   923.7282 </r>
       <r>    96.5737    14.1784   924.5334 </r>
       <r>    96.6305    17.7112   925.5393 </r>
       <r>    96.6873    13.0885   926.2826 </r>
       <r>    96.7441    13.1054   927.0269 </r>
       <r>    96.8008    10.5644   927.6269 </r>
       <r>    96.8576    20.6484   928.7995 </r>
       <r>    96.9144    11.0486   929.4270 </r>
       <r>    96.9712    14.1152   930.2286 </r>
       <r>    97.0280     7.6956   930.6657 </r>
       <r>    97.0848     3.6705   930.8741 </r>
       <r>    97.1416    19.2053   931.9648 </r>
       <r>    97.1984     9.7155   932.5166 </r>
       <r>    97.2552    11.8251   933.1882 </r>
       <r>    97.3120    14.4944   934.0114 </r>
       <r>    97.3688    12.7983   934.7383 </r>
       <r>    97.4256    17.2599   935.7185 </r>
       <r>    97.4823    15.4069   936.5935 </r>
       <r>    97.5391     7.9284   937.0438 </r>
       <r>    97.5959    23.8969   938.4009 </r>
       <r>    97.6527    14.6782   939.2346 </r>
       <r>    97.7095     7.7776   939.6763 </r>
       <r>    97.7663    14.9863   940.5274 </r>
       <r>    97.8231    20.5834   941.6964 </r>
       <r>    97.8799    13.8993   942.4858 </r>
       <r>    97.9367    18.8058   943.5538 </r>
       <r>    97.9935     9.6078   944.0994 </r>
       <r>    98.0503    11.4409   944.7492 </r>
       <r>    98.1071    14.4497   945.5698 </r>
       <r>    98.1638    17.7117   946.5757 </r>
       <r>    98.2206    13.9507   947.3680 </r>
       <r>    98.2774    11.7117   948.0331 </r>
       <r>    98.3342    18.8952   949.1062 </r>
       <r>    98.3910    11.6508   949.7679 </r>
       <r>    98.4478    10.5756   950.3685 </r>
       <r>    98.5046    16.4131   951.3006 </r>
       <r>    98.5614    15.6455   952.1892 </r>
       <r>    98.6182    13.0397   952.9298 </r>
       <r>    98.6750    18.3184   953.9702 </r>
       <r>    98.7318    14.8725   954.8148 </r>
       <r>    98.7886     7.8806   955.2624 </r>
       <r>    98.8453     6.4720   955.6300 </r>
       <r>    98.9021    15.6026   956.5161 </r>
       <r>    98.9589    20.6052   957.6863 </r>
       <r>    99.0157    11.9271   958.3637 </r>
       <r>    99.0725    13.1509   959.1105 </r>
       <r>    99.1293    19.3089   960.2071 </r>
       <r>    99.1861     4.4647   960.4607 </r>
       <r>    99.2429    19.8028   961.5853 </r>
       <r>    99.2997     3.7340   961.7974 </r>
       <r>    99.3565    16.7287   962.7474 </r>
       <r>    99.4133    12.9371   963.4821 </r>
       <r>    99.4701    11.0205   964.1080 </r>
       <r>    99.5268    12.7134   964.8300 </r>
       <r>    99.5836     9.3735   965.3624 </r>
       <r>    99.6404    13.8693   966.1500 </r>
       <r>    99.6972    19.0852   967.2339 </r>
       <r>    99.7540    11.2446   967.8725 </r>
       <r>    99.8108     9.6152   968.4186 </r>
       <r>    99.8676    19.2535   969.5120 </r>
       <r>    99.9244    14.6392   970.3434 </r>
       <r>    99.9812    18.1817   971.3760 </r>
       <r>   100.0380    17.8617   972.3904 </r>
       <r>   100.0948    19.1122   973.4758 </r>
       <r>   100.1516    17.0175   974.4423 </r>
       <r>   100.2083     8.1256   974.9038 </r>
       <r>   100.2651    16.7447   975.8548 </r>
       <r>   100.3219    14.1981   976.6612 </r>
       <r>   100.3787    18.5225   977.7131 </r>
       <r>   100.4355    15.2576   978.5796 </r>
       <r>   100.4923    25.2539   980.0138 </r>
       <r>   100.5491    12.0839   980.7001 </r>
       <r>   100.6059    12.2572   981.3962 </r>
       <r>   100.6627    14.8914   982.2419 </r>
       <r>   100.7195    17.9190   983.2596 </r>
       <r>   100.7763    12.5337   983.9715 </r>
       <r>   100.8331    15.1769   984.8334 </r>
       <r>   100.8898     6.9802   985.2298 </r>
       <r>   100.9466     5.2446   985.5277 </r>
       <r>   101.0034     7.8133   985.9714 </r>
       <r>   101.0602    24.5869   987.3678 </r>
       <r>   101.1170     8.5393   987.8527 </r>
       <r>   101.1738    18.1564   988.8839 </r>
       <r>   101.2306    14.9330   989.7320 </r>
       <r>   101.2874    11.1381   990.3645 </r>
       <r>   101.3442    12.4364   991.0708 </r>
       <r>   101.4010    13.7839   991.8536 </r>
       <r>   101.4578    12.8480   992.5833 </r>
       <r>   101.5146    14.3075   993.3958 </r>
       <r>   101.5713    13.7485   994.1766 </r>
       <r>   101.6281    14.8130   995.0179 </r>
       <r>   101.6849    17.5952   996.0172 </r>
       <r>   101.7417    23.5383   997.3540 </r>
       <r>   101.7985    16.0936   998.2680 </r>
       <r>   101.8553     9.8099   998.8251 </r>
       <r>   101.9121    15.3500   999.6969 </r>
       <r>   101.9689    13.2064  1000.4469 </r>
       <r>   102.0257     8.8141  1000.9475 </r>
       <r>   102.0825     8.1863  1001.4124 </r>
       <r>   102.1393    29.5497  1003.0906 </r>
       <r>   102.1960    13.0293  1003.8306 </r>
       <r>   102.2528    20.4009  1004.9892 </r>
       <r>   102.3096     9.3788  1005.5218 </r>
       <r>   102.3664    16.2608  1006.4453 </r>
       <r>   102.4232    20.9340  1007.6342 </r>
       <r>   102.4800     7.1174  1008.0384 </r>
       <r>   102.5368     9.5314  1008.5797 </r>
       <r>   102.5936    13.7822  1009.3624 </r>
       <r>   102.6504    18.9630  1010.4394 </r>
       <r>   102.7072    11.8864  1011.1144 </r>
       <r>   102.7640     3.8896  1011.3354 </r>
       <r>   102.8208    13.3995  1012.0964 </r>
       <r>   102.8775    15.5139  1012.9774 </r>
       <r>   102.9343     6.9623  1013.3729 </r>
       <r>   102.9911    19.2114  1014.4639 </r>
       <r>   103.0479    13.1756  1015.2122 </r>
       <r>   103.1047     3.8929  1015.4333 </r>
       <r>   103.1615    11.2317  1016.0711 </r>
       <r>   103.2183    14.9393  1016.9196 </r>
       <r>   103.2751    10.4842  1017.5150 </r>
       <r>   103.3319    14.5252  1018.3399 </r>
       <r>   103.3887    25.1725  1019.7695 </r>
       <r>   103.4455    15.7224  1020.6624 </r>
       <r>   103.5023    14.9323  1021.5105 </r>
       <r>   103.5590    16.8526  1022.4677 </r>
       <r>   103.6158    12.1389  1023.1571 </r>
       <r>   103.6726    11.4345  1023.8064 </r>
       <r>   103.7294    13.3275  1024.5633 </r>
       <r>   103.7862    20.1234  1025.7062 </r>
       <r>   103.8430    14.6133  1026.5361 </r>
       <r>   103.8998    13.0213  1027.2756 </r>
       <r>   103.9566    22.4956  1028.5532 </r>
       <r>   104.0134     5.0345  1028.8391 </r>
       <r>   104.0702     8.8032  1029.3390 </r>
       <r>   104.1270     6.9966  1029.7364 </r>
       <r>   104.1838     1.7074  1029.8333 </r>
       <r>   104.2405     2.0167  1029.9479 </r>
       <r>   104.2973     6.2798  1030.3045 </r>
       <r>   104.3541     4.6097  1030.5663 </r>
       <r>   104.4109     8.1929  1031.0316 </r>
       <r>   104.4677     3.8450  1031.2500 </r>
       <r>   104.5245     1.0105  1031.3074 </r>
       <r>   104.5813     3.3873  1031.4998 </r>
       <r>   104.6381     2.4541  1031.6391 </r>
       <r>   104.6949     0.4849  1031.6667 </r>
       <r>   104.7517     0.0000  1031.6667 </r>
       <r>   104.8085     0.0000  1031.6667 </r>
       <r>   104.8653     0.0000  1031.6667 </r>
       <r>   104.9220     0.0000  1031.6667 </r>
       <r>   104.9788     0.0000  1031.6667 </r>
       <r>   105.0356     1.4767  1031.7505 </r>
       <r>   105.0924     2.0669  1031.8679 </r>
       <r>   105.1492     0.8583  1031.9167 </r>
       <r>   105.2060     0.0000  1031.9167 </r>
       <r>   105.2628     0.0070  1031.9171 </r>
       <r>   105.3196     1.1980  1031.9851 </r>
       <r>   105.3764     0.2623  1032.0000 </r>
       <r>   105.4332     0.0000  1032.0000 </r>
       <r>   105.4900     0.0000  1032.0000 </r>
       <r>   105.5468     0.0000  1032.0000 </r>
       <r>   105.6035     0.0000  1032.0000 </r>
       <r>   105.6603     0.0000  1032.0000 </r>
       <r>   105.7171     0.0000  1032.0000 </r>
       <r>   105.7739     0.0000  1032.0000 </r>
       <r>   105.8307     0.0000  1032.0000 </r>
       <r>   105.8875     0.0000  1032.0000 </r>
       <r>   105.9443     0.0000  1032.0000 </r>
       <r>   106.0011     0.0000  1032.0000 </r>
       <r>   106.0579     0.0000  1032.0000 </r>
       <r>   106.1147     0.0000  1032.0000 </r>
       <r>   106.1715     0.0000  1032.0000 </r>
       <r>   106.2283     0.0000  1032.0000 </r>
       <r>   106.2850     0.0000  1032.0000 </r>
       <r>   106.3418     0.0000  1032.0000 </r>
       <r>   106.3986     0.0000  1032.0000 </r>
       <r>   106.4554     0.0000  1032.0000 </r>
       <r>   106.5122     0.0000  1032.0000 </r>
       <r>   106.5690     0.0000  1032.0000 </r>
       <r>   106.6258     0.0000  1032.0000 </r>
       <r>   106.6826     0.0000  1032.0000 </r>
       <r>   106.7394     0.0000  1032.0000 </r>
       <r>   106.7962     0.0000  1032.0000 </r>
       <r>   106.8530     0.0000  1032.0000 </r>
       <r>   106.9098     0.0000  1032.0000 </r>
       <r>   106.9665     0.0000  1032.0000 </r>
       <r>   107.0233     0.0000  1032.0000 </r>
       <r>   107.0801     0.0000  1032.0000 </r>
       <r>   107.1369     0.0000  1032.0000 </r>
       <r>   107.1937     0.0000  1032.0000 </r>
       <r>   107.2505     0.0000  1032.0000 </r>
       <r>   107.3073     0.0000  1032.0000 </r>
       <r>   107.3641     0.0000  1032.0000 </r>
       <r>   107.4209     0.0000  1032.0000 </r>
       <r>   107.4777     0.0000  1032.0000 </r>
       <r>   107.5345     0.0000  1032.0000 </r>
       <r>   107.5913     0.0000  1032.0000 </r>
       <r>   107.6480     0.0000  1032.0000 </r>
       <r>   107.7048     0.0000  1032.0000 </r>
       <r>   107.7616     0.0000  1032.0000 </r>
       <r>   107.8184     0.0000  1032.0000 </r>
       <r>   107.8752     0.0000  1032.0000 </r>
       <r>   107.9320     0.0000  1032.0000 </r>
       <r>   107.9888     0.0000  1032.0000 </r>
       <r>   108.0456     0.0000  1032.0000 </r>
       <r>   108.1024     0.0000  1032.0000 </r>
       <r>   108.1592     0.0000  1032.0000 </r>
       <r>   108.2160     0.0000  1032.0000 </r>
       <r>   108.2728     0.0000  1032.0000 </r>
       <r>   108.3295     0.0000  1032.0000 </r>
       <r>   108.3863     0.0000  1032.0000 </r>
       <r>   108.4431     0.0000  1032.0000 </r>
       <r>   108.4999     0.0000  1032.0000 </r>
       <r>   108.5567     0.0000  1032.0000 </r>
       <r>   108.6135     0.0000  1032.0000 </r>
       <r>   108.6703     0.0000  1032.0000 </r>
       <r>   108.7271     0.0000  1032.0000 </r>
       <r>   108.7839     0.0000  1032.0000 </r>
       <r>   108.8407     0.0000  1032.0000 </r>
       <r>   108.8975     0.0000  1032.0000 </r>
       <r>   108.9543     0.0000  1032.0000 </r>
       <r>   109.0110     0.0000  1032.0000 </r>
       <r>   109.0678     0.0000  1032.0000 </r>
       <r>   109.1246     0.0000  1032.0000 </r>
       <r>   109.1814     0.0000  1032.0000 </r>
       <r>   109.2382     0.0000  1032.0000 </r>
       <r>   109.2950     0.0000  1032.0000 </r>
       <r>   109.3518     0.0000  1032.0000 </r>
       <r>   109.4086     0.0000  1032.0000 </r>
       <r>   109.4654     0.0000  1032.0000 </r>
       <r>   109.5222     0.0000  1032.0000 </r>
       <r>   109.5790     0.0000  1032.0000 </r>
       <r>   109.6358     0.0000  1032.0000 </r>
       <r>   109.6925     0.0000  1032.0000 </r>
       <r>   109.7493     0.0000  1032.0000 </r>
       <r>   109.8061     0.0000  1032.0000 </r>
       <r>   109.8629     0.0000  1032.0000 </r>
       <r>   109.9197     0.0000  1032.0000 </r>
       <r>   109.9765     0.0000  1032.0000 </r>
       <r>   110.0333     0.0000  1032.0000 </r>
       <r>   110.0901     0.0000  1032.0000 </r>
       <r>   110.1469     0.0000  1032.0000 </r>
       <r>   110.2037     0.0000  1032.0000 </r>
       <r>   110.2605     0.0000  1032.0000 </r>
       <r>   110.3172     0.0000  1032.0000 </r>
       <r>   110.3740     0.0000  1032.0000 </r>
       <r>   110.4308     0.0000  1032.0000 </r>
       <r>   110.4876     0.0000  1032.0000 </r>
       <r>   110.5444     0.0000  1032.0000 </r>
       <r>   110.6012     0.0000  1032.0000 </r>
       <r>   110.6580     0.0000  1032.0000 </r>
       <r>   110.7148     0.0000  1032.0000 </r>
       <r>   110.7716     0.0000  1032.0000 </r>
       <r>   110.8284     0.0000  1032.0000 </r>
       <r>   110.8852     0.0000  1032.0000 </r>
       <r>   110.9420     0.0000  1032.0000 </r>
       <r>   110.9987     0.0000  1032.0000 </r>
       <r>   111.0555     0.0000  1032.0000 </r>
       <r>   111.1123     0.0000  1032.0000 </r>
       <r>   111.1691     0.0000  1032.0000 </r>
       <r>   111.2259     0.0000  1032.0000 </r>
       <r>   111.2827     0.0000  1032.0000 </r>
       <r>   111.3395     0.0000  1032.0000 </r>
       <r>   111.3963     0.0000  1032.0000 </r>
       <r>   111.4531     0.0000  1032.0000 </r>
       <r>   111.5099     0.0000  1032.0000 </r>
      </set>
     </set>
    </array>
   </total>
  </dos>
 </calculation>
 <structure name="finalpos" >
  <crystal>
   <varray name="basis" >
    <v>       4.48084843       2.58701885       0.00000000 </v>
    <v>      -4.48084843       2.58701885       0.00000000 </v>
    <v>       0.00000000       0.00000000       8.52022140 </v>
   </varray>
   <i name="volume">    197.53348383 </i>
   <varray name="rec_basis" >
    <v>       0.11158601       0.19327265       0.00000000 </v>
    <v>      -0.11158601       0.19327265       0.00000000 </v>
    <v>       0.00000000       0.00000000       0.11736784 </v>
   </varray>
  </crystal>
  <varray name="positions" >
   <v>       0.33333300       0.66666600       0.25000000 </v>
   <v>       0.66666600       0.33333300       0.25000000 </v>
   <v>       0.15869124       0.31738348       0.25000000 </v>
   <v>       0.31738348       0.15869124       0.25000000 </v>
   <v>       0.15869124       0.84130776       0.25000000 </v>
   <v>       0.84130776       0.15869124       0.25000000 </v>
   <v>       0.68261552       0.84130776       0.25000000 </v>
   <v>       0.84130776       0.68261552       0.25000000 </v>
  </varray>
 </structure>
</modeling>
