fcc Ni bandstructure                    
   3.53000000000000     
     0.500000    0.500000    0.000000
     0.000000    0.500000    0.500000
     0.500000    0.000000    0.500000
   Ni
     1
Direct
  0.000000  0.000000  0.000000
 
   28   28   28
  152.34      147.27      132.98      112.00      87.713      63.568      42.363      25.857      14.650      8.2670    
  5.4229      4.4107      3.8259      3.4652      3.3451      3.4652      3.8259      4.4107      5.4229      8.2670    
  14.650      25.857      42.363      63.568      87.713      112.00      132.98      147.27      147.27      137.60    
  119.99      97.458      73.428      51.026      32.514      19.043      10.641      6.3917      4.7587      4.0662    
  3.5948      3.3579      3.3579      3.5948      4.0662      4.7587      6.3917      10.641      19.043      32.514    
  51.026      73.428      97.458      119.99      137.60      147.27      132.98      119.99      100.92      78.864    
  56.978      37.833      23.039      13.115      7.5754      5.1752      4.2923      3.7339      3.3932      3.2804    
  3.3932      3.7338      4.2923      5.1752      7.5754      13.115      23.039      37.833      56.978      78.864    
  100.92      119.99      132.98      137.60      112.00      97.458      78.864      59.099      40.790      25.836    
  15.171      8.7370      5.6449      4.4846      3.8665      3.4432      3.2336      3.2336      3.4432      3.8665    
  4.4846      5.6449      8.7371      15.171      25.836      40.790      59.099      78.864      97.458      112.00    
  119.99      119.99      87.713      73.428      56.978      40.790      26.842      16.339      9.5892      6.0669    
  4.6435      3.9783      3.4972      3.2123      3.1191      3.2123      3.4972      3.9783      4.6435      6.0669    
  9.5892      16.339      26.842      40.790      56.978      73.428      87.713      97.458      100.92      97.458    
  63.568      51.026      37.833      25.836      16.339      9.9023      6.3184      4.7575      4.0581      3.5445    
  3.2079      3.0452      3.0452      3.2079      3.5445      4.0581      4.7575      6.3185      9.9023      16.339    
  25.836      37.833      51.026      63.568      73.428      78.864      78.864      73.428      42.363      32.514    
  23.039      15.171      9.5892      6.3184      4.7999      4.0994      3.5764      3.2113      3.0028      2.9358    
  3.0028      3.2113      3.5764      4.0994      4.7999      6.3185      9.5892      15.171      23.039      32.514    
  42.362      51.026      56.978      59.099      56.978      51.026      25.857      19.043      13.115      8.7370    
  6.0669      4.7575      4.0994      3.5877      3.2151      2.9822      2.8724      2.8724      2.9822      3.2151    
  3.5877      4.0994      4.7575      6.0669      8.7370      13.115      19.043      25.857      32.514      37.833    
  40.790      40.790      37.833      32.514      14.650      10.641      7.5754      5.6449      4.6435      4.0581    
  3.5764      3.2151      2.9762      2.8440      2.8022      2.8440      2.9762      3.2151      3.5764      4.0581    
  4.6435      5.6449      7.5754      10.641      14.650      19.043      23.039      25.836      26.842      25.836    
  23.039      19.043      8.2670      6.3917      5.1752      4.4846      3.9783      3.5445      3.2113      2.9822    
  2.8440      2.7803      2.7803      2.8440      2.9822      3.2113      3.5445      3.9783      4.4846      5.1751    
  6.3917      8.2670      10.641      13.115      15.171      16.339      16.339      15.171      13.115      10.641    
  5.4229      4.7587      4.2923      3.8665      3.4972      3.2079      3.0028      2.8724      2.8022      2.7803    
  2.8022      2.8724      3.0028      3.2079      3.4972      3.8665      4.2923      4.7587      5.4229      6.3917    
  7.5754      8.7370      9.5892      9.9023      9.5892      8.7371      7.5754      6.3917      4.4107      4.0662    
  3.7339      3.4432      3.2123      3.0452      2.9358      2.8724      2.8440      2.8440      2.8724      2.9358    
  3.0452      3.2123      3.4432      3.7339      4.0662      4.4107      4.7587      5.1751      5.6449      6.0669    
  6.3185      6.3185      6.0669      5.6449      5.1752      4.7587      3.8259      3.5948      3.3932      3.2336    
  3.1191      3.0452      3.0028      2.9822      2.9762      2.9822      3.0028      3.0452      3.1192      3.2336    
  3.3932      3.5948      3.8259      4.0662      4.2923      4.4846      4.6435      4.7575      4.7999      4.7575    
  4.6435      4.4846      4.2923      4.0662      3.4652      3.3579      3.2804      3.2336      3.2123      3.2079    
  3.2113      3.2151      3.2151      3.2113      3.2079      3.2123      3.2336      3.2804      3.3579      3.4652    
  3.5948      3.7339      3.8665      3.9783      4.0581      4.0994      4.0994      4.0581      3.9783      3.8665    
  3.7338      3.5948      3.3451      3.3579      3.3932      3.4432      3.4972      3.5445      3.5764      3.5877    
  3.5764      3.5445      3.4972      3.4432      3.3932      3.3579      3.3451      3.3579      3.3932      3.4432    
  3.4972      3.5445      3.5764      3.5877      3.5764      3.5445      3.4972      3.4432      3.3932      3.3579    
  3.4652      3.5948      3.7338      3.8665      3.9783      4.0581      4.0994      4.0994      4.0581      3.9783    
  3.8665      3.7339      3.5948      3.4652      3.3579      3.2804      3.2336      3.2123      3.2079      3.2113    
  3.2151      3.2151      3.2113      3.2079      3.2123      3.2336      3.2804      3.3579      3.8259      4.0662    
  4.2923      4.4846      4.6435      4.7575      4.7999      4.7575      4.6435      4.4846      4.2923      4.0662    
  3.8259      3.5948      3.3932      3.2336      3.1192      3.0452      3.0028      2.9822      2.9762      2.9822    
  3.0028      3.0452      3.1191      3.2336      3.3932      3.5948      4.4107      4.7587      5.1752      5.6449    
  6.0669      6.3185      6.3185      6.0669      5.6449      5.1751      4.7587      4.4107      4.0662      3.7339    
  3.4432      3.2123      3.0452      2.9358      2.8724      2.8440      2.8440      2.8724      2.9358      3.0452    
  3.2123      3.4432      3.7339      4.0662      5.4229      6.3917      7.5754      8.7371      9.5892      9.9023    
  9.5892      8.7370      7.5754      6.3917      5.4229      4.7587      4.2923      3.8665      3.4972      3.2079    
  3.0028      2.8724      2.8022      2.7803      2.8022      2.8724      3.0028      3.2079      3.4972      3.8665    
  4.2923      4.7587      8.2670      10.641      13.115      15.171      16.339      16.339      15.171      13.115    
  10.641      8.2670      6.3917      5.1751      4.4846      3.9783      3.5445      3.2113      2.9822      2.8440    
  2.7803      2.7803      2.8440      2.9822      3.2113      3.5445      3.9783      4.4846      5.1752      6.3917    
  14.650      19.043      23.039      25.836      26.842      25.836      23.039      19.043      14.650      10.641    
  7.5754      5.6449      4.6435      4.0581      3.5764      3.2151      2.9762      2.8440      2.8022      2.8440    
  2.9762      3.2151      3.5764      4.0581      4.6435      5.6449      7.5754      10.641      25.857      32.514    
  37.833      40.790      40.790      37.833      32.514      25.857      19.043      13.115      8.7370      6.0669    
  4.7575      4.0994      3.5877      3.2151      2.9822      2.8724      2.8724      2.9822      3.2151      3.5877    
  4.0994      4.7575      6.0669      8.7370      13.115      19.043      42.363      51.026      56.978      59.099    
  56.978      51.026      42.362      32.514      23.039      15.171      9.5892      6.3185      4.7999      4.0994    
  3.5764      3.2113      3.0028      2.9358      3.0028      3.2113      3.5764      4.0994      4.7999      6.3184    
  9.5892      15.171      23.039      32.514      63.568      73.428      78.864      78.864      73.428      63.568    
  51.026      37.833      25.836      16.339      9.9023      6.3185      4.7575      4.0581      3.5445      3.2079    
  3.0452      3.0452      3.2079      3.5445      4.0581      4.7575      6.3184      9.9023      16.339      25.836    
  37.833      51.026      87.713      97.458      100.92      97.458      87.713      73.428      56.978      40.790    
  26.842      16.339      9.5892      6.0669      4.6435      3.9783      3.4972      3.2123      3.1191      3.2123    
  3.4972      3.9783      4.6435      6.0669      9.5892      16.339      26.842      40.790      56.978      73.428    
  112.00      119.99      119.99      112.00      97.458      78.864      59.099      40.790      25.836      15.171    
  8.7371      5.6449      4.4846      3.8665      3.4432      3.2336      3.2336      3.4432      3.8665      4.4846    
  5.6449      8.7370      15.171      25.836      40.790      59.099      78.864      97.458      132.98      137.60    
  132.98      119.99      100.92      78.864      56.978      37.833      23.039      13.115      7.5754      5.1752    
  4.2923      3.7338      3.3932      3.2804      3.3932      3.7339      4.2923      5.1752      7.5754      13.115    
  23.039      37.833      56.978      78.864      100.92      119.99      147.27      147.27      137.60      119.99    
  97.458      73.428      51.026      32.514      19.043      10.641      6.3917      4.7587      4.0662      3.5948    
  3.3579      3.3579      3.5948      4.0662      4.7587      6.3917      10.641      19.043      32.514      51.026    
  73.428      97.458      119.99      137.60      147.27      137.60      119.99      97.458      73.428      51.026    
  32.514      19.043      10.641      6.3917      4.7587      4.0662      3.5948      3.3579      3.3579      3.5948    
  4.0662      4.7587      6.3917      10.641      19.043      32.514      51.026      73.428      97.458      119.99    
  137.60      147.27      137.60      124.13      104.38      81.568      58.950      39.168      23.865      13.567    
  7.7819      5.2519      4.3333      3.7676      3.4211      3.3062      3.4211      3.7676      4.3333      5.2519    
  7.7819      13.567      23.865      39.168      58.950      81.568      104.38      124.13      137.60      142.38    
  119.99      104.38      84.456      63.310      43.738      27.733      16.265      9.2747      5.8579      4.5712    
  3.9363      3.4993      3.2817      3.2817      3.4993      3.9363      4.5712      5.8579      9.2747      16.265    
  27.733      43.738      63.310      84.456      104.38      119.99      128.59      128.59      97.458      81.568    
  63.310      45.365      29.887      18.167      10.539      6.4695      4.7933      4.0836      3.5808      3.2799    
  3.1811      3.2799      3.5808      4.0836      4.7933      6.4695      10.539      18.167      29.887      45.365    
  63.310      81.568      97.458      108.32      112.18      108.32      73.428      58.950      43.738      29.887    
  18.853      11.264      6.9277      4.9841      4.1963      3.6537      3.2926      3.1166      3.1166      3.2926    
  3.6537      4.1963      4.9841      6.9277      11.264      18.853      29.887      43.738      58.950      73.428    
  84.836      91.135      91.135      84.836      51.026      39.168      27.733      18.167      11.264      7.0977    
  5.0975      4.2662      3.7078      3.3103      3.0805      3.0062      3.0805      3.3103      3.7078      4.2662    
  5.0975      7.0977      11.264      18.167      27.733      39.168      51.026      61.464      68.644      71.205    
  68.644      61.464      32.514      23.865      16.265      10.539      6.9277      5.0975      4.2898      3.7365    
  3.3246      3.0633      2.9392      2.9392      3.0633      3.3246      3.7365      4.2898      5.0975      6.9277    
  10.539      16.265      23.865      32.514      40.931      47.651      51.387      51.387      47.651      40.931    
  19.043      13.567      9.2747      6.4695      4.9841      4.2662      3.7365      3.3300      3.0570      2.9046    
  2.8561      2.9046      3.0570      3.3300      3.7365      4.2662      4.9841      6.4695      9.2747      13.567    
  19.043      24.965      30.315      34.051      35.393      34.051      30.315      24.965      10.641      7.7819    
  5.8579      4.7933      4.1963      3.7078      3.3246      3.0570      2.8941      2.8185      2.8185      2.8941    
  3.0570      3.3246      3.7078      4.1963      4.7933      5.8579      7.7819      10.641      14.156      17.751    
  20.709      22.382      22.382      20.709      17.751      14.156      6.3917      5.2519      4.5712      4.0836    
  3.6537      3.3103      3.0633      2.9046      2.8185      2.7915      2.8185      2.9046      3.0633      3.3103    
  3.6537      4.0836      4.5712      5.2518      6.3917      8.0373      9.9858      11.854      13.205      13.699    
  13.205      11.854      9.9858      8.0373      4.7587      4.3333      3.9363      3.5808      3.2926      3.0805    
  2.9392      2.8561      2.8185      2.8185      2.8561      2.9392      3.0805      3.2926      3.5808      3.9363    
  4.3333      4.7587      5.3365      6.1218      7.0092      7.7918      8.2516      8.2516      7.7918      7.0092    
  6.1218      5.3365      4.0662      3.7676      3.4993      3.2799      3.1166      3.0062      2.9392      2.9046    
  2.8941      2.9046      2.9392      3.0062      3.1166      3.2799      3.4993      3.7676      4.0662      4.3679    
  4.6564      4.9662      5.2789      5.5189      5.6094      5.5189      5.2789      4.9662      4.6564      4.3679    
  3.5948      3.4211      3.2817      3.1811      3.1166      3.0805      3.0633      3.0570      3.0570      3.0633    
  3.0805      3.1166      3.1811      3.2817      3.4211      3.5948      3.7904      3.9894      4.1719      4.3210    
  4.4263      4.4831      4.4831      4.4263      4.3210      4.1719      3.9894      3.7904      3.3579      3.3062    
  3.2817      3.2799      3.2926      3.3103      3.3246      3.3300      3.3246      3.3103      3.2926      3.2799    
  3.2817      3.3062      3.3579      3.4356      3.5322      3.6358      3.7328      3.8111      3.8616      3.8789    
  3.8616      3.8111      3.7328      3.6358      3.5322      3.4356      3.3579      3.4211      3.4993      3.5808    
  3.6537      3.7078      3.7365      3.7365      3.7078      3.6537      3.5808      3.4993      3.4211      3.3579    
  3.3178      3.3038      3.3126      3.3368      3.3666      3.3924      3.4073      3.4073      3.3924      3.3666    
  3.3368      3.3126      3.3037      3.3178      3.5948      3.7676      3.9363      4.0836      4.1963      4.2662    
  4.2898      4.2662      4.1963      4.0836      3.9363      3.7676      3.5948      3.4356      3.3038      3.2062    
  3.1427      3.1072      3.0910      3.0855      3.0844      3.0855      3.0910      3.1072      3.1427      3.2062    
  3.3037      3.4356      4.0662      4.3333      4.5712      4.7933      4.9841      5.0975      5.0975      4.9841    
  4.7933      4.5712      4.3333      4.0662      3.7904      3.5322      3.3126      3.1427      3.0231      2.9469    
  2.9042      2.8855      2.8855      2.9042      2.9469      3.0230      3.1427      3.3126      3.5322      3.7904    
  4.7587      5.2519      5.8579      6.4695      6.9277      7.0977      6.9277      6.4695      5.8579      5.2518    
  4.7587      4.3679      3.9894      3.6358      3.3368      3.1072      2.9469      2.8463      2.7926      2.7760    
  2.7926      2.8463      2.9469      3.1072      3.3368      3.6358      3.9894      4.3679      6.3917      7.7819    
  9.2747      10.539      11.264      11.264      10.539      9.2747      7.7819      6.3917      5.3365      4.6564    
  4.1719      3.7328      3.3666      3.0910      2.9042      2.7926      2.7415      2.7415      2.7926      2.9042    
  3.0910      3.3666      3.7328      4.1719      4.6564      5.3365      10.641      13.567      16.265      18.167    
  18.853      18.167      16.265      13.567      10.641      8.0373      6.1218      4.9662      4.3210      3.8111    
  3.3924      3.0855      2.8855      2.7760      2.7415      2.7760      2.8855      3.0855      3.3924      3.8111    
  4.3210      4.9662      6.1218      8.0373      19.043      23.865      27.733      29.887      29.887      27.733    
  23.865      19.043      14.156      9.9858      7.0092      5.2789      4.4263      3.8616      3.4073      3.0844    
  2.8855      2.7926      2.7926      2.8855      3.0844      3.4073      3.8616      4.4263      5.2789      7.0092    
  9.9858      14.156      32.514      39.168      43.738      45.365      43.738      39.168      32.514      24.965    
  17.751      11.854      7.7918      5.5189      4.4831      3.8789      3.4073      3.0855      2.9042      2.8463    
  2.9042      3.0855      3.4073      3.8789      4.4831      5.5189      7.7918      11.854      17.751      24.965    
  51.026      58.950      63.310      63.310      58.950      51.026      40.931      30.315      20.709      13.205    
  8.2516      5.6094      4.4831      3.8616      3.3924      3.0910      2.9469      2.9469      3.0910      3.3924    
  3.8616      4.4831      5.6094      8.2516      13.205      20.709      30.315      40.931      73.428      81.568    
  84.456      81.568      73.428      61.464      47.651      34.051      22.382      13.699      8.2516      5.5189    
  4.4263      3.8111      3.3666      3.1072      3.0230      3.1072      3.3666      3.8111      4.4263      5.5189    
  8.2516      13.699      22.381      34.051      47.651      61.464      97.458      104.38      104.38      97.458    
  84.836      68.644      51.387      35.393      22.382      13.205      7.7918      5.2789      4.3210      3.7328    
  3.3368      3.1427      3.1427      3.3368      3.7328      4.3210      5.2789      7.7918      13.205      22.381    
  35.393      51.387      68.644      84.836      119.99      124.13      119.99      108.32      91.135      71.205    
  51.387      34.051      20.709      11.854      7.0092      4.9662      4.1719      3.6358      3.3126      3.2062    
  3.3126      3.6358      4.1719      4.9662      7.0092      11.854      20.709      34.051      51.387      71.205    
  91.135      108.32      137.60      137.60      128.59      112.18      91.135      68.644      47.651      30.315    
  17.751      9.9858      6.1218      4.6564      3.9894      3.5322      3.3037      3.3037      3.5322      3.9894    
  4.6564      6.1218      9.9858      17.751      30.315      47.651      68.644      91.135      112.18      128.59    
  147.27      142.38      128.59      108.32      84.836      61.464      40.931      24.965      14.156      8.0373    
  5.3365      4.3679      3.7904      3.4356      3.3178      3.4356      3.7904      4.3679      5.3365      8.0373    
  14.156      24.965      40.931      61.464      84.836      108.32      128.59      142.38      132.98      119.99    
  100.92      78.864      56.978      37.833      23.039      13.115      7.5754      5.1752      4.2923      3.7339    
  3.3932      3.2804      3.3932      3.7338      4.2923      5.1752      7.5754      13.115      23.039      37.833    
  56.978      78.864      100.92      119.99      132.98      137.60      119.99      104.38      84.456      63.310    
  43.738      27.733      16.265      9.2747      5.8579      4.5712      3.9363      3.4993      3.2817      3.2817    
  3.4993      3.9363      4.5712      5.8579      9.2747      16.265      27.733      43.738      63.310      84.456    
  104.38      119.99      128.59      128.59      100.92      84.456      65.552      46.985      30.967      18.819    
  10.882      6.6175      4.8475      4.1196      3.6096      3.3033      3.2025      3.3033      3.6096      4.1196    
  4.8475      6.6175      10.882      18.819      30.967      46.985      65.552      84.456      100.92      112.18    
  116.19      112.18      78.864      63.310      46.985      32.119      20.248      12.032      7.2796      5.1151    
  4.2673      3.7107      3.3371      3.1542      3.1542      3.3371      3.7107      4.2673      5.1151      7.2796    
  12.032      20.248      32.119      46.985      63.310      78.864      91.135      97.918      97.918      91.135    
  56.978      43.738      30.967      20.248      12.450      7.6657      5.3167      4.3692      3.7908      3.3734    
  3.1302      3.0513      3.1302      3.3734      3.7908      4.3692      5.3167      7.6657      12.449      20.248    
  30.967      43.738      56.978      68.644      76.679      79.548      76.679      68.644      37.833      27.733    
  18.819      12.032      7.6657      5.3922      4.4219      3.8418      3.4031      3.1217      2.9873      2.9873    
  3.1217      3.4031      3.8418      4.4219      5.3922      7.6657      12.032      18.819      27.733      37.833    
  47.651      55.491      59.854      59.854      55.491      47.651      23.039      16.265      10.882      7.2796    
  5.3167      4.4219      3.8593      3.4197      3.1206      2.9523      2.8986      2.9523      3.1206      3.4197    
  3.8593      4.4219      5.3167      7.2796      10.882      16.265      23.039      30.315      36.872      41.447    
  43.090      41.447      36.872      30.315      13.115      9.2747      6.6175      5.1151      4.3692      3.8418    
  3.4197      3.1209      2.9374      2.8518      2.8518      2.9374      3.1209      3.4197      3.8418      4.3692    
  5.1151      6.6175      9.2747      13.115      17.751      22.445      26.290      28.459      28.459      26.290    
  22.445      17.751      7.5754      5.8579      4.8475      4.2673      3.7908      3.4031      3.1206      2.9374    
  2.8374      2.8059      2.8374      2.9374      3.1206      3.4031      3.7908      4.2673      4.8475      5.8579    
  7.5754      9.9858      12.775      15.412      17.304      17.993      17.304      15.412      12.775      9.9858    
  5.1752      4.5712      4.1196      3.7107      3.3734      3.1217      2.9523      2.8518      2.8059      2.8059    
  2.8518      2.9523      3.1217      3.3734      3.7107      4.1196      4.5712      5.1751      6.1218      7.4059    
  8.8242      10.053      10.767      10.767      10.053      8.8242      7.4059      6.1218      4.2923      3.9363    
  3.6096      3.3371      3.1302      2.9873      2.8986      2.8518      2.8374      2.8518      2.8986      2.9873    
  3.1302      3.3371      3.6096      3.9363      4.2923      4.6564      5.1016      5.6561      6.2284      6.6650    
  6.8286      6.6650      6.2284      5.6561      5.1016      4.6564      3.7339      3.4993      3.3033      3.1542    
  3.0513      2.9873      2.9523      2.9374      2.9374      2.9523      2.9873      3.0513      3.1542      3.3033    
  3.4993      3.7339      3.9894      4.2423      4.4703      4.6766      4.8529      4.9582      4.9582      4.8529    
  4.6766      4.4703      4.2424      3.9894      3.3932      3.2817      3.2025      3.1542      3.1302      3.1217    
  3.1206      3.1209      3.1206      3.1217      3.1302      3.1542      3.2025      3.2817      3.3932      3.5322    
  3.6871      3.8421      3.9806      4.0889      4.1572      4.1805      4.1572      4.0889      3.9806      3.8421    
  3.6871      3.5322      3.2804      3.2817      3.3033      3.3371      3.3734      3.4031      3.4197      3.4197    
  3.4031      3.3734      3.3371      3.3033      3.2817      3.2804      3.3038      3.3503      3.4134      3.4827    
  3.5468      3.5955      3.6217      3.6217      3.5955      3.5468      3.4827      3.4134      3.3503      3.3037    
  3.3932      3.4993      3.6096      3.7107      3.7908      3.8418      3.8593      3.8418      3.7908      3.7107    
  3.6096      3.4993      3.3932      3.3038      3.2391      3.2015      3.1878      3.1906      3.2010      3.2109    
  3.2148      3.2109      3.2010      3.1906      3.1878      3.2015      3.2391      3.3037      3.7338      3.9363    
  4.1196      4.2673      4.3692      4.4219      4.4219      4.3692      4.2673      4.1196      3.9363      3.7339    
  3.5322      3.3503      3.2015      3.0915      3.0183      2.9749      2.9526      2.9436      2.9436      2.9526    
  2.9749      3.0183      3.0915      3.2015      3.3503      3.5322      4.2923      4.5712      4.8475      5.1151    
  5.3167      5.3922      5.3167      5.1151      4.8475      4.5712      4.2923      3.9894      3.6871      3.4134    
  3.1878      3.0183      2.9021      2.8305      2.7929      2.7814      2.7929      2.8305      2.9021      3.0183    
  3.1878      3.4134      3.6871      3.9894      5.1752      5.8579      6.6175      7.2796      7.6657      7.6657    
  7.2796      6.6175      5.8579      5.1751      4.6564      4.2423      3.8421      3.4827      3.1906      2.9749    
  2.8305      2.7451      2.7062      2.7062      2.7451      2.8305      2.9749      3.1906      3.4827      3.8421    
  4.2424      4.6564      7.5754      9.2747      10.882      12.032      12.449      12.032      10.882      9.2747    
  7.5754      6.1218      5.1016      4.4703      3.9806      3.5468      3.2010      2.9526      2.7929      2.7062    
  2.6790      2.7062      2.7929      2.9526      3.2010      3.5468      3.9807      4.4703      5.1016      6.1218    
  13.115      16.265      18.819      20.248      20.248      18.819      16.265      13.115      9.9858      7.4059    
  5.6561      4.6766      4.0889      3.5955      3.2109      2.9436      2.7814      2.7062      2.7062      2.7814    
  2.9436      3.2109      3.5955      4.0889      4.6766      5.6561      7.4059      9.9858      23.039      27.733    
  30.967      32.119      30.967      27.733      23.039      17.751      12.775      8.8242      6.2284      4.8529    
  4.1572      3.6217      3.2148      2.9436      2.7929      2.7451      2.7929      2.9436      3.2149      3.6217    
  4.1572      4.8529      6.2284      8.8242      12.775      17.751      37.833      43.738      46.985      46.985    
  43.738      37.833      30.315      22.445      15.412      10.053      6.6650      4.9582      4.1805      3.6217    
  3.2109      2.9526      2.8305      2.8305      2.9526      3.2109      3.6217      4.1805      4.9582      6.6650    
  10.053      15.412      22.445      30.315      56.978      63.310      65.552      63.310      56.978      47.651    
  36.872      26.290      17.304      10.767      6.8286      4.9582      4.1572      3.5955      3.2010      2.9749    
  2.9021      2.9749      3.2010      3.5955      4.1572      4.9582      6.8286      10.767      17.304      26.290    
  36.872      47.651      78.864      84.456      84.456      78.864      68.644      55.491      41.447      28.459    
  17.993      10.767      6.6650      4.8529      4.0889      3.5468      3.1906      3.0183      3.0183      3.1906    
  3.5468      4.0889      4.8529      6.6650      10.767      17.993      28.459      41.447      55.491      68.644    
  100.92      104.38      100.92      91.135      76.679      59.854      43.090      28.459      17.304      10.053    
  6.2284      4.6766      3.9806      3.4827      3.1878      3.0915      3.1878      3.4827      3.9807      4.6766    
  6.2284      10.053      17.304      28.459      43.090      59.854      76.679      91.135      119.99      119.99    
  112.18      97.918      79.548      59.854      41.447      26.290      15.412      8.8242      5.6561      4.4703    
  3.8421      3.4134      3.2015      3.2015      3.4134      3.8421      4.4703      5.6561      8.8242      15.412    
  26.290      41.447      59.854      79.548      97.918      112.18      132.98      128.59      116.19      97.918    
  76.679      55.491      36.872      22.445      12.775      7.4059      5.1016      4.2424      3.6871      3.3503    
  3.2391      3.3503      3.6871      4.2424      5.1016      7.4059      12.775      22.445      36.872      55.491    
  76.679      97.918      116.19      128.59      137.60      128.59      112.18      91.135      68.644      47.651    
  30.315      17.751      9.9858      6.1218      4.6564      3.9894      3.5322      3.3037      3.3037      3.5322    
  3.9894      4.6564      6.1218      9.9858      17.751      30.315      47.651      68.644      91.135      112.18    
  128.59      137.60      112.00      97.458      78.864      59.099      40.790      25.836      15.171      8.7370    
  5.6449      4.4846      3.8665      3.4432      3.2336      3.2336      3.4432      3.8665      4.4846      5.6449    
  8.7371      15.171      25.836      40.790      59.099      78.864      97.458      112.00      119.99      119.99    
  97.458      81.568      63.310      45.365      29.887      18.167      10.539      6.4695      4.7933      4.0836    
  3.5808      3.2799      3.1811      3.2799      3.5808      4.0836      4.7933      6.4695      10.539      18.167    
  29.887      45.365      63.310      81.568      97.458      108.32      112.18      108.32      78.864      63.310    
  46.985      32.119      20.248      12.032      7.2796      5.1151      4.2673      3.7107      3.3371      3.1542    
  3.1542      3.3371      3.7107      4.2673      5.1151      7.2796      12.032      20.248      32.119      46.985    
  63.310      78.864      91.135      97.918      97.918      91.135      59.099      45.365      32.119      20.992    
  12.877      7.8735      5.3978      4.4043      3.8191      3.3950      3.1473      3.0668      3.1473      3.3950    