    1    1    1    2
  0.1099674E+02  0.2496087E-09  0.2496087E-09  0.2496087E-09  0.5000000E-15
  1.000000000000000E-004
  CAR 
 fcc Ni bandstructure                    
     10     56     12
 
  0.0000000E+00  0.0000000E+00  0.0000000E+00  0.7513148E-03
    1        0.294298      0.246875   1.000000   1.000000
    2        6.851209      7.524895   1.000000   1.000000
    3        6.851210      7.524897   1.000000   1.000000
    4        6.851210      7.524897   1.000000   1.000000
    5        7.986817      8.562904   1.000000   1.000028
    6        7.986817      8.562904   1.000000   1.000028
    7       32.895744     32.728517   0.000000   0.000000
    8       36.655890     36.626388   0.000000   0.000000
    9       36.655931     36.626436   0.000000   0.000000
   10       36.655931     36.626436   0.000000   0.000000
   11       39.723647     39.780420   0.000000   0.000000
   12       39.723652     39.780433   0.000000   0.000000
 
  0.9090909E-01  0.0000000E+00  0.0000000E+00  0.6010518E-02
    1        0.613597      0.566600   1.000000   1.000000
    2        6.773900      7.437386   1.000000   1.000000
    3        6.919388      7.595128   1.000000   1.000000
    4        6.919389      7.595130   1.000000   1.000000
    5        7.960554      8.535210   1.000000   1.000012
    6        7.960554      8.535210   1.000000   1.000012
    7       31.489924     31.440585   0.000000   0.000000
    8       34.246575     34.162052   0.000000   0.000000
    9       36.013262     36.021068   0.000000   0.000000
   10       36.013295     36.021108   0.000000   0.000000
   11       40.709497     40.717718   0.000000   0.000000
   12       40.709505     40.717725   0.000000   0.000000
 
  0.1818182E+00  0.0000000E+00  0.0000000E+00  0.6010518E-02
    1        1.530355      1.488654   1.000000   1.000000
    2        6.600089      7.230985   1.000000   1.000000
    3        7.048359      7.714665   1.000000   1.000000
    4        7.048361      7.714668   1.000000   1.000000
    5        7.951834      8.538841   1.000000   1.000013
    6        7.951834      8.538844   1.000000   1.000013
    7       27.027106     27.087513   0.000000   0.000000
    8       33.519970     33.387572   0.000000   0.000000
    9       35.073900     35.119103   0.000000   0.000000
   10       35.073928     35.119142   0.000000   0.000000
   11       40.763970     40.696725   0.000000   0.000000
   12       41.442133     41.408762   0.000000   0.000000
 
  0.2727273E+00  0.0000000E+00  0.0000000E+00  0.6010518E-02
    1        2.860766      2.857638   1.000000   1.000000
    2        6.559545      7.106936   1.000000   1.000000
    3        7.056747      7.682735   1.000000   1.000000
    4        7.056748      7.682740   1.000000   1.000000
    5        8.121155      8.754950   1.000000   1.003309
    6        8.121157      8.754954   1.000000   1.003309
    7       22.468424     22.591149   0.000000   0.000000
    8       32.764832     32.625046   0.000000   0.000000
    9       34.360912     34.428274   0.000000   0.000000
   10       34.360932     34.428310   0.000000   0.000000
   11       39.632878     39.638558   0.000000   0.000000
   12       39.632899     39.638585   0.000000   0.000000
 
  0.3636364E+00  0.0000000E+00  0.0000000E+00  0.6010518E-02
    1        4.023222      4.194102   1.000000   1.000000
    2        6.954265      7.490024   1.000000   1.000000
    3        6.954266      7.548483   1.000000   1.000000
    4        7.188758      7.548488   1.000000   1.000000
    5        8.410580      9.085043   1.000000   0.918995
    6        8.410583      9.085046   1.000000   0.918988
    7       18.374402     18.576597   0.000000   0.000000
    8       31.947454     31.798160   0.000000   0.000000
    9       33.937191     34.010390   0.000000   0.000000
   10       33.937199     34.010420   0.000000   0.000000
   11       37.826262     37.842416   0.000000   0.000000
   12       37.826299     37.842456   0.000000   0.000000
 
  0.4545455E+00  0.0000000E+00  0.0000000E+00  0.6010518E-02
    1        4.436240      4.796006   1.000000   1.000000
    2        6.873628      7.453753   1.000000   1.000000
    3        6.873630      7.453757   1.000000   1.000000
    4        8.618288      8.606437   1.000136   1.000098
    5        8.618291      9.313072   1.000136   0.107503
    6        8.618413      9.313075   1.000137   0.107496
    7       15.359109     15.688217   0.000000   0.000000
    8       31.452135     31.296132   0.000000   0.000000
    9       33.751434     33.821154   0.000000   0.000000
   10       33.751437     33.821178   0.000000   0.000000
   11       36.896672     36.914907   0.000000   0.000000
   12       36.896723     36.914957   0.000000   0.000000
 
  0.9090909E-01  0.9090909E-01  0.0000000E+00  0.4507889E-02
    1        0.719366      0.672427   1.000000   1.000000
    2        6.703526      7.365308   1.000000   1.000000
    3        6.970138      7.647453   1.000000   1.000000
    4        6.970138      7.647454   1.000000   1.000000
    5        7.852839      8.420005   1.000000   1.000000
    6        8.040871      8.618894   1.000000   1.000139
    7       32.094756     31.991257   0.000000   0.000000
    8       34.093226     34.128171   0.000000   0.000000
    9       34.093247     34.128197   0.000000   0.000000
   10       34.979448     34.911839   0.000000   0.000000
   11       41.455789     41.461684   0.000000   0.000000
   12       42.238338     42.205124   0.000000   0.000000
 
  0.1818182E+00  0.9090909E-01  0.0000000E+00  0.1803156E-01
    1        1.436231      1.392301   1.000000   1.000000
    2        6.526884      7.168934   1.000000   1.000000
    3        7.101565      7.772002   1.000000   1.000000
    4        7.111306      7.787070   1.000000   1.000000
    5        7.752979      8.321072   1.000000   1.000000
    6        8.093469      8.679670   1.000000   1.000652
    7       28.803930     28.841165   0.000000   0.000000
    8       32.552813     32.479547   0.000000   0.000000
    9       32.601496     32.654525   0.000000   0.000000
   10       36.007955     35.949293   0.000000   0.000000
   11       39.505213     39.607273   0.000000   0.000000
   12       41.868975     41.926346   0.000000   0.000000
 
  0.2727273E+00  0.9090909E-01  0.0000000E+00  0.1803156E-01
    1        2.643849      2.621630   1.000000   1.000000
    2        6.382446      6.978190   1.000000   1.000000
    3        7.083672      7.695194   1.000000   1.000000
    4        7.183221      7.829534   1.000000   1.000000
    5        7.938312      8.555454   1.000000   1.000022
    6        8.238840      8.862052   1.000000   1.017998
    7       24.167780     24.265405   0.000000   0.000000
    8       31.620452     31.682552   0.000000   0.000000
    9       31.828529     31.748742   0.000000   0.000000
   10       35.738061     35.781794   0.000000   0.000000
   11       38.949612     38.936918   0.000000   0.000000
   12       41.619073     41.653858   0.000000   0.000000
 
  0.3636364E+00  0.9090909E-01  0.0000000E+00  0.1803156E-01
    1        3.928849      4.026265   1.000000   1.000000
    2        6.575329      7.033575   1.000000   1.000000
    3        6.913013      7.498511   1.000000   1.000000
    4        7.117219      7.727476   1.000000   1.000000
    5        8.479947      9.104588   1.000002   0.870102
    6        8.491539      9.147233   1.000003   0.731985
    7       19.858855     20.021954   0.000000   0.000000
    8       31.035444     30.946283   0.000000   0.000000
    9       31.185755     31.248614   0.000000   0.000000
   10       33.837378     33.919843   0.000000   0.000000
   11       39.280934     39.243820   0.000000   0.000000
   12       41.110404     41.112599   0.000000   0.000000
 
  0.4545455E+00  0.9090909E-01  0.0000000E+00  0.1803156E-01
    1        4.552419      4.880298   1.000000   1.000000
    2        6.758767      7.271512   1.000000   1.000000
    3        7.016913      7.605523   1.000000   1.000000
    4        7.350036      7.731914   1.000000   1.000000
    5        8.642799      9.336432   1.000261   0.055182
    6        9.479183      9.922146  -0.032714  -0.000002
    7       16.299012     16.565802   0.000000   0.000000
    8       30.181969     30.112834   0.000000   0.000000
    9       31.376135     31.436623   0.000000   0.000000
   10       32.594215     32.642519   0.000000   0.000000
   11       39.132601     39.110419   0.000000   0.000000
   12       39.577242     39.594551   0.000000   0.000000
 
 -0.4545455E+00  0.9090909E-01  0.0000000E+00  0.1803156E-01
    1        4.646366      5.037478   1.000000   1.000000
    2        6.735970      7.269312   1.000000   1.000000
    3        6.974621      7.554887   1.000000   1.000000
    4        7.689298      8.061680   1.000000   1.000000
    5        8.604241      9.302701   1.000092   0.135134
    6       10.177678     10.471822  -0.000000  -0.000000
    7       14.962518     15.312952   0.000000   0.000000
    8       29.406196     29.381801   0.000000   0.000000
    9       32.279475     32.301741   0.000000   0.000000
   10       32.313404     32.340751   0.000000   0.000000
   11       38.525222     38.550783   0.000000   0.000000
   12       39.233517     39.219736   0.000000   0.000000
 
 -0.3636364E+00  0.9090909E-01  0.0000000E+00  0.1803156E-01
    1        4.438502      4.698621   1.000000   1.000000
    2        6.824296      7.352038   1.000000   1.000000
    3        7.024675      7.522130   1.000000   1.000000
    4        7.150272      7.609400   1.000000   1.000000
    5        8.351143      9.034830   1.000000   1.001500
    6        9.258175      9.812440   0.282035  -0.000075
    7       17.367445     17.594023   0.000000   0.000000
    8       28.985830     28.994007   0.000000   0.000000
    9       32.867440     32.818430   0.000000   0.000000
   10       33.918061     33.986479   0.000000   0.000000
   11       37.969420     37.994621   0.000000   0.000000
   12       39.367003     39.351888   0.000000   0.000000
 
 -0.2727273E+00  0.9090909E-01  0.0000000E+00  0.1803156E-01
    1        3.547462      3.584040   1.000000   1.000000
    2        6.489593      7.012743   1.000000   1.000000
    3        6.976079      7.567480   1.000000   1.000000
    4        7.140033      7.748400   1.000000   1.000000
    5        7.993879      8.642096   1.000000   1.000256
    6        8.621400      9.260377   1.000148   0.273820
    7       21.245371     21.385255   0.000000   0.000000
    8       29.059386     29.083310   0.000000   0.000000
    9       34.084926     34.020114   0.000000   0.000000
   10       36.241527     36.321612   0.000000   0.000000
   11       37.834173     37.847687   0.000000   0.000000
   12       39.046055     39.007893   0.000000   0.000000
 
 -0.1818182E+00  0.9090909E-01  0.0000000E+00  0.1803156E-01
    1        2.203565      2.169544   1.000000   1.000000
    2        6.454509      7.071016   1.000000   1.000000
    3        7.080203      7.711998   1.000000   1.000000
    4        7.175583      7.842999   1.000000   1.000000
    5        7.761784      8.343694   1.000000   1.000000
    6        8.234505      8.852212   1.000000   1.015938
    7       25.687849     25.767563   0.000000   0.000000
    8       29.615288     29.638305   0.000000   0.000000
    9       35.548380     35.472593   0.000000   0.000000
   10       37.983827     37.984639   0.000000   0.000000
   11       38.259339     38.200208   0.000000   0.000000
   12       39.068887     39.136187   0.000000   0.000000
 
 -0.9090909E-01  0.9090909E-01  0.0000000E+00  0.9015778E-02
    1        1.133017      1.087607   1.000000   1.000000
    2        6.635081      7.284930   1.000000   1.000000
    3        7.021128      7.697269   1.000000   1.000000
    4        7.029649      7.703331   1.000000   1.000000
    5        7.825808      8.391536   1.000000   1.000000
    6        8.043666      8.629029   1.000000   1.000182
    7       29.958958     29.967956   0.000000   0.000000
    8       31.055071     31.068837   0.000000   0.000000
    9       35.623031     35.544909   0.000000   0.000000
   10       37.838367     37.805031   0.000000   0.000000
   11       39.023336     38.972185   0.000000   0.000000
   12       40.081028     40.127420   0.000000   0.000000
 
  0.1818182E+00  0.1818182E+00  0.0000000E+00  0.4507889E-02
    1        1.927117      1.886171   1.000000   1.000000
    2        6.315622      6.947527   1.000000   1.000000
    3        7.309090      7.998581   1.000000   1.000000
    4        7.309091      7.998582   1.000000   1.000000
    5        7.540692      8.076832   1.000000   1.000000
    6        8.187404      8.770731   1.000000   1.004455
    7       30.683849     30.740355   0.000000   0.000000
    8       30.683868     30.740379   0.000000   0.000000
    9       30.814964     30.797426   0.000000   0.000000
   10       32.173622     32.092906   0.000000   0.000000
   11       37.292413     37.481933   0.000000   0.000000
   12       45.438827     45.392824   0.000000   0.000000
 
  0.2727273E+00  0.1818182E+00  0.0000000E+00  0.1803156E-01
    1        2.914493      2.892501   1.000000   1.000000
    2        6.097181      6.706497   1.000000   1.000000
    3        7.182242      7.748193   1.000000   1.000000
    4        7.478024      8.155045   1.000000   1.000000
    5        7.837428      8.472345   1.000000   1.000001
    6        8.315732      8.923471   1.000000   1.031566
    7       26.253338     26.323393   0.000000   0.000000
    8       29.353437     29.409689   0.000000   0.000000
    9       30.417012     30.380376   0.000000   0.000000
   10       32.261228     32.290113   0.000000   0.000000
   11       36.484739     36.622058   0.000000   0.000000
   12       44.884984     44.808775   0.000000   0.000000
 
  0.3636364E+00  0.1818182E+00  0.0000000E+00  0.1803156E-01
    1        4.113040      4.174538   1.000000   1.000000
    2        6.019462      6.574339   1.000000   1.000000
    3        6.898356      7.448740   1.000000   1.000000
    4        7.478622      8.114729   1.000000   1.000000
    5        8.530622      9.189305   1.000010   0.564467
    6        8.660858      9.247023   1.000413   0.324853
    7       21.818968     21.937783   0.000000   0.000000
    8       28.680393     28.733957   0.000000   0.000000
    9       28.750277     28.752144   0.000000   0.000000
   10       31.804159     31.861849   0.000000   0.000000
   11       39.120730     39.185014   0.000000   0.000000
   12       43.927404     43.856861   0.000000   0.000000
 
  0.4545455E+00  0.1818182E+00  0.0000000E+00  0.1803156E-01
    1        4.886868      5.177107   1.000000   1.000000
    2        6.225993      6.646084   1.000000   1.000000
    3        6.789521      7.343703   1.000000   1.000000
    4        7.384720      7.990131   1.000000   1.000000
    5        8.675439      9.368672   1.000589   0.004913
    6       10.087025     10.521379  -0.000000  -0.000000
    7       17.867675     18.055835   0.000000   0.000000
    8       27.019231     27.054992   0.000000   0.000000
    9       28.745652     28.796941   0.000000   0.000000
   10       31.452132     31.482704   0.000000   0.000000
   11       42.449942     42.440766   0.000000   0.000000
   12       43.211454     43.210415   0.000000   0.000000
 
 -0.4545455E+00  0.1818182E+00  0.0000000E+00  0.1803156E-01
    1        5.090430      5.517271   1.000000   1.000000
    2        6.344396      6.748994   1.000000   1.000000
    3        6.972330      7.489653   1.000000   1.000000
    4        7.305594      7.892404   1.000000   1.000000
    5        8.610282      9.315879   1.000109   0.100489
    6       11.782361     12.028499  -0.000000  -0.000000
    7       15.189134     15.495440   0.000000   0.000000
    8       25.654657     25.710299   0.000000   0.000000
    9       29.593959     29.648247   0.000000   0.000000
   10       31.541011     31.539448   0.000000   0.000000
   11       41.997857     42.007063   0.000000   0.000000
   12       42.294475     42.245444   0.000000   0.000000
 
 -0.3636364E+00  0.1818182E+00  0.0000000E+00  0.1803156E-01
    1        5.060834      5.417011   1.000000   1.000000
    2        6.474896      6.905103   1.000000   1.000000
    3        6.788390      7.289151   1.000000   1.000000
    4        7.299627      7.877731   1.000000   1.000000
    5        8.326346      9.026270   1.000000   1.009915
    6       10.882358     11.275655  -0.000000  -0.000000
    7       16.781211     17.011244   0.000000   0.000000
    8       24.826063     24.894065   0.000000   0.000000
    9       31.196341     31.257806   0.000000   0.000000
   10       32.161458     32.134526   0.000000   0.000000
   11       41.267457     41.284202   0.000000   0.000000
   12       41.530635     41.471768   0.000000   0.000000
 
 -0.2727273E+00  0.1818182E+00  0.0000000E+00  0.1803156E-01
    1        4.541484      4.654131   1.000000   1.000000
    2        6.315259      6.847574   1.000000   1.000000
    3        6.714126      7.252243   1.000000   1.000000
    4        7.383944      7.961878   1.000000   1.000000
    5        7.908806      8.593957   1.000000   1.000069
    6        9.538850     10.118718  -0.019814  -0.000000
    7       20.478789     20.626538   0.000000   0.000000
    8       24.597330     24.672659   0.000000   0.000000
    9       33.377425     33.336072   0.000000   0.000000
   10       33.428151     33.493815   0.000000   0.000000
   11       40.124124     40.039986   0.000000   0.000000
   12       41.051611     41.075302   0.000000   0.000000
 
 -0.1818182E+00  0.1818182E+00  0.0000000E+00  0.9015778E-02
    1        3.341098      3.334215   1.000000   1.000000
    2        6.271430      6.871020   1.000000   1.000000
    3        6.960403      7.540299   1.000000   1.000000
    4        7.466547      8.124393   1.000000   1.000000
    5        7.576821      8.171113   1.000000   1.000000
    6        8.739386      9.373521   1.002431  -0.000606
    7       24.463570     24.575016   0.000000   0.000000
    8       25.268408     25.325098   0.000000   0.000000
    9       35.134416     35.087140   0.000000   0.000000
   10       36.141111     36.192522   0.000000   0.000000
   11       38.218829     38.120327   0.000000   0.000000
   12       41.303918     41.321357   0.000000   0.000000
 
  0.2727273E+00  0.2727273E+00  0.0000000E+00  0.4507889E-02
    1        3.571257      3.584219   1.000000   1.000000
    2        5.824384      6.421581   1.000000   1.000000
    3        7.449598      7.893234   1.000000   1.000000
    4        7.818768      8.529882   1.000000   1.000010
    5        7.818769      8.529882   1.000000   1.000010
    6        8.382678      8.973348   1.000000   1.034665
    7       27.682242     27.729649   0.000000   0.000000
    8       27.682260     27.729673   0.000000   0.000000
    9       28.084194     28.092041   0.000000   0.000000
   10       29.815983     29.866460   0.000000   0.000000
   11       33.900656     34.044696   0.000000   0.000000
   12       49.170013     49.075823   0.000000   0.000000
 
  0.3636364E+00  0.2727273E+00  0.0000000E+00  0.1803156E-01
    1        4.367628      4.478211   1.000000   1.000000
    2        5.643569      6.220825   1.000000   1.000000
    3        7.350921      7.825746   1.000000   1.000000
    4        7.953039      8.627380   1.000000   1.000174
    5        8.548413      9.191455   1.000018   0.555446
    6        8.670529      9.245080   1.000523   0.332503
    7       24.072346     24.142591   0.000000   0.000000
    8       25.858764     25.923486   0.000000   0.000000
    9       26.698257     26.736873   0.000000   0.000000
   10       30.549420     30.607092   0.000000   0.000000
   11       34.682954     34.780760   0.000000   0.000000
   12       48.840093     48.818768   0.000000   0.000000
 
  0.4545455E+00  0.2727273E+00  0.0000000E+00  0.1803156E-01
    1        4.989803      5.256529   1.000000   1.000000
    2        5.642391      6.170919   1.000000   1.000000
    3        7.123108      7.632843   1.000000   1.000000
    4        7.893802      8.522137   1.000000   1.000008
    5        8.701171      9.395960   1.001072  -0.020050
    6       10.402072     10.800511  -0.000000  -0.000000
    7       20.052029     20.168564   0.000000   0.000000
    8       23.798467     23.888418   0.000000   0.000000
    9       26.526005     26.560636   0.000000   0.000000
   10       30.745593     30.802082   0.000000   0.000000
   11       38.020266     38.082812   0.000000   0.000000
   12       47.164746     47.142936   0.000000   0.000000
 
 -0.4545455E+00  0.2727273E+00  0.0000000E+00  0.1803156E-01
    1        5.344425      5.773287   1.000000   1.000000
    2        5.800710      6.222328   1.000000   1.000000
    3        6.912439      7.452181   1.000000   1.000000
    4        7.788255      8.385149   1.000000   1.000000
    5        8.637690      9.356033   1.000229   0.021722
    6       12.801837     13.057090  -0.000000  -0.000000
    7       16.534676     16.724176   0.000000   0.000000
    8       22.199633     22.306867   0.000000   0.000000
    9       27.210192     27.250171   0.000000   0.000000
   10       30.903127     30.941011   0.000000   0.000000
   11       42.299502     42.342028   0.000000   0.000000
   12       45.716883     45.700941   0.000000   0.000000
 
 -0.3636364E+00  0.2727273E+00  0.0000000E+00  0.1803156E-01
    1        5.563334      6.025719   1.000000   1.000000
    2        6.008599      6.379745   1.000000   1.000000
    3        6.627451      7.172762   1.000000   1.000000
    4        7.701259      8.269863   1.000000   1.000000
    5        8.359604      9.088016   1.000000   0.912179
    6       13.044214     13.308557  -0.000000  -0.000000
    7       16.441035     16.649714   0.000000   0.000000
    8       21.187367     21.303909   0.000000   0.000000
    9       28.688219     28.740244   0.000000   0.000000
   10       31.363813     31.375623   0.000000   0.000000
   11       44.644440     44.606128   0.000000   0.000000
   12       44.690256     44.629060   0.000000   0.000000
 
 -0.2727273E+00  0.2727273E+00  0.0000000E+00  0.9015778E-02
    1        5.407321      5.664041   1.000000   1.000000
    2        6.286046      6.807758   1.000000   1.000000
    3        6.341631      6.843020   1.000000   1.000000
    4        7.617303      8.161822   1.000000   1.000000
    5        8.019650      8.752317   1.000000   1.003144
    6       10.979174     11.418016  -0.000000  -0.000000
    7       19.520309     19.679480   0.000000   0.000000
    8       21.246766     21.354003   0.000000   0.000000
    9       30.822818     30.885441   0.000000   0.000000
   10       32.224903     32.209729   0.000000   0.000000
   11       42.545642     42.444771   0.000000   0.000000
   12       43.632311     43.615711   0.000000   0.000000
 
  0.3636364E+00  0.3636364E+00  0.0000000E+00  0.4507889E-02
    1        4.561245      4.775816   1.000000   1.000000
    2        5.394566      5.962962   1.000000   1.000000
    3        8.359285      8.895563   1.000000   1.025602
    4        8.359285      9.101131   1.000000   0.879448
    5        8.560701      9.101131   1.000026   0.879447
    6        8.708856      9.158440   1.001273   0.689631
    7       23.146886     23.248622   0.000000   0.000000
    8       25.388551     25.410798   0.000000   0.000000
    9       25.388569     25.410821   0.000000   0.000000
   10       29.201032     29.296404   0.000000   0.000000
   11       32.696458     32.810642   0.000000   0.000000
   12       53.110235     53.098350   0.000000   0.000000
 
  0.4545455E+00  0.3636364E+00  0.0000000E+00  0.1803156E-01
    1        4.773004      5.069032   1.000000   1.000000
    2        5.308141      5.863847   1.000000   1.000000
    3        8.082097      8.659536   1.000000   1.000399
    4        8.393478      9.037634   1.000000   0.998418
    5        8.710178      9.416916   1.001311  -0.030398
    6       10.556102     10.805258  -0.000000  -0.000000
    7       21.008596     21.147245   0.000000   0.000000
    8       22.650089     22.707239   0.000000   0.000000
    9       24.917704     24.931078   0.000000   0.000000
   10       29.953471     30.035402   0.000000   0.000000
   11       33.912404     34.006506   0.000000   0.000000
   12       51.152662     51.119755   0.000000   0.000000
 
 -0.4545455E+00  0.3636364E+00  0.0000000E+00  0.1803156E-01
    1        5.059531      5.414329   1.000000   1.000000
    2        5.411296      5.941557   1.000000   1.000000
    3        7.589542      8.153034   1.000000   1.000000
    4        8.282496      8.882296   1.000000   1.022536
    5        8.682691      9.426375   1.000700  -0.033051
    6       12.971130     13.161360  -0.000000  -0.000000
    7       18.870601     18.987796   0.000000   0.000000
    8       19.721572     19.877497   0.000000   0.000000
    9       25.369495     25.388611   0.000000   0.000000
   10       30.402934     30.473296   0.000000   0.000000
   11       37.514108     37.581259   0.000000   0.000000
   12       49.283495     49.245131   0.000000   0.000000
 
 -0.3636364E+00  0.3636364E+00  0.0000000E+00  0.9015778E-02
    1        5.417400      5.842630   1.000000   1.000000
    2        5.652385      6.111750   1.000000   1.000000
    3        7.020123      7.569136   1.000000   1.000000
    4        8.073529      8.638550   1.000000   1.000234
    5        8.488022      9.244829   1.000002   0.333495
    6       15.371779     15.540123   0.000000   0.000000
    7       15.746209     15.915911   0.000000   0.000000
    8       19.214604     19.387458   0.000000   0.000000
    9       26.684009     26.719444   0.000000   0.000000
   10       30.769081     30.815573   0.000000   0.000000
   11       42.139250     42.192056   0.000000   0.000000
   12       47.300423     47.261479   0.000000   0.000000
 
  0.4545455E+00  0.4545455E+00  0.0000000E+00  0.4507889E-02
    1        4.657700      4.980805   1.000000   1.000000
    2        5.147657      5.700211   1.000000   1.000000
    3        8.668313      9.270357   1.000496   0.237694
    4        8.730358      9.497851   1.002019  -0.029125
    5        8.730358      9.497851   1.002019  -0.029125
    6       11.110690     11.099888  -0.000000  -0.000000
    7       19.119103     19.316757   0.000000   0.000000
    8       24.123737     24.121933   0.000000   0.000000
    9       24.123755     24.121956   0.000000   0.000000
   10       28.923037     29.040535   0.000000   0.000000
   11       32.334710     32.448527   0.000000   0.000000
   12       53.513993     53.484676   0.000000   0.000000
 
 -0.4545455E+00  0.4545455E+00  0.0000000E+00  0.9015778E-02
    1        4.759262      5.097104   1.000000   1.000000
    2        5.184151      5.732772   1.000000   1.000000
    3        8.380005      9.038063   1.000000   0.997932
    4        8.594394      9.190956   1.000070   0.557542
    5        8.747199      9.517202   1.002843  -0.024775
    6       12.290239     12.350834  -0.000000  -0.000000
    7       18.417389     18.640920   0.000000   0.000000
    8       22.068664     22.111558   0.000000   0.000000
    9       24.282196     24.282980   0.000000   0.000000
   10       29.756672     29.849271   0.000000   0.000000
   11       33.701933     33.798901   0.000000   0.000000
   12       52.156470     52.114395   0.000000   0.000000
 
  0.2727273E+00  0.1818182E+00  0.9090909E-01  0.1803156E-01
    1        2.303448      2.268212   1.000000   1.000000
    2        6.323915      6.946884   1.000000   1.000000
    3        7.122149      7.740855   1.000000   1.000000
    4        7.320984      8.014344   1.000000   1.000000
    5        7.685132      8.254381   1.000000   1.000000
    6        8.270869      8.883297   1.000000   1.022767
    7       27.353837     27.424782   0.000000   0.000000
    8       28.069096     28.104150   0.000000   0.000000
    9       34.148830     34.113446   0.000000   0.000000
   10       34.626389     34.590309   0.000000   0.000000
   11       38.606990     38.775236   0.000000   0.000000
   12       41.790929     41.725145   0.000000   0.000000
 
  0.3636364E+00  0.1818182E+00  0.9090909E-01  0.3606311E-01
    1        3.549982      3.558357   1.000000   1.000000
    2        6.198611      6.780981   1.000000   1.000000
    3        6.925515      7.498925   1.000000   1.000000
    4        7.408845      8.041338   1.000000   1.000000
    5        7.914853      8.540455   1.000000   1.000014
    6        8.696128      9.329713   1.000957   0.068822
    7       23.088196     23.198137   0.000000   0.000000
    8       27.046490     27.098372   0.000000   0.000000
    9       32.064780     32.065992   0.000000   0.000000
   10       35.142756     35.152562   0.000000   0.000000
   11       39.189151     39.220538   0.000000   0.000000
   12       40.955601     40.950783   0.000000   0.000000
 
  0.4545455E+00  0.1818182E+00  0.9090909E-01  0.3606311E-01
    1        4.609464      4.799843   1.000000   1.000000
    2        6.418894      6.859832   1.000000   1.000000
    3        6.711398      7.284288   1.000000   1.000000
    4        7.312115      7.906955   1.000000   1.000000
    5        8.333279      9.001226   1.000000   1.026786
    6        9.521522     10.067620  -0.023776  -0.000000
    7       18.945508     19.119180   0.000000   0.000000
    8       26.852084     26.897868   0.000000   0.000000
    9       30.105808     30.137647   0.000000   0.000000
   10       34.467430     34.473754   0.000000   0.000000
   11       39.027604     39.024592   0.000000   0.000000
   12       42.601704     42.575516   0.000000   0.000000
 
 -0.4545455E+00  0.1818182E+00  0.9090909E-01  0.3606311E-01
    1        4.946938      5.339587   1.000000   1.000000
    2        6.491479      6.929663   1.000000   1.000000