PROCAR lm decomposed
# of k-points:   56         # of bands:   12         # of ions:    1

 k-point     1 :    0.00000000 0.00000000 0.00000000     weight = 0.00075131

band     1 # energy    0.29429840 # occ.  1.00000000
 
ion      s     py     pz     px    dxy    dyz    dz2    dxz  x2-y2    tot
    1  0.720  0.000  0.000  0.000  0.000  0.000  0.000  0.000  0.000  0.720
 
band     2 # energy    6.85120893 # occ.  1.00000000
 
ion      s     py     pz     px    dxy    dyz    dz2    dxz  x2-y2    tot
    1  0.000  0.000  0.000  0.000  0.325  0.325  0.000  0.325  0.000  0.976
 
band     3 # energy    6.85121001 # occ.  1.00000000
 
ion      s     py     pz     px    dxy    dyz    dz2    dxz  x2-y2    tot
    1  0.000  0.000  0.000  0.000  0.650  0.178  0.000  0.148  0.000  0.976
 
band     4 # energy    6.85121001 # occ.  1.00000000
 
ion      s     py     pz     px    dxy    dyz    dz2    dxz  x2-y2    tot
    1  0.000  0.000  0.000  0.000  0.001  0.472  0.000  0.503  0.000  0.976
 
band     5 # energy    7.98681693 # occ.  1.00000000
 
ion      s     py     pz     px    dxy    dyz    dz2    dxz  x2-y2    tot
    1  0.000  0.000  0.000  0.000  0.000  0.000  0.964  0.000  0.024  0.988
 
band     6 # energy    7.98681693 # occ.  1.00000000
 
ion      s     py     pz     px    dxy    dyz    dz2    dxz  x2-y2    tot
    1  0.000  0.000  0.000  0.000  0.000  0.000  0.024  0.000  0.964  0.988
 
band     7 # energy   32.89574425 # occ.  0.00000000
 
ion      s     py     pz     px    dxy    dyz    dz2    dxz  x2-y2    tot
    1  0.000  0.000  0.000  0.000  0.000  0.000  0.000  0.000  0.000  0.000
 
band     8 # energy   36.65589005 # occ.  0.00000000
 
ion      s     py     pz     px    dxy    dyz    dz2    dxz  x2-y2    tot
    1  0.000  0.126  0.126  0.126  0.000  0.000  0.000  0.000  0.000  0.377
 
band     9 # energy   36.65593121 # occ.  0.00000000
 
ion      s     py     pz     px    dxy    dyz    dz2    dxz  x2-y2    tot
    1  0.000  0.145  0.035  0.197  0.000  0.000  0.000  0.000  0.000  0.377
 
band    10 # energy   36.65593121 # occ.  0.00000000
 
ion      s     py     pz     px    dxy    dyz    dz2    dxz  x2-y2    tot
    1  0.000  0.107  0.216  0.054  0.000  0.000  0.000  0.000  0.000  0.377
 
band    11 # energy   39.72364719 # occ.  0.00000000
 
ion      s     py     pz     px    dxy    dyz    dz2    dxz  x2-y2    tot
    1  0.000  0.000  0.000  0.000  0.475  0.054  0.000  0.688  0.000  1.217
 
band    12 # energy   39.72365203 # occ.  0.00000000
 
ion      s     py     pz     px    dxy    dyz    dz2    dxz  x2-y2    tot
    1  0.000  0.000  0.000  0.000  0.482  0.605  0.000  0.129  0.000  1.217
 

 k-point     2 :    0.09090909 0.00000000 0.00000000     weight = 0.00601052

band     1 # energy    0.61359713 # occ.  1.00000000
 
ion      s     py     pz     px    dxy    dyz    dz2    dxz  x2-y2    tot
    1  0.699  0.007  0.007  0.007  0.000  0.000  0.000  0.000  0.000  0.721
 
band     2 # energy    6.77390043 # occ.  1.00000000
 
ion      s     py     pz     px    dxy    dyz    dz2    dxz  x2-y2    tot
    1  0.000  0.001  0.001  0.001  0.323  0.323  0.000  0.323  0.000  0.972
 
band     3 # energy    6.91938754 # occ.  1.00000000
 
ion      s     py     pz     px    dxy    dyz    dz2    dxz  x2-y2    tot
    1  0.000  0.000  0.000  0.000  0.648  0.162  0.004  0.162  0.000  0.976
 
band     4 # energy    6.91938859 # occ.  1.00000000
 
ion      s     py     pz     px    dxy    dyz    dz2    dxz  x2-y2    tot
    1  0.000  0.000  0.000  0.000  0.000  0.486  0.000  0.486  0.004  0.976
 
band     5 # energy    7.96055384 # occ.  1.00000000
 
ion      s     py     pz     px    dxy    dyz    dz2    dxz  x2-y2    tot
    1  0.000  0.000  0.000  0.000  0.003  0.001  0.982  0.001  0.000  0.987
 
band     6 # energy    7.96055405 # occ.  1.00000000
 
ion      s     py     pz     px    dxy    dyz    dz2    dxz  x2-y2    tot
    1  0.000  0.000  0.000  0.000  0.000  0.002  0.000  0.002  0.982  0.987
 
band     7 # energy   31.48992383 # occ.  0.00000000
 
ion      s     py     pz     px    dxy    dyz    dz2    dxz  x2-y2    tot
    1  0.009  0.041  0.041  0.041  0.104  0.104  0.000  0.104  0.000  0.444
 
band     8 # energy   34.24657454 # occ.  0.00000000
 
ion      s     py     pz     px    dxy    dyz    dz2    dxz  x2-y2    tot
    1  0.026  0.064  0.064  0.064  0.005  0.005  0.000  0.005  0.000  0.234
 
band     9 # energy   36.01326185 # occ.  0.00000000
 
ion      s     py     pz     px    dxy    dyz    dz2    dxz  x2-y2    tot
    1  0.000  0.057  0.230  0.057  0.156  0.039  0.022  0.039  0.000  0.601
 
band    10 # energy   36.01329495 # occ.  0.00000000
 
ion      s     py     pz     px    dxy    dyz    dz2    dxz  x2-y2    tot
    1  0.000  0.172  0.000  0.172  0.000  0.117  0.000  0.117  0.022  0.601
 
band    11 # energy   40.70949674 # occ.  0.00000000
 
ion      s     py     pz     px    dxy    dyz    dz2    dxz  x2-y2    tot
    1  0.000  0.003  0.011  0.003  0.591  0.148  0.022  0.148  0.000  0.924
 
band    12 # energy   40.70950470 # occ.  0.00000000
 
ion      s     py     pz     px    dxy    dyz    dz2    dxz  x2-y2    tot
    1  0.000  0.008  0.000  0.008  0.000  0.443  0.000  0.443  0.022  0.924
 

 k-point     3 :    0.18181818 0.00000000 0.00000000     weight = 0.00601052

band     1 # energy    1.53035513 # occ.  1.00000000
 
ion      s     py     pz     px    dxy    dyz    dz2    dxz  x2-y2    tot
    1  0.634  0.026  0.026  0.026  0.004  0.004  0.000  0.004  0.000  0.724
 
band     2 # energy    6.60008913 # occ.  1.00000000
 
ion      s     py     pz     px    dxy    dyz    dz2    dxz  x2-y2    tot
    1  0.003  0.006  0.006  0.006  0.313  0.313  0.000  0.313  0.000  0.958
 
band     3 # energy    7.04835947 # occ.  1.00000000
 
ion      s     py     pz     px    dxy    dyz    dz2    dxz  x2-y2    tot
    1  0.000  0.000  0.001  0.000  0.594  0.148  0.084  0.148  0.000  0.976
 
band     4 # energy    7.04836065 # occ.  1.00000000
 
ion      s     py     pz     px    dxy    dyz    dz2    dxz  x2-y2    tot
    1  0.000  0.001  0.000  0.001  0.000  0.445  0.000  0.445  0.084  0.976
 
band     5 # energy    7.95183357 # occ.  1.00000000
 
ion      s     py     pz     px    dxy    dyz    dz2    dxz  x2-y2    tot
    1  0.000  0.000  0.000  0.000  0.056  0.014  0.899  0.014  0.000  0.984
 
band     6 # energy    7.95183447 # occ.  1.00000000
 
ion      s     py     pz     px    dxy    dyz    dz2    dxz  x2-y2    tot
    1  0.000  0.000  0.000  0.000  0.000  0.042  0.000  0.042  0.899  0.984
 
band     7 # energy   27.02710576 # occ.  0.00000000
 
ion      s     py     pz     px    dxy    dyz    dz2    dxz  x2-y2    tot
    1  0.059  0.092  0.092  0.092  0.128  0.128  0.000  0.128  0.000  0.718
 
band     8 # energy   33.51997026 # occ.  0.00000000
 
ion      s     py     pz     px    dxy    dyz    dz2    dxz  x2-y2    tot
    1  0.031  0.008  0.008  0.008  0.019  0.019  0.000  0.019  0.000  0.114
 
band     9 # energy   35.07389997 # occ.  0.00000000
 
ion      s     py     pz     px    dxy    dyz    dz2    dxz  x2-y2    tot
    1  0.000  0.059  0.237  0.059  0.244  0.061  0.050  0.061  0.000  0.771
 
band    10 # energy   35.07392796 # occ.  0.00000000
 
ion      s     py     pz     px    dxy    dyz    dz2    dxz  x2-y2    tot
    1  0.000  0.177  0.000  0.177  0.000  0.183  0.000  0.183  0.050  0.771
 
band    11 # energy   40.76396961 # occ.  0.00000000
 
ion      s     py     pz     px    dxy    dyz    dz2    dxz  x2-y2    tot
    1  0.003  0.069  0.069  0.069  0.010  0.010  0.000  0.010  0.000  0.238
 
band    12 # energy   41.44213318 # occ.  0.00000000
 
ion      s     py     pz     px    dxy    dyz    dz2    dxz  x2-y2    tot
    1  0.000  0.008  0.028  0.006  0.117  0.027  0.371  0.033  0.002  0.593
 

 k-point     4 :    0.27272727 0.00000000 0.00000000     weight = 0.00601052

band     1 # energy    2.86076581 # occ.  1.00000000
 
ion      s     py     pz     px    dxy    dyz    dz2    dxz  x2-y2    tot
    1  0.517  0.044  0.044  0.044  0.032  0.032  0.000  0.032  0.000  0.744
 
band     2 # energy    6.55954509 # occ.  1.00000000
 
ion      s     py     pz     px    dxy    dyz    dz2    dxz  x2-y2    tot
    1  0.020  0.026  0.026  0.026  0.275  0.275  0.000  0.275  0.000  0.923
 
band     3 # energy    7.05674699 # occ.  1.00000000
 
ion      s     py     pz     px    dxy    dyz    dz2    dxz  x2-y2    tot
    1  0.000  0.000  0.001  0.000  0.437  0.109  0.317  0.109  0.000  0.973
 
band     4 # energy    7.05674836 # occ.  1.00000000
 
ion      s     py     pz     px    dxy    dyz    dz2    dxz  x2-y2    tot
    1  0.000  0.000  0.000  0.000  0.000  0.327  0.000  0.327  0.317  0.973
 
band     5 # energy    8.12115496 # occ.  1.00000000
 
ion      s     py     pz     px    dxy    dyz    dz2    dxz  x2-y2    tot
    1  0.000  0.000  0.001  0.000  0.214  0.054  0.662  0.054  0.000  0.985
 
band     6 # energy    8.12115695 # occ.  1.00000000
 
ion      s     py     pz     px    dxy    dyz    dz2    dxz  x2-y2    tot
    1  0.000  0.001  0.000  0.001  0.000  0.161  0.000  0.161  0.662  0.985
 
band     7 # energy   22.46842408 # occ.  0.00000000
 
ion      s     py     pz     px    dxy    dyz    dz2    dxz  x2-y2    tot
    1  0.133  0.101  0.101  0.101  0.114  0.114  0.000  0.114  0.000  0.778
 
band     8 # energy   32.76483186 # occ.  0.00000000
 
ion      s     py     pz     px    dxy    dyz    dz2    dxz  x2-y2    tot
    1  0.020  0.000  0.000  0.000  0.025  0.025  0.000  0.025  0.000  0.096
 
band     9 # energy   34.36091178 # occ.  0.00000000
 
ion      s     py     pz     px    dxy    dyz    dz2    dxz  x2-y2    tot
    1  0.000  0.069  0.277  0.069  0.230  0.058  0.060  0.058  0.000  0.821
 
band    10 # energy   34.36093207 # occ.  0.00000000
 
ion      s     py     pz     px    dxy    dyz    dz2    dxz  x2-y2    tot
    1  0.000  0.208  0.000  0.208  0.000  0.173  0.000  0.173  0.060  0.821
 
band    11 # energy   39.63287810 # occ.  0.00000000
 
ion      s     py     pz     px    dxy    dyz    dz2    dxz  x2-y2    tot
    1  0.000  0.023  0.093  0.023  0.007  0.002  0.580  0.002  0.000  0.730
 
band    12 # energy   39.63289915 # occ.  0.00000000
 
ion      s     py     pz     px    dxy    dyz    dz2    dxz  x2-y2    tot
    1  0.000  0.070  0.000  0.070  0.000  0.005  0.000  0.005  0.580  0.730
 

 k-point     5 :    0.36363636 0.00000000 0.00000000     weight = 0.00601052

band     1 # energy    4.02322177 # occ.  1.00000000
 
ion      s     py     pz     px    dxy    dyz    dz2    dxz  x2-y2    tot
    1  0.321  0.028  0.028  0.028  0.138  0.138  0.000  0.138  0.000  0.819
 
band     2 # energy    6.95426458 # occ.  1.00000000
 
ion      s     py     pz     px    dxy    dyz    dz2    dxz  x2-y2    tot
    1  0.000  0.000  0.000  0.000  0.325  0.081  0.483  0.081  0.000  0.971
 
band     3 # energy    6.95426621 # occ.  1.00000000
 
ion      s     py     pz     px    dxy    dyz    dz2    dxz  x2-y2    tot
    1  0.000  0.000  0.000  0.000  0.000  0.244  0.000  0.244  0.483  0.971
 
band     4 # energy    7.18875772 # occ.  1.00000000
 
ion      s     py     pz     px    dxy    dyz    dz2    dxz  x2-y2    tot
    1  0.079  0.096  0.096  0.096  0.150  0.150  0.000  0.150  0.000  0.819
 
band     5 # energy    8.41058005 # occ.  1.00000015
 
ion      s     py     pz     px    dxy    dyz    dz2    dxz  x2-y2    tot
    1  0.000  0.000  0.001  0.000  0.329  0.082  0.494  0.082  0.000  0.988
 
band     6 # energy    8.41058299 # occ.  1.00000015
 
ion      s     py     pz     px    dxy    dyz    dz2    dxz  x2-y2    tot
    1  0.000  0.000  0.000  0.000  0.000  0.247  0.000  0.247  0.494  0.988
 
band     7 # energy   18.37440230 # occ.  0.00000000
 
ion      s     py     pz     px    dxy    dyz    dz2    dxz  x2-y2    tot
    1  0.246  0.080  0.080  0.080  0.113  0.113  0.000  0.113  0.000  0.824
 
band     8 # energy   31.94745415 # occ.  0.00000000
 
ion      s     py     pz     px    dxy    dyz    dz2    dxz  x2-y2    tot
    1  0.007  0.005  0.005  0.005  0.011  0.011  0.000  0.011  0.000  0.057
 
band     9 # energy   33.93719065 # occ.  0.00000000
 
ion      s     py     pz     px    dxy    dyz    dz2    dxz  x2-y2    tot
    1  0.000  0.087  0.347  0.087  0.133  0.033  0.041  0.033  0.000  0.761
 
band    10 # energy   33.93719910 # occ.  0.00000000
 
ion      s     py     pz     px    dxy    dyz    dz2    dxz  x2-y2    tot
    1  0.000  0.260  0.000  0.260  0.000  0.100  0.000  0.100  0.041  0.761
 
band    11 # energy   37.82626165 # occ.  0.00000000
 
ion      s     py     pz     px    dxy    dyz    dz2    dxz  x2-y2    tot
    1  0.000  0.016  0.063  0.016  0.097  0.024  0.640  0.024  0.000  0.879
 
band    12 # energy   37.82629938 # occ.  0.00000000
 
ion      s     py     pz     px    dxy    dyz    dz2    dxz  x2-y2    tot
    1  0.000  0.047  0.000  0.047  0.000  0.072  0.000  0.072  0.640  0.879
 

 k-point     6 :    0.45454545 0.00000000 0.00000000     weight = 0.00601052

band     1 # energy    4.43623998 # occ.  1.00000000
 
ion      s     py     pz     px    dxy    dyz    dz2    dxz  x2-y2    tot
    1  0.186  0.003  0.003  0.003  0.230  0.230  0.000  0.230  0.000  0.885
 
band     2 # energy    6.87362807 # occ.  1.00000000
 
ion      s     py     pz     px    dxy    dyz    dz2    dxz  x2-y2    tot
    1  0.000  0.000  0.000  0.000  0.284  0.071  0.544  0.071  0.000  0.970
 
band     3 # energy    6.87362978 # occ.  1.00000000
 
ion      s     py     pz     px    dxy    dyz    dz2    dxz  x2-y2    tot
    1  0.000  0.000  0.000  0.000  0.000  0.213  0.000  0.213  0.544  0.970
 
band     4 # energy    8.61828777 # occ.  1.00013627
 
ion      s     py     pz     px    dxy    dyz    dz2    dxz  x2-y2    tot
    1  0.000  0.000  0.000  0.000  0.374  0.093  0.433  0.093  0.000  0.992
 
band     5 # energy    8.61829119 # occ.  1.00013628
 
ion      s     py     pz     px    dxy    dyz    dz2    dxz  x2-y2    tot
    1  0.000  0.000  0.000  0.000  0.000  0.280  0.000  0.280  0.433  0.992
 
band     6 # energy    8.61841263 # occ.  1.00013673
 
ion      s     py     pz     px    dxy    dyz    dz2    dxz  x2-y2    tot
    1  0.036  0.198  0.198  0.198  0.021  0.023  0.000  0.023  0.000  0.699
 
band     7 # energy   15.35910947 # occ.  0.00000000
 
ion      s     py     pz     px    dxy    dyz    dz2    dxz  x2-y2    tot
    1  0.410  0.021  0.021  0.021  0.137  0.137  0.000  0.137  0.000  0.883
 
band     8 # energy   31.45213514 # occ.  0.00000000
 
ion      s     py     pz     px    dxy    dyz    dz2    dxz  x2-y2    tot
    1  0.001  0.009  0.009  0.009  0.001  0.001  0.000  0.001  0.000  0.032
 
band     9 # energy   33.75143402 # occ.  0.00000000
 
ion      s     py     pz     px    dxy    dyz    dz2    dxz  x2-y2    tot
    1  0.000  0.313  0.000  0.313  0.000  0.015  0.000  0.015  0.007  0.662
 
band    10 # energy   33.75143726 # occ.  0.00000000
 
ion      s     py     pz     px    dxy    dyz    dz2    dxz  x2-y2    tot
    1  0.000  0.104  0.417  0.104  0.020  0.005  0.007  0.005  0.000  0.662
 
band    11 # energy   36.89667210 # occ.  0.00000000
 
ion      s     py     pz     px    dxy    dyz    dz2    dxz  x2-y2    tot
    1  0.000  0.003  0.010  0.003  0.203  0.051  0.662  0.051  0.000  0.982
 
band    12 # energy   36.89672321 # occ.  0.00000000
 
ion      s     py     pz     px    dxy    dyz    dz2    dxz  x2-y2    tot
    1  0.000  0.008  0.000  0.008  0.000  0.152  0.000  0.152  0.662  0.982
 

 k-point     7 :    0.09090909 0.09090909 0.00000000     weight = 0.00450789

band     1 # energy    0.71936567 # occ.  1.00000000
 
ion      s     py     pz     px    dxy    dyz    dz2    dxz  x2-y2    tot
    1  0.692  0.028  0.000  0.000  0.000  0.000  0.000  0.000  0.001  0.721
 
band     2 # energy    6.70352646 # occ.  1.00000000
 
ion      s     py     pz     px    dxy    dyz    dz2    dxz  x2-y2    tot
    1  0.000  0.000  0.000  0.000  0.000  0.000  0.000  0.972  0.000  0.972
 
band     3 # energy    6.97013751 # occ.  1.00000000
 
ion      s     py     pz     px    dxy    dyz    dz2    dxz  x2-y2    tot
    1  0.000  0.000  0.001  0.001  0.487  0.487  0.000  0.000  0.000  0.976
 
band     4 # energy    6.97013822 # occ.  1.00000000
 
ion      s     py     pz     px    dxy    dyz    dz2    dxz  x2-y2    tot
    1  0.000  0.000  0.001  0.001  0.487  0.487  0.000  0.000  0.000  0.976
 
band     5 # energy    7.85283921 # occ.  1.00000000
 
ion      s     py     pz     px    dxy    dyz    dz2    dxz  x2-y2    tot
    1  0.001  0.000  0.000  0.000  0.000  0.000  0.246  0.000  0.737  0.984
 
band     6 # energy    8.04087064 # occ.  1.00000000
 
ion      s     py     pz     px    dxy    dyz    dz2    dxz  x2-y2    tot
    1  0.000  0.000  0.000  0.000  0.000  0.000  0.741  0.000  0.247  0.988
 
band     7 # energy   32.09475568 # occ.  0.00000000
 
ion      s     py     pz     px    dxy    dyz    dz2    dxz  x2-y2    tot
    1  0.000  0.000  0.000  0.000  0.000  0.000  0.000  0.271  0.000  0.271
 
band     8 # energy   34.09322561 # occ.  0.00000000
 
ion      s     py     pz     px    dxy    dyz    dz2    dxz  x2-y2    tot
    1  0.000  0.000  0.187  0.187  0.168  0.168  0.000  0.000  0.000  0.711
 
band     9 # energy   34.09324681 # occ.  0.00000000
 
ion      s     py     pz     px    dxy    dyz    dz2    dxz  x2-y2    tot
    1  0.000  0.000  0.187  0.187  0.168  0.168  0.000  0.000  0.000  0.711
 
band    10 # energy   34.97944818 # occ.  0.00000000
 
ion      s     py     pz     px    dxy    dyz    dz2    dxz  x2-y2    tot
    1  0.050  0.180  0.000  0.000  0.000  0.000  0.020  0.000  0.061  0.311
 
band    11 # energy   41.45578890 # occ.  0.00000000
 
ion      s     py     pz     px    dxy    dyz    dz2    dxz  x2-y2    tot
    1  0.000  0.000  0.000  0.000  0.000  0.000  0.000  0.945  0.000  0.945
 
band    12 # energy   42.23833826 # occ.  0.00000000
 
ion      s     py     pz     px    dxy    dyz    dz2    dxz  x2-y2    tot
    1  0.000  0.000  0.006  0.009  0.399  0.261  0.000  0.000  0.000  0.674
 

 k-point     8 :    0.18181818 0.09090909 0.00000000     weight = 0.01803156

band     1 # energy    1.43623053 # occ.  1.00000000
 
ion      s     py     pz     px    dxy    dyz    dz2    dxz  x2-y2    tot
    1  0.641  0.061  0.007  0.007  0.002  0.002  0.001  0.000  0.003  0.723
 
band     2 # energy    6.52688366 # occ.  1.00000000
 
ion      s     py     pz     px    dxy    dyz    dz2    dxz  x2-y2    tot
    1  0.000  0.000  0.002  0.002  0.055  0.055  0.000  0.849  0.000  0.963
 
band     3 # energy    7.10156513 # occ.  1.00000000
 
ion      s     py     pz     px    dxy    dyz    dz2    dxz  x2-y2    tot
    1  0.000  0.001  0.002  0.002  0.403  0.403  0.014  0.110  0.041  0.975
 
band     4 # energy    7.11130550 # occ.  1.00000000
 
ion      s     py     pz     px    dxy    dyz    dz2    dxz  x2-y2    tot
    1  0.000  0.000  0.002  0.002  0.467  0.467  0.028  0.000  0.009  0.975
 
band     5 # energy    7.75297912 # occ.  1.00000000
 
ion      s     py     pz     px    dxy    dyz    dz2    dxz  x2-y2    tot
    1  0.003  0.002  0.000  0.000  0.024  0.024  0.230  0.006  0.690  0.979
 
band     6 # energy    8.09346876 # occ.  1.00000000
 
ion      s     py     pz     px    dxy    dyz    dz2    dxz  x2-y2    tot
    1  0.000  0.000  0.000  0.000  0.019  0.019  0.712  0.000  0.237  0.987
 
band     7 # energy   28.80392962 # occ.  0.00000000
 
ion      s     py     pz     px    dxy    dyz    dz2    dxz  x2-y2    tot
    1  0.032  0.036  0.109  0.109  0.106  0.106  0.001  0.184  0.004  0.687
 
band     8 # energy   32.55281267 # occ.  0.00000000
 
ion      s     py     pz     px    dxy    dyz    dz2    dxz  x2-y2    tot
    1  0.037  0.045  0.008  0.008  0.006  0.006  0.011  0.196  0.034  0.352
 
band     9 # energy   32.60149569 # occ.  0.00000000
 
ion      s     py     pz     px    dxy    dyz    dz2    dxz  x2-y2    tot
    1  0.000  0.000  0.205  0.205  0.174  0.174  0.009  0.000  0.003  0.771
 
band    10 # energy   36.00795521 # occ.  0.00000000
 
ion      s     py     pz     px    dxy    dyz    dz2    dxz  x2-y2    tot
    1  0.002  0.001  0.076  0.076  0.030  0.030  0.044  0.023  0.132  0.413
 
band    11 # energy   39.50521253 # occ.  0.00000000
 
ion      s     py     pz     px    dxy    dyz    dz2    dxz  x2-y2    tot
    1  0.039  0.477  0.024  0.024  0.024  0.024  0.016  0.080  0.047  0.755
 
band    12 # energy   41.86897459 # occ.  0.00000000
 
ion      s     py     pz     px    dxy    dyz    dz2    dxz  x2-y2    tot
    1  0.045  0.120  0.006  0.006  0.153  0.153  0.042  0.303  0.125  0.952
 

 k-point     9 :    0.27272727 0.09090909 0.00000000     weight = 0.01803156

band     1 # energy    2.64384908 # occ.  1.00000000
 
ion      s     py     pz     px    dxy    dyz    dz2    dxz  x2-y2    tot
    1  0.542  0.093  0.021  0.021  0.019  0.019  0.003  0.009  0.008  0.734
 
band     2 # energy    6.38244597 # occ.  1.00000000
 
ion      s     py     pz     px    dxy    dyz    dz2    dxz  x2-y2    tot
    1  0.006  0.007  0.012  0.012  0.094  0.094  0.001  0.718  0.002  0.946
 
band     3 # energy    7.08367160 # occ.  1.00000000
 
ion      s     py     pz     px    dxy    dyz    dz2    dxz  x2-y2    tot
    1  0.000  0.001  0.001  0.001  0.217  0.217  0.094  0.156  0.283  0.971
 
band     4 # energy    7.18322073 # occ.  1.00000000
 
ion      s     py     pz     px    dxy    dyz    dz2    dxz  x2-y2    tot
    1  0.000  0.000  0.002  0.002  0.376  0.376  0.164  0.000  0.055  0.975
 
band     5 # energy    7.93831240 # occ.  1.00000000
 
ion      s     py     pz     px    dxy    dyz    dz2    dxz  x2-y2    tot
    1  0.011  0.009  0.002  0.002  0.148  0.148  0.146  0.072  0.438  0.976
 
band     6 # energy    8.23884023 # occ.  1.00000000
 
ion      s     py     pz     px    dxy    dyz    dz2    dxz  x2-y2    tot
    1  0.000  0.000  0.000  0.000  0.111  0.111  0.574  0.000  0.191  0.988
 
band     7 # energy   24.16777956 # occ.  0.00000000
 
ion      s     py     pz     px    dxy    dyz    dz2    dxz  x2-y2    tot
    1  0.096  0.055  0.129  0.129  0.100  0.100  0.001  0.144  0.004  0.759
 
band     8 # energy   31.62045229 # occ.  0.00000000
 
ion      s     py     pz     px    dxy    dyz    dz2    dxz  x2-y2    tot
    1  0.000  0.000  0.225  0.225  0.149  0.149  0.029  0.000  0.010  0.788
 
band     9 # energy   31.82852859 # occ.  0.00000000
 
ion      s     py     pz     px    dxy    dyz    dz2    dxz  x2-y2    tot
    1  0.027  0.008  0.001  0.001  0.000  0.000  0.024  0.212  0.073  0.347
 
band    10 # energy   35.73806063 # occ.  0.00000000
 
ion      s     py     pz     px    dxy    dyz    dz2    dxz  x2-y2    tot
    1  0.049  0.307  0.000  0.000  0.003  0.003  0.059  0.098  0.178  0.696
 
band    11 # energy   38.94961246 # occ.  0.00000000
 
ion      s     py     pz     px    dxy    dyz    dz2    dxz  x2-y2    tot
    1  0.005  0.150  0.072  0.072  0.022  0.022  0.029  0.034  0.086  0.489
 
band    12 # energy   41.61907285 # occ.  0.00000000
 
ion      s     py     pz     px    dxy    dyz    dz2    dxz  x2-y2    tot
    1  0.015  0.061  0.089  0.089  0.075  0.075  0.036  0.208  0.108  0.755
 

 k-point    10 :    0.36363636 0.09090909 0.00000000     weight = 0.01803156

band     1 # energy    3.92884936 # occ.  1.00000000
 
ion      s     py     pz     px    dxy    dyz    dz2    dxz  x2-y2    tot
    1  0.369  0.087  0.021  0.021  0.096  0.096  0.004  0.082  0.013  0.788
 
band     2 # energy    6.57532888 # occ.  1.00000000
 
ion      s     py     pz     px    dxy    dyz    dz2    dxz  x2-y2    tot
    1  0.035  0.044  0.048  0.048  0.063  0.063  0.017  0.522  0.051  0.890
 
band     3 # energy    6.91301292 # occ.  1.00000000
 
ion      s     py     pz     px    dxy    dyz    dz2    dxz  x2-y2    tot
    1  0.001  0.000  0.000  0.000  0.112  0.112  0.126  0.237  0.379  0.967
 
band     4 # energy    7.11721900 # occ.  1.00000000
 
ion      s     py     pz     px    dxy    dyz    dz2    dxz  x2-y2    tot
    1  0.000  0.000  0.002  0.002  0.275  0.275  0.314  0.000  0.105  0.972
 
band     5 # energy    8.47994747 # occ.  1.00000188
 
ion      s     py     pz     px    dxy    dyz    dz2    dxz  x2-y2    tot
    1  0.000  0.000  0.000  0.000  0.214  0.214  0.422  0.000  0.140  0.991
 
band     6 # energy    8.49153904 # occ.  1.00000280
 
ion      s     py     pz     px    dxy    dyz    dz2    dxz  x2-y2    tot
    1  0.033  0.031  0.010  0.010  0.198  0.198  0.095  0.097  0.287  0.959
 
band     7 # energy   19.85885458 # occ.  0.00000000
 
ion      s     py     pz     px    dxy    dyz    dz2    dxz  x2-y2    tot
    1  0.191  0.048  0.119  0.119  0.093  0.093  0.001  0.136  0.004  0.803
 
band     8 # energy   31.03544422 # occ.  0.00000000
 
ion      s     py     pz     px    dxy    dyz    dz2    dxz  x2-y2    tot
    1  0.006  0.008  0.003  0.003  0.000  0.000  0.040  0.133  0.121  0.316
 
band     9 # energy   31.18575462 # occ.  0.00000000
 
ion      s     py     pz     px    dxy    dyz    dz2    dxz  x2-y2    tot
    1  0.000  0.000  0.244  0.244  0.106  0.106  0.056  0.000  0.019  0.775
 
band    10 # energy   33.83737811 # occ.  0.00000000
 
ion      s     py     pz     px    dxy    dyz    dz2    dxz  x2-y2    tot
    1  0.082  0.384  0.030  0.030  0.002  0.002  0.028  0.103  0.085  0.746
 
band    11 # energy   39.28093419 # occ.  0.00000000
 
ion      s     py     pz     px    dxy    dyz    dz2    dxz  x2-y2    tot
    1  0.000  0.032  0.005  0.005  0.052  0.052  0.094  0.139  0.282  0.662
 
band    12 # energy   41.11040440 # occ.  0.00000000
 
ion      s     py     pz     px    dxy    dyz    dz2    dxz  x2-y2    tot
    1  0.000  0.000  0.062  0.062  0.037  0.037  0.398  0.000  0.133  0.727
 

 k-point    11 :    0.45454545 0.09090909 0.00000000     weight = 0.01803156

band     1 # energy    4.55241892 # occ.  1.00000000
 
ion      s     py     pz     px    dxy    dyz    dz2    dxz  x2-y2    tot
    1  0.194  0.032  0.002  0.002  0.203  0.203  0.002  0.232  0.005  0.874
 
band     2 # energy    6.75876682 # occ.  1.00000000
 
ion      s     py     pz     px    dxy    dyz    dz2    dxz  x2-y2    tot
    1  0.000  0.002  0.006  0.006  0.087  0.087  0.160  0.124  0.481  0.953
 
band     3 # energy    7.01691260 # occ.  1.00000000
 
ion      s     py     pz     px    dxy    dyz    dz2    dxz  x2-y2    tot
    1  0.000  0.000  0.001  0.001  0.221  0.221  0.394  0.000  0.131  0.970
 
band     4 # energy    7.35003633 # occ.  1.00000000
 
ion      s     py     pz     px    dxy    dyz    dz2    dxz  x2-y2    tot
    1  0.028  0.080  0.075  0.075  0.015  0.015  0.020  0.494  0.061  0.863
 
band     5 # energy    8.64279917 # occ.  1.00026109
 
ion      s     py     pz     px    dxy    dyz    dz2    dxz  x2-y2    tot
    1  0.000  0.000  0.000  0.000  0.271  0.271  0.339  0.000  0.113  0.993
 
band     6 # energy    9.47918302 # occ. -0.03271359
 
ion      s     py     pz     px    dxy    dyz    dz2    dxz  x2-y2    tot
    1  0.053  0.107  0.067  0.067  0.141  0.141  0.061  0.056  0.182  0.874
 
band     7 # energy   16.29901204 # occ.  0.00000000
 
ion      s     py     pz     px    dxy    dyz    dz2    dxz  x2-y2    tot
    1  0.337  0.016  0.069  0.069  0.105  0.105  0.001  0.149  0.003  0.854
 
band     8 # energy   30.18196944 # occ.  0.00000000
 
ion      s     py     pz     px    dxy    dyz    dz2    dxz  x2-y2    tot
    1  0.002  0.091  0.000  0.000  0.009  0.009  0.051  0.058  0.154  0.376
 
band     9 # energy   31.37613543 # occ.  0.00000000
 
ion      s     py     pz     px    dxy    dyz    dz2    dxz  x2-y2    tot
    1  0.000  0.000  0.257  0.257  0.058  0.058  0.091  0.000  0.030  0.753
 
band    10 # energy   32.59421541 # occ.  0.00000000
 
ion      s     py     pz     px    dxy    dyz    dz2    dxz  x2-y2    tot
    1  0.077  0.288  0.071  0.071  0.007  0.007  0.006  0.074  0.017  0.617
 
band    11 # energy   39.13260149 # occ.  0.00000000
 
ion      s     py     pz     px    dxy    dyz    dz2    dxz  x2-y2    tot
    1  0.010  0.022  0.000  0.000  0.024  0.024  0.112  0.230  0.335  0.757
 
band    12 # energy   39.57724194 # occ.  0.00000000
 
ion      s     py     pz     px    dxy    dyz    dz2    dxz  x2-y2    tot
    1  0.000  0.000  0.062  0.062  0.098  0.098  0.390  0.000  0.130  0.841
 

 k-point    12 :   -0.45454545 0.09090909 0.00000000     weight = 0.01803156

band     1 # energy    4.64636616 # occ.  1.00000000
 
ion      s     py     pz     px    dxy    dyz    dz2    dxz  x2-y2    tot
    1  0.157  0.005  0.004  0.004  0.228  0.228  0.000  0.268  0.000  0.894
 
band     2 # energy    6.73596971 # occ.  1.00000000
 
ion      s     py     pz     px    dxy    dyz    dz2    dxz  x2-y2    tot
    1  0.000  0.000  0.004  0.004  0.059  0.059  0.153  0.216  0.460  0.957
 
band     3 # energy    6.97462108 # occ.  1.00000000
 
ion      s     py     pz     px    dxy    dyz    dz2    dxz  x2-y2    tot
    1  0.000  0.000  0.001  0.001  0.201  0.201  0.425  0.000  0.142  0.969
 
band     4 # energy    7.68929833 # occ.  1.00000000
 
ion      s     py     pz     px    dxy    dyz    dz2    dxz  x2-y2    tot
    1  0.001  0.077  0.077  0.077  0.100  0.100  0.043  0.269  0.129  0.873
 
band     5 # energy    8.60424136 # occ.  1.00009249
 
ion      s     py     pz     px    dxy    dyz    dz2    dxz  x2-y2    tot
    1  0.000  0.000  0.000  0.000  0.292  0.292  0.306  0.000  0.102  0.992
 
band     6 # energy   10.17767759 # occ. -0.00000000
 
ion      s     py     pz     px    dxy    dyz    dz2    dxz  x2-y2    tot
    1  0.006  0.136  0.140  0.140  0.018  0.018  0.048  0.157  0.144  0.806
 
band     7 # energy   14.96251779 # occ.  0.00000000
 
ion      s     py     pz     px    dxy    dyz    dz2    dxz  x2-y2    tot
    1  0.444  0.026  0.000  0.000  0.144  0.144  0.000  0.135  0.000  0.894
 
band     8 # energy   29.40619590 # occ.  0.00000000
 
ion      s     py     pz     px    dxy    dyz    dz2    dxz  x2-y2    tot