 running on   12 total cores
 distrk:  each k-point on   12 cores,    1 groups
 distr:  one band on    1 cores,   12 groups
 using from now: INCAR     
 vasp.5.4.4.18Apr17-6-g9f103f2a35 (build Mar 30 2023 15:39:25) complex          
  
 POSCAR found :  1 types and       1 ions
 scaLAPACK will be used

 ----------------------------------------------------------------------------- 
|                                                                             |
|           W    W    AA    RRRRR   N    N  II  N    N   GGGG   !!!           |
|           W    W   A  A   R    R  NN   N  II  NN   N  G    G  !!!           |
|           W    W  A    A  R    R  N N  N  II  N N  N  G       !!!           |
|           W WW W  AAAAAA  RRRRR   N  N N  II  N  N N  G  GGG   !            |
|           WW  WW  A    A  R   R   N   NN  II  N   NN  G    G                |
|           W    W  A    A  R    R  N    N  II  N    N   GGGG   !!!           |
|                                                                             |
|      For optimal performance we recommend to set                            |
|        NCORE= 4 - approx SQRT( number of cores)                             |
|      NCORE specifies how many cores store one orbital (NPAR=cpu/NCORE).     |
|      This setting can  greatly improve the performance of VASP for DFT.     |
|      The default,   NCORE=1            might be grossly inefficient         |
|      on modern multi-core architectures or massively parallel machines.     |
|      Do your own testing !!!!                                               |
|      Unfortunately you need to use the default for GW and RPA calculations. |
|      (for HF NCORE is supported but not extensively tested yet)             |
|                                                                             |
 ----------------------------------------------------------------------------- 

 LDA part: xc-table for Pade appr. of Perdew
 POSCAR, INCAR and KPOINTS ok, starting setup
 FFT: planning ...
 WAVECAR not read
 entering main loop
       N       E                     dE             d eps       ncg     rms          rms(c)
DAV:   1    -0.356240867529E+00   -0.35624E+00   -0.34336E+03  2916   0.630E+02
DAV:   2    -0.646209629256E+01   -0.61059E+01   -0.59007E+01  3168   0.570E+01
DAV:   3    -0.648263917209E+01   -0.20543E-01   -0.20537E-01  3444   0.373E+00
DAV:   4    -0.648270197487E+01   -0.62803E-04   -0.62803E-04  3672   0.127E-01
DAV:   5    -0.648270216640E+01   -0.19154E-06   -0.19070E-06  3600   0.390E-03    0.973E+00
DAV:   6    -0.581056720191E+01    0.67213E+00   -0.17782E+01  3036   0.448E+01    0.578E+00
DAV:   7    -0.548218695632E+01    0.32838E+00   -0.29918E+00  3096   0.167E+01    0.175E+00
DAV:   8    -0.546745621627E+01    0.14731E-01   -0.19647E-02  3408   0.112E+00    0.871E-01
DAV:   9    -0.546531614044E+01    0.21401E-02   -0.13137E-03  3960   0.235E-01    0.249E-01
DAV:  10    -0.546475910058E+01    0.55704E-03   -0.73747E-04  3552   0.156E-01    0.423E-02
DAV:  11    -0.546476502749E+01   -0.59269E-05   -0.56509E-06  3096   0.191E-02    0.230E-02
DAV:  12    -0.546476456463E+01    0.46286E-06   -0.74141E-07  3516   0.636E-03
   1 F= -.54647646E+01 E0= -.54639047E+01  d E =-.257971E-02  mag=     0.5733
 writing wavefunctions
