  288  288    1    1
  0.2469169E+02  0.3104423E-08  0.3104423E-08  0.8520221E-09  0.5000000E-15
  1.000000000000000E-004
  CAR 
 BC3                                     
   1080     19    696
