   8   8   0   0
  0.5796174E+02  0.5174000E-09  0.5174160E-09  0.2000000E-08  0.5000000E-15
  1.000000000000000E-004
  CAR 
 BC3 DOS                                 
      5.87993866    -22.31273879  301     -4.22243742      1.00000000
    -22.313  0.0000E+00  0.0000E+00
    -22.219  0.0000E+00  0.0000E+00
    -22.125  0.0000E+00  0.0000E+00
    -22.031  0.0000E+00  0.0000E+00
    -21.937  0.0000E+00  0.0000E+00
    -21.843  0.0000E+00  0.0000E+00
    -21.749  0.0000E+00  0.0000E+00
    -21.655  0.0000E+00  0.0000E+00
    -21.561  0.0000E+00  0.0000E+00
    -21.467  0.0000E+00  0.0000E+00
    -21.373  0.0000E+00  0.0000E+00
    -21.279  0.0000E+00  0.0000E+00
    -21.185  0.0000E+00  0.0000E+00
    -21.091  0.0000E+00  0.0000E+00
    -20.997  0.0000E+00  0.0000E+00
    -20.903  0.0000E+00  0.0000E+00
    -20.809  0.0000E+00  0.0000E+00
    -20.715  0.0000E+00  0.0000E+00
    -20.621  0.0000E+00  0.0000E+00
    -20.527  0.0000E+00  0.0000E+00
    -20.433  0.0000E+00  0.0000E+00
    -20.339  0.0000E+00  0.0000E+00
    -20.245  0.1832E+01  0.1196E+00
    -20.151  0.2059E+01  0.3045E+00
    -20.057  0.2228E+01  0.5037E+00
    -19.963  0.2495E+01  0.7242E+00
    -19.869  0.3047E+01  0.9832E+00
    -19.775  0.4803E+01  0.1337E+01
    -19.681  0.4430E+01  0.1885E+01
    -19.587  0.0000E+00  0.2000E+01
    -19.493  0.0000E+00  0.2000E+01
    -19.399  0.0000E+00  0.2000E+01
    -19.306  0.0000E+00  0.2000E+01
    -19.212  0.0000E+00  0.2000E+01
    -19.118  0.0000E+00  0.2000E+01
    -19.024  0.0000E+00  0.2000E+01
    -18.930  0.0000E+00  0.2000E+01
    -18.836  0.0000E+00  0.2000E+01
    -18.742  0.0000E+00  0.2000E+01
    -18.648  0.0000E+00  0.2000E+01
    -18.554  0.0000E+00  0.2000E+01
    -18.460  0.0000E+00  0.2000E+01
    -18.366  0.0000E+00  0.2000E+01
    -18.272  0.0000E+00  0.2000E+01
    -18.178  0.0000E+00  0.2000E+01
    -18.084  0.0000E+00  0.2000E+01
    -17.990  0.2515E+01  0.2131E+01
    -17.896  0.3165E+01  0.2410E+01
    -17.802  0.4113E+01  0.2794E+01
    -17.708  0.1825E+01  0.3019E+01
    -17.614  0.1817E+01  0.3177E+01
    -17.520  0.1877E+01  0.3353E+01
    -17.426  0.1975E+01  0.3531E+01
    -17.332  0.2037E+01  0.3719E+01
    -17.238  0.2203E+01  0.3918E+01
    -17.144  0.2379E+01  0.4131E+01
    -17.050  0.2751E+01  0.4369E+01
    -16.956  0.3144E+01  0.4645E+01
    -16.862  0.3721E+01  0.5055E+01
    -16.768  0.2610E+01  0.5341E+01
    -16.674  0.2236E+01  0.5563E+01
    -16.580  0.1980E+01  0.5750E+01
    -16.486  0.1852E+01  0.5915E+01
    -16.392  0.0000E+00  0.6000E+01
    -16.298  0.0000E+00  0.6000E+01
    -16.204  0.0000E+00  0.6000E+01
    -16.110  0.0000E+00  0.6000E+01
    -16.016  0.0000E+00  0.6000E+01
    -15.922  0.0000E+00  0.6000E+01
    -15.828  0.0000E+00  0.6000E+01
    -15.734  0.0000E+00  0.6000E+01
    -15.640  0.0000E+00  0.6000E+01
    -15.546  0.0000E+00  0.6000E+01
    -15.453  0.0000E+00  0.6000E+01
    -15.359  0.0000E+00  0.6000E+01
    -15.265  0.0000E+00  0.6000E+01
    -15.171  0.0000E+00  0.6000E+01
    -15.077  0.0000E+00  0.6000E+01
    -14.983  0.0000E+00  0.6000E+01
    -14.889  0.0000E+00  0.6000E+01
    -14.795  0.0000E+00  0.6000E+01
    -14.701  0.0000E+00  0.6000E+01
    -14.607  0.9786E+00  0.6007E+01
    -14.513  0.2117E+01  0.6191E+01
    -14.419  0.2250E+01  0.6392E+01
    -14.325  0.2705E+01  0.6624E+01
    -14.231  0.3436E+01  0.6900E+01
    -14.137  0.3631E+01  0.7335E+01
    -14.043  0.1831E+01  0.7578E+01
    -13.949  0.1624E+01  0.7756E+01
    -13.855  0.1508E+01  0.7903E+01
    -13.761  0.1550E+01  0.8036E+01
    -13.667  0.1295E+01  0.8174E+01
    -13.573  0.1332E+01  0.8298E+01
    -13.479  0.1437E+01  0.8420E+01
    -13.385  0.1009E+01  0.8539E+01
    -13.291  0.1202E+01  0.8643E+01
    -13.197  0.1683E+01  0.8769E+01
    -13.103  0.2246E+01  0.8942E+01
    -13.009  0.1894E+01  0.9164E+01
    -12.915  0.1850E+01  0.9348E+01
    -12.821  0.1762E+01  0.9517E+01
    -12.727  0.1590E+01  0.9676E+01
    -12.633  0.1528E+01  0.9821E+01
    -12.539  0.1469E+01  0.9964E+01
    -12.445  0.1308E+01  0.1010E+02
    -12.351  0.1206E+01  0.1023E+02
    -12.257  0.4301E+00  0.1029E+02
    -12.163  0.4535E+00  0.1033E+02
    -12.069  0.4463E+00  0.1037E+02
    -11.975  0.4576E+00  0.1041E+02
    -11.881  0.4748E+00  0.1046E+02
    -11.787  0.4947E+00  0.1050E+02
    -11.693  0.5146E+00  0.1055E+02
    -11.600  0.7851E+00  0.1062E+02
    -11.506  0.8528E+00  0.1070E+02
    -11.412  0.9084E+00  0.1078E+02
    -11.318  0.9094E+00  0.1087E+02
    -11.224  0.1504E+01  0.1100E+02
    -11.130  0.1691E+01  0.1115E+02
    -11.036  0.1749E+01  0.1131E+02
    -10.942  0.1859E+01  0.1148E+02
    -10.848  0.1981E+01  0.1166E+02
    -10.754  0.2999E+01  0.1196E+02
    -10.660  0.1650E+01  0.1218E+02
    -10.566  0.1338E+01  0.1232E+02
    -10.472  0.1052E+01  0.1245E+02
    -10.378  0.4745E+00  0.1251E+02
    -10.284  0.1972E+01  0.1259E+02
    -10.190  0.3717E+01  0.1295E+02
    -10.096  0.2987E+01  0.1326E+02
    -10.002  0.2984E+01  0.1352E+02
     -9.908  0.5550E+00  0.1369E+02
     -9.814  0.1194E+01  0.1377E+02
     -9.720  0.2267E+01  0.1392E+02
     -9.626  0.2043E+01  0.1417E+02
     -9.532  0.2277E+01  0.1437E+02
     -9.438  0.2840E+01  0.1460E+02
     -9.344  0.2749E+01  0.1488E+02
     -9.250  0.2362E+01  0.1512E+02
     -9.156  0.2023E+01  0.1533E+02
     -9.062  0.3342E+01  0.1561E+02
     -8.968  0.3772E+01  0.1587E+02
     -8.874  0.2066E+01  0.1613E+02
     -8.780  0.2140E+01  0.1633E+02
     -8.686  0.1619E+01  0.1653E+02
     -8.592  0.1337E+01  0.1666E+02
     -8.498  0.3109E+01  0.1690E+02
     -8.404  0.2409E+01  0.1715E+02
     -8.310  0.5267E+01  0.1745E+02
     -8.216  0.4817E+01  0.1797E+02
     -8.122  0.3676E+01  0.1838E+02
     -8.028  0.4927E+01  0.1886E+02
     -7.934  0.2802E+01  0.1916E+02
     -7.840  0.2181E+01  0.1937E+02
     -7.747  0.7831E+00  0.1946E+02
     -7.653  0.2351E+01  0.1962E+02
     -7.559  0.2361E+01  0.1988E+02
     -7.465  0.1705E+01  0.2006E+02
     -7.371  0.1583E+01  0.2021E+02
     -7.277  0.1703E+01  0.2036E+02
     -7.183  0.1632E+01  0.2052E+02
     -7.089  0.1823E+01  0.2070E+02
     -6.995  0.3674E+01  0.2099E+02
     -6.901  0.5168E+01  0.2141E+02
     -6.807  0.1314E+02  0.2226E+02
     -6.713  0.6314E+01  0.2300E+02
     -6.619  0.4683E+01  0.2344E+02
     -6.525  0.2080E+01  0.2382E+02
     -6.431  0.2438E+01  0.2405E+02
     -6.337  0.2321E+01  0.2428E+02
     -6.243  0.2388E+01  0.2450E+02
     -6.149  0.2502E+01  0.2473E+02
     -6.055  0.2545E+01  0.2497E+02
     -5.961  0.2644E+01  0.2521E+02
     -5.867  0.2806E+01  0.2547E+02
     -5.773  0.2925E+01  0.2574E+02
     -5.679  0.3164E+01  0.2602E+02
     -5.585  0.3534E+01  0.2634E+02
     -5.491  0.4666E+01  0.2670E+02
     -5.397  0.4293E+01  0.2713E+02
     -5.303  0.4622E+01  0.2752E+02
     -5.209  0.5610E+01  0.2800E+02
     -5.115  0.4544E+01  0.2846E+02
     -5.021  0.4036E+01  0.2880E+02
     -4.927  0.3017E+01  0.2918E+02
     -4.833  0.1342E+01  0.2932E+02
     -4.739  0.1249E+01  0.2944E+02
     -4.645  0.1230E+01  0.2956E+02
     -4.551  0.1138E+01  0.2967E+02
     -4.457  0.1169E+01  0.2978E+02
     -4.363  0.1147E+01  0.2988E+02
     -4.269  0.1020E+01  0.2999E+02
     -4.175  0.0000E+00  0.3000E+02
     -4.081  0.0000E+00  0.3000E+02
     -3.987  0.0000E+00  0.3000E+02
     -3.894  0.0000E+00  0.3000E+02
     -3.800  0.0000E+00  0.3000E+02
     -3.706  0.0000E+00  0.3000E+02
     -3.612  0.0000E+00  0.3000E+02
     -3.518  0.1420E+01  0.3007E+02
     -3.424  0.1568E+01  0.3023E+02
     -3.330  0.1723E+01  0.3038E+02
     -3.236  0.2097E+01  0.3056E+02
     -3.142  0.2532E+01  0.3077E+02
     -3.048  0.2835E+01  0.3109E+02
     -2.954  0.2011E+01  0.3130E+02
     -2.860  0.1422E+01  0.3146E+02
     -2.766  0.1267E+01  0.3159E+02
     -2.672  0.9730E+00  0.3169E+02
     -2.578  0.8307E+00  0.3178E+02
     -2.484  0.7222E+00  0.3185E+02
     -2.390  0.3628E+00  0.3190E+02
     -2.296  0.3192E+00  0.3193E+02
     -2.202  0.2595E+00  0.3196E+02
     -2.108  0.1997E+00  0.3198E+02
     -2.014  0.0000E+00  0.3200E+02
     -1.920  0.0000E+00  0.3200E+02
     -1.826  0.0000E+00  0.3200E+02
     -1.732  0.0000E+00  0.3200E+02
     -1.638  0.0000E+00  0.3200E+02
     -1.544  0.1919E+00  0.3202E+02
     -1.450  0.2547E+00  0.3204E+02
     -1.356  0.3174E+00  0.3206E+02
     -1.262  0.3605E+00  0.3210E+02
     -1.168  0.5052E+00  0.3214E+02
     -1.074  0.5412E+00  0.3219E+02
     -0.980  0.6572E+00  0.3224E+02
     -0.886  0.8480E+00  0.3231E+02
     -0.792  0.1144E+01  0.3239E+02
     -0.698  0.1112E+01  0.3250E+02
     -0.604  0.2833E+01  0.3270E+02
     -0.510  0.2951E+01  0.3308E+02
     -0.416  0.2072E+01  0.3332E+02
     -0.322  0.1747E+01  0.3349E+02
     -0.228  0.1502E+01  0.3364E+02
     -0.134  0.1369E+01  0.3378E+02
     -0.041  0.1289E+01  0.3390E+02
      0.053  0.1598E+01  0.3405E+02
      0.147  0.1396E+01  0.3419E+02
      0.241  0.9692E+00  0.3431E+02
      0.335  0.7909E+00  0.3438E+02
      0.429  0.1712E+01  0.3447E+02
      0.523  0.1895E+01  0.3465E+02
      0.617  0.1924E+01  0.3483E+02
      0.711  0.1885E+01  0.3500E+02
      0.805  0.1980E+01  0.3518E+02
      0.899  0.2093E+01  0.3537E+02
      0.993  0.2261E+01  0.3558E+02
      1.087  0.2468E+01  0.3580E+02
      1.181  0.2506E+01  0.3603E+02
      1.275  0.2630E+01  0.3626E+02
      1.369  0.3259E+01  0.3657E+02
      1.463  0.3075E+01  0.3685E+02
      1.557  0.3961E+01  0.3720E+02
      1.651  0.4076E+01  0.3757E+02
      1.745  0.3971E+01  0.3795E+02
      1.839  0.3923E+01  0.3832E+02
      1.933  0.3911E+01  0.3869E+02
      2.027  0.3940E+01  0.3906E+02
      2.121  0.3921E+01  0.3944E+02
      2.215  0.3661E+01  0.3980E+02
      2.309  0.3540E+01  0.4013E+02
      2.403  0.4318E+01  0.4049E+02
      2.497  0.5064E+01  0.4091E+02
      2.591  0.4303E+01  0.4140E+02
      2.685  0.9883E+01  0.4182E+02
      2.779  0.4826E+01  0.4225E+02
      2.873  0.4956E+01  0.4268E+02
      2.967  0.5859E+01  0.4318E+02
      3.061  0.7337E+01  0.4390E+02
      3.155  0.3682E+01  0.4443E+02
      3.249  0.3704E+01  0.4483E+02
      3.343  0.5321E+01  0.4526E+02
      3.437  0.5584E+01  0.4593E+02
      3.531  0.6088E+01  0.4648E+02
      3.625  0.4185E+01  0.4705E+02
      3.719  0.5515E+01  0.4760E+02
      3.812  0.1997E+01  0.4793E+02
      3.906  0.0000E+00  0.4800E+02
      4.000  0.0000E+00  0.4800E+02
      4.094  0.0000E+00  0.4800E+02
      4.188  0.0000E+00  0.4800E+02
      4.282  0.0000E+00  0.4800E+02
      4.376  0.0000E+00  0.4800E+02
      4.470  0.0000E+00  0.4800E+02
      4.564  0.0000E+00  0.4800E+02
      4.658  0.0000E+00  0.4800E+02
      4.752  0.0000E+00  0.4800E+02
      4.846  0.0000E+00  0.4800E+02
      4.940  0.0000E+00  0.4800E+02
      5.034  0.0000E+00  0.4800E+02
      5.128  0.0000E+00  0.4800E+02
      5.222  0.0000E+00  0.4800E+02
      5.316  0.0000E+00  0.4800E+02
      5.410  0.0000E+00  0.4800E+02
      5.504  0.0000E+00  0.4800E+02
      5.598  0.0000E+00  0.4800E+02
      5.692  0.0000E+00  0.4800E+02
      5.786  0.0000E+00  0.4800E+02
      5.880  0.0000E+00  0.4800E+02
