Automatically generated mesh
       7
Reciprocal lattice
    0.00000000000000    0.00000000000000    0.00000000000000             1
    0.25000000000000   -0.00000000000000    0.00000000000000             4
    0.50000000000000   -0.00000000000000    0.00000000000000             2
    0.00000000000000    0.25000000000000    0.00000000000000             2
    0.50000000000000    0.25000000000000    0.00000000000000             2
   -0.25000000000000    0.25000000000000    0.00000000000000             4
    0.00000000000000    0.50000000000000    0.00000000000000             1
Tetrahedra
        26    0.01041666666667
         2         1         1         2         2
         4         1         1         2         4
         4         1         2         4         4
         4         1         2         2         2
         4         1         2         2         4
         4         2         2         3         5
         4         2         2         2         5
         4         2         3         3         5
         4         2         3         5         5
         2         2         2         5         5
         4         2         3         3         6
         4         3         3         5         6
         4         3         5         5         6
         4         2         2         3         6
         4         2         3         6         6
         4         3         5         6         6
         4         2         2         4         6
         4         2         4         6         6
         4         2         4         4         6
         4         4         4         6         7
         4         4         6         7         7
         4         4         6         6         7
         2         5         5         6         6
         4         5         6         6         6
         4         6         6         6         7
         2         6         6         7         7
