       N       E                     dE             d eps       ncg     rms          rms(c)
DAV:   1     0.193625955379E+03    0.19363E+03   -0.99621E+03  3804   0.794E+02
DAV:   2    -0.419654404709E+02   -0.23559E+03   -0.22341E+03  5532   0.184E+02
DAV:   3    -0.726759690982E+02   -0.30711E+02   -0.30480E+02  4392   0.791E+01
DAV:   4    -0.734191808878E+02   -0.74321E+00   -0.74129E+00  5196   0.154E+01
DAV:   5    -0.734374496705E+02   -0.18269E-01   -0.18259E-01  4368   0.218E+00    0.131E+01
DAV:   6    -0.689780441083E+02    0.44594E+01   -0.52805E+00  5064   0.105E+01    0.740E+00
DAV:   7    -0.673330619869E+02    0.16450E+01   -0.39745E+00  5160   0.910E+00    0.216E+00
DAV:   8    -0.672525462483E+02    0.80516E-01   -0.21429E-01  5340   0.214E+00    0.579E-01
DAV:   9    -0.672348028126E+02    0.17743E-01   -0.17321E-02  4320   0.736E-01    0.175E-01
DAV:  10    -0.672232964007E+02    0.11506E-01   -0.10416E-02  4512   0.413E-01    0.128E-01
DAV:  11    -0.672226496264E+02    0.64677E-03   -0.47376E-03  4020   0.301E-01    0.573E-02
DAV:  12    -0.672228408910E+02   -0.19126E-03   -0.14363E-03  3840   0.141E-01    0.361E-02
DAV:  13    -0.672270629876E+02   -0.42221E-02   -0.47904E-04  3696   0.899E-02    0.212E-02
DAV:  14    -0.672296613511E+02   -0.25984E-02   -0.35874E-04  4068   0.619E-02    0.129E-02
DAV:  15    -0.672301909451E+02   -0.52959E-03   -0.35225E-05  3756   0.221E-02    0.442E-03
DAV:  16    -0.672305261428E+02   -0.33520E-03   -0.35640E-05  3624   0.169E-02    0.176E-03
DAV:  17    -0.672305767322E+02   -0.50589E-04   -0.28977E-06  4080   0.541E-03    0.137E-03
DAV:  18    -0.672306149967E+02   -0.38265E-04   -0.28811E-06  3936   0.522E-03    0.107E-03
DAV:  19    -0.672306205588E+02   -0.55620E-05   -0.14167E-07  3636   0.165E-03    0.507E-04
DAV:  20    -0.672306336271E+02   -0.13068E-04   -0.73516E-08  3408   0.102E-03    0.251E-04
DAV:  21    -0.672306361255E+02   -0.24984E-05   -0.11893E-08  2916   0.382E-04    0.142E-04
DAV:  22    -0.672306369408E+02   -0.81527E-06   -0.86777E-09  2772   0.347E-04
   1 F= -.67230637E+02 E0= -.67230637E+02  d E =0.000000E+00
