 vasp.5.4.4.18Apr17-6-g9f103f2a35 (build Mar 30 2023 15:39:25) complex          
  
 executed on             LinuxIFC date 2023.05.23  10:11:08
 running on   12 total cores
 distrk:  each k-point on   12 cores,    1 groups
 distr:  one band on NCORES_PER_BAND=   1 cores,   12 groups


--------------------------------------------------------------------------------------------------------


 INCAR:
 POTCAR:    PAW_PBE B 06Sep2000                   
 POTCAR:    PAW_PBE C 08Apr2002                   

 ----------------------------------------------------------------------------- 
|                                                                             |
|           W    W    AA    RRRRR   N    N  II  N    N   GGGG   !!!           |
|           W    W   A  A   R    R  NN   N  II  NN   N  G    G  !!!           |
|           W    W  A    A  R    R  N N  N  II  N N  N  G       !!!           |
|           W WW W  AAAAAA  RRRRR   N  N N  II  N  N N  G  GGG   !            |
|           WW  WW  A    A  R   R   N   NN  II  N   NN  G    G                |
|           W    W  A    A  R    R  N    N  II  N    N   GGGG   !!!           |
|                                                                             |
|      For optimal performance we recommend to set                            |
|        NCORE= 4 - approx SQRT( number of cores)                             |
|      NCORE specifies how many cores store one orbital (NPAR=cpu/NCORE).     |
|      This setting can  greatly improve the performance of VASP for DFT.     |
|      The default,   NCORE=1            might be grossly inefficient         |
|      on modern multi-core architectures or massively parallel machines.     |
|      Do your own testing !!!!                                               |
|      Unfortunately you need to use the default for GW and RPA calculations. |
|      (for HF NCORE is supported but not extensively tested yet)             |
|                                                                             |
 ----------------------------------------------------------------------------- 

 POTCAR:    PAW_PBE B 06Sep2000                   
   SHA256 =  a32ced30f5ae56fd4d10b4325ff17eb3e4e38ee0f4288bc219fb012fddfa6e97 B/
   COPYR  = (c) Copyright 06Sep2000 Georg Kresse                                
   COPYR  = This file is part of the software VASP. Any use, copying, and all ot
   COPYR  = If you do not have a valid VASP license, you may not use, copy or di
   VRHFIN =B: s2p1                                                              
   LEXCH  = PE                                                                  
   EATOM  =    71.1703 eV,    5.2309 Ry                                         
                                                                                
   TITEL  = PAW_PBE B 06Sep2000                                                 
   LULTRA =        F    use ultrasoft PP ?                                      
   IUNSCR =        1    unscreen: 0-lin 1-nonlin 2-no                           
   RPACOR =    1.200    partial core radius                                     
   POMASS =   10.811; ZVAL   =    3.000    mass and valenz                      
   RCORE  =    1.700    outmost cutoff radius                                   
   RWIGS  =    1.710; RWIGS  =    0.905    wigner-seitz radius (au A)           
   ENMAX  =  318.614; ENMIN  =  238.960 eV                                      
   ICORE  =        2    local potential                                         
   LCOR   =        T    correct aug charges                                     
   LPAW   =        T    paw PP                                                  
   EAUG   =  535.514                                                            
   DEXC   =    0.000                                                            
   RMAX   =    1.732    core radius for proj-oper                               
   RAUG   =    1.300    factor for augmentation sphere                          
   RDEP   =    1.757    radius for radial grids                                 
   RDEPT  =    1.436    core radius for aug-charge                              
                                                                                
   Atomic configuration                                                         
    4 entries                                                                   
     n  l   j            E        occ.                                          
     1  0  0.50      -180.5896   2.0000                                         
     2  0  0.50        -9.4431   2.0000                                         
     2  1  0.50        -3.6068   1.0000                                         
     3  2  1.50        -4.0817   0.0000                                         
   Description                                                                  
     l       E           TYP  RCUT    TYP  RCUT                                 
     0     -9.4430752     23  1.500                                             
     0      0.8675899     23  1.500                                             
     1     -3.6067955     23  1.700                                             
     1      6.1086146     23  1.700                                             
     2     -4.0817478      7  1.700                                             
  local pseudopotential read in
  partial core-charges read in
  partial kinetic energy density read in
  atomic valenz-charges read in
  non local Contribution for L=           0  read in
    real space projection operators read in
  non local Contribution for L=           0  read in
    real space projection operators read in
  non local Contribution for L=           1  read in
    real space projection operators read in
  non local Contribution for L=           1  read in
    real space projection operators read in
    PAW grid and wavefunctions read in
 
   number of l-projection  operators is LMAX  =           4
   number of lm-projection operators is LMMAX =           8
 
 POTCAR:    PAW_PBE C 08Apr2002                   
   SHA256 =  253f7b50bb8d59471dbedb8285d89021f4a42ed1a2c5d38a03a736e69125dd95 C/
   COPYR  = (c) Copyright 08Apr2002 Georg Kresse                                
   COPYR  = This file is part of the software VASP. Any use, copying, and all ot
   COPYR  = If you do not have a valid VASP license, you may not use, copy or di
   VRHFIN =C: s2p2                                                              
   LEXCH  = PE                                                                  
   EATOM  =   147.1560 eV,   10.8157 Ry                                         
                                                                                
   TITEL  = PAW_PBE C 08Apr2002                                                 
   LULTRA =        F    use ultrasoft PP ?                                      
   IUNSCR =        1    unscreen: 0-lin 1-nonlin 2-no                           
   RPACOR =    1.200    partial core radius                                     
   POMASS =   12.011; ZVAL   =    4.000    mass and valenz                      
   RCORE  =    1.500    outmost cutoff radius                                   
   RWIGS  =    1.630; RWIGS  =    0.863    wigner-seitz radius (au A)           
   ENMAX  =  400.000; ENMIN  =  300.000 eV                                      
   ICORE  =        2    local potential                                         
   LCOR   =        T    correct aug charges                                     
   LPAW   =        T    paw PP                                                  
   EAUG   =  644.873                                                            
   DEXC   =    0.000                                                            
   RMAX   =    1.529    core radius for proj-oper                               
   RAUG   =    1.300    factor for augmentation sphere                          
   RDEP   =    1.501    radius for radial grids                                 
   RDEPT  =    1.300    core radius for aug-charge                              
                                                                                
   Atomic configuration                                                         
    4 entries                                                                   
     n  l   j            E        occ.                                          
     1  0  0.50      -273.3789   2.0000                                         
     2  0  0.50       -13.7508   2.0000                                         
     2  1  0.50        -5.2854   2.0000                                         
     3  2  1.50        -5.4423   0.0000                                         
   Description                                                                  
     l       E           TYP  RCUT    TYP  RCUT                                 
     0    -13.7508458     23  1.200                                             
     0     -8.2022199     23  1.200                                             
     1     -5.2854383     23  1.500                                             
     1     34.0145650     23  1.500                                             
     2     -5.4423304      7  1.500                                             
  local pseudopotential read in
  partial core-charges read in
  partial kinetic energy density read in
  atomic valenz-charges read in
  non local Contribution for L=           0  read in
    real space projection operators read in
  non local Contribution for L=           0  read in
    real space projection operators read in
  non local Contribution for L=           1  read in
    real space projection operators read in
  non local Contribution for L=           1  read in
    real space projection operators read in
    PAW grid and wavefunctions read in
 
   number of l-projection  operators is LMAX  =           4
   number of lm-projection operators is LMMAX =           8
 
  PAW_PBE B 06Sep2000                   :
 energy of atom  1       EATOM=  -71.1703
 kinetic energy error for atom=    0.0015 (will be added to EATOM!!)
  PAW_PBE C 08Apr2002                   :
 energy of atom  2       EATOM= -147.1560
 kinetic energy error for atom=    0.0116 (will be added to EATOM!!)
 
 
 POSCAR: BC3 with lattice parameter 5.174Ang, len
  positions in cartesian coordinates
  No initial velocities read in
 exchange correlation table for  LEXCH =        8
   RHO(1)=    0.500       N(1)  =     2000
   RHO(2)=  100.500       N(2)  =     4000
 


--------------------------------------------------------------------------------------------------------


 ion  position               nearest neighbor table
   1  0.175  0.175  0.000-   3 1.56   4 1.56   6 1.57
   2  0.508  0.508  0.000-   8 1.56   7 1.56   5 1.57
   3  0.000  0.000  0.000-   5 1.42   7 1.42   1 1.56
   4  0.524  0.000  0.000-   5 1.42   8 1.42   1 1.56
   5  0.683  0.159  0.000-   4 1.42   3 1.42   2 1.57
   6  1.000  0.524  0.000-   8 1.42   7 1.42   1 1.57
   7  0.159  0.683  0.000-   6 1.42   3 1.42   2 1.56
   8  0.682  0.683  0.000-   6 1.42   4 1.42   2 1.56
 
  LATTYP: Found a base centered orthorhombic cell.
 ALAT       =     5.1740000000
 B/A-ratio  =     1.7321221492
 C/A-ratio  =     3.8654812524
  
  Lattice vectors:
  
 A1 = (   2.5870000000,   4.4810000000,   0.0000000000)
 A2 = (   2.5870000000,  -4.4810000000,   0.0000000000)
 A3 = (   0.0000000000,   0.0000000000, -20.0000000000)


Analysis of symmetry for initial positions (statically):
=====================================================================
 Subroutine PRICEL returns:
 Original cell was already a primitive cell.
 

 Routine SETGRP: Setting up the symmetry group for a 
 base centered orthorhombic supercell.


 Subroutine GETGRP returns: Found  8 space group operations
 (whereof  2 operations were pure point group operations)
 out of a pool of  8 trial point group operations.


The static configuration has the point symmetry C_1h.
 The point group associated with its full space group is D_2h.


Analysis of symmetry for dynamics (positions and initial velocities):
=====================================================================
 Subroutine PRICEL returns:
 Original cell was already a primitive cell.
 

 Routine SETGRP: Setting up the symmetry group for a 
 base centered orthorhombic supercell.


 Subroutine GETGRP returns: Found  8 space group operations
 (whereof  2 operations were pure point group operations)
 out of a pool of  8 trial point group operations.


The dynamic configuration has the point symmetry C_1h.
 The point group associated with its full space group is D_2h.


 Subroutine INISYM returns: Found  8 space group operations
 (whereof  2 operations are pure point group operations),
 and found     1 'primitive' translations

 
 
 KPOINTS: K-points for BC3                        

Automatic generation of k-mesh.
Space group operators:
 irot       det(A)        alpha          n_x          n_y          n_z        tau_x        tau_y        tau_z
    1     1.000000     0.000000     1.000000     0.000000     0.000000     0.000000     0.000000     0.000000
    2    -1.000000   180.000000     0.000000     0.000000     1.000000     0.000000     0.000000     0.000000
    3    -1.000000     0.000000     1.000000     0.000000     0.000000     0.682498    -0.317451     0.000000
    4     1.000000   180.000000     0.000000     0.000000     1.000000     0.682498    -0.317451     0.000000
    5     1.000000   179.999999     0.000000     1.000000     0.000000     0.523773     0.000000     0.000000
    6    -1.000000   179.999999     0.000000     1.000000     0.000000     0.158726     0.682549     0.000000
    7     1.000000   180.000000     1.000000     0.000000     0.000000     0.158726     0.682549     0.000000
    8    -1.000000   180.000000     1.000000     0.000000     0.000000     0.523773     0.000000     0.000000
 
 Subroutine IBZKPT returns following result:
 ===========================================
 
 Found     73 irreducible k-points:
 
 Following reciprocal coordinates:
            Coordinates               Weight
  0.000000  0.000000  0.000000      1.000000
  0.062500 -0.000000  0.000000      4.000000
  0.125000 -0.000000  0.000000      4.000000
  0.187500 -0.000000  0.000000      4.000000
  0.250000 -0.000000  0.000000      4.000000
  0.312500 -0.000000  0.000000      4.000000
  0.375000 -0.000000  0.000000      4.000000
  0.437500 -0.000000  0.000000      4.000000
  0.500000 -0.000000  0.000000      2.000000
  0.000000  0.062500  0.000000      2.000000
  0.125000  0.062500  0.000000      2.000000
  0.187500  0.062500  0.000000      4.000000
  0.250000  0.062500  0.000000      4.000000
  0.312500  0.062500  0.000000      4.000000
  0.375000  0.062500  0.000000      4.000000
  0.437500  0.062500  0.000000      4.000000
  0.500000  0.062500  0.000000      4.000000
 -0.437500  0.062500  0.000000      4.000000
 -0.375000  0.062500  0.000000      4.000000
 -0.312500  0.062500  0.000000      4.000000
 -0.250000  0.062500  0.000000      4.000000
 -0.187500  0.062500  0.000000      4.000000
 -0.125000  0.062500  0.000000      4.000000
 -0.062500  0.062500  0.000000      4.000000
  0.000000  0.125000  0.000000      2.000000
  0.250000  0.125000  0.000000      2.000000
  0.312500  0.125000  0.000000      4.000000
  0.375000  0.125000  0.000000      4.000000
  0.437500  0.125000  0.000000      4.000000
  0.500000  0.125000  0.000000      4.000000
 -0.437500  0.125000  0.000000      4.000000
 -0.375000  0.125000  0.000000      4.000000
 -0.312500  0.125000  0.000000      4.000000
 -0.250000  0.125000  0.000000      4.000000
 -0.187500  0.125000  0.000000      4.000000
 -0.125000  0.125000  0.000000      4.000000
 -0.062500  0.125000  0.000000      4.000000
  0.000000  0.187500  0.000000      2.000000
  0.375000  0.187500  0.000000      2.000000
  0.437500  0.187500  0.000000      4.000000
  0.500000  0.187500  0.000000      4.000000
 -0.437500  0.187500  0.000000      4.000000
 -0.375000  0.187500  0.000000      4.000000
 -0.312500  0.187500  0.000000      4.000000
 -0.250000  0.187500  0.000000      4.000000
 -0.187500  0.187500  0.000000      4.000000
 -0.125000  0.187500  0.000000      4.000000
 -0.062500  0.187500  0.000000      4.000000
  0.000000  0.250000  0.000000      2.000000
  0.500000  0.250000  0.000000      2.000000
 -0.437500  0.250000  0.000000      4.000000
 -0.375000  0.250000  0.000000      4.000000
 -0.312500  0.250000  0.000000      4.000000
 -0.250000  0.250000  0.000000      4.000000
 -0.187500  0.250000  0.000000      4.000000
 -0.125000  0.250000  0.000000      4.000000
 -0.062500  0.250000  0.000000      4.000000
  0.000000  0.312500  0.000000      2.000000
 -0.375000  0.312500  0.000000      2.000000
 -0.312500  0.312500  0.000000      4.000000
 -0.250000  0.312500  0.000000      4.000000
 -0.187500  0.312500  0.000000      4.000000
 -0.125000  0.312500  0.000000      4.000000
 -0.062500  0.312500  0.000000      4.000000
  0.000000  0.375000  0.000000      2.000000
 -0.250000  0.375000  0.000000      2.000000
 -0.187500  0.375000  0.000000      4.000000
 -0.125000  0.375000  0.000000      4.000000
 -0.062500  0.375000  0.000000      4.000000
  0.000000  0.437500  0.000000      2.000000
 -0.125000  0.437500  0.000000      2.000000
 -0.062500  0.437500  0.000000      4.000000
  0.000000  0.500000  0.000000      1.000000
 
 Following cartesian coordinates:
            Coordinates               Weight
  0.000000  0.000000  0.000000      1.000000
  0.012080 -0.006974  0.000000      4.000000
  0.024159 -0.013948  0.000000      4.000000
  0.036239 -0.020922  0.000000      4.000000
  0.048319 -0.027896  0.000000      4.000000
  0.060398 -0.034869  0.000000      4.000000
  0.072478 -0.041843  0.000000      4.000000
  0.084557 -0.048817  0.000000      4.000000
  0.096637 -0.055791  0.000000      2.000000
  0.000000  0.013948  0.000000      2.000000
  0.024159  0.000000  0.000000      2.000000
  0.036239 -0.006974  0.000000      4.000000
  0.048319 -0.013948  0.000000      4.000000
  0.060398 -0.020922  0.000000      4.000000
  0.072478 -0.027896  0.000000      4.000000
  0.084557 -0.034869  0.000000      4.000000
  0.096637 -0.041843  0.000000      4.000000
 -0.084557  0.062765  0.000000      4.000000
 -0.072478  0.055791  0.000000      4.000000
 -0.060398  0.048817  0.000000      4.000000
 -0.048319  0.041843  0.000000      4.000000
 -0.036239  0.034869  0.000000      4.000000
 -0.024159  0.027896  0.000000      4.000000
 -0.012080  0.020922  0.000000      4.000000
  0.000000  0.027896  0.000000      2.000000
  0.048319  0.000000  0.000000      2.000000
  0.060398 -0.006974  0.000000      4.000000
  0.072478 -0.013948  0.000000      4.000000
  0.084557 -0.020922  0.000000      4.000000
  0.096637 -0.027896  0.000000      4.000000
 -0.084557  0.076713  0.000000      4.000000
 -0.072478  0.069739  0.000000      4.000000
 -0.060398  0.062765  0.000000      4.000000
 -0.048319  0.055791  0.000000      4.000000
 -0.036239  0.048817  0.000000      4.000000
 -0.024159  0.041843  0.000000      4.000000
 -0.012080  0.034869  0.000000      4.000000
  0.000000  0.041843  0.000000      2.000000
  0.072478  0.000000  0.000000      2.000000
  0.084557 -0.006974  0.000000      4.000000
  0.096637 -0.013948  0.000000      4.000000
 -0.084557  0.090661  0.000000      4.000000
 -0.072478  0.083687  0.000000      4.000000
 -0.060398  0.076713  0.000000      4.000000
 -0.048319  0.069739  0.000000      4.000000
 -0.036239  0.062765  0.000000      4.000000
 -0.024159  0.055791  0.000000      4.000000
 -0.012080  0.048817  0.000000      4.000000
  0.000000  0.055791  0.000000      2.000000
  0.096637  0.000000  0.000000      2.000000
 -0.084557  0.104608  0.000000      4.000000
 -0.072478  0.097634  0.000000      4.000000
 -0.060398  0.090661  0.000000      4.000000
 -0.048319  0.083687  0.000000      4.000000
 -0.036239  0.076713  0.000000      4.000000
 -0.024159  0.069739  0.000000      4.000000
 -0.012080  0.062765  0.000000      4.000000
  0.000000  0.069739  0.000000      2.000000
 -0.072478  0.111582  0.000000      2.000000
 -0.060398  0.104608  0.000000      4.000000
 -0.048319  0.097634  0.000000      4.000000
 -0.036239  0.090661  0.000000      4.000000
 -0.024159  0.083687  0.000000      4.000000
 -0.012080  0.076713  0.000000      4.000000
  0.000000  0.083687  0.000000      2.000000
 -0.048319  0.111582  0.000000      2.000000
 -0.036239  0.104608  0.000000      4.000000
 -0.024159  0.097634  0.000000      4.000000
 -0.012080  0.090661  0.000000      4.000000
  0.000000  0.097634  0.000000      2.000000
 -0.024159  0.111582  0.000000      2.000000
 -0.012080  0.104608  0.000000      4.000000
  0.000000  0.111582  0.000000      1.000000
 
 TETIRR: Found    392 inequivalent tetrahedra from     1536


--------------------------------------------------------------------------------------------------------




 Dimension of arrays:
   k-points           NKPTS =     73   k-points in BZ     NKDIM =     73   number of bands    NBANDS=     24
   number of dos      NEDOS =    301   number of ions     NIONS =      8
   non local maximal  LDIM  =      4   non local SUM 2l+1 LMDIM =      8
   total plane-waves  NPLWV = 181440
   max r-space proj   IRMAX =      1   max aug-charges    IRDMAX=   6301
   dimension x,y,z NGX =    36 NGY =   36 NGZ =  140
   dimension x,y,z NGXF=    72 NGYF=   72 NGZF=  280
   support grid    NGXF=    72 NGYF=   72 NGZF=  280
   ions per type =               2   6
   NGX,Y,Z   is equivalent  to a cutoff of  11.57, 11.57, 11.64 a.u.
   NGXF,Y,Z  is equivalent  to a cutoff of  23.13, 23.13, 23.27 a.u.

 SYSTEM =  BC3 DOS                                 
 POSCAR =  BC3 with lattice parameter 5.174Ang, len

 Startparameter for this run:
   NWRITE =      2    write-flag & timer
   PREC   = accura    normal or accurate (medium, high low for compatibility)
   ISTART =      0    job   : 0-new  1-cont  2-samecut
   ICHARG =      2    charge: 1-file 2-atom 10-const
   ISPIN  =      1    spin polarized calculation?
   LNONCOLLINEAR =      F non collinear calculations
   LSORBIT =      F    spin-orbit coupling
   INIWAV =      1    electr: 0-lowe 1-rand  2-diag
   LASPH  =      F    aspherical Exc in radial PAW
   METAGGA=      F    non-selfconsistent MetaGGA calc.

 Electronic Relaxation 1
   ENCUT  =  450.0 eV  33.07 Ry    5.75 a.u.   8.95  8.95 34.59*2*pi/ulx,y,z
   ENINI  =  450.0     initial cutoff
   ENAUG  =  644.9 eV  augmentation charge cutoff
   NELM   =     60;   NELMIN=  2; NELMDL= -5     # of ELM steps 
   EDIFF  = 0.1E-05   stopping-criterion for ELM
   LREAL  =      F    real-space projection
   NLSPLINE    = F    spline interpolate recip. space projectors
   LCOMPAT=      F    compatible to vasp.4.4
   GGA_COMPAT  = T    GGA compatible to vasp.4.4-vasp.4.6
   LMAXPAW     = -100 max onsite density
   LMAXMIX     =    2 max onsite mixed and CHGCAR
   VOSKOWN=      0    Vosko Wilk Nusair interpolation
   ROPT   =    0.00000   0.00000
 Ionic relaxation
   EDIFFG = -.1E-05   stopping-criterion for IOM
   NSW    =      0    number of steps for IOM
   NBLOCK =      1;   KBLOCK =      1    inner block; outer block 
   IBRION =     -1    ionic relax: 0-MD 1-quasi-New 2-CG
   NFREE  =      0    steps in history (QN), initial steepest desc. (CG)
   ISIF   =      2    stress and relaxation
   IWAVPR =     10    prediction:  0-non 1-charg 2-wave 3-comb
   ISYM   =      2    0-nonsym 1-usesym 2-fastsym
   LCORR  =      T    Harris-Foulkes like correction to forces

   POTIM  = 0.5000    time-step for ionic-motion
   TEIN   =    0.0    initial temperature
   TEBEG  =    0.0;   TEEND  =   0.0 temperature during run
   SMASS  =  -3.00    Nose mass-parameter (am)
   estimated Nose-frequenzy (Omega)   =  0.10E-29 period in steps =****** mass=  -0.612E-27a.u.
   SCALEE = 1.0000    scale energy and forces
   NPACO  =    256;   APACO  = 16.0  distance and # of slots for P.C.
   PSTRESS=    0.0 pullay stress

  Mass of Ions in am
   POMASS =  10.81 12.01
  Ionic Valenz
   ZVAL   =   3.00  4.00
  Atomic Wigner-Seitz radii
   RWIGS  =  -1.00 -1.00
  virtual crystal weights 
   VCA    =   1.00  1.00
   NELECT =      30.0000    total number of electrons
   NUPDOWN=      -1.0000    fix difference up-down

 DOS related values:
   EMIN   =  10.00;   EMAX   =-10.00  energy-range for DOS
   EFERMI =   0.00
   ISMEAR =    -5;   SIGMA  =   0.20  broadening in eV -4-tet -1-fermi 0-gaus

 Electronic relaxation 2 (details)
   IALGO  =     38    algorithm
   LDIAG  =      T    sub-space diagonalisation (order eigenvalues)
   LSUBROT=      F    optimize rotation matrix (better conditioning)
   TURBO    =      0    0=normal 1=particle mesh
   IRESTART =      0    0=no restart 2=restart with 2 vectors
   NREBOOT  =      0    no. of reboots
   NMIN     =      0    reboot dimension
   EREF     =   0.00    reference energy to select bands
   IMIX   =      4    mixing-type and parameters
     AMIX     =   0.40;   BMIX     =  1.00
     AMIX_MAG =   1.60;   BMIX_MAG =  1.00
     AMIN     =   0.10
     WC   =   100.;   INIMIX=   1;  MIXPRE=   1;  MAXMIX= -45

 Intra band minimization:
   WEIMIN = 0.0000     energy-eigenvalue tresh-hold
   EBREAK =  0.10E-08  absolut break condition
   DEPER  =   0.30     relativ break condition  

   TIME   =   0.40     timestep for ELM

  volume/ion in A,a.u.               =      57.96       391.15
  Fermi-wavevector in a.u.,A,eV,Ry     =   0.657211  1.241949  5.876713  0.431926
  Thomas-Fermi vector in A             =   1.728647
 
 Write flags
   LWAVE        =      T    write WAVECAR
   LDOWNSAMPLE  =      F    k-point downsampling of WAVECAR
   LCHARG       =      T    write CHGCAR
   LVTOT        =      F    write LOCPOT, total local potential
   LVHAR        =      F    write LOCPOT, Hartree potential only
   LELF         =      F    write electronic localiz. function (ELF)
   LORBIT       =      0    0 simple, 1 ext, 2 COOP (PROOUT), +10 PAW based schemes


 Dipole corrections
   LMONO  =      F    monopole corrections only (constant potential shift)
   LDIPOL =      F    correct potential (dipole corrections)
   IDIPOL =      0    1-x, 2-y, 3-z, 4-all directions 
   EPSILON=  1.0000000 bulk dielectric constant

 Exchange correlation treatment:
   GGA     =    --    GGA type
   LEXCH   =     8    internal setting for exchange type
   VOSKOWN=      0    Vosko Wilk Nusair interpolation
   LHFCALC =     F    Hartree Fock is set to
   LHFONE  =     F    Hartree Fock one center treatment
   AEXX    =    0.0000 exact exchange contribution

 Linear response parameters
   LEPSILON=     F    determine dielectric tensor
   LRPA    =     F    only Hartree local field effects (RPA)
   LNABLA  =     F    use nabla operator in PAW spheres
   LVEL    =     F    velocity operator in full k-point grid
   LINTERFAST=   F  fast interpolation
   KINTER  =     0    interpolate to denser k-point grid
   CSHIFT  =0.1000    complex shift for real part using Kramers Kronig
   OMEGAMAX=  -1.0    maximum frequency
   DEG_THRESHOLD= 0.2000000E-02 threshold for treating states as degnerate
   RTIME   =   -0.100 relaxation time in fs
  (WPLASMAI=    0.000 imaginary part of plasma frequency in eV, 0.658/RTIME)
   DFIELD  = 0.0000000 0.0000000 0.0000000 field for delta impulse in time
 
 Orbital magnetization related:
   ORBITALMAG=     F  switch on orbital magnetization
   LCHIMAG   =     F  perturbation theory with respect to B field
   DQ        =  0.001000  dq finite difference perturbation B field
   LLRAUG    =     F  two centre corrections for induced B field



--------------------------------------------------------------------------------------------------------


 Static calculation
 charge density and potential will be updated during run
 non-spin polarized calculation
 Variant of blocked Davidson
 Davidson routine will perform the subspace rotation
 perform sub-space diagonalisation
    after iterative eigenvector-optimisation
 modified Broyden-mixing scheme, WC =      100.0
 initial mixing is a Kerker type mixing with AMIX =  0.4000 and BMIX =      1.0000
 Hartree-type preconditioning will be used
 using additional bands            9
 reciprocal scheme for non local part
 use partial core corrections
 calculate Harris-corrections to forces 
   (improved forces if not selfconsistent)
 use gradient corrections 
 use of overlap-Matrix (Vanderbilt PP)
 Fermi weights with tetrahedron method with Bloechl corrections


--------------------------------------------------------------------------------------------------------


  energy-cutoff  :      450.00
  volume of cell :      463.69
      direct lattice vectors                 reciprocal lattice vectors
     5.174000000  0.000000000  0.000000000     0.193274063 -0.111582236  0.000000000
     2.587000000  4.481000000  0.000000000     0.000000000  0.223164472  0.000000000
     0.000000000  0.000000000 20.000000000     0.000000000  0.000000000  0.050000000

  length of vectors
     5.174000000  5.174159835 20.000000000     0.223171366  0.223164472  0.050000000


 
 k-points in units of 2pi/SCALE and weight: K-points for BC3                        
   0.00000000  0.00000000  0.00000000       0.004
   0.01207963 -0.00697389  0.00000000       0.016
   0.02415926 -0.01394778  0.00000000       0.016
   0.03623889 -0.02092167  0.00000000       0.016
   0.04831852 -0.02789556  0.00000000       0.016
   0.06039814 -0.03486945  0.00000000       0.016
   0.07247777 -0.04184334  0.00000000       0.016
   0.08455740 -0.04881723  0.00000000       0.016
   0.09663703 -0.05579112  0.00000000       0.008
   0.00000000  0.01394778  0.00000000       0.008
   0.02415926  0.00000000  0.00000000       0.008
   0.03623889 -0.00697389  0.00000000       0.016
   0.04831852 -0.01394778  0.00000000       0.016
   0.06039814 -0.02092167  0.00000000       0.016
   0.07247777 -0.02789556  0.00000000       0.016
   0.08455740 -0.03486945  0.00000000       0.016
   0.09663703 -0.04184334  0.00000000       0.016
  -0.08455740  0.06276501  0.00000000       0.016
  -0.07247777  0.05579112  0.00000000       0.016
  -0.06039814  0.04881723  0.00000000       0.016
  -0.04831852  0.04184334  0.00000000       0.016
  -0.03623889  0.03486945  0.00000000       0.016
  -0.02415926  0.02789556  0.00000000       0.016
  -0.01207963  0.02092167  0.00000000       0.016
   0.00000000  0.02789556  0.00000000       0.008
   0.04831852  0.00000000  0.00000000       0.008
   0.06039814 -0.00697389  0.00000000       0.016
   0.07247777 -0.01394778  0.00000000       0.016
   0.08455740 -0.02092167  0.00000000       0.016
   0.09663703 -0.02789556  0.00000000       0.016
  -0.08455740  0.07671279  0.00000000       0.016
  -0.07247777  0.06973890  0.00000000       0.016
  -0.06039814  0.06276501  0.00000000       0.016
  -0.04831852  0.05579112  0.00000000       0.016
  -0.03623889  0.04881723  0.00000000       0.016
  -0.02415926  0.04184334  0.00000000       0.016
  -0.01207963  0.03486945  0.00000000       0.016
   0.00000000  0.04184334  0.00000000       0.008
   0.07247777  0.00000000  0.00000000       0.008
   0.08455740 -0.00697389  0.00000000       0.016
   0.09663703 -0.01394778  0.00000000       0.016
  -0.08455740  0.09066057  0.00000000       0.016
  -0.07247777  0.08368668  0.00000000       0.016
  -0.06039814  0.07671279  0.00000000       0.016
  -0.04831852  0.06973890  0.00000000       0.016
  -0.03623889  0.06276501  0.00000000       0.016
  -0.02415926  0.05579112  0.00000000       0.016
  -0.01207963  0.04881723  0.00000000       0.016
   0.00000000  0.05579112  0.00000000       0.008
   0.09663703  0.00000000  0.00000000       0.008
  -0.08455740  0.10460835  0.00000000       0.016
  -0.07247777  0.09763446  0.00000000       0.016
  -0.06039814  0.09066057  0.00000000       0.016
  -0.04831852  0.08368668  0.00000000       0.016
  -0.03623889  0.07671279  0.00000000       0.016
  -0.02415926  0.06973890  0.00000000       0.016
  -0.01207963  0.06276501  0.00000000       0.016
   0.00000000  0.06973890  0.00000000       0.008
  -0.07247777  0.11158224  0.00000000       0.008
  -0.06039814  0.10460835  0.00000000       0.016
  -0.04831852  0.09763446  0.00000000       0.016
  -0.03623889  0.09066057  0.00000000       0.016
  -0.02415926  0.08368668  0.00000000       0.016
  -0.01207963  0.07671279  0.00000000       0.016
   0.00000000  0.08368668  0.00000000       0.008
  -0.04831852  0.11158224  0.00000000       0.008
  -0.03623889  0.10460835  0.00000000       0.016
  -0.02415926  0.09763446  0.00000000       0.016
  -0.01207963  0.09066057  0.00000000       0.016
   0.00000000  0.09763446  0.00000000       0.008
  -0.02415926  0.11158224  0.00000000       0.008
  -0.01207963  0.10460835  0.00000000       0.016
   0.00000000  0.11158224  0.00000000       0.004
 
 k-points in reciprocal lattice and weights: K-points for BC3                        
   0.00000000  0.00000000  0.00000000       0.004
   0.06250000 -0.00000000  0.00000000       0.016
   0.12500000 -0.00000000  0.00000000       0.016
   0.18750000 -0.00000000  0.00000000       0.016
   0.25000000 -0.00000000  0.00000000       0.016
   0.31250000 -0.00000000  0.00000000       0.016
   0.37500000 -0.00000000  0.00000000       0.016
   0.43750000 -0.00000000  0.00000000       0.016
   0.50000000 -0.00000000  0.00000000       0.008
   0.00000000  0.06250000  0.00000000       0.008
   0.12500000  0.06250000  0.00000000       0.008
   0.18750000  0.06250000  0.00000000       0.016
   0.25000000  0.06250000  0.00000000       0.016
   0.31250000  0.06250000  0.00000000       0.016
   0.37500000  0.06250000  0.00000000       0.016
   0.43750000  0.06250000  0.00000000       0.016
   0.50000000  0.06250000  0.00000000       0.016
  -0.43750000  0.06250000  0.00000000       0.016
  -0.37500000  0.06250000  0.00000000       0.016
  -0.31250000  0.06250000  0.00000000       0.016
  -0.25000000  0.06250000  0.00000000       0.016
  -0.18750000  0.06250000  0.00000000       0.016
  -0.12500000  0.06250000  0.00000000       0.016
  -0.06250000  0.06250000  0.00000000       0.016
   0.00000000  0.12500000  0.00000000       0.008
   0.25000000  0.12500000  0.00000000       0.008
   0.31250000  0.12500000  0.00000000       0.016
   0.37500000  0.12500000  0.00000000       0.016
   0.43750000  0.12500000  0.00000000       0.016
   0.50000000  0.12500000  0.00000000       0.016
  -0.43750000  0.12500000  0.00000000       0.016
  -0.37500000  0.12500000  0.00000000       0.016
  -0.31250000  0.12500000  0.00000000       0.016
  -0.25000000  0.12500000  0.00000000       0.016
  -0.18750000  0.12500000  0.00000000       0.016
  -0.12500000  0.12500000  0.00000000       0.016
  -0.06250000  0.12500000  0.00000000       0.016
   0.00000000  0.18750000  0.00000000       0.008
   0.37500000  0.18750000  0.00000000       0.008
   0.43750000  0.18750000  0.00000000       0.016
   0.50000000  0.18750000  0.00000000       0.016
  -0.43750000  0.18750000  0.00000000       0.016
  -0.37500000  0.18750000  0.00000000       0.016
  -0.31250000  0.18750000  0.00000000       0.016
  -0.25000000  0.18750000  0.00000000       0.016
  -0.18750000  0.18750000  0.00000000       0.016
  -0.12500000  0.18750000  0.00000000       0.016
  -0.06250000  0.18750000  0.00000000       0.016
   0.00000000  0.25000000  0.00000000       0.008
   0.50000000  0.25000000  0.00000000       0.008
  -0.43750000  0.25000000  0.00000000       0.016
  -0.37500000  0.25000000  0.00000000       0.016
  -0.31250000  0.25000000  0.00000000       0.016
  -0.25000000  0.25000000  0.00000000       0.016
  -0.18750000  0.25000000  0.00000000       0.016
  -0.12500000  0.25000000  0.00000000       0.016
  -0.06250000  0.25000000  0.00000000       0.016
   0.00000000  0.31250000  0.00000000       0.008
  -0.37500000  0.31250000  0.00000000       0.008
  -0.31250000  0.31250000  0.00000000       0.016
  -0.25000000  0.31250000  0.00000000       0.016
  -0.18750000  0.31250000  0.00000000       0.016
  -0.12500000  0.31250000  0.00000000       0.016
  -0.06250000  0.31250000  0.00000000       0.016
   0.00000000  0.37500000  0.00000000       0.008
  -0.25000000  0.37500000  0.00000000       0.008
  -0.18750000  0.37500000  0.00000000       0.016
  -0.12500000  0.37500000  0.00000000       0.016
  -0.06250000  0.37500000  0.00000000       0.016
   0.00000000  0.43750000  0.00000000       0.008
  -0.12500000  0.43750000  0.00000000       0.008
  -0.06250000  0.43750000  0.00000000       0.016
   0.00000000  0.50000000  0.00000000       0.004
 
 position of ions in fractional coordinates (direct lattice) 
   0.17457326  0.17462620  0.00000000
   0.50792519  0.50792234  0.00000000
   0.00000000  0.00000000  0.00000000
   0.52377271  0.00000000  0.00000000
   0.68255138  0.15866994  0.00000000
   0.99994706  0.52387860  0.00000000
   0.15872573  0.68254854  0.00000000
   0.68249844  0.68254854  0.00000000
 
 position of ions in cartesian coordinates  (Angst):
   1.35500000  0.78250000  0.00000000
   3.94200000  2.27600000  0.00000000
   0.00000000  0.00000000  0.00000000
   2.71000000  0.00000000  0.00000000
   3.94200000  0.71100000  0.00000000
   6.52900000  2.34750000  0.00000000
   2.58700000  3.05850000  0.00000000
   5.29700000  3.05850000  0.00000000
 


--------------------------------------------------------------------------------------------------------


 k-point  1 :   0.0000 0.0000 0.0000  plane waves:    9963
 k-point  2 :   0.0625-0.0000 0.0000  plane waves:    9993
 k-point  3 :   0.1250-0.0000 0.0000  plane waves:   10011
 k-point  4 :   0.1875-0.0000 0.0000  plane waves:   10035
 k-point  5 :   0.2500-0.0000 0.0000  plane waves:   10038
 k-point  6 :   0.3125-0.0000 0.0000  plane waves:   10030
 k-point  7 :   0.3750-0.0000 0.0000  plane waves:   10064
 k-point  8 :   0.4375-0.0000 0.0000  plane waves:   10042
 k-point  9 :   0.5000-0.0000 0.0000  plane waves:   10056
 k-point 10 :   0.0000 0.0625 0.0000  plane waves:    9993
 k-point 11 :   0.1250 0.0625 0.0000  plane waves:    9993
 k-point 12 :   0.1875 0.0625 0.0000  plane waves:   10018
 k-point 13 :   0.2500 0.0625 0.0000  plane waves:   10029
 k-point 14 :   0.3125 0.0625 0.0000  plane waves:   10035
 k-point 15 :   0.3750 0.0625 0.0000  plane waves:   10042
 k-point 16 :   0.4375 0.0625 0.0000  plane waves:   10048
 k-point 17 :   0.5000 0.0625 0.0000  plane waves:   10061
 k-point 18 :  -0.4375 0.0625 0.0000  plane waves:   10061
 k-point 19 :  -0.3750 0.0625 0.0000  plane waves:   10046
 k-point 20 :  -0.3125 0.0625 0.0000  plane waves:   10042
 k-point 21 :  -0.2500 0.0625 0.0000  plane waves:   10035
 k-point 22 :  -0.1875 0.0625 0.0000  plane waves:   10029
 k-point 23 :  -0.1250 0.0625 0.0000  plane waves:   10018
 k-point 24 :  -0.0625 0.0625 0.0000  plane waves:    9993
 k-point 25 :   0.0000 0.1250 0.0000  plane waves:   10013
 k-point 26 :   0.2500 0.1250 0.0000  plane waves:   10029
 k-point 27 :   0.3125 0.1250 0.0000  plane waves:   10032
 k-point 28 :   0.3750 0.1250 0.0000  plane waves:   10059
 k-point 29 :   0.4375 0.1250 0.0000  plane waves:   10065
 k-point 30 :   0.5000 0.1250 0.0000  plane waves:   10072
 k-point 31 :  -0.4375 0.1250 0.0000  plane waves:   10069
 k-point 32 :  -0.3750 0.1250 0.0000  plane waves:   10072
 k-point 33 :  -0.3125 0.1250 0.0000  plane waves:   10065
 k-point 34 :  -0.2500 0.1250 0.0000  plane waves:   10059
 k-point 35 :  -0.1875 0.1250 0.0000  plane waves:   10032
 k-point 36 :  -0.1250 0.1250 0.0000  plane waves:   10029
 k-point 37 :  -0.0625 0.1250 0.0000  plane waves:   10018
 k-point 38 :   0.0000 0.1875 0.0000  plane waves:   10035
 k-point 39 :   0.3750 0.1875 0.0000  plane waves:   10055
 k-point 40 :   0.4375 0.1875 0.0000  plane waves:   10071
 k-point 41 :   0.5000 0.1875 0.0000  plane waves:   10072
 k-point 42 :  -0.4375 0.1875 0.0000  plane waves:   10091
 k-point 43 :  -0.3750 0.1875 0.0000  plane waves:   10091
 k-point 44 :  -0.3125 0.1875 0.0000  plane waves:   10072
 k-point 45 :  -0.2500 0.1875 0.0000  plane waves:   10071
 k-point 46 :  -0.1875 0.1875 0.0000  plane waves:   10055
 k-point 47 :  -0.1250 0.1875 0.0000  plane waves:   10032
 k-point 48 :  -0.0625 0.1875 0.0000  plane waves:   10029
 k-point 49 :   0.0000 0.2500 0.0000  plane waves:   10040
 k-point 50 :   0.5000 0.2500 0.0000  plane waves:   10069
 k-point 51 :  -0.4375 0.2500 0.0000  plane waves:   10085
 k-point 52 :  -0.3750 0.2500 0.0000  plane waves:   10103
 k-point 53 :  -0.3125 0.2500 0.0000  plane waves:   10085
 k-point 54 :  -0.2500 0.2500 0.0000  plane waves:   10069
 k-point 55 :  -0.1875 0.2500 0.0000  plane waves:   10071
 k-point 56 :  -0.1250 0.2500 0.0000  plane waves:   10061
 k-point 57 :  -0.0625 0.2500 0.0000  plane waves:   10035
 k-point 58 :   0.0000 0.3125 0.0000  plane waves:   10030
 k-point 59 :  -0.3750 0.3125 0.0000  plane waves:   10089
 k-point 60 :  -0.3125 0.3125 0.0000  plane waves:   10089
 k-point 61 :  -0.2500 0.3125 0.0000  plane waves:   10085
 k-point 62 :  -0.1875 0.3125 0.0000  plane waves:   10072
 k-point 63 :  -0.1250 0.3125 0.0000  plane waves:   10065
 k-point 64 :  -0.0625 0.3125 0.0000  plane waves:   10042
 k-point 65 :   0.0000 0.3750 0.0000  plane waves:   10064
 k-point 66 :  -0.2500 0.3750 0.0000  plane waves:   10103
 k-point 67 :  -0.1875 0.3750 0.0000  plane waves:   10091
 k-point 68 :  -0.1250 0.3750 0.0000  plane waves:   10072
 k-point 69 :  -0.0625 0.3750 0.0000  plane waves:   10048
 k-point 70 :   0.0000 0.4375 0.0000  plane waves:   10042
 k-point 71 :  -0.1250 0.4375 0.0000  plane waves:   10065
 k-point 72 :  -0.0625 0.4375 0.0000  plane waves:   10061
 k-point 73 :   0.0000 0.5000 0.0000  plane waves:   10056

 maximum and minimum number of plane-waves per node :     10103     9963

 maximum number of plane-waves:     10103
 maximum index in each direction: 
   IXMAX=    9   IYMAX=    8   IZMAX=   34
   IXMIN=   -9   IYMIN=   -9   IZMIN=  -34


 serial   3D FFT for wavefunctions
 parallel 3D FFT for charge:
    minimum data exchange during FFTs selected (reduces bandwidth)


 total amount of memory used by VASP MPI-rank0   168401. kBytes
=======================================================================

   base      :      30000. kBytes
   nonl-proj :      95705. kBytes
   fftplans  :       4815. kBytes
   grid      :      14086. kBytes
   one-center:         24. kBytes
   wavefun   :      23771. kBytes
 
     INWAV:  cpu time    0.0000: real time    0.0000
 Broyden mixing: mesh for mixing (old mesh)
   NGX = 17   NGY = 17   NGZ = 69
  (NGX  = 72   NGY  = 72   NGZ  =280)
  gives a total of  19941 points

 initial charge density was supplied:
 charge density of overlapping atoms calculated
 number of electron      30.0000000 magnetization 
 keeping initial charge density in first step


--------------------------------------------------------------------------------------------------------


 Maximum index for augmentation-charges          407 (set IRDMAX)


--------------------------------------------------------------------------------------------------------


 First call to EWALD:  gamma=   0.229
 Maximum number of real-space cells 4x 4x 1
 Maximum number of reciprocal cells 2x 2x 6

    FEWALD:  cpu time    0.0018: real time    0.0022


--------------------------------------- Iteration      1(   1)  ---------------------------------------


    POTLOK:  cpu time    0.1455: real time    0.1467
    SETDIJ:  cpu time    0.0023: real time    0.0023
     EDDAV:  cpu time   11.8127: real time   11.8426
 BZINTS: Fermi energy:  5.017637; 30.000000 electrons
         Band energy:-195.216703;  BLOECHL correction: -0.108760
       DOS:  cpu time    0.0165: real time    0.0165
    --------------------------------------------
      LOOP:  cpu time   11.9770: real time   12.0081

 eigenvalue-minimisations  :  3804
 total energy-change (2. order) : 0.1936260E+03  (-0.9962051E+03)
 number of electron      30.0000000 magnetization 
 augmentation part       30.0000000 magnetization 

 Free energy of the ion-electron system (eV)
  ---------------------------------------------------
  alpha Z        PSCENC =        10.93933817
  Ewald energy   TEWEN  =      4060.05404224
  -Hartree energ DENC   =     -4796.78910906
  -exchange      EXHF   =         0.00000000
  -V(xc)+E(xc)   XCENC  =        91.14028263
  PAW double counting   =       738.13200929     -739.83780425
  entropy T*S    EENTRO =         0.00000000
  eigenvalues    EBANDS =      -195.21670318
  atomic energy  EATOM  =      1025.20389953
  Solvation  Ediel_sol  =         0.00000000
  ---------------------------------------------------
  free energy    TOTEN  =       193.62595538 eV

  energy without entropy =      193.62595538  energy(sigma->0) =      193.62595538


--------------------------------------------------------------------------------------------------------




--------------------------------------- Iteration      1(   2)  ---------------------------------------


     EDDAV:  cpu time   15.6463: real time   15.6779
 BZINTS: Fermi energy: -5.542658; 30.000000 electrons
         Band energy:-430.808099;  BLOECHL correction: -0.037137
       DOS:  cpu time    0.0144: real time    0.0144
    --------------------------------------------
      LOOP:  cpu time   15.6606: real time   15.6923

 eigenvalue-minimisations  :  5532
 total energy-change (2. order) :-0.2355914E+03  (-0.2234051E+03)
 number of electron      30.0000000 magnetization 
 augmentation part       30.0000000 magnetization 

 Free energy of the ion-electron system (eV)
  ---------------------------------------------------
  alpha Z        PSCENC =        10.93933817
  Ewald energy   TEWEN  =      4060.05404224
  -Hartree energ DENC   =     -4796.78910906
  -exchange      EXHF   =         0.00000000
  -V(xc)+E(xc)   XCENC  =        91.14028263
  PAW double counting   =       738.13200929     -739.83780425
  entropy T*S    EENTRO =         0.00000000
  eigenvalues    EBANDS =      -430.80809903
  atomic energy  EATOM  =      1025.20389953
  Solvation  Ediel_sol  =         0.00000000
  ---------------------------------------------------
  free energy    TOTEN  =       -41.96544047 eV

  energy without entropy =      -41.96544047  energy(sigma->0) =      -41.96544047


--------------------------------------------------------------------------------------------------------




--------------------------------------- Iteration      1(   3)  ---------------------------------------


     EDDAV:  cpu time   13.1022: real time   13.1258
 BZINTS: Fermi energy: -8.743384; 30.000000 electrons
         Band energy:-461.518628;  BLOECHL correction:  0.000000
       DOS:  cpu time    0.0033: real time    0.0033
    --------------------------------------------
      LOOP:  cpu time   13.1055: real time   13.1290

 eigenvalue-minimisations  :  4392
 total energy-change (2. order) :-0.3071053E+02  (-0.3047952E+02)
 number of electron      30.0000000 magnetization 
 augmentation part       30.0000000 magnetization 

 Free energy of the ion-electron system (eV)
  ---------------------------------------------------
  alpha Z        PSCENC =        10.93933817
  Ewald energy   TEWEN  =      4060.05404224
  -Hartree energ DENC   =     -4796.78910906
  -exchange      EXHF   =         0.00000000
  -V(xc)+E(xc)   XCENC  =        91.14028263
  PAW double counting   =       738.13200929     -739.83780425
  entropy T*S    EENTRO =         0.00000000
  eigenvalues    EBANDS =      -461.51862765
  atomic energy  EATOM  =      1025.20389953
  Solvation  Ediel_sol  =         0.00000000
  ---------------------------------------------------
  free energy    TOTEN  =       -72.67596910 eV

  energy without entropy =      -72.67596910  energy(sigma->0) =      -72.67596910


--------------------------------------------------------------------------------------------------------




--------------------------------------- Iteration      1(   4)  ---------------------------------------


     EDDAV:  cpu time   14.9089: real time   14.9399
 BZINTS: Fermi energy: -8.800535; 30.000000 electrons
         Band energy:-462.261839;  BLOECHL correction:  0.000000
       DOS:  cpu time    0.0032: real time    0.0032
    --------------------------------------------
      LOOP:  cpu time   14.9121: real time   14.9431

 eigenvalue-minimisations  :  5196
 total energy-change (2. order) :-0.7432118E+00  (-0.7412857E+00)
 number of electron      30.0000000 magnetization 
 augmentation part       30.0000000 magnetization 

 Free energy of the ion-electron system (eV)
  ---------------------------------------------------
  alpha Z        PSCENC =        10.93933817
  Ewald energy   TEWEN  =      4060.05404224
  -Hartree energ DENC   =     -4796.78910906
  -exchange      EXHF   =         0.00000000
  -V(xc)+E(xc)   XCENC  =        91.14028263
  PAW double counting   =       738.13200929     -739.83780425
  entropy T*S    EENTRO =         0.00000000
  eigenvalues    EBANDS =      -462.26183944
  atomic energy  EATOM  =      1025.20389953
  Solvation  Ediel_sol  =         0.00000000
  ---------------------------------------------------
  free energy    TOTEN  =       -73.41918089 eV

  energy without entropy =      -73.41918089  energy(sigma->0) =      -73.41918089


--------------------------------------------------------------------------------------------------------




--------------------------------------- Iteration      1(   5)  ---------------------------------------


     EDDAV:  cpu time   13.0482: real time   13.0893
 BZINTS: Fermi energy: -8.803879; 30.000000 electrons
         Band energy:-462.280108;  BLOECHL correction:  0.000000
       DOS:  cpu time    0.0032: real time    0.0032
    CHARGE:  cpu time    0.9594: real time    0.9612
    MIXING:  cpu time    0.0045: real time    0.0045
    --------------------------------------------
      LOOP:  cpu time   14.0153: real time   14.0582

 eigenvalue-minimisations  :  4368
 total energy-change (2. order) :-0.1826878E-01  (-0.1825893E-01)
 number of electron      30.0000000 magnetization 
 augmentation part        0.5818128 magnetization 

 Broyden mixing:
  rms(total) = 0.13115E+01    rms(broyden)= 0.13111E+01
  rms(prec ) = 0.14188E+01
  weight for this iteration     100.00

 Free energy of the ion-electron system (eV)
  ---------------------------------------------------
  alpha Z        PSCENC =        10.93933817
  Ewald energy   TEWEN  =      4060.05404224
  -Hartree energ DENC   =     -4796.78910906
  -exchange      EXHF   =         0.00000000
  -V(xc)+E(xc)   XCENC  =        91.14028263
  PAW double counting   =       738.13200929     -739.83780425
  entropy T*S    EENTRO =         0.00000000
  eigenvalues    EBANDS =      -462.28010823
  atomic energy  EATOM  =      1025.20389953
  Solvation  Ediel_sol  =         0.00000000
  ---------------------------------------------------
  free energy    TOTEN  =       -73.43744967 eV

  energy without entropy =      -73.43744967  energy(sigma->0) =      -73.43744967


--------------------------------------------------------------------------------------------------------




--------------------------------------- Iteration      1(   6)  ---------------------------------------


    POTLOK:  cpu time    0.1317: real time    0.1328
    SETDIJ:  cpu time    0.0022: real time    0.0022
     EDDAV:  cpu time   14.6845: real time   14.7183
 BZINTS: Fermi energy: -7.402864; 30.000000 electrons
         Band energy:-412.484920;  BLOECHL correction:  0.000000
       DOS:  cpu time    0.0033: real time    0.0033
    CHARGE:  cpu time    0.9488: real time    0.9503
    MIXING:  cpu time    0.0045: real time    0.0045
    --------------------------------------------
      LOOP:  cpu time   15.7750: real time   15.8114

 eigenvalue-minimisations  :  5064
 total energy-change (2. order) : 0.4459406E+01  (-0.5280536E+00)
 number of electron      30.0000001 magnetization 
 augmentation part        0.5388714 magnetization 

 Broyden mixing:
  rms(total) = 0.73977E+00    rms(broyden)= 0.73971E+00
  rms(prec ) = 0.79304E+00
  weight for this iteration     100.00

 eigenvalues of (default mixing * dielectric matrix)
  average eigenvalue GAMMA=   1.9787
  1.9787

 Free energy of the ion-electron system (eV)
  ---------------------------------------------------
  alpha Z        PSCENC =        10.93933817
  Ewald energy   TEWEN  =      4060.05404224
  -Hartree energ DENC   =     -4843.57996321
  -exchange      EXHF   =         0.00000000
  -V(xc)+E(xc)   XCENC  =        93.15427164
  PAW double counting   =      1378.48906058    -1380.75377345
  entropy T*S    EENTRO =         0.00000000
  eigenvalues    EBANDS =      -412.48491961
  atomic energy  EATOM  =      1025.20389953
  Solvation  Ediel_sol  =         0.00000000
  ---------------------------------------------------
  free energy    TOTEN  =       -68.97804411 eV

  energy without entropy =      -68.97804411  energy(sigma->0) =      -68.97804411


--------------------------------------------------------------------------------------------------------




--------------------------------------- Iteration      1(   7)  ---------------------------------------


    POTLOK:  cpu time    0.1315: real time    0.1317
    SETDIJ:  cpu time    0.0022: real time    0.0022
     EDDAV:  cpu time   14.8355: real time   14.8659
 BZINTS: Fermi energy: -5.611669; 30.000000 electrons
         Band energy:-359.783058;  BLOECHL correction:  0.000000
       DOS:  cpu time    0.0033: real time    0.0033
    CHARGE:  cpu time    0.9398: real time    0.9413
    MIXING:  cpu time    0.0047: real time    0.0047
    --------------------------------------------
      LOOP:  cpu time   15.9169: real time   15.9490

 eigenvalue-minimisations  :  5160
 total energy-change (2. order) : 0.1644982E+01  (-0.3974541E+00)
 number of electron      30.0000002 magnetization 
 augmentation part        0.5030817 magnetization 

 Broyden mixing:
  rms(total) = 0.21568E+00    rms(broyden)= 0.21558E+00
  rms(prec ) = 0.22882E+00
  weight for this iteration     100.00

 eigenvalues of (default mixing * dielectric matrix)
  average eigenvalue GAMMA=   1.9256
  1.4646  2.3865

 Free energy of the ion-electron system (eV)
  ---------------------------------------------------
  alpha Z        PSCENC =        10.93933817
  Ewald energy   TEWEN  =      4060.05404224
  -Hartree energ DENC   =     -4896.45342603
  -exchange      EXHF   =         0.00000000
  -V(xc)+E(xc)   XCENC  =        95.38677695
  PAW double counting   =      2463.60852827    -2466.28916292
  entropy T*S    EENTRO =         0.00000000
  eigenvalues    EBANDS =      -359.78305820
  atomic energy  EATOM  =      1025.20389953
  Solvation  Ediel_sol  =         0.00000000
  ---------------------------------------------------
  free energy    TOTEN  =       -67.33306199 eV

  energy without entropy =      -67.33306199  energy(sigma->0) =      -67.33306199


--------------------------------------------------------------------------------------------------------




--------------------------------------- Iteration      1(   8)  ---------------------------------------


    POTLOK:  cpu time    0.1322: real time    0.1324
    SETDIJ:  cpu time    0.0021: real time    0.0021
     EDDAV:  cpu time   15.3398: real time   15.3778
 BZINTS: Fermi energy: -5.095727; 30.000000 electrons
         Band energy:-345.617399;  BLOECHL correction:  0.000000
       DOS:  cpu time    0.0032: real time    0.0032
    CHARGE:  cpu time    0.9414: real time    0.9432
    MIXING:  cpu time    0.0049: real time    0.0049
    --------------------------------------------
      LOOP:  cpu time   16.4236: real time   16.4636

 eigenvalue-minimisations  :  5340
 total energy-change (2. order) : 0.8051574E-01  (-0.2142871E-01)
 number of electron      30.0000002 magnetization 
 augmentation part        0.4970099 magnetization 

 Broyden mixing:
  rms(total) = 0.57946E-01    rms(broyden)= 0.57929E-01
  rms(prec ) = 0.72975E-01
  weight for this iteration     100.00

 eigenvalues of (default mixing * dielectric matrix)
  average eigenvalue GAMMA=   1.8297
  1.1541  2.1674  2.1674

 Free energy of the ion-electron system (eV)
  ---------------------------------------------------
  alpha Z        PSCENC =        10.93933817
  Ewald energy   TEWEN  =      4060.05404224
  -Hartree energ DENC   =     -4910.99914094
  -exchange      EXHF   =         0.00000000
  -V(xc)+E(xc)   XCENC  =        95.78068625
  PAW double counting   =      2857.34292754    -2859.95690051
  entropy T*S    EENTRO =         0.00000000
  eigenvalues    EBANDS =      -345.61739853
  atomic energy  EATOM  =      1025.20389953
  Solvation  Ediel_sol  =         0.00000000
  ---------------------------------------------------
  free energy    TOTEN  =       -67.25254625 eV

  energy without entropy =      -67.25254625  energy(sigma->0) =      -67.25254625


--------------------------------------------------------------------------------------------------------




--------------------------------------- Iteration      1(   9)  ---------------------------------------


    POTLOK:  cpu time    0.1335: real time    0.1360
    SETDIJ:  cpu time    0.0022: real time    0.0022
     EDDAV:  cpu time   12.9463: real time   12.9873
 BZINTS: Fermi energy: -4.893571; 30.000000 electrons
         Band energy:-339.588066;  BLOECHL correction:  0.000000
       DOS:  cpu time    0.0033: real time    0.0033
    CHARGE:  cpu time    0.9331: real time    0.9348
    MIXING:  cpu time    0.0047: real time    0.0047
    --------------------------------------------
      LOOP:  cpu time   14.0231: real time   14.0683

 eigenvalue-minimisations  :  4320
 total energy-change (2. order) : 0.1774344E-01  (-0.1732106E-02)
 number of electron      30.0000002 magnetization 
 augmentation part        0.4975331 magnetization 

 Broyden mixing:
  rms(total) = 0.17549E-01    rms(broyden)= 0.17545E-01
  rms(prec ) = 0.35894E-01
  weight for this iteration     100.00

 eigenvalues of (default mixing * dielectric matrix)
  average eigenvalue GAMMA=   1.8497
  1.1098  2.3964  2.3964  1.4963

 Free energy of the ion-electron system (eV)
  ---------------------------------------------------
  alpha Z        PSCENC =        10.93933817
  Ewald energy   TEWEN  =      4060.05404224
  -Hartree energ DENC   =     -4917.12866614
  -exchange      EXHF   =         0.00000000
  -V(xc)+E(xc)   XCENC  =        95.82780028
  PAW double counting   =      2907.22914168    -2909.77229237
  entropy T*S    EENTRO =         0.00000000
  eigenvalues    EBANDS =      -339.58806620
  atomic energy  EATOM  =      1025.20389953
  Solvation  Ediel_sol  =         0.00000000
  ---------------------------------------------------
  free energy    TOTEN  =       -67.23480281 eV

  energy without entropy =      -67.23480281  energy(sigma->0) =      -67.23480281


--------------------------------------------------------------------------------------------------------




--------------------------------------- Iteration      1(  10)  ---------------------------------------


    POTLOK:  cpu time    0.1331: real time    0.1343
    SETDIJ:  cpu time    0.0022: real time    0.0021
     EDDAV:  cpu time   13.3504: real time   13.3827
 BZINTS: Fermi energy: -4.609233; 30.000000 electrons
         Band energy:-330.854077;  BLOECHL correction:  0.000000
       DOS:  cpu time    0.0032: real time    0.0032
    CHARGE:  cpu time    0.9366: real time    0.9380
    MIXING:  cpu time    0.0048: real time    0.0048
    --------------------------------------------
      LOOP:  cpu time   14.4302: real time   14.4651

 eigenvalue-minimisations  :  4512
 total energy-change (2. order) : 0.1150641E-01  (-0.1041602E-02)
 number of electron      30.0000002 magnetization 
 augmentation part        0.4963428 magnetization 

 Broyden mixing:
  rms(total) = 0.12826E-01    rms(broyden)= 0.12822E-01
  rms(prec ) = 0.22557E-01
  weight for this iteration     100.00

 eigenvalues of (default mixing * dielectric matrix)
  average eigenvalue GAMMA=   1.9399
  2.7541  2.7541  0.9697  1.2878  1.9338

 Free energy of the ion-electron system (eV)
  ---------------------------------------------------
  alpha Z        PSCENC =        10.93933817
  Ewald energy   TEWEN  =      4060.05404224
  -Hartree energ DENC   =     -4925.99172725
  -exchange      EXHF   =         0.00000000
  -V(xc)+E(xc)   XCENC  =        95.94975464
  PAW double counting   =      2918.89749442    -2921.42202150
  entropy T*S    EENTRO =         0.00000000
  eigenvalues    EBANDS =      -330.85407664
  atomic energy  EATOM  =      1025.20389953
  Solvation  Ediel_sol  =         0.00000000
  ---------------------------------------------------
  free energy    TOTEN  =       -67.22329640 eV

  energy without entropy =      -67.22329640  energy(sigma->0) =      -67.22329640


--------------------------------------------------------------------------------------------------------




--------------------------------------- Iteration      1(  11)  ---------------------------------------


    POTLOK:  cpu time    0.1341: real time    0.1344
    SETDIJ:  cpu time    0.0022: real time    0.0022
     EDDAV:  cpu time   12.3042: real time   12.3250
 BZINTS: Fermi energy: -4.390448; 30.000000 electrons
         Band energy:-324.462343;  BLOECHL correction:  0.000000
       DOS:  cpu time    0.0032: real time    0.0032
    CHARGE:  cpu time    0.9609: real time    0.9627
    MIXING:  cpu time    0.0050: real time    0.0050
    --------------------------------------------
      LOOP:  cpu time   13.4096: real time   13.4324

 eigenvalue-minimisations  :  4020
 total energy-change (2. order) : 0.6467742E-03  (-0.4737576E-03)
 number of electron      30.0000002 magnetization 
 augmentation part        0.4957803 magnetization 

 Broyden mixing:
  rms(total) = 0.57303E-02    rms(broyden)= 0.57265E-02
  rms(prec ) = 0.11262E-01
  weight for this iteration     100.00

 eigenvalues of (default mixing * dielectric matrix)
  average eigenvalue GAMMA=   2.1499
  4.5450  2.4920  2.0783  0.9431  1.2258  1.6154

 Free energy of the ion-electron system (eV)
  ---------------------------------------------------
  alpha Z        PSCENC =        10.93933817
  Ewald energy   TEWEN  =      4060.05404224
  -Hartree energ DENC   =     -4932.43576892
  -exchange      EXHF   =         0.00000000
  -V(xc)+E(xc)   XCENC  =        96.00695076
  PAW double counting   =      2893.21804719    -2895.74681546
  entropy T*S    EENTRO =         0.00000000
  eigenvalues    EBANDS =      -324.46234314
  atomic energy  EATOM  =      1025.20389953
  Solvation  Ediel_sol  =         0.00000000
  ---------------------------------------------------
  free energy    TOTEN  =       -67.22264963 eV

  energy without entropy =      -67.22264963  energy(sigma->0) =      -67.22264963


--------------------------------------------------------------------------------------------------------




--------------------------------------- Iteration      1(  12)  ---------------------------------------


    POTLOK:  cpu time    0.1330: real time    0.1332
    SETDIJ:  cpu time    0.0022: real time    0.0022
     EDDAV:  cpu time   11.8387: real time   11.8651
 BZINTS: Fermi energy: -4.265044; 30.000000 electrons
         Band energy:-320.650933;  BLOECHL correction:  0.000000
       DOS:  cpu time    0.0032: real time    0.0032
    CHARGE:  cpu time    0.9380: real time    0.9397
    MIXING:  cpu time    0.0050: real time    0.0050
    --------------------------------------------
      LOOP:  cpu time   12.9201: real time   12.9484

 eigenvalue-minimisations  :  3840
 total energy-change (2. order) :-0.1912645E-03  (-0.1436323E-03)
 number of electron      30.0000002 magnetization 
 augmentation part        0.4956118 magnetization 

 Broyden mixing:
  rms(total) = 0.36092E-02    rms(broyden)= 0.36076E-02
  rms(prec ) = 0.63689E-02
  weight for this iteration     100.00

 eigenvalues of (default mixing * dielectric matrix)
  average eigenvalue GAMMA=   2.3491
  5.8995  2.8203  2.3524  1.9366  0.9736  1.1523  1.3087

 Free energy of the ion-electron system (eV)
  ---------------------------------------------------
  alpha Z        PSCENC =        10.93933817
  Ewald energy   TEWEN  =      4060.05404224
  -Hartree energ DENC   =     -4936.27343813
  -exchange      EXHF   =         0.00000000
  -V(xc)+E(xc)   XCENC  =        96.03129425
  PAW double counting   =      2891.67028484    -2894.19732920
  entropy T*S    EENTRO =         0.00000000
  eigenvalues    EBANDS =      -320.65093259
  atomic energy  EATOM  =      1025.20389953
  Solvation  Ediel_sol  =         0.00000000
  ---------------------------------------------------
  free energy    TOTEN  =       -67.22284089 eV

  energy without entropy =      -67.22284089  energy(sigma->0) =      -67.22284089


--------------------------------------------------------------------------------------------------------




--------------------------------------- Iteration      1(  13)  ---------------------------------------


    POTLOK:  cpu time    0.1320: real time    0.1322
    SETDIJ:  cpu time    0.0021: real time    0.0021
     EDDAV:  cpu time   11.5384: real time   11.5615
 BZINTS: Fermi energy: -4.250427; 30.000000 electrons
         Band energy:-319.199617;  BLOECHL correction:  0.000000
       DOS:  cpu time    0.0028: real time    0.0028
    CHARGE:  cpu time    0.9416: real time    0.9430
    MIXING:  cpu time    0.0052: real time    0.0052
    --------------------------------------------
      LOOP:  cpu time   12.6220: real time   12.6468

 eigenvalue-minimisations  :  3696
 total energy-change (2. order) :-0.4222097E-02  (-0.4790408E-04)
 number of electron      30.0000002 magnetization 
 augmentation part        0.4954860 magnetization 

 Broyden mixing:
  rms(total) = 0.21161E-02    rms(broyden)= 0.21156E-02
  rms(prec ) = 0.31375E-02
  weight for this iteration     100.00

 eigenvalues of (default mixing * dielectric matrix)
  average eigenvalue GAMMA=   2.4937
  6.6400  3.7204  2.5219  2.1360  1.6031  1.3217  1.0032  1.0032

 Free energy of the ion-electron system (eV)
  ---------------------------------------------------
  alpha Z        PSCENC =        10.93933817
  Ewald energy   TEWEN  =      4060.05404224
  -Hartree energ DENC   =     -4937.72067273
  -exchange      EXHF   =         0.00000000
  -V(xc)+E(xc)   XCENC  =        96.02440548
  PAW double counting   =      2891.17259048    -2893.70104956
  entropy T*S    EENTRO =         0.00000000
  eigenvalues    EBANDS =      -319.19961659
  atomic energy  EATOM  =      1025.20389953
  Solvation  Ediel_sol  =         0.00000000
  ---------------------------------------------------
  free energy    TOTEN  =       -67.22706299 eV

  energy without entropy =      -67.22706299  energy(sigma->0) =      -67.22706299


--------------------------------------------------------------------------------------------------------




--------------------------------------- Iteration      1(  14)  ---------------------------------------


    POTLOK:  cpu time    0.1335: real time    0.1352
    SETDIJ:  cpu time    0.0022: real time    0.0022
     EDDAV:  cpu time   12.3420: real time   12.3673
 BZINTS: Fermi energy: -4.244573; 30.000000 electrons
         Band energy:-318.865023;  BLOECHL correction:  0.000000
       DOS:  cpu time    0.0028: real time    0.0028
    CHARGE:  cpu time    0.9399: real time    0.9417
    MIXING:  cpu time    0.0051: real time    0.0051
    --------------------------------------------
      LOOP:  cpu time   13.4255: real time   13.4542

 eigenvalue-minimisations  :  4068
 total energy-change (2. order) :-0.2598363E-02  (-0.3587425E-04)
 number of electron      30.0000002 magnetization 
 augmentation part        0.4955015 magnetization 

 Broyden mixing:
  rms(total) = 0.12905E-02    rms(broyden)= 0.12905E-02
  rms(prec ) = 0.16067E-02
  weight for this iteration     100.00

 eigenvalues of (default mixing * dielectric matrix)
  average eigenvalue GAMMA=   2.5692
  7.7897  3.7971  2.4848  2.4848  2.0104  0.9712  0.9905  1.2970  1.2970

 Free energy of the ion-electron system (eV)
  ---------------------------------------------------
  alpha Z        PSCENC =        10.93933817
  Ewald energy   TEWEN  =      4060.05404224
  -Hartree energ DENC   =     -4938.05203060
  -exchange      EXHF   =         0.00000000
  -V(xc)+E(xc)   XCENC  =        96.01654763
  PAW double counting   =      2896.21710716    -2898.74354254
  entropy T*S    EENTRO =         0.00000000
  eigenvalues    EBANDS =      -318.86502294
  atomic energy  EATOM  =      1025.20389953
  Solvation  Ediel_sol  =         0.00000000
  ---------------------------------------------------
  free energy    TOTEN  =       -67.22966135 eV

  energy without entropy =      -67.22966135  energy(sigma->0) =      -67.22966135


--------------------------------------------------------------------------------------------------------




--------------------------------------- Iteration      1(  15)  ---------------------------------------


    POTLOK:  cpu time    0.1326: real time    0.1338
    SETDIJ:  cpu time    0.0022: real time    0.0022
     EDDAV:  cpu time   11.7036: real time   11.7263
 BZINTS: Fermi energy: -4.220974; 30.000000 electrons
         Band energy:-318.510814;  BLOECHL correction:  0.000000
       DOS:  cpu time    0.0032: real time    0.0032
    CHARGE:  cpu time    0.9594: real time    0.9610
    MIXING:  cpu time    0.0054: real time    0.0054
    --------------------------------------------
      LOOP:  cpu time   12.8064: real time   12.8318

 eigenvalue-minimisations  :  3756
 total energy-change (2. order) :-0.5295940E-03  (-0.3522535E-05)
 number of electron      30.0000002 magnetization 
 augmentation part        0.4954587 magnetization 

 Broyden mixing:
  rms(total) = 0.44220E-03    rms(broyden)= 0.44210E-03
  rms(prec ) = 0.69983E-03
  weight for this iteration     100.00

 eigenvalues of (default mixing * dielectric matrix)
  average eigenvalue GAMMA=   2.6353
  8.0420  4.6946  2.6331  2.6331  2.1336  1.8394  1.2366  1.1991  0.9705  0.9705

 Free energy of the ion-electron system (eV)
  ---------------------------------------------------
  alpha Z        PSCENC =        10.93933817
  Ewald energy   TEWEN  =      4060.05404224
  -Hartree energ DENC   =     -4938.40967890
  -exchange      EXHF   =         0.00000000
  -V(xc)+E(xc)   XCENC  =        96.02007741
  PAW double counting   =      2893.65499987    -2896.18205551
  entropy T*S    EENTRO =         0.00000000
  eigenvalues    EBANDS =      -318.51081376
  atomic energy  EATOM  =      1025.20389953
  Solvation  Ediel_sol  =         0.00000000
  ---------------------------------------------------
  free energy    TOTEN  =       -67.23019095 eV

  energy without entropy =      -67.23019095  energy(sigma->0) =      -67.23019095


--------------------------------------------------------------------------------------------------------




--------------------------------------- Iteration      1(  16)  ---------------------------------------


    POTLOK:  cpu time    0.1342: real time    0.1343
    SETDIJ:  cpu time    0.0021: real time    0.0021
     EDDAV:  cpu time   11.4012: real time   11.4254
 BZINTS: Fermi energy: -4.217686; 30.000000 electrons
         Band energy:-318.503852;  BLOECHL correction:  0.000000
       DOS:  cpu time    0.0032: real time    0.0032
    CHARGE:  cpu time    0.9399: real time    0.9407
    MIXING:  cpu time    0.0054: real time    0.0054
    --------------------------------------------
      LOOP:  cpu time   12.4861: real time   12.5112

 eigenvalue-minimisations  :  3624
 total energy-change (2. order) :-0.3351977E-03  (-0.3564017E-05)
 number of electron      30.0000002 magnetization 
 augmentation part        0.4954575 magnetization 

 Broyden mixing:
  rms(total) = 0.17638E-03    rms(broyden)= 0.17634E-03
  rms(prec ) = 0.32828E-03
  weight for this iteration     100.00

 eigenvalues of (default mixing * dielectric matrix)
  average eigenvalue GAMMA=   2.5815
  8.3252  4.9916  2.9937  2.4589  2.2519  1.9852  1.2700  1.2700  0.9963  0.9758
  0.8784

 Free energy of the ion-electron system (eV)
  ---------------------------------------------------
  alpha Z        PSCENC =        10.93933817
  Ewald energy   TEWEN  =      4060.05404224
  -Hartree energ DENC   =     -4938.41548958
  -exchange      EXHF   =         0.00000000
  -V(xc)+E(xc)   XCENC  =        96.01868654
  PAW double counting   =      2893.44322021    -2895.97037112
  entropy T*S    EENTRO =         0.00000000
  eigenvalues    EBANDS =      -318.50385214
  atomic energy  EATOM  =      1025.20389953
  Solvation  Ediel_sol  =         0.00000000
  ---------------------------------------------------
  free energy    TOTEN  =       -67.23052614 eV

  energy without entropy =      -67.23052614  energy(sigma->0) =      -67.23052614


--------------------------------------------------------------------------------------------------------




--------------------------------------- Iteration      1(  17)  ---------------------------------------


    POTLOK:  cpu time    0.1326: real time    0.1338
    SETDIJ:  cpu time    0.0022: real time    0.0022
     EDDAV:  cpu time   12.3850: real time   12.4060
 BZINTS: Fermi energy: -4.212771; 30.000000 electrons
         Band energy:-318.467843;  BLOECHL correction:  0.000000
       DOS:  cpu time    0.0032: real time    0.0032
    CHARGE:  cpu time    0.9427: real time    0.9443
    MIXING:  cpu time    0.0055: real time    0.0055
    --------------------------------------------
      LOOP:  cpu time   13.4712: real time   13.4951

 eigenvalue-minimisations  :  4080
 total energy-change (2. order) :-0.5058938E-04  (-0.2897724E-06)
 number of electron      30.0000002 magnetization 
 augmentation part        0.4954598 magnetization 

 Broyden mixing:
  rms(total) = 0.13691E-03    rms(broyden)= 0.13689E-03
  rms(prec ) = 0.24768E-03
  weight for this iteration     100.00

 eigenvalues of (default mixing * dielectric matrix)
  average eigenvalue GAMMA=   2.6406
  8.3957  5.2540  3.1490  3.0537  2.3946  2.0421  1.9736  1.2269  1.2269  0.9652
  1.0030  1.0030

 Free energy of the ion-electron system (eV)
  ---------------------------------------------------
  alpha Z        PSCENC =        10.93933817
  Ewald energy   TEWEN  =      4060.05404224
  -Hartree energ DENC   =     -4938.45176875
  -exchange      EXHF   =         0.00000000
  -V(xc)+E(xc)   XCENC  =        96.01871347
  PAW double counting   =      2893.63696092    -2896.16391895
  entropy T*S    EENTRO =         0.00000000
  eigenvalues    EBANDS =      -318.46784336
  atomic energy  EATOM  =      1025.20389953
  Solvation  Ediel_sol  =         0.00000000
  ---------------------------------------------------
  free energy    TOTEN  =       -67.23057673 eV

  energy without entropy =      -67.23057673  energy(sigma->0) =      -67.23057673


--------------------------------------------------------------------------------------------------------




--------------------------------------- Iteration      1(  18)  ---------------------------------------


    POTLOK:  cpu time    0.1325: real time    0.1327
    SETDIJ:  cpu time    0.0022: real time    0.0022
     EDDAV:  cpu time   12.0907: real time   12.1176
 BZINTS: Fermi energy: -4.229573; 30.000000 electrons
         Band energy:-318.402054;  BLOECHL correction:  0.000000
       DOS:  cpu time    0.0032: real time    0.0032
    CHARGE:  cpu time    0.9428: real time    0.9445
    MIXING:  cpu time    0.0058: real time    0.0058
    --------------------------------------------
      LOOP:  cpu time   13.1772: real time   13.2060

 eigenvalue-minimisations  :  3936
 total energy-change (2. order) :-0.3826451E-04  (-0.2881093E-06)
 number of electron      30.0000002 magnetization 
 augmentation part        0.4954535 magnetization 

 Broyden mixing:
  rms(total) = 0.10680E-03    rms(broyden)= 0.10679E-03
  rms(prec ) = 0.14646E-03
  weight for this iteration     100.00

 eigenvalues of (default mixing * dielectric matrix)
  average eigenvalue GAMMA=   2.5612
  8.3563  5.4664  3.6552  2.8509  2.4805  2.1598  1.8912  1.2415  1.2415  0.9853
  0.9666  1.0000  1.0000

 Free energy of the ion-electron system (eV)
  ---------------------------------------------------
  alpha Z        PSCENC =        10.93933817
  Ewald energy   TEWEN  =      4060.05404224
  -Hartree energ DENC   =     -4938.51762564
  -exchange      EXHF   =         0.00000000
  -V(xc)+E(xc)   XCENC  =        96.01883852
  PAW double counting   =      2893.49094455    -2896.01799868
  entropy T*S    EENTRO =         0.00000000
  eigenvalues    EBANDS =      -318.40205369
  atomic energy  EATOM  =      1025.20389953
  Solvation  Ediel_sol  =         0.00000000
  ---------------------------------------------------
  free energy    TOTEN  =       -67.23061500 eV

  energy without entropy =      -67.23061500  energy(sigma->0) =      -67.23061500


--------------------------------------------------------------------------------------------------------




--------------------------------------- Iteration      1(  19)  ---------------------------------------


    POTLOK:  cpu time    0.1329: real time    0.1358
    SETDIJ:  cpu time    0.0022: real time    0.0022
     EDDAV:  cpu time   11.4245: real time   11.4448
 BZINTS: Fermi energy: -4.235826; 30.000000 electrons
         Band energy:-318.388801;  BLOECHL correction:  0.000000
       DOS:  cpu time    0.0032: real time    0.0032
    CHARGE:  cpu time    0.9421: real time    0.9435
    MIXING:  cpu time    0.0059: real time    0.0059
    --------------------------------------------
      LOOP:  cpu time   12.5109: real time   12.5355

 eigenvalue-minimisations  :  3636
 total energy-change (2. order) :-0.5562042E-05  (-0.1416705E-07)
 number of electron      30.0000002 magnetization 
 augmentation part        0.4954553 magnetization 

 Broyden mixing:
  rms(total) = 0.50733E-04    rms(broyden)= 0.50728E-04
  rms(prec ) = 0.86511E-04
  weight for this iteration     100.00

 eigenvalues of (default mixing * dielectric matrix)
  average eigenvalue GAMMA=   2.6640
  8.3889  5.9405  4.3776  3.1742  2.5193  2.5193  2.0792  1.8964  1.2671  1.1546
  0.9670  0.9848  1.0136  1.0136

 Free energy of the ion-electron system (eV)
  ---------------------------------------------------
  alpha Z        PSCENC =        10.93933817
  Ewald energy   TEWEN  =      4060.05404224
  -Hartree energ DENC   =     -4938.53093035
  -exchange      EXHF   =         0.00000000
  -V(xc)+E(xc)   XCENC  =        96.01879940
  PAW double counting   =      2893.59481247    -2896.12178088
  entropy T*S    EENTRO =         0.00000000
  eigenvalues    EBANDS =      -318.38880114
  atomic energy  EATOM  =      1025.20389953
  Solvation  Ediel_sol  =         0.00000000
  ---------------------------------------------------
  free energy    TOTEN  =       -67.23062056 eV

  energy without entropy =      -67.23062056  energy(sigma->0) =      -67.23062056


--------------------------------------------------------------------------------------------------------




--------------------------------------- Iteration      1(  20)  ---------------------------------------


    POTLOK:  cpu time    0.1336: real time    0.1346
    SETDIJ:  cpu time    0.0022: real time    0.0022
     EDDAV:  cpu time   10.8911: real time   10.9176
 BZINTS: Fermi energy: -4.235089; 30.000000 electrons
         Band energy:-318.366979;  BLOECHL correction:  0.000000
       DOS:  cpu time    0.0032: real time    0.0032
    CHARGE:  cpu time    0.9363: real time    0.9378
    MIXING:  cpu time    0.0062: real time    0.0062
    --------------------------------------------
      LOOP:  cpu time   11.9726: real time   12.0016

[...]
      1     -19.6887      2.00000
      2     -17.8352      2.00000
      3     -17.4645      2.00000
      4     -13.6934      2.00000
      5     -13.0468      2.00000
      6     -11.0809      2.00000
      7      -9.5702      2.00000
      8      -8.7629      2.00000
      9      -8.2746      2.00000
     10      -7.9426      2.00000
     11      -7.5530      2.00000
     12      -6.8319      2.00000
     13      -6.7205      2.00000
     14      -6.2072      2.00000
     15      -6.1605      2.00000
     16      -2.4278      0.00000
     17      -1.2195      0.00000
     18       2.1670      0.00000
     19       2.7293      0.00000
     20       3.0760      0.00000
     21       3.1609      0.00000
     22       3.2688      0.00000
     23       3.5295      0.00000
     24       3.5837      0.00000

 k-point    62 :      -0.1875    0.3125    0.0000
  band No.  band energies     occupation 
      1     -19.7532      2.00000
      2     -17.8362      2.00000
      3     -17.2557      2.00000
      4     -13.9935      2.00000
      5     -12.9603      2.00000
      6     -10.7715      2.00000
      7     -10.0806      2.00000
      8      -9.0238      2.00000
      9      -8.2886      2.00000
     10      -8.1096      2.00000
     11      -7.2607      2.00000
     12      -6.7249      2.00000
     13      -6.6833      2.00000
     14      -5.8762      2.00000
     15      -5.7852      2.00000
     16      -2.8023      0.00000
     17      -0.8482      0.00000
     18       1.8240      0.00000
     19       2.2290      0.00000
     20       2.6822      0.00000
     21       2.9186      0.00000
     22       3.1879      0.00000
     23       3.3669      0.00000
     24       3.8798      0.00000

 k-point    63 :      -0.1250    0.3125    0.0000
  band No.  band energies     occupation 
      1     -19.8306      2.00000
      2     -17.7851      2.00000
      3     -17.0412      2.00000
      4     -14.2625      2.00000
      5     -12.9036      2.00000
      6     -10.7525      2.00000
      7     -10.2500      2.00000
      8      -9.3428      2.00000
      9      -8.3401      2.00000
     10      -8.2842      2.00000
     11      -6.9552      2.00000
     12      -6.5839      2.00000
     13      -6.5348      2.00000
     14      -5.5317      2.00000
     15      -5.4431      2.00000
     16      -3.1331      0.00000
     17      -0.4931      0.00000
     18       1.5374      0.00000
     19       1.6442      0.00000
     20       2.3284      0.00000
     21       2.6267      0.00000
     22       3.0767      0.00000
     23       3.3556      0.00000
     24       3.6553      0.00000

 k-point    64 :      -0.0625    0.3125    0.0000
  band No.  band energies     occupation 
      1     -19.9072      2.00000
      2     -17.6908      2.00000
      3     -16.8644      2.00000
      4     -14.4417      2.00000
      5     -12.8975      2.00000
      6     -11.1617      2.00000
      7      -9.9710      2.00000
      8      -9.6681      2.00000
      9      -8.4394      2.00000
     10      -8.3119      2.00000
     11      -6.7725      2.00000
     12      -6.4376      2.00000
     13      -6.2715      2.00000
     14      -5.2459      2.00000
     15      -5.1761      2.00000
     16      -3.3613      0.00000
     17      -0.1775      0.00000
     18       1.0650      0.00000
     19       1.3078      0.00000
     20       2.0669      0.00000
     21       2.3932      0.00000
     22       2.7496      0.00000
     23       3.4248      0.00000
     24       3.5796      0.00000

 k-point    65 :       0.0000    0.3750    0.0000
  band No.  band energies     occupation 
      1     -19.8615      2.00000
      2     -17.8118      2.00000
      3     -16.8379      2.00000
      4     -14.5557      2.00000
      5     -12.6705      2.00000
      6     -10.9989      2.00000
      7     -10.0678      2.00000
      8      -9.4687      2.00000
      9      -8.5411      2.00000
     10      -8.3437      2.00000
     11      -6.6593      2.00000
     12      -6.6304      2.00000
     13      -6.5850      2.00000
     14      -5.2261      2.00000
     15      -5.1604      2.00000
     16      -3.5129      0.00000
     17       0.1130      0.00000
     18       0.9109      0.00000
     19       1.4507      0.00000
     20       2.2153      0.00000
     21       2.5390      0.00000
     22       3.1006      0.00000
     23       3.2689      0.00000
     24       3.5801      0.00000

 k-point    66 :      -0.2500    0.3750    0.0000
  band No.  band energies     occupation 
      1     -19.6636      2.00000
      2     -17.8576      2.00000
      3     -17.5081      2.00000
      4     -13.6663      2.00000
      5     -12.9775      2.00000
      6     -11.2031      2.00000
      7      -9.2665      2.00000
      8      -8.8459      2.00000
      9      -8.1994      2.00000
     10      -7.8624      2.00000
     11      -7.6927      2.00000
     12      -6.8745      2.00000
     13      -6.7994      2.00000
     14      -6.2827      2.00000
     15      -6.2619      2.00000
     16      -2.3367      0.00000
     17      -1.3008      0.00000
     18       2.5869      0.00000
     19       2.6012      0.00000
     20       2.9323      0.00000
     21       3.3025      0.00000
     22       3.5013      0.00000
     23       3.5061      0.00000
     24       3.7059      0.00000

 k-point    67 :      -0.1875    0.3750    0.0000
  band No.  band energies     occupation 
      1     -19.6977      2.00000
      2     -17.9272      2.00000
      3     -17.3036      2.00000
      4     -14.0001      2.00000
      5     -12.7708      2.00000
      6     -10.9748      2.00000
      7      -9.6996      2.00000
      8      -9.0022      2.00000
      9      -8.1491      2.00000
     10      -7.9508      2.00000
     11      -7.5874      2.00000
     12      -6.8880      2.00000
     13      -6.8440      2.00000
     14      -5.9429      2.00000
     15      -5.9334      2.00000
     16      -2.7527      0.00000
     17      -0.8716      0.00000
     18       2.2233      0.00000
     19       2.4031      0.00000
     20       2.6782      0.00000
     21       3.0149      0.00000
     22       3.3270      0.00000
     23       3.4378      0.00000
     24       3.7934      0.00000

 k-point    68 :      -0.1250    0.3750    0.0000
  band No.  band energies     occupation 
      1     -19.7479      2.00000
      2     -17.9413      2.00000
      3     -17.0926      2.00000
      4     -14.2977      2.00000
      5     -12.6386      2.00000
      6     -10.6739      2.00000
      7     -10.1646      2.00000
      8      -9.1472      2.00000
      9      -8.3645      2.00000
     10      -8.0800      2.00000
     11      -7.2791      2.00000
     12      -6.8765      2.00000
     13      -6.7279      2.00000
     14      -5.6256      2.00000
     15      -5.5875      2.00000
     16      -3.1389      0.00000
     17      -0.4457      0.00000
     18       1.8228      0.00000
     19       1.9087      0.00000
     20       2.6894      0.00000
     21       2.8185      0.00000
     22       3.0060      0.00000
     23       3.5262      0.00000
     24       3.7875      0.00000

 k-point    69 :      -0.0625    0.3750    0.0000
  band No.  band energies     occupation 
      1     -19.8057      2.00000
      2     -17.9000      2.00000
      3     -16.9206      2.00000
      4     -14.5011      2.00000
      5     -12.5932      2.00000
      6     -10.6925      2.00000
      7     -10.2701      2.00000
      8      -9.2923      2.00000
      9      -8.5510      2.00000
     10      -8.2192      2.00000
     11      -6.9329      2.00000
     12      -6.7832      2.00000
     13      -6.6450      2.00000
     14      -5.3778      2.00000
     15      -5.2930      2.00000
     16      -3.4265      0.00000
     17      -0.0639      0.00000
     18       1.2630      0.00000
     19       1.6511      0.00000
     20       2.4222      0.00000
     21       2.7433      0.00000
     22       3.0153      0.00000
     23       3.4127      0.00000
     24       3.7123      0.00000

 k-point    70 :       0.0000    0.4375    0.0000
  band No.  band energies     occupation 
      1     -19.7744      2.00000
      2     -17.9836      2.00000
      3     -16.8782      2.00000
      4     -14.6042      2.00000
      5     -12.4069      2.00000
      6     -10.5260      2.00000
      7     -10.3312      2.00000
      8      -9.4083      2.00000
      9      -8.4537      2.00000
     10      -8.1338      2.00000
     11      -7.2233      2.00000
     12      -6.9389      2.00000
     13      -6.5755      2.00000
     14      -5.3926      2.00000
     15      -5.1874      2.00000
     16      -3.5774      0.00000
     17       0.2214      0.00000
     18       1.0617      0.00000
     19       1.8220      0.00000
     20       2.5879      0.00000
     21       2.7317      0.00000
     22       2.9182      0.00000
     23       3.4471      0.00000
     24       3.7607      0.00000

 k-point    71 :      -0.1250    0.4375    0.0000
  band No.  band energies     occupation 
      1     -19.7159      2.00000
      2     -17.9986      2.00000
      3     -17.1099      2.00000
      4     -14.3102      2.00000
      5     -12.5251      2.00000
      6     -10.7719      2.00000
      7      -9.9296      2.00000
      8      -9.2902      2.00000
      9      -7.9941      2.00000
     10      -7.9815      2.00000
     11      -7.7325      2.00000
     12      -7.0058      2.00000
     13      -6.7155      2.00000
     14      -5.6972      2.00000
     15      -5.6061      2.00000
     16      -3.1409      0.00000
     17      -0.4271      0.00000
     18       1.8879      0.00000
     19       2.3322      0.00000
     20       2.3396      0.00000
     21       3.0626      0.00000
     22       3.1341      0.00000
     23       3.4433      0.00000
     24       3.4434      0.00000

 k-point    72 :      -0.0625    0.4375    0.0000
  band No.  band energies     occupation 
      1     -19.7426      2.00000
      2     -18.0187      2.00000
      3     -16.9496      2.00000
      4     -14.5319      2.00000
      5     -12.3906      2.00000
      6     -10.5264      2.00000
      7     -10.2299      2.00000
      8      -9.4484      2.00000
      9      -8.1926      2.00000
     10      -8.0463      2.00000
     11      -7.5365      2.00000
     12      -7.0216      2.00000
     13      -6.5969      2.00000
     14      -5.5027      2.00000
     15      -5.3175      2.00000
     16      -3.4587      0.00000
     17       0.0008      0.00000
     18       1.3743      0.00000
     19       2.0503      0.00000
     20       2.5053      0.00000
     21       2.8134      0.00000
     22       3.1516      0.00000
     23       3.2537      0.00000
     24       3.6180      0.00000

 k-point    73 :       0.0000    0.5000    0.0000
  band No.  band energies     occupation 
      1     -19.7403      2.00000
      2     -18.0464      2.00000
      3     -16.8919      2.00000
      4     -14.6206      2.00000
      5     -12.2981      2.00000
      6     -10.4408      2.00000
      7     -10.2356      2.00000
      8      -9.6273      2.00000
      9      -8.0308      2.00000
     10      -8.0034      2.00000
     11      -7.7522      2.00000
     12      -7.0756      2.00000
     13      -6.5380      2.00000
     14      -5.4580      2.00000
     15      -5.1967      2.00000
     16      -3.5989      0.00000
     17       0.2600      0.00000
     18       1.1161      0.00000
     19       2.2471      0.00000
     20       2.2512      0.00000
     21       2.9799      0.00000
     22       3.0320      0.00000
     23       3.3554      0.00000
     24       3.3558      0.00000


--------------------------------------------------------------------------------------------------------


 soft charge-density along one line, spin component           1
         0         1         2         3         4         5         6         7         8         9
 total charge-density along one line
 
 pseudopotential strength for first ion, spin component:           1
  6.760  10.317  -0.000  -0.000  -0.000  -0.000  -0.000  -0.000
 10.317  15.742  -0.000  -0.000  -0.000  -0.000  -0.000  -0.000
 -0.000  -0.000  -2.329   0.000  -0.000  -4.001   0.000  -0.000
 -0.000  -0.000   0.000  -2.335  -0.000   0.000  -4.009  -0.000
 -0.000  -0.000  -0.000  -0.000  -2.329  -0.000  -0.000  -4.001
 -0.000  -0.000  -4.001   0.000  -0.000  -6.676   0.000  -0.000
 -0.000  -0.000   0.000  -4.009  -0.000   0.000  -6.685  -0.000
 -0.000  -0.000  -0.000  -0.000  -4.001  -0.000  -0.000  -6.676
 total augmentation occupancy for first ion, spin component:           1
  3.706  -0.948  -0.001   0.000  -0.000   0.000   0.000   0.000
 -0.948   0.263   0.000   0.000  -0.000  -0.000   0.000   0.000
 -0.001   0.000   4.125   0.000  -0.000  -1.099   0.000  -0.000
  0.000   0.000   0.000   0.888  -0.000   0.000  -0.222   0.000
  0.000   0.000  -0.000   0.000   4.125  -0.000  -0.000  -1.099
  0.000  -0.000  -1.099   0.000  -0.000   0.304   0.000   0.000
  0.000   0.000   0.000  -0.222   0.000   0.000   0.056   0.000
  0.000   0.000  -0.000   0.000  -1.099   0.000   0.000   0.304


------------------------ aborting loop because EDIFF is reached ----------------------------------------


    CHARGE:  cpu time    0.9359: real time    0.9376
    FORLOC:  cpu time    0.0101: real time    0.0101
    FORNL :  cpu time    1.1766: real time    1.1788
    STRESS:  cpu time    8.0725: real time    8.0957
    FORCOR:  cpu time    0.1411: real time    0.1412
    FORHAR:  cpu time    0.0377: real time    0.0378
    MIXING:  cpu time    0.0066: real time    0.0066
    OFIELD:  cpu time    0.0000: real time    0.0000

  FORCE on cell =-STRESS in cart. coord.  units (eV):
  Direction    XX          YY          ZZ          XY          YZ          ZX
  --------------------------------------------------------------------------------------
  Alpha Z    10.93934    10.93934    10.93934
  Ewald    4956.93453  4956.75668 -5853.63745     0.00000     0.00000    -0.00000
  Hartree  4879.72345  4879.68292 -4820.84937    -0.00000    -0.00000    -0.00000
  E(xc)    -107.42825  -107.42860  -111.25917     0.00000    -0.00000    -0.00000
  Local  -10149.95517-10149.76939 10341.56428     0.00003     0.00000     0.00000
  n-local   -21.60426   -21.60550   -10.32244    -0.28816    -0.00000     0.00000
  augment    -1.79806    -1.79784    -1.79043    -0.00004     0.00000    -0.00000
  Kinetic   433.10871   433.12775   445.17790     3.50002     0.00000    -0.00000
  Fock        0.00000     0.00000     0.00000     0.00000     0.00000     0.00000
  -------------------------------------------------------------------------------------
  Total      -0.07971    -0.09464    -0.17734    -0.00000     0.00000     0.00000
  in kB      -0.27541    -0.32701    -0.61275    -0.00000     0.00000     0.00000
  external pressure =       -0.41 kB  Pullay stress =        0.00 kB


 VOLUME and BASIS-vectors are now :
 -----------------------------------------------------------------------------
  energy-cutoff  :      450.00
  volume of cell :      463.69
      direct lattice vectors                 reciprocal lattice vectors
     5.174000000  0.000000000  0.000000000     0.193274063 -0.111582236  0.000000000
     2.587000000  4.481000000  0.000000000     0.000000000  0.223164472  0.000000000
     0.000000000  0.000000000 20.000000000     0.000000000  0.000000000  0.050000000

  length of vectors
     5.174000000  5.174159835 20.000000000     0.223171366  0.223164472  0.050000000


 FORCES acting on ions
    electron-ion (+dipol)            ewald-force                    non-local-force                 convergence-correction
 -----------------------------------------------------------------------------------------------
   0.262E-05 -.372E-01 0.168E-06   0.297E-11 0.403E-01 -.298E-20   -.439E-16 0.133E-02 0.000E+00   -.722E-09 -.212E-04 0.704E-13
   -.183E-05 0.372E-01 -.173E-06   -.660E-11 -.403E-01 -.487E-20   0.724E-16 -.133E-02 0.000E+00   0.719E-09 0.212E-04 0.703E-13
   -.443E+02 -.256E+02 -.412E-06   0.478E+02 0.276E+02 0.132E-20   -.348E+01 -.201E+01 -.103E-24   -.202E-05 -.407E-04 0.942E-13
   0.443E+02 -.256E+02 0.405E-06   -.478E+02 0.276E+02 0.293E-19   0.348E+01 -.201E+01 0.000E+00   0.202E-05 -.407E-04 0.995E-13
   -.145E-05 -.512E+02 -.490E-06   -.137E-11 0.552E+02 -.156E-19   -.111E-15 -.401E+01 0.000E+00   0.249E-08 -.416E-04 0.953E-13
   -.358E-05 0.512E+02 0.402E-06   -.159E-10 -.552E+02 0.646E-20   0.111E-15 0.401E+01 0.000E+00   -.250E-08 0.416E-04 0.961E-13
   -.443E+02 0.256E+02 -.493E-06   0.478E+02 -.276E+02 0.205E-20   -.348E+01 0.201E+01 0.000E+00   -.202E-05 0.407E-04 0.951E-13
   0.443E+02 0.256E+02 0.384E-06   -.478E+02 -.276E+02 -.156E-19   0.348E+01 0.201E+01 0.000E+00   0.202E-05 0.407E-04 0.102E-12
 -----------------------------------------------------------------------------------------------
   -.876E-05 -.454E-05 -.210E-06   -.711E-14 0.000E+00 0.000E+00   0.133E-14 -.888E-15 -.103E-24   -.157E-10 0.747E-11 0.722E-12
 
 
 POSITION                                       TOTAL-FORCE (eV/Angst)
 -----------------------------------------------------------------------------------
      1.35500      0.78250      0.00000         0.000000      0.004485      0.000000
      3.94200      2.27600      0.00000        -0.000000     -0.004485     -0.000000
      0.00000      0.00000      0.00000        -0.018162     -0.011415     -0.000000
      2.71000      0.00000      0.00000         0.018162     -0.011415      0.000000
      3.94200      0.71100      0.00000         0.000000     -0.008890      0.000000
      6.52900      2.34750      0.00000        -0.000000      0.008890     -0.000000
      2.58700      3.05850      0.00000        -0.018162      0.011415     -0.000000
      5.29700      3.05850      0.00000         0.018162      0.011415     -0.000000
 -----------------------------------------------------------------------------------
    total drift:                               -0.000009     -0.000005     -0.000000


--------------------------------------------------------------------------------------------------------



  FREE ENERGIE OF THE ION-ELECTRON SYSTEM (eV)
  ---------------------------------------------------
  free  energy   TOTEN  =       -67.23063694 eV

  energy  without entropy=      -67.23063694  energy(sigma->0) =      -67.23063694
 


--------------------------------------------------------------------------------------------------------


    POTLOK:  cpu time    0.1367: real time    0.1368


--------------------------------------------------------------------------------------------------------


 writing wavefunctions
     LOOP+:  cpu time  309.1225: real time  311.8054
    4ORBIT:  cpu time    0.0000: real time    0.0000
 BZINTS: Fermi energy: -4.222437; 30.000000 electrons
         Band energy:-318.362761;  BLOECHL correction:  0.000000

 total amount of memory used by VASP MPI-rank0   168401. kBytes
=======================================================================

   base      :      30000. kBytes
   nonl-proj :      95705. kBytes
   fftplans  :       4815. kBytes
   grid      :      14086. kBytes
   one-center:         24. kBytes
   wavefun   :      23771. kBytes
 
  
  
 General timing and accounting informations for this job:
 ========================================================
  
                  Total CPU time used (sec):      315.285
                            User time (sec):      313.635
                          System time (sec):        1.650
                         Elapsed time (sec):      318.759
  
                   Maximum memory used (kb):      268560.
                   Average memory used (kb):           0.
  
                          Minor page faults:        94993
                          Major page faults:            0
                 Voluntary context switches:         8914
