<?xml version="1.0" encoding="ISO-8859-1"?>
<modeling>
 <generator>
  <i name="program" type="string">vasp </i>
  <i name="version" type="string">5.4.4.18Apr17-6-g9f103f2a35  </i>
  <i name="subversion" type="string">(build Mar 30 2023 15:39:25) complex            parallel </i>
  <i name="platform" type="string">LinuxIFC </i>
  <i name="date" type="string">2023 05 25 </i>
  <i name="time" type="string">15:20:31 </i>
 </generator>
 <incar>
  <i type="string" name="SYSTEM"> BC3 DOS</i>
  <i type="int" name="ISTART">     0</i>
  <i type="string" name="PREC">accurate</i>
  <i type="int" name="ICHARG">     2</i>
  <i name="EDIFF">      0.00000100</i>
  <i name="EDIFFG">     -0.00000100</i>
  <i name="ENCUT">    450.00000000</i>
  <i type="int" name="ISMEAR">     0</i>
  <i name="SIGMA">      0.20000000</i>
  <v type="int" name="KPOINT_BSE">    -1     0     0     0</v>
 </incar>
 <structure name="primitive_cell" >
  <crystal>
   <varray name="basis" >
    <v>       5.17400000       0.00000000       0.00000000 </v>
    <v>       2.58700000       4.48100000       0.00000000 </v>
    <v>       0.00000000       0.00000000      20.00000000 </v>
   </varray>
   <i name="volume">    463.69388000 </i>
   <varray name="rec_basis" >
    <v>       0.19327406      -0.11158224       0.00000000 </v>
    <v>       0.00000000       0.22316447       0.00000000 </v>
    <v>       0.00000000       0.00000000       0.05000000 </v>
   </varray>
  </crystal>
  <varray name="positions" >
   <v>       0.17457326       0.17462620       0.00000000 </v>
   <v>       0.00000000       0.00000000       0.00000000 </v>
   <v>      -0.47622729       0.00000000       0.00000000 </v>
   <v>      -0.00005294      -0.47612140       0.00000000 </v>
   <v>      -0.31744862       0.15866994       0.00000000 </v>
   <v>      -0.31750156      -0.31745146       0.00000000 </v>
   <v>       0.15872573      -0.31745146       0.00000000 </v>
   <v>      -0.49207481      -0.49207766       0.00000000 </v>
  </varray>
 </structure>
 <varray name="primitive_index" >
  <v type="int" >        1 </v>
  <v type="int" >        3 </v>
  <v type="int" >        4 </v>
  <v type="int" >        6 </v>
  <v type="int" >        5 </v>
  <v type="int" >        8 </v>
  <v type="int" >        7 </v>
  <v type="int" >        2 </v>
 </varray>
 <kpoints>
  <generation param="listgenerated">
   <i name="divisions" type="int">      32 </i>
   <v>      -0.33300000       0.66700000       0.00000000 </v>
   <v>       0.00000000       0.00000000       0.00000000 </v>
   <v>       0.50000000       0.00000000       0.00000000 </v>
   <v>      -0.33300000       0.66700000       0.00000000 </v>
  </generation>
  <varray name="kpointlist" >
   <v>      -0.33300000       0.66700000       0.00000000 </v>
   <v>      -0.32225806       0.64548387       0.00000000 </v>
   <v>      -0.31151613       0.62396774       0.00000000 </v>
   <v>      -0.30077419       0.60245161       0.00000000 </v>
   <v>      -0.29003226       0.58093548       0.00000000 </v>
   <v>      -0.27929032       0.55941935       0.00000000 </v>
   <v>      -0.26854839       0.53790323       0.00000000 </v>
   <v>      -0.25780645       0.51638710       0.00000000 </v>
   <v>      -0.24706452       0.49487097       0.00000000 </v>
   <v>      -0.23632258       0.47335484       0.00000000 </v>
   <v>      -0.22558065       0.45183871       0.00000000 </v>
   <v>      -0.21483871       0.43032258       0.00000000 </v>
   <v>      -0.20409677       0.40880645       0.00000000 </v>
   <v>      -0.19335484       0.38729032       0.00000000 </v>
   <v>      -0.18261290       0.36577419       0.00000000 </v>
   <v>      -0.17187097       0.34425806       0.00000000 </v>
   <v>      -0.16112903       0.32274194       0.00000000 </v>
   <v>      -0.15038710       0.30122581       0.00000000 </v>
   <v>      -0.13964516       0.27970968       0.00000000 </v>
   <v>      -0.12890323       0.25819355       0.00000000 </v>
   <v>      -0.11816129       0.23667742       0.00000000 </v>
   <v>      -0.10741935       0.21516129       0.00000000 </v>
   <v>      -0.09667742       0.19364516       0.00000000 </v>
   <v>      -0.08593548       0.17212903       0.00000000 </v>
   <v>      -0.07519355       0.15061290       0.00000000 </v>
   <v>      -0.06445161       0.12909677       0.00000000 </v>
   <v>      -0.05370968       0.10758065       0.00000000 </v>
   <v>      -0.04296774       0.08606452       0.00000000 </v>
   <v>      -0.03222581       0.06454839       0.00000000 </v>
   <v>      -0.02148387       0.04303226       0.00000000 </v>
   <v>      -0.01074194       0.02151613       0.00000000 </v>
   <v>       0.00000000       0.00000000       0.00000000 </v>
   <v>       0.00000000       0.00000000       0.00000000 </v>
   <v>       0.01612903       0.00000000       0.00000000 </v>
   <v>       0.03225806       0.00000000       0.00000000 </v>
   <v>       0.04838710       0.00000000       0.00000000 </v>
   <v>       0.06451613       0.00000000       0.00000000 </v>
   <v>       0.08064516       0.00000000       0.00000000 </v>
   <v>       0.09677419       0.00000000       0.00000000 </v>
   <v>       0.11290323       0.00000000       0.00000000 </v>
   <v>       0.12903226       0.00000000       0.00000000 </v>
   <v>       0.14516129       0.00000000       0.00000000 </v>
   <v>       0.16129032       0.00000000       0.00000000 </v>
   <v>       0.17741935       0.00000000       0.00000000 </v>
   <v>       0.19354839       0.00000000       0.00000000 </v>
   <v>       0.20967742       0.00000000       0.00000000 </v>
   <v>       0.22580645       0.00000000       0.00000000 </v>
   <v>       0.24193548       0.00000000       0.00000000 </v>
   <v>       0.25806452       0.00000000       0.00000000 </v>
   <v>       0.27419355       0.00000000       0.00000000 </v>
   <v>       0.29032258       0.00000000       0.00000000 </v>
   <v>       0.30645161       0.00000000       0.00000000 </v>
   <v>       0.32258065       0.00000000       0.00000000 </v>
   <v>       0.33870968       0.00000000       0.00000000 </v>
   <v>       0.35483871       0.00000000       0.00000000 </v>
   <v>       0.37096774       0.00000000       0.00000000 </v>
   <v>       0.38709677       0.00000000       0.00000000 </v>
   <v>       0.40322581       0.00000000       0.00000000 </v>
   <v>       0.41935484       0.00000000       0.00000000 </v>
   <v>       0.43548387       0.00000000       0.00000000 </v>
   <v>       0.45161290       0.00000000       0.00000000 </v>
   <v>       0.46774194       0.00000000       0.00000000 </v>
   <v>       0.48387097       0.00000000       0.00000000 </v>
   <v>       0.50000000       0.00000000       0.00000000 </v>
   <v>       0.50000000       0.00000000       0.00000000 </v>
   <v>       0.47312903       0.02151613       0.00000000 </v>
   <v>       0.44625806       0.04303226       0.00000000 </v>
   <v>       0.41938710       0.06454839       0.00000000 </v>
   <v>       0.39251613       0.08606452       0.00000000 </v>
   <v>       0.36564516       0.10758065       0.00000000 </v>
   <v>       0.33877419       0.12909677       0.00000000 </v>
   <v>       0.31190323       0.15061290       0.00000000 </v>
   <v>       0.28503226       0.17212903       0.00000000 </v>
   <v>       0.25816129       0.19364516       0.00000000 </v>
   <v>       0.23129032       0.21516129       0.00000000 </v>
   <v>       0.20441935       0.23667742       0.00000000 </v>
   <v>       0.17754839       0.25819355       0.00000000 </v>
   <v>       0.15067742       0.27970968       0.00000000 </v>
   <v>       0.12380645       0.30122581       0.00000000 </v>
   <v>       0.09693548       0.32274194       0.00000000 </v>
   <v>       0.07006452       0.34425806       0.00000000 </v>
   <v>       0.04319355       0.36577419       0.00000000 </v>
   <v>       0.01632258       0.38729032       0.00000000 </v>
   <v>      -0.01054839       0.40880645       0.00000000 </v>
   <v>      -0.03741935       0.43032258       0.00000000 </v>
   <v>      -0.06429032       0.45183871       0.00000000 </v>
   <v>      -0.09116129       0.47335484       0.00000000 </v>
   <v>      -0.11803226       0.49487097       0.00000000 </v>
   <v>      -0.14490323       0.51638710       0.00000000 </v>
   <v>      -0.17177419       0.53790323       0.00000000 </v>
   <v>      -0.19864516       0.55941935       0.00000000 </v>
   <v>      -0.22551613       0.58093548       0.00000000 </v>
   <v>      -0.25238710       0.60245161       0.00000000 </v>
   <v>      -0.27925806       0.62396774       0.00000000 </v>
   <v>      -0.30612903       0.64548387       0.00000000 </v>
   <v>      -0.33300000       0.66700000       0.00000000 </v>
  </varray>
  <varray name="weights" >
   <v>       0.01041667 </v>
   <v>       0.01041667 </v>
   <v>       0.01041667 </v>
   <v>       0.01041667 </v>
   <v>       0.01041667 </v>
   <v>       0.01041667 </v>
   <v>       0.01041667 </v>
   <v>       0.01041667 </v>
   <v>       0.01041667 </v>
   <v>       0.01041667 </v>
   <v>       0.01041667 </v>
   <v>       0.01041667 </v>
   <v>       0.01041667 </v>
   <v>       0.01041667 </v>
   <v>       0.01041667 </v>
   <v>       0.01041667 </v>
   <v>       0.01041667 </v>
   <v>       0.01041667 </v>
   <v>       0.01041667 </v>
   <v>       0.01041667 </v>
   <v>       0.01041667 </v>
   <v>       0.01041667 </v>
   <v>       0.01041667 </v>
   <v>       0.01041667 </v>
   <v>       0.01041667 </v>
   <v>       0.01041667 </v>
   <v>       0.01041667 </v>
   <v>       0.01041667 </v>
   <v>       0.01041667 </v>
   <v>       0.01041667 </v>
   <v>       0.01041667 </v>
   <v>       0.01041667 </v>
   <v>       0.01041667 </v>
   <v>       0.01041667 </v>
   <v>       0.01041667 </v>
   <v>       0.01041667 </v>
   <v>       0.01041667 </v>
   <v>       0.01041667 </v>
   <v>       0.01041667 </v>
   <v>       0.01041667 </v>
   <v>       0.01041667 </v>
   <v>       0.01041667 </v>
   <v>       0.01041667 </v>
   <v>       0.01041667 </v>
   <v>       0.01041667 </v>
   <v>       0.01041667 </v>
   <v>       0.01041667 </v>
   <v>       0.01041667 </v>
   <v>       0.01041667 </v>
   <v>       0.01041667 </v>
   <v>       0.01041667 </v>
   <v>       0.01041667 </v>
   <v>       0.01041667 </v>
   <v>       0.01041667 </v>
   <v>       0.01041667 </v>
   <v>       0.01041667 </v>
   <v>       0.01041667 </v>
   <v>       0.01041667 </v>
   <v>       0.01041667 </v>
   <v>       0.01041667 </v>
   <v>       0.01041667 </v>
   <v>       0.01041667 </v>
   <v>       0.01041667 </v>
   <v>       0.01041667 </v>
   <v>       0.01041667 </v>
   <v>       0.01041667 </v>
   <v>       0.01041667 </v>
   <v>       0.01041667 </v>
   <v>       0.01041667 </v>
   <v>       0.01041667 </v>
   <v>       0.01041667 </v>
   <v>       0.01041667 </v>
   <v>       0.01041667 </v>
   <v>       0.01041667 </v>
   <v>       0.01041667 </v>
   <v>       0.01041667 </v>
   <v>       0.01041667 </v>
   <v>       0.01041667 </v>
   <v>       0.01041667 </v>
   <v>       0.01041667 </v>
   <v>       0.01041667 </v>
   <v>       0.01041667 </v>
   <v>       0.01041667 </v>
   <v>       0.01041667 </v>
   <v>       0.01041667 </v>
   <v>       0.01041667 </v>
   <v>       0.01041667 </v>
   <v>       0.01041667 </v>
   <v>       0.01041667 </v>
   <v>       0.01041667 </v>
   <v>       0.01041667 </v>
   <v>       0.01041667 </v>
   <v>       0.01041667 </v>
   <v>       0.01041667 </v>
   <v>       0.01041667 </v>
   <v>       0.01041667 </v>
  </varray>
 </kpoints>
 <parameters>
  <separator name="general" >
   <i type="string" name="SYSTEM">BC3 DOS</i>
   <i type="logical" name="LCOMPAT"> F  </i>
  </separator>
  <separator name="electronic" >
   <i type="string" name="PREC">accura</i>
   <i name="ENMAX">    450.00000000</i>
   <i name="ENAUG">    644.87300000</i>
   <i name="EDIFF">      0.00000100</i>
   <i type="int" name="IALGO">    38</i>
   <i type="int" name="IWAVPR">    10</i>
   <i type="int" name="NBANDS">    24</i>
   <i name="NELECT">     30.00000000</i>
   <i type="int" name="TURBO">     0</i>
   <i type="int" name="IRESTART">     0</i>
   <i type="int" name="NREBOOT">     0</i>
   <i type="int" name="NMIN">     0</i>
   <i name="EREF">      0.00000000</i>
   <separator name="electronic smearing" >
    <i type="int" name="ISMEAR">     0</i>
    <i name="SIGMA">      0.20000000</i>
    <i name="KSPACING">      0.50000000</i>
    <i type="logical" name="KGAMMA"> T  </i>
   </separator>
   <separator name="electronic projectors" >
    <i type="logical" name="LREAL"> F  </i>
    <v name="ROPT">      0.00000000      0.00000000</v>
    <i type="int" name="LMAXPAW">  -100</i>
    <i type="int" name="LMAXMIX">     2</i>
    <i type="logical" name="NLSPLINE"> F  </i>
   </separator>
   <separator name="electronic startup" >
    <i type="int" name="ISTART">     0</i>
    <i type="int" name="ICHARG">     2</i>
    <i type="int" name="INIWAV">     1</i>
   </separator>
   <separator name="electronic spin" >
    <i type="int" name="ISPIN">     1</i>
    <i type="logical" name="LNONCOLLINEAR"> F  </i>
    <v name="MAGMOM">      1.00000000      1.00000000      1.00000000      1.00000000      1.00000000      1.00000000      1.00000000      1.00000000</v>
    <i name="NUPDOWN">     -1.00000000</i>
    <i type="logical" name="LSORBIT"> F  </i>
    <v name="SAXIS">      0.00000000      0.00000000      1.00000000</v>
    <i type="logical" name="LSPIRAL"> F  </i>
    <v name="QSPIRAL">      0.00000000      0.00000000      0.00000000</v>
    <i type="logical" name="LZEROZ"> F  </i>
   </separator>
   <separator name="electronic exchange-correlation" >
    <i type="logical" name="LASPH"> F  </i>
    <i type="logical" name="LMETAGGA"> F  </i>
   </separator>
   <separator name="electronic convergence" >
    <i type="int" name="NELM">    60</i>
    <i type="int" name="NELMDL">    -5</i>
    <i type="int" name="NELMIN">     2</i>
    <i name="ENINI">    450.00000000</i>
    <separator name="electronic convergence detail" >
     <i type="logical" name="LDIAG"> T  </i>
     <i type="logical" name="LSUBROT"> F  </i>
     <i name="WEIMIN">      0.00000000</i>
     <i name="EBREAK">      0.00000000</i>
     <i name="DEPER">      0.30000000</i>
     <i type="int" name="NRMM">     4</i>
     <i name="TIME">      0.40000000</i>
    </separator>
   </separator>
   <separator name="electronic mixer" >
    <i name="AMIX">      0.40000000</i>
    <i name="BMIX">      1.00000000</i>
    <i name="AMIN">      0.10000000</i>
    <i name="AMIX_MAG">      1.60000000</i>
    <i name="BMIX_MAG">      1.00000000</i>
    <separator name="electronic mixer details" >
     <i type="int" name="IMIX">     4</i>
     <i type="logical" name="MIXFIRST"> F  </i>
     <i type="int" name="MAXMIX">   -45</i>
     <i name="WC">    100.00000000</i>
     <i type="int" name="INIMIX">     1</i>
     <i type="int" name="MIXPRE">     1</i>
     <i type="int" name="MREMOVE">     5</i>
    </separator>
   </separator>
   <separator name="electronic dipolcorrection" >
    <i type="logical" name="LDIPOL"> F  </i>
    <i type="logical" name="LMONO"> F  </i>
    <i type="int" name="IDIPOL">     0</i>
    <i name="EPSILON">      1.00000000</i>
    <v name="DIPOL">   -100.00000000   -100.00000000   -100.00000000</v>
    <i name="EFIELD">      0.00000000</i>
   </separator>
  </separator>
  <separator name="grids" >
   <i type="int" name="NGX">    36</i>
   <i type="int" name="NGY">    36</i>
   <i type="int" name="NGZ">   140</i>
   <i type="int" name="NGXF">    72</i>
   <i type="int" name="NGYF">    72</i>
   <i type="int" name="NGZF">   280</i>
   <i type="logical" name="ADDGRID"> F  </i>
  </separator>
  <separator name="ionic" >
   <i type="int" name="NSW">     0</i>
   <i type="int" name="IBRION">    -1</i>
   <i type="int" name="MDALGO">     0</i>
   <i type="int" name="ISIF">     2</i>
   <i name="PSTRESS">      0.00000000</i>
   <i name="EDIFFG">     -0.00000100</i>
   <i type="int" name="NFREE">     0</i>
   <i name="POTIM">      0.50000000</i>
   <i name="SMASS">     -3.00000000</i>
   <i name="SCALEE">      1.00000000</i>
  </separator>
  <separator name="ionic md" >
   <i name="TEBEG">      0.00010000</i>
   <i name="TEEND">      0.00010000</i>
   <i type="int" name="NBLOCK">     1</i>
   <i type="int" name="KBLOCK">     1</i>
   <i type="int" name="NPACO">   256</i>
   <i name="APACO">     16.00000000</i>
  </separator>
  <separator name="symmetry" >
   <i type="int" name="ISYM">     2</i>
   <i name="SYMPREC">      0.00001000</i>
  </separator>
  <separator name="dos" >
   <i type="int" name="LORBIT">     0</i>
   <v name="RWIGS">     -1.00000000     -1.00000000</v>
   <i type="int" name="NEDOS">   301</i>
   <i name="EMIN">     10.00000000</i>
   <i name="EMAX">    -10.00000000</i>
   <i name="EFERMI">      0.00000000</i>
  </separator>
  <separator name="writing" >
   <i type="int" name="NWRITE">     2</i>
   <i type="logical" name="LWAVE"> T  </i>
   <i type="logical" name="LDOWNSAMPLE"> F  </i>
   <i type="logical" name="LCHARG"> T  </i>
   <i type="logical" name="LPARD"> F  </i>
   <i type="logical" name="LVTOT"> F  </i>
   <i type="logical" name="LVHAR"> F  </i>
   <i type="logical" name="LELF"> F  </i>
   <i type="logical" name="LOPTICS"> F  </i>
   <v name="STM">      0.00000000      0.00000000      0.00000000      0.00000000      0.00000000      0.00000000      0.00000000</v>
  </separator>
  <separator name="performance" >
   <i type="int" name="NPAR">    12</i>
   <i type="int" name="NSIM">     4</i>
   <i type="int" name="NBLK">    -1</i>
   <i type="logical" name="LPLANE"> T  </i>
   <i type="logical" name="LSCALAPACK"> T  </i>
   <i type="logical" name="LSCAAWARE"> F  </i>
   <i type="logical" name="LSCALU"> F  </i>
   <i type="logical" name="LASYNC"> F  </i>
   <i type="logical" name="LORBITALREAL"> F  </i>
  </separator>
  <separator name="miscellaneous" >
   <i type="int" name="IDIOT">     3</i>
   <i type="int" name="ISPECIAL">     0</i>
   <i type="logical" name="LMUSIC"> F  </i>
   <v name="POMASS">     10.81100000     12.01100000</v>
   <v name="DARWINR">      0.00000000      0.00000000</v>
   <v name="DARWINV">      1.00000000      1.00000000</v>
   <i type="logical" name="LCORR"> T  </i>
  </separator>
  <i type="logical" name="GGA_COMPAT"> T  </i>
  <i type="logical" name="LBERRY"> F  </i>
  <i type="int" name="ICORELEVEL">     0</i>
  <i type="logical" name="LDAU"> F  </i>
  <i type="int" name="I_CONSTRAINED_M">     0</i>
  <separator name="electronic exchange-correlation" >
   <i type="string" name="GGA">--</i>
   <i type="int" name="VOSKOWN">     0</i>
   <i type="logical" name="LHFCALC"> F  </i>
   <i type="string" name="PRECFOCK"></i>
   <i type="logical" name="LSYMGRAD"> F  </i>
   <i type="logical" name="LHFONE"> F  </i>
   <i type="logical" name="LRHFCALC"> F  </i>
   <i type="logical" name="LTHOMAS"> F  </i>
   <i type="logical" name="LMODELHF"> F  </i>
   <i name="ENCUT4O">     -1.00000000</i>
   <i type="int" name="EXXOEP">     0</i>
   <i type="int" name="FOURORBIT">     0</i>
   <i name="AEXX">      0.00000000</i>
   <i name="HFALPHA">      0.00000000</i>
   <i name="MCALPHA">      0.00000000</i>
   <i name="ALDAX">      1.00000000</i>
   <i name="AGGAX">      1.00000000</i>
   <i name="ALDAC">      1.00000000</i>
   <i name="AGGAC">      1.00000000</i>
   <i type="int" name="NKREDX">     1</i>
   <i type="int" name="NKREDY">     1</i>
   <i type="int" name="NKREDZ">     1</i>
   <i type="logical" name="SHIFTRED"> F  </i>
   <i type="logical" name="ODDONLY"> F  </i>
   <i type="logical" name="EVENONLY"> F  </i>
   <i type="int" name="LMAXFOCK">     0</i>
   <i type="int" name="NMAXFOCKAE">     0</i>
   <i type="logical" name="LFOCKAEDFT"> F  </i>
   <i name="HFSCREEN">      0.00000000</i>
   <i name="HFSCREENC">      0.00000000</i>
   <i type="int" name="NBANDSGWLOW">     0</i>
  </separator>
  <separator name="vdW DFT" >
   <i type="logical" name="LUSE_VDW"> F  </i>
   <i name="Zab_VDW">     -0.84910000</i>
   <i name="PARAM1">      0.12340000</i>
   <i name="PARAM2">      1.00000000</i>
   <i name="PARAM3">      0.00000000</i>
  </separator>
  <separator name="model GW" >
   <i type="int" name="MODEL_GW">     0</i>
   <i name="MODEL_EPS0">     34.77704100</i>
   <i name="MODEL_ALPHA">      1.00000000</i>
  </separator>
  <separator name="linear response parameters" >
   <i type="logical" name="LEPSILON"> F  </i>
   <i type="logical" name="LRPA"> F  </i>
   <i type="logical" name="LNABLA"> F  </i>
   <i type="logical" name="LVEL"> F  </i>
   <i type="int" name="KINTER">     0</i>
   <i name="CSHIFT">      0.10000000</i>
   <i name="OMEGAMAX">     -1.00000000</i>
   <i name="DEG_THRESHOLD">      0.00200000</i>
   <i name="RTIME">     -0.10000000</i>
   <i name="WPLASMAI">      0.00000000</i>
   <v name="DFIELD">      0.00000000      0.00000000      0.00000000</v>
   <v name="WPLASMA">      0.00000000      0.00000000      0.00000000      0.00000000      0.00000000      0.00000000      0.00000000      0.00000000      0.00000000</v>
  </separator>
  <separator name="orbital magnetization" >
   <i type="logical" name="NUCIND"> F  </i>
   <v name="MAGPOS">      0.00000000      0.00000000      0.00000000</v>
   <i type="logical" name="LNICSALL"> T  </i>
   <i type="logical" name="ORBITALMAG"> F  </i>
   <i type="logical" name="LMAGBLOCH"> F  </i>
   <i type="logical" name="LCHIMAG"> F  </i>
   <i type="logical" name="LGAUGE"> T  </i>
   <i type="int" name="MAGATOM">     0</i>
   <v name="MAGDIPOL">      0.00000000      0.00000000      0.00000000</v>
   <v name="AVECCONST">      0.00000000      0.00000000      0.00000000</v>
  </separator>
  <separator name="response functions" >
   <i type="logical" name="LADDER"> F  </i>
   <i type="logical" name="LRPAFORCE"> F  </i>
   <i type="logical" name="LFXC"> F  </i>
   <i type="logical" name="LHARTREE"> T  </i>
   <i type="int" name="IBSE">     0</i>
   <v type="int" name="KPOINT">    -1     0     0     0</v>
   <i type="logical" name="LTCTE"> F  </i>
   <i type="logical" name="LTETE"> F  </i>
   <i type="logical" name="LTRIPLET"> F  </i>
   <i type="logical" name="LFXCEPS"> F  </i>
   <i type="logical" name="LFXHEG"> F  </i>
   <i type="int" name="NATURALO">     2</i>
   <i type="logical" name="L2ORDER"> F  </i>
   <i type="logical" name="LMP2LT"> F  </i>
   <i type="logical" name="LUSEW"> F  </i>
   <i name="ENCUTGW">     -2.00000000</i>
   <i name="ENCUTGWSOFT">     -2.00000000</i>
   <i name="ENCUTLF">     -1.00000000</i>
   <i type="int" name="LMAXMP2">    -1</i>
   <i name="SCISSOR">      0.00000000</i>
   <i type="int" name="NOMEGA">     0</i>
   <i type="int" name="NOMEGAR">     0</i>
   <i type="int" name="NBANDSGW">    -1</i>
   <i type="int" name="NBANDSO">    -1</i>
   <i type="int" name="NBANDSV">    -1</i>
   <i type="int" name="NELM">     1</i>
   <i type="int" name="NELMHF">     1</i>
   <i type="int" name="DIM">     3</i>
   <i type="int" name="ANTIRES">     0</i>
   <i name="OMEGAMAX">    -30.00000000</i>
   <i name="OMEGAMIN">    -30.00000000</i>
   <i name="OMEGATL">   -200.00000000</i>
   <i type="int" name="OMEGAGRID">   140</i>
   <i name="CSHIFT">     -0.10000000</i>
   <i type="logical" name="SELFENERGY"> F  </i>
   <i type="logical" name="LSPECTRAL"> F  </i>
   <i type="logical" name="LSPECTRALGW"> F  </i>
   <i type="logical" name="LSINGLES"> F  </i>
   <i type="logical" name="LFERMIGW"> F  </i>
   <i type="logical" name="ODDONLYGW"> F  </i>
   <i type="logical" name="EVENONLYGW"> F  </i>
   <i type="int" name="NKREDLFX">     1</i>
   <i type="int" name="NKREDLFY">     1</i>
   <i type="int" name="NKREDLFZ">     1</i>
   <i type="int" name="MAXMEM">  2800</i>
   <i type="int" name="TELESCOPE">     0</i>
   <i type="int" name="TAUPAR">     1</i>
   <i type="int" name="OMEGAPAR">    -1</i>
   <i name="LAMBDA">      1.00000000</i>
  </separator>
  <separator name="External order field" >
   <i name="OFIELD_KAPPA">      0.00000000</i>
   <v name="OFIELD_K">      0.00000000      0.00000000      0.00000000</v>
   <i name="OFIELD_Q6_NEAR">      0.00000000</i>
   <i name="OFIELD_Q6_FAR">      0.00000000</i>
   <i name="OFIELD_A">      0.00000000</i>
  </separator>
 </parameters>
 <atominfo>
  <atoms>       8 </atoms>
  <types>       2 </types>
  <array name="atoms" >
   <dimension dim="1">ion</dimension>
   <field type="string">element</field>
   <field type="int">atomtype</field>
   <set>
    <rc><c>B </c><c>   1</c></rc>
    <rc><c>B </c><c>   1</c></rc>
    <rc><c>C </c><c>   2</c></rc>
    <rc><c>C </c><c>   2</c></rc>
    <rc><c>C </c><c>   2</c></rc>
    <rc><c>C </c><c>   2</c></rc>
    <rc><c>C </c><c>   2</c></rc>
    <rc><c>C </c><c>   2</c></rc>
   </set>
  </array>
  <array name="atomtypes" >
   <dimension dim="1">type</dimension>
   <field type="int">atomspertype</field>
   <field type="string">element</field>
   <field>mass</field>
   <field>valence</field>
   <field type="string">pseudopotential</field>
   <set>
    <rc><c>   2</c><c>B </c><c>     10.81100000</c><c>      3.00000000</c><c>  PAW_PBE B 06Sep2000                   </c></rc>
    <rc><c>   6</c><c>C </c><c>     12.01100000</c><c>      4.00000000</c><c>  PAW_PBE C 08Apr2002                   </c></rc>
   </set>
  </array>
 </atominfo>
 <structure name="initialpos" >
  <crystal>
   <varray name="basis" >
    <v>       5.17400000       0.00000000       0.00000000 </v>
    <v>       2.58700000       4.48100000       0.00000000 </v>
    <v>       0.00000000       0.00000000      20.00000000 </v>
   </varray>
   <i name="volume">    463.69388000 </i>
   <varray name="rec_basis" >
    <v>       0.19327406      -0.11158224       0.00000000 </v>
    <v>       0.00000000       0.22316447       0.00000000 </v>
    <v>       0.00000000       0.00000000       0.05000000 </v>
   </varray>
  </crystal>
  <varray name="positions" >
   <v>       0.17457326       0.17462620       0.00000000 </v>
   <v>       0.50792519       0.50792234       0.00000000 </v>
   <v>       0.00000000       0.00000000       0.00000000 </v>
   <v>       0.52377271       0.00000000       0.00000000 </v>
   <v>       0.68255138       0.15866994       0.00000000 </v>
   <v>       0.99994706       0.52387860       0.00000000 </v>
   <v>       0.15872573       0.68254854       0.00000000 </v>
   <v>       0.68249844       0.68254854       0.00000000 </v>
  </varray>
 </structure>
 <calculation>
  <scstep>
   <time name="dav">   15.26   15.27</time>
   <time name="total">   15.41   15.45</time>
   <energy>
    <i name="alphaZ">     10.93933817 </i>
    <i name="ewald">   4060.05404224 </i>
    <i name="hartreedc">  -4796.78910906 </i>
    <i name="XCdc">     91.14028263 </i>
    <i name="pawpsdc">    738.13200929 </i>
    <i name="pawaedc">   -739.83780425 </i>
    <i name="eentropy">     -0.05532123 </i>
    <i name="bandstr">   -189.13035106 </i>
    <i name="atom">   1025.20389953 </i>
    <i name="e_fr_energy">    199.65698627 </i>
    <i name="e_wo_entrp">    199.71230750 </i>
    <i name="e_0_energy">    199.68464688 </i>
   </energy>
  </scstep>
  <scstep>
   <time name="dav">   20.48   20.49</time>
   <time name="total">   20.48   20.49</time>
   <energy>
    <i name="e_fr_energy">    -40.05254264 </i>
    <i name="e_wo_entrp">    -40.04194880 </i>
    <i name="e_0_energy">    -40.04724572 </i>
   </energy>
  </scstep>
  <scstep>
   <time name="dav">   17.33   17.35</time>
   <time name="total">   17.33   17.35</time>
   <energy>
    <i name="e_fr_energy">    -71.91598460 </i>
    <i name="e_wo_entrp">    -71.91598460 </i>
    <i name="e_0_energy">    -71.91598460 </i>
   </energy>
  </scstep>
  <scstep>
   <time name="dav">   19.00   19.02</time>
   <time name="total">   19.00   19.02</time>
   <energy>
    <i name="e_fr_energy">    -72.65317212 </i>
    <i name="e_wo_entrp">    -72.65317212 </i>
    <i name="e_0_energy">    -72.65317212 </i>
   </energy>
  </scstep>
  <scstep>
   <time name="dav">   17.36   17.38</time>
   <time name="total">   18.56   18.58</time>
   <energy>
    <i name="e_fr_energy">    -72.67221455 </i>
    <i name="e_wo_entrp">    -72.67221455 </i>
    <i name="e_0_energy">    -72.67221455 </i>
   </energy>
  </scstep>
  <scstep>
   <time name="dav">   19.41   19.43</time>
   <time name="total">   20.77   20.79</time>
   <energy>
    <i name="e_fr_energy">    -68.04034843 </i>
    <i name="e_wo_entrp">    -68.04034792 </i>
    <i name="e_0_energy">    -68.04034818 </i>
   </energy>
  </scstep>
  <scstep>
   <time name="dav">   19.40   19.42</time>
   <time name="total">   20.77   20.79</time>
   <energy>
    <i name="e_fr_energy">    -66.36728312 </i>
    <i name="e_wo_entrp">    -66.36646188 </i>
    <i name="e_0_energy">    -66.36687250 </i>
   </energy>
  </scstep>
  <scstep>
   <time name="dav">   19.23   19.25</time>
   <time name="total">   20.59   20.61</time>
   <energy>
    <i name="e_fr_energy">    -66.27991224 </i>
    <i name="e_wo_entrp">    -66.27812723 </i>
    <i name="e_0_energy">    -66.27901973 </i>
   </energy>
  </scstep>
  <scstep>
   <time name="dav">   16.80   16.82</time>
   <time name="total">   18.17   18.19</time>
   <energy>
    <i name="e_fr_energy">    -66.26283944 </i>
    <i name="e_wo_entrp">    -66.26103060 </i>
    <i name="e_0_energy">    -66.26193502 </i>
   </energy>
  </scstep>
  <scstep>
   <time name="dav">   17.10   17.12</time>
   <time name="total">   18.47   18.49</time>
   <energy>
    <i name="e_fr_energy">    -66.25088154 </i>
    <i name="e_wo_entrp">    -66.24850827 </i>
    <i name="e_0_energy">    -66.24969490 </i>
   </energy>
  </scstep>
  <scstep>
   <time name="dav">   16.17   16.19</time>
   <time name="total">   17.60   17.61</time>
   <energy>
    <i name="e_fr_energy">    -66.25034659 </i>
    <i name="e_wo_entrp">    -66.24781708 </i>
    <i name="e_0_energy">    -66.24908183 </i>
   </energy>
  </scstep>
  <scstep>
   <time name="dav">   15.41   15.42</time>
   <time name="total">   16.79   16.80</time>
   <energy>
    <i name="e_fr_energy">    -66.25014463 </i>
    <i name="e_wo_entrp">    -66.24743690 </i>
    <i name="e_0_energy">    -66.24879076 </i>
   </energy>
  </scstep>
  <scstep>
   <time name="dav">   15.15   15.17</time>
   <time name="total">   16.54   16.56</time>
   <energy>
    <i name="e_fr_energy">    -66.25439677 </i>
    <i name="e_wo_entrp">    -66.25165916 </i>
    <i name="e_0_energy">    -66.25302797 </i>
   </energy>
  </scstep>
  <scstep>
   <time name="dav">   15.55   15.56</time>
   <time name="total">   16.94   16.95</time>
   <energy>
    <i name="e_fr_energy">    -66.25697965 </i>
    <i name="e_wo_entrp">    -66.25426514 </i>
    <i name="e_0_energy">    -66.25562240 </i>
   </energy>
  </scstep>
  <scstep>
   <time name="dav">   15.44   15.45</time>
   <time name="total">   16.81   16.82</time>
   <energy>
    <i name="e_fr_energy">    -66.25772621 </i>
    <i name="e_wo_entrp">    -66.25500697 </i>
    <i name="e_0_energy">    -66.25636659 </i>
   </energy>
  </scstep>
  <scstep>
   <time name="dav">   14.75   14.76</time>
   <time name="total">   16.15   16.16</time>
   <energy>
    <i name="e_fr_energy">    -66.25809896 </i>
    <i name="e_wo_entrp">    -66.25538379 </i>
    <i name="e_0_energy">    -66.25674138 </i>
   </energy>
  </scstep>
  <scstep>
   <time name="dav">   15.65   15.67</time>
   <time name="total">   17.05   17.07</time>
   <energy>
    <i name="e_fr_energy">    -66.25816419 </i>
    <i name="e_wo_entrp">    -66.25544717 </i>
    <i name="e_0_energy">    -66.25680568 </i>
   </energy>
  </scstep>
  <scstep>
   <time name="dav">   15.17   15.19</time>
   <time name="total">   16.58   16.59</time>
   <energy>
    <i name="e_fr_energy">    -66.25820166 </i>
    <i name="e_wo_entrp">    -66.25548519 </i>
    <i name="e_0_energy">    -66.25684343 </i>
   </energy>
  </scstep>
  <scstep>
   <time name="dav">   15.55   15.56</time>
   <time name="total">   16.93   16.94</time>
   <energy>
    <i name="e_fr_energy">    -66.25821569 </i>
    <i name="e_wo_entrp">    -66.25549851 </i>
    <i name="e_0_energy">    -66.25685710 </i>
   </energy>
  </scstep>
  <scstep>
   <time name="dav">   12.34   12.35</time>
   <time name="total">   13.74   13.75</time>
   <energy>
    <i name="e_fr_energy">    -66.25822433 </i>
    <i name="e_wo_entrp">    -66.25550724 </i>
    <i name="e_0_energy">    -66.25686578 </i>
   </energy>
  </scstep>
  <scstep>
   <time name="dav">   12.25   12.26</time>
   <time name="total">   13.64   13.65</time>
   <energy>
    <i name="e_fr_energy">    -66.25823066 </i>
    <i name="e_wo_entrp">    -66.25551391 </i>
    <i name="e_0_energy">    -66.25687229 </i>
   </energy>
  </scstep>
  <scstep>
   <time name="dav">   12.37   12.39</time>
   <time name="total">   13.79   13.80</time>
   <energy>
    <i name="e_fr_energy">    -66.25823195 </i>
    <i name="e_wo_entrp">    -66.25551499 </i>
    <i name="e_0_energy">    -66.25687347 </i>
   </energy>
  </scstep>
  <scstep>
   <time name="dav">   12.51   12.52</time>
   <time name="total">   12.65   12.66</time>
   <energy>
    <i name="alphaZ">     10.93933817 </i>
    <i name="ewald">   4060.05404224 </i>
    <i name="hartreedc">  -4940.81282243 </i>
    <i name="XCdc">     96.11787112 </i>
    <i name="pawpsdc">   2909.83201774 </i>
    <i name="pawaedc">  -2912.38292844 </i>
    <i name="eentropy">     -0.00271701 </i>
    <i name="bandstr">   -315.20693310 </i>
    <i name="atom">   1025.20389953 </i>
    <i name="e_fr_energy">    -66.25823218 </i>
    <i name="e_wo_entrp">    -66.25551517 </i>
    <i name="e_0_energy">    -66.25687368 </i>
   </energy>
  </scstep>
  <structure>
   <crystal>
    <varray name="basis" >
     <v>       5.17400000       0.00000000       0.00000000 </v>
     <v>       2.58700000       4.48100000       0.00000000 </v>
     <v>       0.00000000       0.00000000      20.00000000 </v>
    </varray>
    <i name="volume">    463.69388000 </i>
    <varray name="rec_basis" >
     <v>       0.19327406      -0.11158224       0.00000000 </v>
     <v>       0.00000000       0.22316447       0.00000000 </v>
     <v>       0.00000000       0.00000000       0.05000000 </v>
    </varray>
   </crystal>
   <varray name="positions" >
    <v>       0.17457326       0.17462620       0.00000000 </v>
    <v>       0.50792519       0.50792234       0.00000000 </v>
    <v>       0.00000000       0.00000000       0.00000000 </v>
    <v>       0.52377271       0.00000000       0.00000000 </v>
    <v>       0.68255138       0.15866994       0.00000000 </v>
    <v>       0.99994706       0.52387860       0.00000000 </v>
    <v>       0.15872573       0.68254854       0.00000000 </v>
    <v>       0.68249844       0.68254854       0.00000000 </v>
   </varray>
  </structure>
  <varray name="forces" >
   <v>       0.00000000      -0.03187062       0.00000000 </v>
   <v>       0.00000000       0.03187062      -0.00000000 </v>
   <v>      -0.25674415      -0.07970247       0.00000000 </v>
   <v>       0.25674415      -0.07970247       0.00000000 </v>
   <v>      -0.00000000      -0.32019258       0.00000000 </v>
   <v>       0.00000000       0.32019258       0.00000000 </v>
   <v>      -0.25674415       0.07970247       0.00000000 </v>
   <v>       0.25674415       0.07970247       0.00000000 </v>
  </varray>
  <varray name="stress" >
   <v>       2.80742464      -0.00000000       0.00000000 </v>
   <v>      -0.00000000       3.35718498       0.00000000 </v>
   <v>       0.00000000       0.00000000      -0.62581682 </v>
  </varray>
  <energy>
   <i name="e_fr_energy">    -66.25823218 </i>
   <i name="e_wo_entrp">    -66.25687368 </i>
   <i name="e_0_energy">     -0.00271701 </i>
  </energy>
  <time name="totalsc">  411.67  423.30</time>
  <eigenvalues>
   <array>
    <dimension dim="1">band</dimension>
    <dimension dim="2">kpoint</dimension>
    <dimension dim="3">spin</dimension>
    <field>eigene</field>
    <field>occ</field>
    <set>
     <set comment="spin 1">
      <set comment="kpoint 1">
       <r>  -19.8313    1.0000 </r>
       <r>  -17.5717    1.0000 </r>
       <r>  -16.6992    1.0000 </r>
       <r>  -14.4488    1.0000 </r>
       <r>  -12.8033    1.0000 </r>
       <r>  -11.2619    1.0000 </r>
       <r>   -9.7608    1.0000 </r>
       <r>   -9.7461    1.0000 </r>
       <r>   -8.4211    1.0000 </r>
       <r>   -8.2419    1.0000 </r>
       <r>   -6.6478    1.0000 </r>
       <r>   -6.3174    1.0000 </r>
       <r>   -6.1085    1.0000 </r>
       <r>   -5.0490    1.0000 </r>
       <r>   -5.0207    1.0000 </r>
       <r>   -3.4172    0.0009 </r>
       <r>    0.0899    0.0000 </r>
       <r>    0.8097    0.0000 </r>
       <r>    1.2394    0.0000 </r>
       <r>    1.9913    0.0000 </r>
       <r>    2.3215    0.0000 </r>
       <r>    2.6819    0.0000 </r>
       <r>    3.3469    0.0000 </r>
       <r>    3.6685    0.0000 </r>
      </set>
      <set comment="kpoint 2">
       <r>  -19.8190    1.0000 </r>
       <r>  -17.5926    1.0000 </r>
       <r>  -16.7212    1.0000 </r>
       <r>  -14.4339    1.0000 </r>
       <r>  -12.7944    1.0000 </r>
       <r>  -11.1970    1.0000 </r>
       <r>   -9.8074    1.0000 </r>
       <r>   -9.6897    1.0000 </r>
       <r>   -8.3979    1.0000 </r>
       <r>   -8.2620    1.0000 </r>
       <r>   -6.6589    1.0000 </r>
       <r>   -6.3477    1.0000 </r>
       <r>   -6.1614    1.0000 </r>
       <r>   -5.0834    1.0000 </r>
       <r>   -5.0551    1.0000 </r>
       <r>   -3.3972    0.0005 </r>
       <r>    0.0305    0.0000 </r>
       <r>    0.9132    0.0000 </r>
       <r>    1.2717    0.0000 </r>
       <r>    2.0278    0.0000 </r>
       <r>    2.3544    0.0000 </r>
       <r>    2.7412    0.0000 </r>
       <r>    3.3808    0.0000 </r>
       <r>    3.6219    0.0000 </r>
      </set>
      <set comment="kpoint 3">
       <r>  -19.8022    1.0000 </r>
       <r>  -17.6103    1.0000 </r>
       <r>  -16.7726    1.0000 </r>
       <r>  -14.3773    1.0000 </r>
       <r>  -12.8206    1.0000 </r>
       <r>  -11.0906    1.0000 </r>
       <r>   -9.8826    1.0000 </r>
       <r>   -9.6194    1.0000 </r>
       <r>   -8.3662    1.0000 </r>
       <r>   -8.2513    1.0000 </r>
       <r>   -6.7065    1.0000 </r>
       <r>   -6.3721    1.0000 </r>
       <r>   -6.2140    1.0000 </r>
       <r>   -5.1725    1.0000 </r>
       <r>   -5.1185    1.0000 </r>
       <r>   -3.3230    0.0001 </r>
       <r>   -0.1183    0.0000 </r>
       <r>    1.1257    0.0000 </r>
       <r>    1.3160    0.0000 </r>
       <r>    2.0791    0.0000 </r>
       <r>    2.3994    0.0000 </r>
       <r>    2.7977    0.0000 </r>
       <r>    3.4257    0.0000 </r>
       <r>    3.5882    0.0000 </r>
      </set>
      <set comment="kpoint 4">
       <r>  -19.7812    1.0000 </r>
       <r>  -17.6248    1.0000 </r>
       <r>  -16.8473    1.0000 </r>
       <r>  -14.2854    1.0000 </r>
       <r>  -12.8720    1.0000 </r>
       <r>  -10.9545    1.0000 </r>
       <r>   -9.9779    1.0000 </r>
       <r>   -9.5366    1.0000 </r>
       <r>   -8.3263    1.0000 </r>
       <r>   -8.2157    1.0000 </r>
       <r>   -6.7870    1.0000 </r>
       <r>   -6.3910    1.0000 </r>
       <r>   -6.2665    1.0000 </r>
       <r>   -5.3010    1.0000 </r>
       <r>   -5.2085    1.0000 </r>
       <r>   -3.2093    0.0000 </r>
       <r>   -0.2933    0.0000 </r>
       <r>    1.3723    0.0000 </r>
       <r>    1.3807    0.0000 </r>
       <r>    2.1477    0.0000 </r>
       <r>    2.4565    0.0000 </r>
       <r>    2.8504    0.0000 </r>
       <r>    3.4813    0.0000 </r>
       <r>    3.5663    0.0000 </r>
      </set>
      <set comment="kpoint 5">
       <r>  -19.7566    1.0000 </r>
       <r>  -17.6368    1.0000 </r>
       <r>  -16.9371    1.0000 </r>
       <r>  -14.1674    1.0000 </r>
       <r>  -12.9375    1.0000 </r>
       <r>  -10.8053    1.0000 </r>
       <r>  -10.0806    1.0000 </r>
       <r>   -9.4417    1.0000 </r>
       <r>   -8.2785    1.0000 </r>
       <r>   -8.1644    1.0000 </r>
       <r>   -6.8932    1.0000 </r>
       <r>   -6.4054    1.0000 </r>
       <r>   -6.3216    1.0000 </r>
       <r>   -5.4522    1.0000 </r>
       <r>   -5.3212    1.0000 </r>
       <r>   -3.0731    0.0000 </r>
       <r>   -0.4691    0.0000 </r>
       <r>    1.4404    0.0000 </r>
       <r>    1.6476    0.0000 </r>
       <r>    2.2389    0.0000 </r>
       <r>    2.5257    0.0000 </r>
       <r>    2.8983    0.0000 </r>
       <r>    3.5477    0.0000 </r>
       <r>    3.5562    0.0000 </r>
      </set>
      <set comment="kpoint 6">
       <r>  -19.7291    1.0000 </r>
       <r>  -17.6473    1.0000 </r>
       <r>  -17.0334    1.0000 </r>
       <r>  -14.0347    1.0000 </r>
       <r>  -13.0056    1.0000 </r>
       <r>  -10.6708    1.0000 </r>
       <r>  -10.1652    1.0000 </r>
       <r>   -9.3346    1.0000 </r>
       <r>   -8.2236    1.0000 </r>
       <r>   -8.1091    1.0000 </r>
       <r>   -7.0148    1.0000 </r>
       <r>   -6.4176    1.0000 </r>
       <r>   -6.3821    1.0000 </r>
       <r>   -5.6114    1.0000 </r>
       <r>   -5.4504    1.0000 </r>
       <r>   -2.9288    0.0000 </r>
       <r>   -0.6342    0.0000 </r>
       <r>    1.5204    0.0000 </r>
       <r>    1.9028    0.0000 </r>
       <r>    2.3659    0.0000 </r>
       <r>    2.6069    0.0000 </r>
       <r>    2.9398    0.0000 </r>
       <r>    3.5577    0.0000 </r>
       <r>    3.6250    0.0000 </r>
      </set>
      <set comment="kpoint 7">
       <r>  -19.6996    1.0000 </r>
       <r>  -17.6587    1.0000 </r>
       <r>  -17.1272    1.0000 </r>
       <r>  -13.9013    1.0000 </r>
       <r>  -13.0639    1.0000 </r>
       <r>  -10.6101    1.0000 </r>
       <r>  -10.1737    1.0000 </r>
       <r>   -9.2157    1.0000 </r>
       <r>   -8.1624    1.0000 </r>
       <r>   -8.0651    1.0000 </r>
       <r>   -7.1382    1.0000 </r>
       <r>   -6.4508    1.0000 </r>
       <r>   -6.4325    1.0000 </r>
       <r>   -5.7651    1.0000 </r>
       <r>   -5.5879    1.0000 </r>
       <r>   -2.7894    0.0000 </r>
       <r>   -0.7807    0.0000 </r>
       <r>    1.6122    0.0000 </r>
       <r>    2.1185    0.0000 </r>
       <r>    2.5505    0.0000 </r>
       <r>    2.7003    0.0000 </r>
       <r>    2.9732    0.0000 </r>
       <r>    3.5709    0.0000 </r>
       <r>    3.7135    0.0000 </r>
      </set>
      <set comment="kpoint 8">
       <r>  -19.6695    1.0000 </r>
       <r>  -17.6747    1.0000 </r>
       <r>  -17.2094    1.0000 </r>
       <r>  -13.7874    1.0000 </r>
       <r>  -13.0951    1.0000 </r>
       <r>  -10.6566    1.0000 </r>
       <r>  -10.0736    1.0000 </r>
       <r>   -9.0866    1.0000 </r>
       <r>   -8.0962    1.0000 </r>
       <r>   -8.0522    1.0000 </r>
       <r>   -7.2450    1.0000 </r>
       <r>   -6.5297    1.0000 </r>
       <r>   -6.4590    1.0000 </r>
       <r>   -5.8978    1.0000 </r>
       <r>   -5.7227    1.0000 </r>
       <r>   -2.6669    0.0000 </r>
       <r>   -0.9009    0.0000 </r>
       <r>    1.7158    0.0000 </r>
       <r>    2.2850    0.0000 </r>
       <r>    2.7972    0.0000 </r>
       <r>    2.8057    0.0000 </r>
       <r>    2.9965    0.0000 </r>
       <r>    3.5955    0.0000 </r>
       <r>    3.8133    0.0000 </r>
      </set>
      <set comment="kpoint 9">
       <r>  -19.6402    1.0000 </r>
       <r>  -17.6991    1.0000 </r>
       <r>  -17.2714    1.0000 </r>
       <r>  -13.7188    1.0000 </r>
       <r>  -13.0778    1.0000 </r>
       <r>  -10.7503    1.0000 </r>
       <r>   -9.9244    1.0000 </r>
       <r>   -8.9527    1.0000 </r>
       <r>   -8.0866    1.0000 </r>
       <r>   -8.0273    1.0000 </r>
       <r>   -7.3195    1.0000 </r>
       <r>   -6.6181    1.0000 </r>
       <r>   -6.5096    1.0000 </r>
       <r>   -5.9918    1.0000 </r>
       <r>   -5.8423    1.0000 </r>
       <r>   -2.5732    0.0000 </r>
       <r>   -0.9862    0.0000 </r>
       <r>    1.8310    0.0000 </r>
       <r>    2.4205    0.0000 </r>
       <r>    2.9232    0.0000 </r>
       <r>    3.0090    0.0000 </r>
       <r>    3.0819    0.0000 </r>
       <r>    3.5514    0.0000 </r>
       <r>    3.6333    0.0000 </r>
      </set>
      <set comment="kpoint 10">
       <r>  -19.6137    1.0000 </r>
       <r>  -17.7337    1.0000 </r>
       <r>  -17.3073    1.0000 </r>
       <r>  -13.7072    1.0000 </r>
       <r>  -13.0062    1.0000 </r>
       <r>  -10.8477    1.0000 </r>
       <r>   -9.7688    1.0000 </r>
       <r>   -8.8315    1.0000 </r>
       <r>   -8.1550    1.0000 </r>
       <r>   -7.9590    1.0000 </r>
       <r>   -7.3701    1.0000 </r>
       <r>   -6.7072    1.0000 </r>
       <r>   -6.5894    1.0000 </r>
       <r>   -6.0365    1.0000 </r>
       <r>   -5.9348    1.0000 </r>
       <r>   -2.5183    0.0000 </r>
       <r>   -1.0295    0.0000 </r>
       <r>    1.9579    0.0000 </r>
       <r>    2.5373    0.0000 </r>
       <r>    3.0157    0.0000 </r>
       <r>    3.0528    0.0000 </r>
       <r>    3.2892    0.0000 </r>
       <r>    3.3779    0.0000 </r>
       <r>    3.6802    0.0000 </r>
      </set>
      <set comment="kpoint 11">
       <r>  -19.5922    1.0000 </r>
       <r>  -17.7742    1.0000 </r>
       <r>  -17.3177    1.0000 </r>
       <r>  -13.7371    1.0000 </r>
       <r>  -12.9040    1.0000 </r>
       <r>  -10.9288    1.0000 </r>
       <r>   -9.6254    1.0000 </r>
       <r>   -8.7712    1.0000 </r>
       <r>   -8.1916    1.0000 </r>
       <r>   -7.8968    1.0000 </r>
       <r>   -7.4326    1.0000 </r>
       <r>   -6.7766    1.0000 </r>
       <r>   -6.6846    1.0000 </r>
       <r>   -6.0389    1.0000 </r>
       <r>   -5.9922    1.0000 </r>
       <r>   -2.5064    0.0000 </r>
       <r>   -1.0294    0.0000 </r>
       <r>    2.0964    0.0000 </r>
       <r>    2.6261    0.0000 </r>
       <r>    3.0303    0.0000 </r>
       <r>    3.0370    0.0000 </r>
       <r>    3.1945    0.0000 </r>
       <r>    3.6485    0.0000 </r>
       <r>    3.8275    0.0000 </r>
      </set>
      <set comment="kpoint 12">
       <r>  -19.5779    1.0000 </r>
       <r>  -17.8122    1.0000 </r>
       <r>  -17.3076    1.0000 </r>
       <r>  -13.7873    1.0000 </r>
       <r>  -12.8029    1.0000 </r>
       <r>  -10.9793    1.0000 </r>
       <r>   -9.5119    1.0000 </r>
       <r>   -8.8177    1.0000 </r>
       <r>   -8.1266    1.0000 </r>
       <r>   -7.8493    1.0000 </r>
       <r>   -7.5351    1.0000 </r>
       <r>   -6.8088    1.0000 </r>
       <r>   -6.7721    1.0000 </r>
       <r>   -6.0125    1.0000 </r>
       <r>   -6.0109    1.0000 </r>
       <r>   -2.5331    0.0000 </r>
       <r>   -0.9920    0.0000 </r>
       <r>    2.2466    0.0000 </r>
       <r>    2.6576    0.0000 </r>
       <r>    2.7960    0.0000 </r>
       <r>    3.0822    0.0000 </r>
       <r>    3.3481    0.0000 </r>
       <r>    3.5566    0.0000 </r>
       <r>    3.8156    0.0000 </r>
      </set>
      <set comment="kpoint 13">
       <r>  -19.5730    1.0000 </r>
       <r>  -17.8397    1.0000 </r>
       <r>  -17.2822    1.0000 </r>
       <r>  -13.8447    1.0000 </r>
       <r>  -12.7270    1.0000 </r>
       <r>  -10.9871    1.0000 </r>
       <r>   -9.4652    1.0000 </r>
       <r>   -8.9056    1.0000 </r>
       <r>   -8.0093    1.0000 </r>
       <r>   -7.8282    1.0000 </r>
       <r>   -7.6499    1.0000 </r>
       <r>   -6.8307    1.0000 </r>
       <r>   -6.8095    1.0000 </r>
       <r>   -5.9907    1.0000 </r>
       <r>   -5.9671    1.0000 </r>
       <r>   -2.5880    0.0000 </r>
       <r>   -0.9294    0.0000 </r>
       <r>    2.4082    0.0000 </r>
       <r>    2.5664    0.0000 </r>
       <r>    2.6179    0.0000 </r>
       <r>    3.1750    0.0000 </r>
       <r>    3.3658    0.0000 </r>
       <r>    3.5138    0.0000 </r>
       <r>    3.6759    0.0000 </r>
      </set>
      <set comment="kpoint 14">
       <r>  -19.5790    1.0000 </r>
       <r>  -17.8509    1.0000 </r>
       <r>  -17.2456    1.0000 </r>
       <r>  -13.9028    1.0000 </r>
       <r>  -12.6907    1.0000 </r>
       <r>  -10.9449    1.0000 </r>
       <r>   -9.5372    1.0000 </r>
       <r>   -8.9366    1.0000 </r>
       <r>   -8.0136    1.0000 </r>
       <r>   -7.8432    1.0000 </r>
       <r>   -7.6285    1.0000 </r>
       <r>   -6.8448    1.0000 </r>
       <r>   -6.7946    1.0000 </r>
       <r>   -5.9343    1.0000 </r>
       <r>   -5.9081    1.0000 </r>
       <r>   -2.6601    0.0000 </r>
       <r>   -0.8539    0.0000 </r>
       <r>    2.3480    0.0000 </r>
       <r>    2.5245    0.0000 </r>
       <r>    2.5816    0.0000 </r>
       <r>    3.1234    0.0000 </r>
       <r>    3.3628    0.0000 </r>
       <r>    3.4523    0.0000 </r>
       <r>    3.6916    0.0000 </r>
      </set>
      <set comment="kpoint 15">
       <r>  -19.5967    1.0000 </r>
       <r>  -17.8425    1.0000 </r>
       <r>  -17.2003    1.0000 </r>
       <r>  -13.9581    1.0000 </r>
       <r>  -12.6971    1.0000 </r>
       <r>  -10.8555    1.0000 </r>
       <r>   -9.7105    1.0000 </r>
       <r>   -8.9189    1.0000 </r>
       <r>   -8.1490    1.0000 </r>
       <r>   -7.8955    1.0000 </r>
       <r>   -7.4546    1.0000 </r>
       <r>   -6.8109    1.0000 </r>
       <r>   -6.7712    1.0000 </r>
       <r>   -5.8473    1.0000 </r>
       <r>   -5.8388    1.0000 </r>
       <r>   -2.7399    0.0000 </r>
       <r>   -0.7753    0.0000 </r>
       <r>    2.1413    0.0000 </r>
       <r>    2.3958    0.0000 </r>
       <r>    2.7662    0.0000 </r>
       <r>    2.9445    0.0000 </r>
       <r>    3.2408    0.0000 </r>
       <r>    3.5129    0.0000 </r>
       <r>    3.8814    0.0000 </r>
      </set>
      <set comment="kpoint 16">
       <r>  -19.6253    1.0000 </r>
       <r>  -17.8134    1.0000 </r>
       <r>  -17.1481    1.0000 </r>
       <r>  -14.0085    1.0000 </r>
       <r>  -12.7401    1.0000 </r>
       <r>  -10.7330    1.0000 </r>
       <r>   -9.9243    1.0000 </r>
       <r>   -8.9352    1.0000 </r>
       <r>   -8.2590    1.0000 </r>
       <r>   -7.9763    1.0000 </r>
       <r>   -7.2563    1.0000 </r>
       <r>   -6.7364    1.0000 </r>
       <r>   -6.7314    1.0000 </r>
       <r>   -5.7613    1.0000 </r>
       <r>   -5.7373    1.0000 </r>
       <r>   -2.8208    0.0000 </r>
       <r>   -0.7004    0.0000 </r>
       <r>    1.9461    0.0000 </r>
       <r>    2.2431    0.0000 </r>
       <r>    2.7643    0.0000 </r>
       <r>    2.9623    0.0000 </r>
       <r>    3.0413    0.0000 </r>
       <r>    3.6155    0.0000 </r>
       <r>    3.7900    0.0000 </r>
      </set>
      <set comment="kpoint 17">
       <r>  -19.6636    1.0000 </r>
       <r>  -17.7644    1.0000 </r>
       <r>  -17.0903    1.0000 </r>
       <r>  -14.0528    1.0000 </r>
       <r>  -12.8096    1.0000 </r>
       <r>  -10.6133    1.0000 </r>
       <r>  -10.1268    1.0000 </r>
       <r>   -9.0465    1.0000 </r>
       <r>   -8.2746    1.0000 </r>
       <r>   -8.0737    1.0000 </r>
       <r>   -7.0881    1.0000 </r>
       <r>   -6.6490    1.0000 </r>
       <r>   -6.6323    1.0000 </r>
       <r>   -5.6772    1.0000 </r>
       <r>   -5.6115    1.0000 </r>
       <r>   -2.8978    0.0000 </r>
       <r>   -0.6332    0.0000 </r>
       <r>    1.7625    0.0000 </r>
       <r>    2.0743    0.0000 </r>
       <r>    2.5872    0.0000 </r>
       <r>    2.8539    0.0000 </r>
       <r>    3.1698    0.0000 </r>
       <r>    3.4080    0.0000 </r>
       <r>    3.8315    0.0000 </r>
      </set>
      <set comment="kpoint 18">
       <r>  -19.7092    1.0000 </r>
       <r>  -17.6971    1.0000 </r>
       <r>  -17.0281    1.0000 </r>
       <r>  -14.0903    1.0000 </r>
       <r>  -12.8964    1.0000 </r>
       <r>  -10.6171    1.0000 </r>
       <r>  -10.1973    1.0000 </r>
       <r>   -9.2366    1.0000 </r>
       <r>   -8.2104    1.0000 </r>
       <r>   -8.1788    1.0000 </r>
       <r>   -6.9853    1.0000 </r>
       <r>   -6.5080    1.0000 </r>
       <r>   -6.4953    1.0000 </r>
       <r>   -5.5884    1.0000 </r>
       <r>   -5.4760    1.0000 </r>
       <r>   -2.9671    0.0000 </r>
       <r>   -0.5762    0.0000 </r>
       <r>    1.5906    0.0000 </r>
       <r>    1.8944    0.0000 </r>
       <r>    2.4124    0.0000 </r>
       <r>    2.6785    0.0000 </r>
       <r>    3.1285    0.0000 </r>
       <r>    3.3886    0.0000 </r>
       <r>    3.6983    0.0000 </r>
      </set>
      <set comment="kpoint 19">
       <r>  -19.7599    1.0000 </r>
       <r>  -17.6138    1.0000 </r>
       <r>  -16.9624    1.0000 </r>
       <r>  -14.1203    1.0000 </r>
       <r>  -12.9932    1.0000 </r>
       <r>  -10.8028    1.0000 </r>
       <r>  -10.0810    1.0000 </r>
       <r>   -9.4632    1.0000 </r>
       <r>   -8.2855    1.0000 </r>
       <r>   -8.1062    1.0000 </r>
       <r>   -6.9350    1.0000 </r>
       <r>   -6.3697    1.0000 </r>
       <r>   -6.2860    1.0000 </r>
       <r>   -5.4965    1.0000 </r>
       <r>   -5.3355    1.0000 </r>
       <r>   -3.0255    0.0000 </r>
       <r>   -0.5302    0.0000 </r>
       <r>    1.4303    0.0000 </r>
       <r>    1.7067    0.0000 </r>
       <r>    2.2388    0.0000 </r>
       <r>    2.5152    0.0000 </r>
       <r>    2.8378    0.0000 </r>
       <r>    3.5354    0.0000 </r>
       <r>    3.6184    0.0000 </r>
      </set>
      <set comment="kpoint 20">
       <r>  -19.8133    1.0000 </r>
       <r>  -17.5169    1.0000 </r>
       <r>  -16.8943    1.0000 </r>
       <r>  -14.1425    1.0000 </r>
       <r>  -13.0950    1.0000 </r>
       <r>  -11.0401    1.0000 </r>
       <r>   -9.9142    1.0000 </r>
       <r>   -9.7011    1.0000 </r>
       <r>   -8.3900    1.0000 </r>
       <r>   -7.9831    1.0000 </r>
       <r>   -6.9072    1.0000 </r>
       <r>   -6.2219    1.0000 </r>
       <r>   -6.0531    1.0000 </r>
       <r>   -5.4036    1.0000 </r>
       <r>   -5.1937    1.0000 </r>
       <r>   -3.0705    0.0000 </r>
       <r>   -0.4952    0.0000 </r>
       <r>    1.2817    0.0000 </r>
       <r>    1.5134    0.0000 </r>
       <r>    2.0634    0.0000 </r>
       <r>    2.3640    0.0000 </r>
       <r>    2.5483    0.0000 </r>
       <r>    3.3816    0.0000 </r>
       <r>    3.7389    0.0000 </r>
      </set>
      <set comment="kpoint 21">
       <r>  -19.8676    1.0000 </r>
       <r>  -17.4089    1.0000 </r>
       <r>  -16.8249    1.0000 </r>
       <r>  -14.1567    1.0000 </r>
       <r>  -13.1985    1.0000 </r>
       <r>  -11.2855    1.0000 </r>
       <r>   -9.9529    1.0000 </r>
       <r>   -9.7304    1.0000 </r>
       <r>   -8.4898    1.0000 </r>
       <r>   -7.8497    1.0000 </r>
       <r>   -6.8866    1.0000 </r>
       <r>   -6.0679    1.0000 </r>
       <r>   -5.8139    1.0000 </r>
       <r>   -5.3120    1.0000 </r>
       <r>   -5.0538    1.0000 </r>
       <r>   -3.0991    0.0000 </r>
       <r>   -0.4708    0.0000 </r>
       <r>    1.1448    0.0000 </r>
       <r>    1.3162    0.0000 </r>
       <r>    1.8777    0.0000 </r>
       <r>    2.2249    0.0000 </r>
       <r>    2.2751    0.0000 </r>
       <r>    3.2400    0.0000 </r>
       <r>    3.6007    0.0000 </r>
      </set>
      <set comment="kpoint 22">
       <r>  -19.9210    1.0000 </r>
       <r>  -17.2919    1.0000 </r>
       <r>  -16.7553    1.0000 </r>
       <r>  -14.1629    1.0000 </r>
       <r>  -13.3014    1.0000 </r>
       <r>  -11.5282    1.0000 </r>
       <r>  -10.1908    1.0000 </r>
       <r>   -9.5644    1.0000 </r>
       <r>   -8.5836    1.0000 </r>
       <r>   -7.7100    1.0000 </r>
       <r>   -6.8674    1.0000 </r>
       <r>   -5.9106    1.0000 </r>
       <r>   -5.5767    1.0000 </r>
       <r>   -5.2242    1.0000 </r>
       <r>   -4.9182    1.0000 </r>
       <r>   -3.1089    0.0000 </r>
       <r>   -0.4561    0.0000 </r>
       <r>    1.0197    0.0000 </r>
       <r>    1.1172    0.0000 </r>
       <r>    1.6646    0.0000 </r>
       <r>    2.0402    0.0000 </r>
       <r>    2.0978    0.0000 </r>
       <r>    3.1110    0.0000 </r>
       <r>    3.4744    0.0000 </r>
      </set>
      <set comment="kpoint 23">
       <r>  -19.9723    1.0000 </r>
       <r>  -17.1685    1.0000 </r>
       <r>  -16.6867    1.0000 </r>
       <r>  -14.1613    1.0000 </r>
       <r>  -13.4021    1.0000 </r>
       <r>  -11.7631    1.0000 </r>
       <r>  -10.4238    1.0000 </r>
       <r>   -9.4095    1.0000 </r>
       <r>   -8.6702    1.0000 </r>
       <r>   -7.5666    1.0000 </r>
       <r>   -6.8471    1.0000 </r>
       <r>   -5.7527    1.0000 </r>
       <r>   -5.3467    1.0000 </r>
       <r>   -5.1427    1.0000 </r>
       <r>   -4.7890    1.0000 </r>
       <r>   -3.0976    0.0000 </r>
       <r>   -0.4504    0.0000 </r>
       <r>    0.9064    0.0000 </r>
       <r>    0.9186    0.0000 </r>
       <r>    1.4151    0.0000 </r>
       <r>    1.8576    0.0000 </r>
       <r>    1.9828    0.0000 </r>
       <r>    2.9945    0.0000 </r>
       <r>    3.3600    0.0000 </r>
      </set>
      <set comment="kpoint 24">
       <r>  -20.0203    1.0000 </r>
       <r>  -17.0409    1.0000 </r>
       <r>  -16.6204    1.0000 </r>
       <r>  -14.1522    1.0000 </r>
       <r>  -13.4995    1.0000 </r>
       <r>  -11.9864    1.0000 </r>
       <r>  -10.6471    1.0000 </r>
       <r>   -9.2710    1.0000 </r>
       <r>   -8.7489    1.0000 </r>
       <r>   -7.4223    1.0000 </r>
       <r>   -6.8253    1.0000 </r>
       <r>   -5.5970    1.0000 </r>
       <r>   -5.1279    1.0000 </r>
       <r>   -5.0699    1.0000 </r>
       <r>   -4.6684    1.0000 </r>
       <r>   -3.0636    0.0000 </r>
       <r>   -0.4525    0.0000 </r>
       <r>    0.7225    0.0000 </r>
       <r>    0.8048    0.0000 </r>
       <r>    1.1440    0.0000 </r>
       <r>    1.7173    0.0000 </r>
       <r>    1.8799    0.0000 </r>
       <r>    2.8904    0.0000 </r>
       <r>    3.2575    0.0000 </r>
      </set>
      <set comment="kpoint 25">
       <r>  -20.0641    1.0000 </r>
       <r>  -16.9120    1.0000 </r>
       <r>  -16.5577    1.0000 </r>
       <r>  -14.1366    1.0000 </r>
       <r>  -13.5928    1.0000 </r>
       <r>  -12.1947    1.0000 </r>
       <r>  -10.8575    1.0000 </r>
       <r>   -9.1507    1.0000 </r>
       <r>   -8.8192    1.0000 </r>
       <r>   -7.2800    1.0000 </r>
       <r>   -6.8021    1.0000 </r>
       <r>   -5.4464    1.0000 </r>
       <r>   -5.0074    1.0000 </r>
       <r>   -4.9237    1.0000 </r>
       <r>   -4.5579    1.0000 </r>
       <r>   -3.0064    0.0000 </r>
       <r>   -0.4619    0.0000 </r>
       <r>    0.5298    0.0000 </r>
       <r>    0.7151    0.0000 </r>
       <r>    0.8726    0.0000 </r>
       <r>    1.6048    0.0000 </r>
       <r>    1.7891    0.0000 </r>
       <r>    2.7987    0.0000 </r>
       <r>    3.1669    0.0000 </r>
      </set>
      <set comment="kpoint 26">
       <r>  -20.1032    1.0000 </r>
       <r>  -16.7849    1.0000 </r>
       <r>  -16.4999    1.0000 </r>
       <r>  -14.1157    1.0000 </r>
       <r>  -13.6814    1.0000 </r>
       <r>  -12.3842    1.0000 </r>
       <r>  -11.0519    1.0000 </r>
       <r>   -9.0493    1.0000 </r>
       <r>   -8.8806    1.0000 </r>
       <r>   -7.1436    1.0000 </r>
       <r>   -6.7784    1.0000 </r>
       <r>   -5.3040    1.0000 </r>
       <r>   -4.9561    1.0000 </r>
       <r>   -4.7376    1.0000 </r>
       <r>   -4.4591    1.0000 </r>
       <r>   -2.9271    0.0000 </r>
       <r>   -0.4779    0.0000 </r>
       <r>    0.3371    0.0000 </r>
       <r>    0.6200    0.0000 </r>
       <r>    0.6372    0.0000 </r>
       <r>    1.5127    0.0000 </r>
       <r>    1.7104    0.0000 </r>
       <r>    2.7194    0.0000 </r>
       <r>    3.0883    0.0000 </r>
      </set>
      <set comment="kpoint 27">
       <r>  -20.1370    1.0000 </r>
       <r>  -16.6631    1.0000 </r>
       <r>  -16.4484    1.0000 </r>
       <r>  -14.0914    1.0000 </r>
       <r>  -13.7643    1.0000 </r>
       <r>  -12.5511    1.0000 </r>
       <r>  -11.2271    1.0000 </r>
       <r>   -8.9664    1.0000 </r>
       <r>   -8.9331    1.0000 </r>
       <r>   -7.0172    1.0000 </r>
       <r>   -6.7553    1.0000 </r>
       <r>   -5.1737    1.0000 </r>
       <r>   -4.9159    1.0000 </r>
       <r>   -4.5728    1.0000 </r>
       <r>   -4.3734    0.9999 </r>
       <r>   -2.8292    0.0000 </r>
       <r>   -0.5001    0.0000 </r>
       <r>    0.1357    0.0000 </r>
       <r>    0.4078    0.0000 </r>
       <r>    0.5712    0.0000 </r>
       <r>    1.4373    0.0000 </r>
       <r>    1.6438    0.0000 </r>
       <r>    2.6522    0.0000 </r>
       <r>    3.0217    0.0000 </r>
      </set>
      <set comment="kpoint 28">
       <r>  -20.1652    1.0000 </r>
       <r>  -16.5514    1.0000 </r>
       <r>  -16.4043    1.0000 </r>
       <r>  -14.0658    1.0000 </r>
       <r>  -13.8401    1.0000 </r>
       <r>  -12.6918    1.0000 </r>
       <r>  -11.3791    1.0000 </r>
       <r>   -8.9762    1.0000 </r>
       <r>   -8.9009    1.0000 </r>
       <r>   -6.9055    1.0000 </r>
       <r>   -6.7341    1.0000 </r>
       <r>   -5.0590    1.0000 </r>
       <r>   -4.8857    1.0000 </r>
       <r>   -4.4327    1.0000 </r>
       <r>   -4.3019    0.9991 </r>
       <r>   -2.7187    0.0000 </r>
       <r>   -0.5271    0.0000 </r>
       <r>   -0.0751    0.0000 </r>
       <r>    0.2489    0.0000 </r>
       <r>    0.5171    0.0000 </r>
       <r>    1.3768    0.0000 </r>
       <r>    1.5893    0.0000 </r>
       <r>    2.5974    0.0000 </r>
       <r>    2.9671    0.0000 </r>
      </set>
      <set comment="kpoint 29">
       <r>  -20.1873    1.0000 </r>
       <r>  -16.4550    1.0000 </r>
       <r>  -16.3688    1.0000 </r>
       <r>  -14.0418    1.0000 </r>
       <r>  -13.9059    1.0000 </r>
       <r>  -12.8030    1.0000 </r>
       <r>  -11.5041    1.0000 </r>
       <r>   -9.0099    1.0000 </r>
       <r>   -8.8516    1.0000 </r>
       <r>   -6.8130    1.0000 </r>
       <r>   -6.7160    1.0000 </r>
       <r>   -4.9642    1.0000 </r>
       <r>   -4.8643    1.0000 </r>
       <r>   -4.3200    0.9994 </r>
       <r>   -4.2453    0.9968 </r>
       <r>   -2.6049    0.0000 </r>
       <r>   -0.5563    0.0000 </r>
       <r>   -0.2775    0.0000 </r>
       <r>    0.1377    0.0000 </r>
       <r>    0.4750    0.0000 </r>
       <r>    1.3304    0.0000 </r>
       <r>    1.5468    0.0000 </r>
       <r>    2.5547    0.0000 </r>
       <r>    2.9246    0.0000 </r>
      </set>
      <set comment="kpoint 30">
       <r>  -20.2033    1.0000 </r>
       <r>  -16.3800    1.0000 </r>
       <r>  -16.3427    1.0000 </r>
       <r>  -14.0222    1.0000 </r>
       <r>  -13.9581    1.0000 </r>
       <r>  -12.8830    1.0000 </r>
       <r>  -11.5975    1.0000 </r>
       <r>   -9.0340    1.0000 </r>
       <r>   -8.8174    1.0000 </r>
       <r>   -6.7436    1.0000 </r>
       <r>   -6.7022    1.0000 </r>
       <r>   -4.8932    1.0000 </r>
       <r>   -4.8502    1.0000 </r>
       <r>   -4.2376    0.9962 </r>
       <r>   -4.2044    0.9925 </r>
       <r>   -2.5015    0.0000 </r>
       <r>   -0.5832    0.0000 </r>
       <r>   -0.4482    0.0000 </r>
       <r>    0.0648    0.0000 </r>
       <r>    0.4449    0.0000 </r>
       <r>    1.2976    0.0000 </r>
       <r>    1.5165    0.0000 </r>
       <r>    2.5243    0.0000 </r>
       <r>    2.8942    0.0000 </r>
      </set>
      <set comment="kpoint 31">
       <r>  -20.2130    1.0000 </r>
       <r>  -16.3328    1.0000 </r>
       <r>  -16.3259    1.0000 </r>
       <r>  -14.0093    1.0000 </r>
       <r>  -13.9920    1.0000 </r>
       <r>  -12.9308    1.0000 </r>
       <r>  -11.6556    1.0000 </r>
       <r>   -9.0485    1.0000 </r>
       <r>   -8.7973    1.0000 </r>
       <r>   -6.7010    1.0000 </r>
       <r>   -6.6931    1.0000 </r>
       <r>   -4.8496    1.0000 </r>
       <r>   -4.8416    1.0000 </r>
       <r>   -4.1872    0.9896 </r>
       <r>   -4.1797    0.9880 </r>
       <r>   -2.4268    0.0000 </r>
       <r>   -0.6024    0.0000 </r>
       <r>   -0.5643    0.0000 </r>
       <r>    0.0237    0.0000 </r>
       <r>    0.4268    0.0000 </r>
       <r>    1.2780    0.0000 </r>
       <r>    1.4983    0.0000 </r>
       <r>    2.5060    0.0000 </r>
       <r>    2.8759    0.0000 </r>
      </set>
      <set comment="kpoint 32">
       <r>  -20.2162    1.0000 </r>
       <r>  -16.3224    1.0000 </r>
       <r>  -16.3143    1.0000 </r>
       <r>  -14.0050    1.0000 </r>
       <r>  -14.0036    1.0000 </r>
       <r>  -12.9468    1.0000 </r>
       <r>  -11.6753    1.0000 </r>
       <r>   -9.0533    1.0000 </r>
       <r>   -8.7906    1.0000 </r>
       <r>   -6.6913    1.0000 </r>
       <r>   -6.6853    1.0000 </r>
       <r>   -4.8406    1.0000 </r>
       <r>   -4.8330    1.0000 </r>
       <r>   -4.1716    0.9861 </r>
       <r>   -4.1700    0.9857 </r>
       <r>   -2.3992    0.0000 </r>
       <r>   -0.6098    0.0000 </r>
       <r>   -0.6055    0.0000 </r>
       <r>    0.0104    0.0000 </r>
       <r>    0.4207    0.0000 </r>
       <r>    1.2715    0.0000 </r>
       <r>    1.4923    0.0000 </r>
       <r>    2.4999    0.0000 </r>
       <r>    2.8698    0.0000 </r>
      </set>
      <set comment="kpoint 33">
       <r>  -20.2162    1.0000 </r>
       <r>  -16.3224    1.0000 </r>
       <r>  -16.3143    1.0000 </r>
       <r>  -14.0050    1.0000 </r>
       <r>  -14.0036    1.0000 </r>
       <r>  -12.9468    1.0000 </r>
       <r>  -11.6753    1.0000 </r>
       <r>   -9.0533    1.0000 </r>
       <r>   -8.7906    1.0000 </r>
       <r>   -6.6913    1.0000 </r>
       <r>   -6.6853    1.0000 </r>
       <r>   -4.8406    1.0000 </r>
       <r>   -4.8330    1.0000 </r>
       <r>   -4.1716    0.9861 </r>
       <r>   -4.1700    0.9857 </r>
       <r>   -2.3992    0.0000 </r>
       <r>   -0.6098    0.0000 </r>
       <r>   -0.6055    0.0000 </r>
       <r>    0.0104    0.0000 </r>
       <r>    0.4207    0.0000 </r>
       <r>    1.2715    0.0000 </r>
       <r>    1.4923    0.0000 </r>
       <r>    2.4999    0.0000 </r>
       <r>    2.8698    0.0000 </r>
      </set>
      <set comment="kpoint 34">
       <r>  -20.2151    1.0000 </r>
       <r>  -16.3271    1.0000 </r>
       <r>  -16.3167    1.0000 </r>
       <r>  -14.0055    1.0000 </r>
       <r>  -14.0007    1.0000 </r>
       <r>  -12.9417    1.0000 </r>
       <r>  -11.6689    1.0000 </r>
       <r>   -9.0517    1.0000 </r>
       <r>   -8.7927    1.0000 </r>
       <r>   -6.6954    1.0000 </r>
       <r>   -6.6869    1.0000 </r>
       <r>   -4.8447    1.0000 </r>
       <r>   -4.8345    1.0000 </r>
       <r>   -4.1768    0.9874 </r>
       <r>   -4.1729    0.9864 </r>
       <r>   -2.4083    0.0000 </r>
       <r>   -0.6046    0.0000 </r>
       <r>   -0.5948    0.0000 </r>
       <r>    0.0147    0.0000 </r>
       <r>    0.4227    0.0000 </r>
       <r>    1.2736    0.0000 </r>
       <r>    1.4942    0.0000 </r>
       <r>    2.5019    0.0000 </r>
       <r>    2.8717    0.0000 </r>
      </set>
      <set comment="kpoint 35">
       <r>  -20.2120    1.0000 </r>
       <r>  -16.3423    1.0000 </r>
       <r>  -16.3225    1.0000 </r>
       <r>  -14.0099    1.0000 </r>
       <r>  -13.9893    1.0000 </r>
       <r>  -12.9264    1.0000 </r>
       <r>  -11.6499    1.0000 </r>
       <r>   -9.0471    1.0000 </r>
       <r>   -8.7992    1.0000 </r>
       <r>   -6.7090    1.0000 </r>
       <r>   -6.6902    1.0000 </r>
       <r>   -4.8585    1.0000 </r>
       <r>   -4.8376    1.0000 </r>
       <r>   -4.1931    0.9907 </r>
       <r>   -4.1810    0.9883 </r>
       <r>   -2.4346    0.0000 </r>
       <r>   -0.5975    0.0000 </r>
       <r>   -0.5556    0.0000 </r>
       <r>    0.0275    0.0000 </r>
       <r>    0.4285    0.0000 </r>
       <r>    1.2799    0.0000 </r>
       <r>    1.5001    0.0000 </r>
       <r>    2.5077    0.0000 </r>
       <r>    2.8776    0.0000 </r>
      </set>
      <set comment="kpoint 36">
       <r>  -20.2069    1.0000 </r>
       <r>  -16.3681    1.0000 </r>
       <r>  -16.3312    1.0000 </r>
       <r>  -14.0175    1.0000 </r>
       <r>  -13.9704    1.0000 </r>
       <r>  -12.9008    1.0000 </r>
       <r>  -11.6187    1.0000 </r>
       <r>   -9.0393    1.0000 </r>
       <r>   -8.8099    1.0000 </r>
       <r>   -6.7321    1.0000 </r>
       <r>   -6.6949    1.0000 </r>
       <r>   -4.8822    1.0000 </r>
       <r>   -4.8419    1.0000 </r>
       <r>   -4.2202    0.9945 </r>
       <r>   -4.1942    0.9909 </r>
       <r>   -2.4757    0.0000 </r>
       <r>   -0.5861    0.0000 </r>
       <r>   -0.4934    0.0000 </r>
       <r>    0.0495    0.0000 </r>
       <r>    0.4382    0.0000 </r>
       <r>    1.2903    0.0000 </r>
       <r>    1.5098    0.0000 </r>
       <r>    2.5175    0.0000 </r>
       <r>    2.8874    0.0000 </r>
      </set>
      <set comment="kpoint 37">
       <r>  -20.1996    1.0000 </r>
       <r>  -16.4034    1.0000 </r>
       <r>  -16.3428    1.0000 </r>
       <r>  -14.0284    1.0000 </r>
       <r>  -13.9441    1.0000 </r>
       <r>  -12.8651    1.0000 </r>
       <r>  -11.5757    1.0000 </r>
       <r>   -9.0285    1.0000 </r>
       <r>   -8.8250    1.0000 </r>
       <r>   -6.7644    1.0000 </r>
       <r>   -6.7008    1.0000 </r>
       <r>   -4.9152    1.0000 </r>
       <r>   -4.8474    1.0000 </r>
       <r>   -4.2578    0.9975 </r>
       <r>   -4.2125    0.9936 </r>
       <r>   -2.5280    0.0000 </r>
       <r>   -0.5703    0.0000 </r>
       <r>   -0.4133    0.0000 </r>
       <r>    0.0817    0.0000 </r>
       <r>    0.4518    0.0000 </r>
       <r>    1.3051    0.0000 </r>
       <r>    1.5235    0.0000 </r>
       <r>    2.5312    0.0000 </r>
       <r>    2.9011    0.0000 </r>
      </set>
      <set comment="kpoint 38">
       <r>  -20.1904    1.0000 </r>
       <r>  -16.4474    1.0000 </r>
       <r>  -16.3571    1.0000 </r>
       <r>  -14.0426    1.0000 </r>
       <r>  -13.9109    1.0000 </r>
       <r>  -12.8193    1.0000 </r>
       <r>  -11.5215    1.0000 </r>
       <r>   -9.0145    1.0000 </r>
       <r>   -8.8448    1.0000 </r>
       <r>   -6.8055    1.0000 </r>
       <r>   -6.7078    1.0000 </r>
       <r>   -4.9572    1.0000 </r>
       <r>   -4.8544    1.0000 </r>
       <r>   -4.3059    0.9992 </r>
       <r>   -4.2357    0.9960 </r>
       <r>   -2.5881    0.0000 </r>
       <r>   -0.5503    0.0000 </r>
       <r>   -0.3209    0.0000 </r>
       <r>    0.1258    0.0000 </r>
       <r>    0.4692    0.0000 </r>
       <r>    1.3241    0.0000 </r>
       <r>    1.5410    0.0000 </r>
       <r>    2.5488    0.0000 </r>
       <r>    2.9187    0.0000 </r>
      </set>
      <set comment="kpoint 39">
       <r>  -20.1791    1.0000 </r>
       <r>  -16.4990    1.0000 </r>
       <r>  -16.3739    1.0000 </r>
       <r>  -14.0602    1.0000 </r>
       <r>  -13.8711    1.0000 </r>
       <r>  -12.7638    1.0000 </r>
       <r>  -11.4570    1.0000 </r>
       <r>   -8.9974    1.0000 </r>
       <r>   -8.8692    1.0000 </r>
       <r>   -6.8552    1.0000 </r>
       <r>   -6.7154    1.0000 </r>
       <r>   -5.0078    1.0000 </r>
       <r>   -4.8627    1.0000 </r>
       <r>   -4.3641    0.9998 </r>
       <r>   -4.2637    0.9978 </r>
       <r>   -2.6530    0.0000 </r>
       <r>   -0.5261    0.0000 </r>
       <r>   -0.2228    0.0000 </r>
       <r>    0.1848    0.0000 </r>
       <r>    0.4905    0.0000 </r>
       <r>    1.3474    0.0000 </r>
       <r>    1.5624    0.0000 </r>
       <r>    2.5704    0.0000 </r>
       <r>    2.9402    0.0000 </r>
      </set>
      <set comment="kpoint 40">
       <r>  -20.1659    1.0000 </r>
       <r>  -16.5573    1.0000 </r>
       <r>  -16.3928    1.0000 </r>
       <r>  -14.0808    1.0000 </r>
       <r>  -13.8251    1.0000 </r>
       <r>  -12.6991    1.0000 </r>
       <r>  -11.3827    1.0000 </r>
       <r>   -8.9773    1.0000 </r>
       <r>   -8.8985    1.0000 </r>
       <r>   -6.9130    1.0000 </r>
       <r>   -6.7232    1.0000 </r>
       <r>   -5.0664    1.0000 </r>
       <r>   -4.8722    1.0000 </r>
       <r>   -4.4321    1.0000 </r>
       <r>   -4.2963    0.9990 </r>
       <r>   -2.7202    0.0000 </r>
       <r>   -0.4983    0.0000 </r>
       <r>   -0.1259    0.0000 </r>
       <r>    0.2623    0.0000 </r>
       <r>    0.5156    0.0000 </r>
       <r>    1.3752    0.0000 </r>
       <r>    1.5877    0.0000 </r>
       <r>    2.5958    0.0000 </r>
       <r>    2.9656    0.0000 </r>
      </set>
      <set comment="kpoint 41">
       <r>  -20.1508    1.0000 </r>
       <r>  -16.6211    1.0000 </r>
       <r>  -16.4135    1.0000 </r>
       <r>  -14.1041    1.0000 </r>
       <r>  -13.7732    1.0000 </r>
       <r>  -12.6259    1.0000 </r>
       <r>  -11.2996    1.0000 </r>
       <r>   -8.9542    1.0000 </r>
       <r>   -8.9328    1.0000 </r>
       <r>   -6.9785    1.0000 </r>
       <r>   -6.7306    1.0000 </r>
       <r>   -5.1325    1.0000 </r>
       <r>   -4.8828    1.0000 </r>
       <r>   -4.5096    1.0000 </r>
       <r>   -4.3332    0.9996 </r>
       <r>   -2.7878    0.0000 </r>
       <r>   -0.4669    0.0000 </r>
       <r>   -0.0359    0.0000 </r>
       <r>    0.3611    0.0000 </r>
       <r>    0.5446    0.0000 </r>
       <r>    1.4076    0.0000 </r>
       <r>    1.6169    0.0000 </r>
       <r>    2.6252    0.0000 </r>
       <r>    2.9948    0.0000 </r>
      </set>
      <set comment="kpoint 42">
       <r>  -20.1338    1.0000 </r>
       <r>  -16.6895    1.0000 </r>
       <r>  -16.4356    1.0000 </r>
       <r>  -14.1297    1.0000 </r>
       <r>  -13.7160    1.0000 </r>
       <r>  -12.5450    1.0000 </r>
       <r>  -11.2082    1.0000 </r>
       <r>   -8.9722    1.0000 </r>
       <r>   -8.9281    1.0000 </r>
       <r>   -7.0513    1.0000 </r>
       <r>   -6.7372    1.0000 </r>
       <r>   -5.2054    1.0000 </r>
       <r>   -4.8944    1.0000 </r>
       <r>   -4.5960    1.0000 </r>
       <r>   -4.3740    0.9999 </r>
       <r>   -2.8544    0.0000 </r>
       <r>   -0.4320    0.0000 </r>
       <r>    0.0455    0.0000 </r>
       <r>    0.4807    0.0000 </r>
       <r>    0.5774    0.0000 </r>
       <r>    1.4448    0.0000 </r>
       <r>    1.6500    0.0000 </r>
       <r>    2.6586    0.0000 </r>
       <r>    3.0280    0.0000 </r>
      </set>
      <set comment="kpoint 43">
       <r>  -20.1149    1.0000 </r>
       <r>  -16.7617    1.0000 </r>
       <r>  -16.4588    1.0000 </r>
       <r>  -14.1570    1.0000 </r>
       <r>  -13.6539    1.0000 </r>
       <r>  -12.4571    1.0000 </r>
       <r>  -11.1092    1.0000 </r>
       <r>   -9.0168    1.0000 </r>
       <r>   -8.8989    1.0000 </r>
       <r>   -7.1309    1.0000 </r>
       <r>   -6.7425    1.0000 </r>
       <r>   -5.2844    1.0000 </r>
       <r>   -4.9067    1.0000 </r>
       <r>   -4.6910    1.0000 </r>
       <r>   -4.4185    1.0000 </r>
       <r>   -2.9192    0.0000 </r>
       <r>   -0.3942    0.0000 </r>
       <r>    0.1195    0.0000 </r>
       <r>    0.6140    0.0000 </r>
       <r>    0.6174    0.0000 </r>
       <r>    1.4872    0.0000 </r>
       <r>    1.6870    0.0000 </r>
       <r>    2.6958    0.0000 </r>
       <r>    3.0649    0.0000 </r>
      </set>
      <set comment="kpoint 44">
       <r>  -20.0944    1.0000 </r>
       <r>  -16.8366    1.0000 </r>
       <r>  -16.4827    1.0000 </r>
       <r>  -14.1856    1.0000 </r>
       <r>  -13.5872    1.0000 </r>
       <r>  -12.3631    1.0000 </r>
       <r>  -11.0034    1.0000 </r>
       <r>   -9.0665    1.0000 </r>
       <r>   -8.8669    1.0000 </r>
       <r>   -7.2167    1.0000 </r>
       <r>   -6.7460    1.0000 </r>
       <r>   -5.3688    1.0000 </r>
       <r>   -4.9198    1.0000 </r>
       <r>   -4.7941    1.0000 </r>
       <r>   -4.4664    1.0000 </r>
       <r>   -2.9814    0.0000 </r>
       <r>   -0.3538    0.0000 </r>
       <r>    0.1890    0.0000 </r>
       <r>    0.6545    0.0000 </r>
       <r>    0.7663    0.0000 </r>
       <r>    1.5354    0.0000 </r>
       <r>    1.7279    0.0000 </r>
       <r>    2.7371    0.0000 </r>
       <r>    3.1057    0.0000 </r>
      </set>
      <set comment="kpoint 45">
       <r>  -20.0721    1.0000 </r>
       <r>  -16.9136    1.0000 </r>
       <r>  -16.5071    1.0000 </r>
       <r>  -14.2150    1.0000 </r>
       <r>  -13.5166    1.0000 </r>
       <r>  -12.2637    1.0000 </r>
       <r>  -10.8911    1.0000 </r>
       <r>   -9.1213    1.0000 </r>
       <r>   -8.8319    1.0000 </r>
       <r>   -7.3082    1.0000 </r>
       <r>   -6.7474    1.0000 </r>
       <r>   -5.4578    1.0000 </r>
       <r>   -4.9333    1.0000 </r>
       <r>   -4.9050    1.0000 </r>
       <r>   -4.5173    1.0000 </r>
       <r>   -3.0407    0.0000 </r>
       <r>   -0.3110    0.0000 </r>
       <r>    0.2562    0.0000 </r>
       <r>    0.6988    0.0000 </r>
       <r>    0.9226    0.0000 </r>
       <r>    1.5903    0.0000 </r>
       <r>    1.7727    0.0000 </r>
       <r>    2.7823    0.0000 </r>
       <r>    3.1504    0.0000 </r>
      </set>
      <set comment="kpoint 46">
       <r>  -20.0484    1.0000 </r>
       <r>  -16.9919    1.0000 </r>
       <r>  -16.5315    1.0000 </r>
       <r>  -14.2447    1.0000 </r>
       <r>  -13.4423    1.0000 </r>
       <r>  -12.1595    1.0000 </r>
       <r>  -10.7731    1.0000 </r>
       <r>   -9.1811    1.0000 </r>
       <r>   -8.7941    1.0000 </r>
       <r>   -7.4050    1.0000 </r>
       <r>   -6.7463    1.0000 </r>
       <r>   -5.5507    1.0000 </r>
       <r>   -5.0228    1.0000 </r>
       <r>   -4.9471    1.0000 </r>
       <r>   -4.5706    1.0000 </r>
       <r>   -3.0968    0.0000 </r>
       <r>   -0.2663    0.0000 </r>
       <r>    0.3223    0.0000 </r>
       <r>    0.7468    0.0000 </r>
       <r>    1.0822    0.0000 </r>
       <r>    1.6536    0.0000 </r>
       <r>    1.8213    0.0000 </r>
       <r>    2.8315    0.0000 </r>
       <r>    3.1988    0.0000 </r>
      </set>
      <set comment="kpoint 47">
       <r>  -20.0231    1.0000 </r>
       <r>  -17.0709    1.0000 </r>
       <r>  -16.5559    1.0000 </r>
       <r>  -14.2743    1.0000 </r>
       <r>  -13.3648    1.0000 </r>
       <r>  -12.0512    1.0000 </r>
       <r>  -10.6499    1.0000 </r>
       <r>   -9.2456    1.0000 </r>
       <r>   -8.7535    1.0000 </r>
       <r>   -7.5063    1.0000 </r>
       <r>   -6.7425    1.0000 </r>
       <r>   -5.6469    1.0000 </r>
       <r>   -5.1474    1.0000 </r>
       <r>   -4.9611    1.0000 </r>
       <r>   -4.6263    1.0000 </r>
       <r>   -3.1496    0.0000 </r>
       <r>   -0.2203    0.0000 </r>
       <r>    0.3880    0.0000 </r>
       <r>    0.7987    0.0000 </r>
       <r>    1.2401    0.0000 </r>
       <r>    1.7282    0.0000 </r>
       <r>    1.8738    0.0000 </r>
       <r>    2.8847    0.0000 </r>
       <r>    3.2511    0.0000 </r>
      </set>
      <set comment="kpoint 48">
       <r>  -19.9966    1.0000 </r>
       <r>  -17.1500    1.0000 </r>
       <r>  -16.5799    1.0000 </r>
       <r>  -14.3035    1.0000 </r>
       <r>  -13.2845    1.0000 </r>
       <r>  -11.9394    1.0000 </r>
       <r>  -10.5219    1.0000 </r>
       <r>   -9.3145    1.0000 </r>
       <r>   -8.7102    1.0000 </r>
       <r>   -7.6116    1.0000 </r>
       <r>   -6.7359    1.0000 </r>
       <r>   -5.7455    1.0000 </r>
       <r>   -5.2781    1.0000 </r>
       <r>   -4.9752    1.0000 </r>
       <r>   -4.6838    1.0000 </r>
       <r>   -3.1991    0.0000 </r>
       <r>   -0.1732    0.0000 </r>
       <r>    0.4536    0.0000 </r>
       <r>    0.8544    0.0000 </r>
       <r>    1.3905    0.0000 </r>
       <r>    1.8184    0.0000 </r>
       <r>    1.9302    0.0000 </r>
       <r>    2.9420    0.0000 </r>
       <r>    3.3072    0.0000 </r>
      </set>
      <set comment="kpoint 49">
       <r>  -19.9689    1.0000 </r>
       <r>  -17.2286    1.0000 </r>
       <r>  -16.6032    1.0000 </r>
       <r>  -14.3321    1.0000 </r>
       <r>  -13.2020    1.0000 </r>
       <r>  -11.8245    1.0000 </r>
       <r>  -10.3899    1.0000 </r>
[...]
       <r>  -16.9358    1.0000 </r>
       <r>  -14.0828    1.0000 </r>
       <r>  -13.1259    1.0000 </r>
       <r>  -10.9621    1.0000 </r>
       <r>   -9.9656    1.0000 </r>
       <r>   -9.6479    1.0000 </r>
       <r>   -8.3640    1.0000 </r>
       <r>   -7.9663    1.0000 </r>
       <r>   -6.9569    1.0000 </r>
       <r>   -6.2340    1.0000 </r>
       <r>   -6.0907    1.0000 </r>
       <r>   -5.4740    1.0000 </r>
       <r>   -5.2518    1.0000 </r>
       <r>   -3.0137    0.0000 </r>
       <r>   -0.5646    0.0000 </r>
       <r>    1.3174    0.0000 </r>
       <r>    1.6383    0.0000 </r>
       <r>    2.1226    0.0000 </r>
       <r>    2.4003    0.0000 </r>
       <r>    2.5675    0.0000 </r>
       <r>    3.4169    0.0000 </r>
       <r>    3.7751    0.0000 </r>
      </set>
      <set comment="kpoint 94">
       <r>  -19.8200    1.0000 </r>
       <r>  -17.5412    1.0000 </r>
       <r>  -16.8202    1.0000 </r>
       <r>  -14.2626    1.0000 </r>
       <r>  -12.9834    1.0000 </r>
       <r>  -11.1179    1.0000 </r>
       <r>   -9.8661    1.0000 </r>
       <r>   -9.7117    1.0000 </r>
       <r>   -8.4018    1.0000 </r>
       <r>   -8.0856    1.0000 </r>
       <r>   -6.8034    1.0000 </r>
       <r>   -6.2636    1.0000 </r>
       <r>   -6.0736    1.0000 </r>
       <r>   -5.2743    1.0000 </r>
       <r>   -5.1269    1.0000 </r>
       <r>   -3.1929    0.0000 </r>
       <r>   -0.3267    0.0000 </r>
       <r>    1.2654    0.0000 </r>
       <r>    1.2956    0.0000 </r>
       <r>    2.0301    0.0000 </r>
       <r>    2.3477    0.0000 </r>
       <r>    2.6108    0.0000 </r>
       <r>    3.3679    0.0000 </r>
       <r>    3.7221    0.0000 </r>
      </set>
      <set comment="kpoint 95">
       <r>  -19.8310    1.0000 </r>
       <r>  -17.5576    1.0000 </r>
       <r>  -16.7314    1.0000 </r>
       <r>  -14.3969    1.0000 </r>
       <r>  -12.8606    1.0000 </r>
       <r>  -11.2312    1.0000 </r>
       <r>   -9.7947    1.0000 </r>
       <r>   -9.7380    1.0000 </r>
       <r>   -8.4210    1.0000 </r>
       <r>   -8.1899    1.0000 </r>
       <r>   -6.6912    1.0000 </r>
       <r>   -6.2949    1.0000 </r>
       <r>   -6.0847    1.0000 </r>
       <r>   -5.1126    1.0000 </r>
       <r>   -5.0439    1.0000 </r>
       <r>   -3.3496    0.0002 </r>
       <r>   -0.0630    0.0000 </r>
       <r>    0.9711    0.0000 </r>
       <r>    1.2394    0.0000 </r>
       <r>    1.9929    0.0000 </r>
       <r>    2.3214    0.0000 </r>
       <r>    2.6491    0.0000 </r>
       <r>    3.3449    0.0000 </r>
       <r>    3.6948    0.0000 </r>
      </set>
      <set comment="kpoint 96">
       <r>  -19.8313    1.0000 </r>
       <r>  -17.5717    1.0000 </r>
       <r>  -16.6992    1.0000 </r>
       <r>  -14.4488    1.0000 </r>
       <r>  -12.8033    1.0000 </r>
       <r>  -11.2619    1.0000 </r>
       <r>   -9.7608    1.0000 </r>
       <r>   -9.7461    1.0000 </r>
       <r>   -8.4211    1.0000 </r>
       <r>   -8.2419    1.0000 </r>
       <r>   -6.6478    1.0000 </r>
       <r>   -6.3174    1.0000 </r>
       <r>   -6.1085    1.0000 </r>
       <r>   -5.0490    1.0000 </r>
       <r>   -5.0207    1.0000 </r>
       <r>   -3.4172    0.0009 </r>
       <r>    0.0899    0.0000 </r>
       <r>    0.8097    0.0000 </r>
       <r>    1.2394    0.0000 </r>
       <r>    1.9913    0.0000 </r>
       <r>    2.3215    0.0000 </r>
       <r>    2.6819    0.0000 </r>
       <r>    3.3469    0.0000 </r>
       <r>    3.6686    0.0000 </r>
      </set>
     </set>
    </set>
   </array>
  </eigenvalues>
  <separator name="orbital magnetization" >
   <v name="MAGDIPOLOUT">      0.00000000      0.00000000      0.00000000</v>
  </separator>
  <dos>
   <i name="efermi">     -3.86041814 </i>
   <total>
    <array>
     <dimension dim="1">gridpoints</dimension>
     <dimension dim="2">spin</dimension>
     <field>energy</field>
     <field>total</field>
     <field>integrated</field>
     <set>
      <set comment="spin 1">
       <r>   -22.2162     0.0000     0.0000 </r>
       <r>   -22.1225     0.0000     0.0000 </r>
       <r>   -22.0289     0.0000     0.0000 </r>
       <r>   -21.9352     0.0000     0.0000 </r>
       <r>   -21.8415     0.0000     0.0000 </r>
       <r>   -21.7479     0.0000     0.0000 </r>
       <r>   -21.6542     0.0000     0.0000 </r>
       <r>   -21.5606     0.0000     0.0000 </r>
       <r>   -21.4669     0.0000     0.0000 </r>
       <r>   -21.3733     0.0000     0.0000 </r>
       <r>   -21.2796     0.0000     0.0000 </r>
       <r>   -21.1859     0.0000     0.0000 </r>
       <r>   -21.0923     0.0000     0.0000 </r>
       <r>   -20.9986     0.0000     0.0000 </r>
       <r>   -20.9050     0.0000     0.0000 </r>
       <r>   -20.8113     0.0000     0.0000 </r>
       <r>   -20.7176     0.0004     0.0000 </r>
       <r>   -20.6240     0.0039     0.0004 </r>
       <r>   -20.5303     0.0274     0.0030 </r>
       <r>   -20.4367     0.1281     0.0150 </r>
       <r>   -20.3430     0.4081     0.0532 </r>
       <r>   -20.2493     0.9121     0.1386 </r>
       <r>   -20.1557     1.5038     0.2795 </r>
       <r>   -20.0620     1.9834     0.4652 </r>
       <r>   -19.9684     2.3279     0.6833 </r>
       <r>   -19.8747     2.6535     0.9318 </r>
       <r>   -19.7811     2.9598     1.2090 </r>
       <r>   -19.6874     3.0145     1.4913 </r>
       <r>   -19.5937     2.5632     1.7314 </r>
       <r>   -19.5001     1.6894     1.8896 </r>
       <r>   -19.4064     0.8184     1.9663 </r>
       <r>   -19.3128     0.2811     1.9926 </r>
       <r>   -19.2191     0.0669     1.9989 </r>
       <r>   -19.1254     0.0109     1.9999 </r>
       <r>   -19.0318     0.0012     2.0000 </r>
       <r>   -18.9381     0.0001     2.0000 </r>
       <r>   -18.8445     0.0000     2.0000 </r>
       <r>   -18.7508     0.0000     2.0000 </r>
       <r>   -18.6572     0.0000     2.0000 </r>
       <r>   -18.5635     0.0000     2.0000 </r>
       <r>   -18.4698     0.0003     2.0000 </r>
       <r>   -18.3762     0.0030     2.0003 </r>
       <r>   -18.2825     0.0210     2.0023 </r>
       <r>   -18.1889     0.0994     2.0116 </r>
       <r>   -18.0952     0.3250     2.0420 </r>
       <r>   -18.0015     0.7531     2.1126 </r>
       <r>   -17.9079     1.2908     2.2334 </r>
       <r>   -17.8142     1.7436     2.3968 </r>
       <r>   -17.7206     1.9988     2.5840 </r>
       <r>   -17.6269     2.0472     2.7757 </r>
       <r>   -17.5332     1.8971     2.9534 </r>
       <r>   -17.4396     1.6450     3.1074 </r>
       <r>   -17.3459     1.4981     3.2477 </r>
       <r>   -17.2523     1.5671     3.3945 </r>
       <r>   -17.1586     1.7695     3.5602 </r>
       <r>   -17.0650     1.9878     3.7464 </r>
       <r>   -16.9713     2.2402     3.9562 </r>
       <r>   -16.8776     2.6522     4.2046 </r>
       <r>   -16.7840     3.1516     4.4998 </r>
       <r>   -16.6903     3.3744     4.8159 </r>
       <r>   -16.5967     3.1486     5.1107 </r>
       <r>   -16.5030     2.7408     5.3674 </r>
       <r>   -16.4093     2.3908     5.5914 </r>
       <r>   -16.3157     1.9808     5.7769 </r>
       <r>   -16.2220     1.3612     5.9044 </r>
       <r>   -16.1284     0.6971     5.9697 </r>
       <r>   -16.0347     0.2510     5.9932 </r>
       <r>   -15.9411     0.0617     5.9989 </r>
       <r>   -15.8474     0.0102     5.9999 </r>
       <r>   -15.7537     0.0011     6.0000 </r>
       <r>   -15.6601     0.0001     6.0000 </r>
       <r>   -15.5664     0.0000     6.0000 </r>
       <r>   -15.4728     0.0000     6.0000 </r>
       <r>   -15.3791     0.0000     6.0000 </r>
       <r>   -15.2854     0.0000     6.0000 </r>
       <r>   -15.1918     0.0000     6.0000 </r>
       <r>   -15.0981     0.0001     6.0000 </r>
       <r>   -15.0045     0.0017     6.0002 </r>
       <r>   -14.9108     0.0139     6.0015 </r>
       <r>   -14.8171     0.0767     6.0087 </r>
       <r>   -14.7235     0.2872     6.0356 </r>
       <r>   -14.6298     0.7434     6.1052 </r>
       <r>   -14.5362     1.3726     6.2337 </r>
       <r>   -14.4425     1.9137     6.4130 </r>
       <r>   -14.3489     2.2348     6.6223 </r>
       <r>   -14.2552     2.5124     6.8576 </r>
       <r>   -14.1615     2.9086     7.1300 </r>
       <r>   -14.0679     3.2395     7.4334 </r>
       <r>   -13.9742     3.1624     7.7296 </r>
       <r>   -13.8806     2.6256     7.9755 </r>
       <r>   -13.7869     1.9360     8.1568 </r>
       <r>   -13.6932     1.4042     8.2883 </r>
       <r>   -13.5996     1.1300     8.3942 </r>
       <r>   -13.5059     1.0636     8.4938 </r>
       <r>   -13.4123     1.0801     8.5950 </r>
       <r>   -13.3186     1.0815     8.6962 </r>
       <r>   -13.2250     1.1053     8.7998 </r>
       <r>   -13.1313     1.2585     8.9176 </r>
       <r>   -13.0376     1.5656     9.0643 </r>
       <r>   -12.9440     1.9191     9.2440 </r>
       <r>   -12.8503     2.1329     9.4438 </r>
       <r>   -12.7567     2.0707     9.6377 </r>
       <r>   -12.6630     1.7712     9.8036 </r>
       <r>   -12.5693     1.4273     9.9373 </r>
       <r>   -12.4757     1.2153    10.0511 </r>
       <r>   -12.3820     1.1609    10.1598 </r>
       <r>   -12.2884     1.1543    10.2679 </r>
       <r>   -12.1947     1.0756    10.3687 </r>
       <r>   -12.1010     0.9173    10.4546 </r>
       <r>   -12.0074     0.7658    10.5263 </r>
       <r>   -11.9137     0.6908    10.5910 </r>
       <r>   -11.8201     0.7235    10.6588 </r>
       <r>   -11.7264     0.8640    10.7397 </r>
       <r>   -11.6328     1.0330    10.8364 </r>
       <r>   -11.5391     1.1164    10.9410 </r>
       <r>   -11.4454     1.1043    11.0444 </r>
       <r>   -11.3518     1.0918    11.1467 </r>
       <r>   -11.2581     1.1348    11.2530 </r>
       <r>   -11.1645     1.2042    11.3657 </r>
       <r>   -11.0708     1.2769    11.4853 </r>
       <r>   -10.9771     1.3644    11.6131 </r>
       <r>   -10.8835     1.4663    11.7505 </r>
       <r>   -10.7898     1.5865    11.8990 </r>
       <r>   -10.6962     1.7244    12.0605 </r>
       <r>   -10.6025     1.8038    12.2295 </r>
       <r>   -10.5089     1.7603    12.3944 </r>
       <r>   -10.4152     1.7054    12.5541 </r>
       <r>   -10.3215     1.8076    12.7234 </r>
       <r>   -10.2279     2.0502    12.9154 </r>
       <r>   -10.1342     2.2440    13.1256 </r>
       <r>   -10.0406     2.2501    13.3363 </r>
       <r>    -9.9469     2.1368    13.5364 </r>
       <r>    -9.8532     2.0734    13.7306 </r>
       <r>    -9.7596     2.1229    13.9295 </r>
       <r>    -9.6659     2.2256    14.1379 </r>
       <r>    -9.5723     2.3245    14.3556 </r>
       <r>    -9.4786     2.4043    14.5808 </r>
       <r>    -9.3849     2.4317    14.8086 </r>
       <r>    -9.2913     2.3645    15.0300 </r>
       <r>    -9.1976     2.2632    15.2420 </r>
       <r>    -9.1040     2.3058    15.4579 </r>
       <r>    -9.0103     2.5583    15.6975 </r>
       <r>    -8.9167     2.8270    15.9623 </r>
       <r>    -8.8230     2.8678    16.2309 </r>
       <r>    -8.7293     2.6326    16.4775 </r>
       <r>    -8.6357     2.3206    16.6948 </r>
       <r>    -8.5420     2.2211    16.9028 </r>
       <r>    -8.4484     2.4442    17.1318 </r>
       <r>    -8.3547     2.8695    17.4005 </r>
       <r>    -8.2610     3.3073    17.7103 </r>
       <r>    -8.1674     3.5963    18.0471 </r>
       <r>    -8.0737     3.6325    18.3873 </r>
       <r>    -7.9801     3.3542    18.7015 </r>
       <r>    -7.8864     2.7670    18.9606 </r>
       <r>    -7.7928     2.0774    19.1552 </r>
       <r>    -7.6991     1.6042    19.3054 </r>
       <r>    -7.6054     1.4631    19.4425 </r>
       <r>    -7.5118     1.5005    19.5830 </r>
       <r>    -7.4181     1.5125    19.7247 </r>
       <r>    -7.3245     1.4433    19.8598 </r>
       <r>    -7.2308     1.4194    19.9928 </r>
       <r>    -7.1371     1.6376    20.1462 </r>
       <r>    -7.0435     2.2336    20.3553 </r>
       <r>    -6.9498     3.2321    20.6581 </r>
       <r>    -6.8562     4.5063    21.0801 </r>
       <r>    -6.7625     5.6371    21.6081 </r>
       <r>    -6.6689     6.0149    22.1714 </r>
       <r>    -6.5752     5.4517    22.6820 </r>
       <r>    -6.4815     4.4307    23.0970 </r>
       <r>    -6.3879     3.5029    23.4251 </r>
       <r>    -6.2942     2.8467    23.6917 </r>
       <r>    -6.2006     2.4346    23.9197 </r>
       <r>    -6.1069     2.2281    24.1284 </r>
       <r>    -6.0132     2.1666    24.3313 </r>
       <r>    -5.9196     2.1536    24.5330 </r>
       <r>    -5.8259     2.1625    24.7356 </r>
       <r>    -5.7323     2.2639    24.9476 </r>
       <r>    -5.6386     2.4740    25.1793 </r>
       <r>    -5.5449     2.7208    25.4341 </r>
       <r>    -5.4513     3.0119    25.7162 </r>
       <r>    -5.3576     3.4615    26.0404 </r>
       <r>    -5.2640     4.1278    26.4270 </r>
       <r>    -5.1703     4.8908    26.8851 </r>
       <r>    -5.0767     5.4318    27.3938 </r>
       <r>    -4.9830     5.4372    27.9031 </r>
       <r>    -4.8893     4.8598    28.3582 </r>
       <r>    -4.7957     3.8784    28.7215 </r>
       <r>    -4.7020     2.7912    28.9829 </r>
       <r>    -4.6084     1.9340    29.1640 </r>
       <r>    -4.5147     1.4738    29.3021 </r>
       <r>    -4.4210     1.3681    29.4302 </r>
       <r>    -4.3274     1.4818    29.5690 </r>
       <r>    -4.2337     1.5869    29.7176 </r>
       <r>    -4.1401     1.4207    29.8507 </r>
       <r>    -4.0464     0.9550    29.9401 </r>
       <r>    -3.9528     0.4592    29.9831 </r>
       <r>    -3.8591     0.1820    30.0002 </r>
       <r>    -3.7654     0.1788    30.0169 </r>
       <r>    -3.6718     0.4379    30.0579 </r>
       <r>    -3.5781     0.9037    30.1426 </r>
       <r>    -3.4845     1.3801    30.2718 </r>
       <r>    -3.3908     1.6530    30.4267 </r>
       <r>    -3.2971     1.7385    30.5895 </r>
       <r>    -3.2035     1.8328    30.7611 </r>
       <r>    -3.1098     1.9930    30.9478 </r>
       <r>    -3.0162     2.0382    31.1387 </r>
       <r>    -2.9225     1.8429    31.3113 </r>
       <r>    -2.8288     1.5273    31.4543 </r>
       <r>    -2.7352     1.2727    31.5735 </r>
       <r>    -2.6415     1.1420    31.6805 </r>
       <r>    -2.5479     1.0780    31.7815 </r>
       <r>    -2.4542     0.9608    31.8714 </r>
       <r>    -2.3606     0.7185    31.9387 </r>
       <r>    -2.2669     0.4146    31.9776 </r>
       <r>    -2.1732     0.1750    31.9940 </r>
       <r>    -2.0796     0.0521    31.9988 </r>
       <r>    -1.9859     0.0107    31.9998 </r>
       <r>    -1.8923     0.0015    32.0000 </r>
       <r>    -1.7986     0.0001    32.0000 </r>
       <r>    -1.7049     0.0000    32.0000 </r>
       <r>    -1.6113     0.0000    32.0000 </r>
       <r>    -1.5176     0.0002    32.0000 </r>
       <r>    -1.4240     0.0016    32.0002 </r>
       <r>    -1.3303     0.0101    32.0011 </r>
       <r>    -1.2367     0.0442    32.0053 </r>
       <r>    -1.1430     0.1321    32.0176 </r>
       <r>    -1.0493     0.2793    32.0438 </r>
       <r>    -0.9557     0.4510    32.0860 </r>
       <r>    -0.8620     0.6482    32.1467 </r>
       <r>    -0.7684     0.9894    32.2394 </r>
       <r>    -0.6747     1.5995    32.3892 </r>
       <r>    -0.5810     2.3446    32.6088 </r>
       <r>    -0.4874     2.8071    32.8717 </r>
       <r>    -0.3937     2.7149    33.1260 </r>
       <r>    -0.3001     2.2649    33.3381 </r>
       <r>    -0.2064     1.8613    33.5124 </r>
       <r>    -0.1127     1.7418    33.6756 </r>
       <r>    -0.0191     1.8939    33.8529 </r>
       <r>     0.0746     2.1289    34.0523 </r>
       <r>     0.1682     2.2685    34.2648 </r>
       <r>     0.2619     2.3132    34.4815 </r>
       <r>     0.3555     2.3422    34.7008 </r>
       <r>     0.4492     2.3330    34.9193 </r>
       <r>     0.5429     2.2238    35.1276 </r>
       <r>     0.6365     2.0809    35.3225 </r>
       <r>     0.7302     2.0497    35.5145 </r>
       <r>     0.8238     2.1786    35.7185 </r>
       <r>     0.9175     2.4070    35.9440 </r>
       <r>     1.0112     2.6994    36.1968 </r>
       <r>     1.1048     3.0873    36.4860 </r>
       <r>     1.1985     3.5478    36.8182 </r>
       <r>     1.2921     3.9090    37.1843 </r>
       <r>     1.3858     4.0076    37.5597 </r>
       <r>     1.4794     3.9033    37.9253 </r>
       <r>     1.5731     3.7733    38.2787 </r>
       <r>     1.6668     3.7022    38.6254 </r>
       <r>     1.7604     3.6971    38.9717 </r>
       <r>     1.8541     3.7558    39.3234 </r>
       <r>     1.9477     3.8278    39.6819 </r>
       <r>     2.0414     3.8077    40.0386 </r>
       <r>     2.1351     3.6727    40.3826 </r>
       <r>     2.2287     3.5682    40.7167 </r>
       <r>     2.3224     3.6679    41.0603 </r>
       <r>     2.4160     3.9922    41.4342 </r>
       <r>     2.5097     4.3776    41.8442 </r>
       <r>     2.6034     4.6045    42.2754 </r>
       <r>     2.6970     4.6471    42.7107 </r>
       <r>     2.7907     4.7236    43.1531 </r>
       <r>     2.8843     4.9395    43.6157 </r>
       <r>     2.9780     5.0861    44.0921 </r>
       <r>     3.0716     4.9754    44.5581 </r>
       <r>     3.1653     4.7389    45.0019 </r>
       <r>     3.2590     4.6270    45.4353 </r>
       <r>     3.3526     4.6868    45.8742 </r>
       <r>     3.4463     4.7695    46.3209 </r>
       <r>     3.5399     4.7108    46.7621 </r>
       <r>     3.6336     4.3665    47.1711 </r>
       <r>     3.7273     3.6361    47.5116 </r>
       <r>     3.8209     2.6031    47.7555 </r>
       <r>     3.9146     1.5420    47.8999 </r>
       <r>     4.0082     0.7264    47.9679 </r>
       <r>     4.1019     0.2603    47.9923 </r>
       <r>     4.1955     0.0681    47.9987 </r>
       <r>     4.2892     0.0126    47.9998 </r>
       <r>     4.3829     0.0016    48.0000 </r>
       <r>     4.4765     0.0001    48.0000 </r>
       <r>     4.5702     0.0000    48.0000 </r>
       <r>     4.6638     0.0000    48.0000 </r>
       <r>     4.7575     0.0000    48.0000 </r>
       <r>     4.8512     0.0000    48.0000 </r>
       <r>     4.9448     0.0000    48.0000 </r>
       <r>     5.0385     0.0000    48.0000 </r>
       <r>     5.1321     0.0000    48.0000 </r>
       <r>     5.2258     0.0000    48.0000 </r>
       <r>     5.3195     0.0000    48.0000 </r>
       <r>     5.4131     0.0000    48.0000 </r>
       <r>     5.5068     0.0000    48.0000 </r>
       <r>     5.6004     0.0000    48.0000 </r>
       <r>     5.6941     0.0000    48.0000 </r>
       <r>     5.7877     0.0000    48.0000 </r>
       <r>     5.8814     0.0000    48.0000 </r>
      </set>
     </set>
    </array>
   </total>
  </dos>
 </calculation>
 <structure name="finalpos" >
  <crystal>
   <varray name="basis" >
    <v>       5.17400000       0.00000000       0.00000000 </v>
    <v>       2.58700000       4.48100000       0.00000000 </v>
    <v>       0.00000000       0.00000000      20.00000000 </v>
   </varray>
   <i name="volume">    463.69388000 </i>
   <varray name="rec_basis" >
    <v>       0.19327406      -0.11158224       0.00000000 </v>
    <v>       0.00000000       0.22316447       0.00000000 </v>
    <v>       0.00000000       0.00000000       0.05000000 </v>
   </varray>
  </crystal>
  <varray name="positions" >
   <v>       0.17457326       0.17462620       0.00000000 </v>
   <v>       0.50792519       0.50792234       0.00000000 </v>
   <v>       0.00000000       0.00000000       0.00000000 </v>
   <v>       0.52377271       0.00000000       0.00000000 </v>
   <v>       0.68255138       0.15866994       0.00000000 </v>
   <v>       0.99994706       0.52387860       0.00000000 </v>
   <v>       0.15872573       0.68254854       0.00000000 </v>
   <v>       0.68249844       0.68254854       0.00000000 </v>
  </varray>
 </structure>
</modeling>
