 running on   12 total cores
 distrk:  each k-point on   12 cores,    1 groups
 distr:  one band on    1 cores,   12 groups
 using from now: INCAR     
 vasp.5.4.4.18Apr17-6-g9f103f2a35 (build Mar 30 2023 15:39:25) complex          
  
 POSCAR found type information on POSCAR  B  C 
 POSCAR found :  2 types and       8 ions
 scaLAPACK will be used

 ----------------------------------------------------------------------------- 
|                                                                             |
|           W    W    AA    RRRRR   N    N  II  N    N   GGGG   !!!           |
|           W    W   A  A   R    R  NN   N  II  NN   N  G    G  !!!           |
|           W    W  A    A  R    R  N N  N  II  N N  N  G       !!!           |
|           W WW W  AAAAAA  RRRRR   N  N N  II  N  N N  G  GGG   !            |
|           WW  WW  A    A  R   R   N   NN  II  N   NN  G    G                |
|           W    W  A    A  R    R  N    N  II  N    N   GGGG   !!!           |
|                                                                             |
|      For optimal performance we recommend to set                            |
|        NCORE= 4 - approx SQRT( number of cores)                             |
|      NCORE specifies how many cores store one orbital (NPAR=cpu/NCORE).     |
|      This setting can  greatly improve the performance of VASP for DFT.     |
|      The default,   NCORE=1            might be grossly inefficient         |
|      on modern multi-core architectures or massively parallel machines.     |
|      Do your own testing !!!!                                               |
|      Unfortunately you need to use the default for GW and RPA calculations. |
|      (for HF NCORE is supported but not extensively tested yet)             |
|                                                                             |
 ----------------------------------------------------------------------------- 

 LDA part: xc-table for Pade appr. of Perdew
 POSCAR, INCAR and KPOINTS ok, starting setup
 FFT: planning ...
 WAVECAR not read
 entering main loop
       N       E                     dE             d eps       ncg     rms          rms(c)
DAV:   1     0.181091701800E+03    0.18109E+03   -0.94744E+03   372   0.719E+02
DAV:   2    -0.427605782539E+02   -0.22385E+03   -0.20682E+03   468   0.179E+02
DAV:   3    -0.726529178369E+02   -0.29892E+02   -0.29738E+02   420   0.784E+01
DAV:   4    -0.734016791680E+02   -0.74876E+00   -0.74679E+00   480   0.153E+01
DAV:   5    -0.734217379828E+02   -0.20059E-01   -0.20037E-01   432   0.227E+00    0.131E+01
DAV:   6    -0.689816184864E+02    0.44401E+01   -0.51688E+00   492   0.104E+01    0.741E+00
DAV:   7    -0.673346223753E+02    0.16470E+01   -0.39654E+00   492   0.906E+00    0.214E+00
DAV:   8    -0.672583886347E+02    0.76234E-01   -0.21598E-01   408   0.210E+00    0.602E-01
DAV:   9    -0.672409543578E+02    0.17434E-01   -0.17873E-02   432   0.744E-01    0.176E-01
