<?xml version="1.0" encoding="ISO-8859-1"?>
<modeling>
 <generator>
  <i name="program" type="string">vasp </i>
  <i name="version" type="string">5.4.4.18Apr17-6-g9f103f2a35  </i>
  <i name="subversion" type="string">(build Mar 30 2023 15:39:25) complex            parallel </i>
  <i name="platform" type="string">LinuxIFC </i>
  <i name="date" type="string">2023 05 23 </i>
  <i name="time" type="string">10:11:08 </i>
 </generator>
 <incar>
  <i type="string" name="SYSTEM"> BC3 DOS</i>
  <i type="int" name="ISTART">     0</i>
  <i type="string" name="PREC">accurate</i>
  <i type="int" name="ICHARG">     2</i>
  <i name="EDIFF">      0.00000100</i>
  <i name="EDIFFG">     -0.00000100</i>
  <i name="ENCUT">    450.00000000</i>
  <i type="int" name="ISMEAR">    -5</i>
  <i name="SIGMA">      0.20000000</i>
  <v type="int" name="KPOINT_BSE">    -1     0     0     0</v>
 </incar>
 <structure name="primitive_cell" >
  <crystal>
   <varray name="basis" >
    <v>       5.17400000       0.00000000       0.00000000 </v>
    <v>       2.58700000       4.48100000       0.00000000 </v>
    <v>       0.00000000       0.00000000      20.00000000 </v>
   </varray>
   <i name="volume">    463.69388000 </i>
   <varray name="rec_basis" >
    <v>       0.19327406      -0.11158224       0.00000000 </v>
    <v>       0.00000000       0.22316447       0.00000000 </v>
    <v>       0.00000000       0.00000000       0.05000000 </v>
   </varray>
  </crystal>
  <varray name="positions" >
   <v>       0.17457326       0.17462620       0.00000000 </v>
   <v>       0.00000000       0.00000000       0.00000000 </v>
   <v>      -0.47622729       0.00000000       0.00000000 </v>
   <v>      -0.00005294      -0.47612140       0.00000000 </v>
   <v>      -0.31744862       0.15866994       0.00000000 </v>
   <v>      -0.31750156      -0.31745146       0.00000000 </v>
   <v>       0.15872573      -0.31745146       0.00000000 </v>
   <v>      -0.49207481      -0.49207766       0.00000000 </v>
  </varray>
 </structure>
 <varray name="primitive_index" >
  <v type="int" >        1 </v>
  <v type="int" >        3 </v>
  <v type="int" >        4 </v>
  <v type="int" >        6 </v>
  <v type="int" >        5 </v>
  <v type="int" >        8 </v>
  <v type="int" >        7 </v>
  <v type="int" >        2 </v>
 </varray>
 <kpoints>
  <generation param="Gamma">
   <v type="int" name="divisions">      16       16        1 </v>
   <v name="usershift">      0.00000000       0.00000000       0.00000000 </v>
   <v name="genvec1">      0.06250000       0.00000000       0.00000000 </v>
   <v name="genvec2">      0.00000000       0.06250000       0.00000000 </v>
   <v name="genvec3">      0.00000000       0.00000000       1.00000000 </v>
   <v name="shift">      0.00000000       0.00000000       0.00000000 </v>
  </generation>
  <varray name="kpointlist" >
   <v>       0.00000000       0.00000000       0.00000000 </v>
   <v>       0.06250000      -0.00000000       0.00000000 </v>
   <v>       0.12500000      -0.00000000       0.00000000 </v>
   <v>       0.18750000      -0.00000000       0.00000000 </v>
   <v>       0.25000000      -0.00000000       0.00000000 </v>
   <v>       0.31250000      -0.00000000       0.00000000 </v>
   <v>       0.37500000      -0.00000000       0.00000000 </v>
   <v>       0.43750000      -0.00000000       0.00000000 </v>
   <v>       0.50000000      -0.00000000       0.00000000 </v>
   <v>       0.00000000       0.06250000       0.00000000 </v>
   <v>       0.12500000       0.06250000       0.00000000 </v>
   <v>       0.18750000       0.06250000       0.00000000 </v>
   <v>       0.25000000       0.06250000       0.00000000 </v>
   <v>       0.31250000       0.06250000       0.00000000 </v>
   <v>       0.37500000       0.06250000       0.00000000 </v>
   <v>       0.43750000       0.06250000       0.00000000 </v>
   <v>       0.50000000       0.06250000       0.00000000 </v>
   <v>      -0.43750000       0.06250000       0.00000000 </v>
   <v>      -0.37500000       0.06250000       0.00000000 </v>
   <v>      -0.31250000       0.06250000       0.00000000 </v>
   <v>      -0.25000000       0.06250000       0.00000000 </v>
   <v>      -0.18750000       0.06250000       0.00000000 </v>
   <v>      -0.12500000       0.06250000       0.00000000 </v>
   <v>      -0.06250000       0.06250000       0.00000000 </v>
   <v>       0.00000000       0.12500000       0.00000000 </v>
   <v>       0.25000000       0.12500000       0.00000000 </v>
   <v>       0.31250000       0.12500000       0.00000000 </v>
   <v>       0.37500000       0.12500000       0.00000000 </v>
   <v>       0.43750000       0.12500000       0.00000000 </v>
   <v>       0.50000000       0.12500000       0.00000000 </v>
   <v>      -0.43750000       0.12500000       0.00000000 </v>
   <v>      -0.37500000       0.12500000       0.00000000 </v>
   <v>      -0.31250000       0.12500000       0.00000000 </v>
   <v>      -0.25000000       0.12500000       0.00000000 </v>
   <v>      -0.18750000       0.12500000       0.00000000 </v>
   <v>      -0.12500000       0.12500000       0.00000000 </v>
   <v>      -0.06250000       0.12500000       0.00000000 </v>
   <v>       0.00000000       0.18750000       0.00000000 </v>
   <v>       0.37500000       0.18750000       0.00000000 </v>
   <v>       0.43750000       0.18750000       0.00000000 </v>
   <v>       0.50000000       0.18750000       0.00000000 </v>
   <v>      -0.43750000       0.18750000       0.00000000 </v>
   <v>      -0.37500000       0.18750000       0.00000000 </v>
   <v>      -0.31250000       0.18750000       0.00000000 </v>
   <v>      -0.25000000       0.18750000       0.00000000 </v>
   <v>      -0.18750000       0.18750000       0.00000000 </v>
   <v>      -0.12500000       0.18750000       0.00000000 </v>
   <v>      -0.06250000       0.18750000       0.00000000 </v>
   <v>       0.00000000       0.25000000       0.00000000 </v>
   <v>       0.50000000       0.25000000       0.00000000 </v>
   <v>      -0.43750000       0.25000000       0.00000000 </v>
   <v>      -0.37500000       0.25000000       0.00000000 </v>
   <v>      -0.31250000       0.25000000       0.00000000 </v>
   <v>      -0.25000000       0.25000000       0.00000000 </v>
   <v>      -0.18750000       0.25000000       0.00000000 </v>
   <v>      -0.12500000       0.25000000       0.00000000 </v>
   <v>      -0.06250000       0.25000000       0.00000000 </v>
   <v>       0.00000000       0.31250000       0.00000000 </v>
   <v>      -0.37500000       0.31250000       0.00000000 </v>
   <v>      -0.31250000       0.31250000       0.00000000 </v>
   <v>      -0.25000000       0.31250000       0.00000000 </v>
   <v>      -0.18750000       0.31250000       0.00000000 </v>
   <v>      -0.12500000       0.31250000       0.00000000 </v>
   <v>      -0.06250000       0.31250000       0.00000000 </v>
   <v>       0.00000000       0.37500000       0.00000000 </v>
   <v>      -0.25000000       0.37500000       0.00000000 </v>
   <v>      -0.18750000       0.37500000       0.00000000 </v>
   <v>      -0.12500000       0.37500000       0.00000000 </v>
   <v>      -0.06250000       0.37500000       0.00000000 </v>
   <v>       0.00000000       0.43750000       0.00000000 </v>
   <v>      -0.12500000       0.43750000       0.00000000 </v>
   <v>      -0.06250000       0.43750000       0.00000000 </v>
   <v>       0.00000000       0.50000000       0.00000000 </v>
  </varray>
  <varray name="weights" >
   <v>       0.00390625 </v>
   <v>       0.01562500 </v>
   <v>       0.01562500 </v>
   <v>       0.01562500 </v>
   <v>       0.01562500 </v>
   <v>       0.01562500 </v>
   <v>       0.01562500 </v>
   <v>       0.01562500 </v>
   <v>       0.00781250 </v>
   <v>       0.00781250 </v>
   <v>       0.00781250 </v>
   <v>       0.01562500 </v>
   <v>       0.01562500 </v>
   <v>       0.01562500 </v>
   <v>       0.01562500 </v>
   <v>       0.01562500 </v>
   <v>       0.01562500 </v>
   <v>       0.01562500 </v>
   <v>       0.01562500 </v>
   <v>       0.01562500 </v>
   <v>       0.01562500 </v>
   <v>       0.01562500 </v>
   <v>       0.01562500 </v>
   <v>       0.01562500 </v>
   <v>       0.00781250 </v>
   <v>       0.00781250 </v>
   <v>       0.01562500 </v>
   <v>       0.01562500 </v>
   <v>       0.01562500 </v>
   <v>       0.01562500 </v>
   <v>       0.01562500 </v>
   <v>       0.01562500 </v>
   <v>       0.01562500 </v>
   <v>       0.01562500 </v>
   <v>       0.01562500 </v>
   <v>       0.01562500 </v>
   <v>       0.01562500 </v>
   <v>       0.00781250 </v>
   <v>       0.00781250 </v>
   <v>       0.01562500 </v>
   <v>       0.01562500 </v>
   <v>       0.01562500 </v>
   <v>       0.01562500 </v>
   <v>       0.01562500 </v>
   <v>       0.01562500 </v>
   <v>       0.01562500 </v>
   <v>       0.01562500 </v>
   <v>       0.01562500 </v>
   <v>       0.00781250 </v>
   <v>       0.00781250 </v>
   <v>       0.01562500 </v>
   <v>       0.01562500 </v>
   <v>       0.01562500 </v>
   <v>       0.01562500 </v>
   <v>       0.01562500 </v>
   <v>       0.01562500 </v>
   <v>       0.01562500 </v>
   <v>       0.00781250 </v>
   <v>       0.00781250 </v>
   <v>       0.01562500 </v>
   <v>       0.01562500 </v>
   <v>       0.01562500 </v>
   <v>       0.01562500 </v>
   <v>       0.01562500 </v>
   <v>       0.00781250 </v>
   <v>       0.00781250 </v>
   <v>       0.01562500 </v>
   <v>       0.01562500 </v>
   <v>       0.01562500 </v>
   <v>       0.00781250 </v>
   <v>       0.00781250 </v>
   <v>       0.01562500 </v>
   <v>       0.00390625 </v>
  </varray>
  <varray name="tetrahedronlist"  type="int" >
   <v type="int" >        2        1        1        2        2 </v>
   <v type="int" >        4        1        1        2       10 </v>
   <v type="int" >        4        1        2       10       10 </v>
   <v type="int" >        4        1        2        2        2 </v>
   <v type="int" >        4        1        2        2       10 </v>
   <v type="int" >        4        2        2        3       11 </v>
   <v type="int" >        4        2        2        2       11 </v>
   <v type="int" >        4        2        3        3       11 </v>
   <v type="int" >        4        2        3       11       11 </v>
   <v type="int" >        2        2        2       11       11 </v>
   <v type="int" >        4        3        3        4       12 </v>
   <v type="int" >        4        3        3       11       12 </v>
   <v type="int" >        4        3       11       11       12 </v>
   <v type="int" >        4        3        4        4       12 </v>
   <v type="int" >        4        3        4       12       12 </v>
   <v type="int" >        4        3       11       12       12 </v>
   <v type="int" >        4        4        4        5       13 </v>
   <v type="int" >        4        4        4       12       13 </v>
   <v type="int" >        4        4       12       12       13 </v>
   <v type="int" >        4        4        5        5       13 </v>
   <v type="int" >        4        4        5       13       13 </v>
   <v type="int" >        4        4       12       13       13 </v>
   <v type="int" >        4        5        5        6       14 </v>
   <v type="int" >        4        5        5       13       14 </v>
   <v type="int" >        4        5       13       13       14 </v>
   <v type="int" >        4        5        6        6       14 </v>
   <v type="int" >        4        5        6       14       14 </v>
   <v type="int" >        4        5       13       14       14 </v>
   <v type="int" >        4        6        6        7       15 </v>
   <v type="int" >        4        6        6       14       15 </v>
   <v type="int" >        4        6       14       14       15 </v>
   <v type="int" >        4        6        7        7       15 </v>
   <v type="int" >        4        6        7       15       15 </v>
   <v type="int" >        4        6       14       15       15 </v>
   <v type="int" >        4        7        7        8       16 </v>
   <v type="int" >        4        7        7       15       16 </v>
   <v type="int" >        4        7       15       15       16 </v>
   <v type="int" >        4        7        8        8       16 </v>
   <v type="int" >        4        7        8       16       16 </v>
   <v type="int" >        4        7       15       16       16 </v>
   <v type="int" >        4        8        8        9       17 </v>
   <v type="int" >        4        8        8       16       17 </v>
   <v type="int" >        4        8       16       16       17 </v>
   <v type="int" >        4        8        9        9       17 </v>
   <v type="int" >        4        8        9       17       17 </v>
   <v type="int" >        4        8       16       17       17 </v>
   <v type="int" >        4        8        9        9       18 </v>
   <v type="int" >        4        9        9       17       18 </v>
   <v type="int" >        4        9       17       17       18 </v>
   <v type="int" >        4        8        8        9       18 </v>
   <v type="int" >        4        8        9       18       18 </v>
   <v type="int" >        4        9       17       18       18 </v>
   <v type="int" >        4        7        8        8       19 </v>
   <v type="int" >        4        8        8       18       19 </v>
   <v type="int" >        4        8       18       18       19 </v>
   <v type="int" >        4        7        7        8       19 </v>
   <v type="int" >        4        7        8       19       19 </v>
   <v type="int" >        4        8       18       19       19 </v>
   <v type="int" >        4        6        7        7       20 </v>
   <v type="int" >        4        7        7       19       20 </v>
   <v type="int" >        4        7       19       19       20 </v>
   <v type="int" >        4        6        6        7       20 </v>
   <v type="int" >        4        6        7       20       20 </v>
   <v type="int" >        4        7       19       20       20 </v>
   <v type="int" >        4        5        6        6       21 </v>
   <v type="int" >        4        6        6       20       21 </v>
   <v type="int" >        4        6       20       20       21 </v>
   <v type="int" >        4        5        5        6       21 </v>
   <v type="int" >        4        5        6       21       21 </v>
   <v type="int" >        4        6       20       21       21 </v>
   <v type="int" >        4        4        5        5       22 </v>
   <v type="int" >        4        5        5       21       22 </v>
   <v type="int" >        4        5       21       21       22 </v>
   <v type="int" >        4        4        4        5       22 </v>
   <v type="int" >        4        4        5       22       22 </v>
   <v type="int" >        4        5       21       22       22 </v>
   <v type="int" >        4        3        4        4       23 </v>
   <v type="int" >        4        4        4       22       23 </v>
   <v type="int" >        4        4       22       22       23 </v>
   <v type="int" >        4        3        3        4       23 </v>
   <v type="int" >        4        3        4       23       23 </v>
   <v type="int" >        4        4       22       23       23 </v>
   <v type="int" >        4        2        3        3       24 </v>
   <v type="int" >        4        3        3       23       24 </v>
   <v type="int" >        4        3       23       23       24 </v>
   <v type="int" >        4        2        2        3       24 </v>
   <v type="int" >        4        2        3       24       24 </v>
   <v type="int" >        4        3       23       24       24 </v>
   <v type="int" >        4        2        2       10       24 </v>
   <v type="int" >        4        2       10       24       24 </v>
   <v type="int" >        4        2       10       10       24 </v>
   <v type="int" >        4       10       10       24       25 </v>
   <v type="int" >        4       10       24       25       25 </v>
   <v type="int" >        4       10       24       24       25 </v>
   <v type="int" >        2       11       11       12       12 </v>
   <v type="int" >        4       11       12       12       12 </v>
   <v type="int" >        4       12       12       13       26 </v>
   <v type="int" >        4       12       12       12       26 </v>
   <v type="int" >        4       12       13       13       26 </v>
   <v type="int" >        4       12       13       26       26 </v>
   <v type="int" >        2       12       12       26       26 </v>
   <v type="int" >        4       13       13       14       27 </v>
   <v type="int" >        4       13       13       26       27 </v>
   <v type="int" >        4       13       26       26       27 </v>
   <v type="int" >        4       13       14       14       27 </v>
   <v type="int" >        4       13       14       27       27 </v>
   <v type="int" >        4       13       26       27       27 </v>
   <v type="int" >        4       14       14       15       28 </v>
   <v type="int" >        4       14       14       27       28 </v>
   <v type="int" >        4       14       27       27       28 </v>
   <v type="int" >        4       14       15       15       28 </v>
   <v type="int" >        4       14       15       28       28 </v>
   <v type="int" >        4       14       27       28       28 </v>
   <v type="int" >        4       15       15       16       29 </v>
   <v type="int" >        4       15       15       28       29 </v>
   <v type="int" >        4       15       28       28       29 </v>
   <v type="int" >        4       15       16       16       29 </v>
   <v type="int" >        4       15       16       29       29 </v>
   <v type="int" >        4       15       28       29       29 </v>
   <v type="int" >        4       16       16       17       30 </v>
   <v type="int" >        4       16       16       29       30 </v>
   <v type="int" >        4       16       29       29       30 </v>
   <v type="int" >        4       16       17       17       30 </v>
   <v type="int" >        4       16       17       30       30 </v>
   <v type="int" >        4       16       29       30       30 </v>
   <v type="int" >        4       17       17       18       31 </v>
   <v type="int" >        4       17       17       30       31 </v>
   <v type="int" >        4       17       30       30       31 </v>
   <v type="int" >        4       17       18       18       31 </v>
   <v type="int" >        4       17       18       31       31 </v>
   <v type="int" >        4       17       30       31       31 </v>
   <v type="int" >        4       18       18       19       32 </v>
   <v type="int" >        4       18       18       31       32 </v>
   <v type="int" >        4       18       31       31       32 </v>
   <v type="int" >        4       18       19       19       32 </v>
   <v type="int" >        4       18       19       32       32 </v>
   <v type="int" >        4       18       31       32       32 </v>
   <v type="int" >        4       19       19       20       33 </v>
   <v type="int" >        4       19       19       32       33 </v>
   <v type="int" >        4       19       32       32       33 </v>
   <v type="int" >        4       19       20       20       33 </v>
   <v type="int" >        4       19       20       33       33 </v>
   <v type="int" >        4       19       32       33       33 </v>
   <v type="int" >        4       20       20       21       34 </v>
   <v type="int" >        4       20       20       33       34 </v>
   <v type="int" >        4       20       33       33       34 </v>
   <v type="int" >        4       20       21       21       34 </v>
   <v type="int" >        4       20       21       34       34 </v>
   <v type="int" >        4       20       33       34       34 </v>
   <v type="int" >        4       21       21       22       35 </v>
   <v type="int" >        4       21       21       34       35 </v>
   <v type="int" >        4       21       34       34       35 </v>
   <v type="int" >        4       21       22       22       35 </v>
   <v type="int" >        4       21       22       35       35 </v>
   <v type="int" >        4       21       34       35       35 </v>
   <v type="int" >        4       22       22       23       36 </v>
   <v type="int" >        4       22       22       35       36 </v>
   <v type="int" >        4       22       35       35       36 </v>
   <v type="int" >        4       22       23       23       36 </v>
   <v type="int" >        4       22       23       36       36 </v>
   <v type="int" >        4       22       35       36       36 </v>
   <v type="int" >        4       23       23       24       37 </v>
   <v type="int" >        4       23       23       36       37 </v>
   <v type="int" >        4       23       36       36       37 </v>
   <v type="int" >        4       23       24       24       37 </v>
   <v type="int" >        4       23       24       37       37 </v>
   <v type="int" >        4       23       36       37       37 </v>
   <v type="int" >        4       24       24       25       37 </v>
   <v type="int" >        4       24       25       37       37 </v>
   <v type="int" >        4       24       25       25       37 </v>
   <v type="int" >        4       25       25       37       38 </v>
   <v type="int" >        4       25       37       38       38 </v>
   <v type="int" >        4       25       37       37       38 </v>
   <v type="int" >        2       26       26       27       27 </v>
   <v type="int" >        4       26       27       27       27 </v>
   <v type="int" >        4       27       27       28       39 </v>
   <v type="int" >        4       27       27       27       39 </v>
   <v type="int" >        4       27       28       28       39 </v>
   <v type="int" >        4       27       28       39       39 </v>
   <v type="int" >        2       27       27       39       39 </v>
   <v type="int" >        4       28       28       29       40 </v>
   <v type="int" >        4       28       28       39       40 </v>
   <v type="int" >        4       28       39       39       40 </v>
   <v type="int" >        4       28       29       29       40 </v>
   <v type="int" >        4       28       29       40       40 </v>
   <v type="int" >        4       28       39       40       40 </v>
   <v type="int" >        4       29       29       30       41 </v>
   <v type="int" >        4       29       29       40       41 </v>
   <v type="int" >        4       29       40       40       41 </v>
   <v type="int" >        4       29       30       30       41 </v>
   <v type="int" >        4       29       30       41       41 </v>
   <v type="int" >        4       29       40       41       41 </v>
   <v type="int" >        4       30       30       31       42 </v>
   <v type="int" >        4       30       30       41       42 </v>
   <v type="int" >        4       30       41       41       42 </v>
   <v type="int" >        4       30       31       31       42 </v>
   <v type="int" >        4       30       31       42       42 </v>
   <v type="int" >        4       30       41       42       42 </v>
   <v type="int" >        4       31       31       32       43 </v>
   <v type="int" >        4       31       31       42       43 </v>
   <v type="int" >        4       31       42       42       43 </v>
   <v type="int" >        4       31       32       32       43 </v>
   <v type="int" >        4       31       32       43       43 </v>
   <v type="int" >        4       31       42       43       43 </v>
   <v type="int" >        4       32       32       33       44 </v>
   <v type="int" >        4       32       32       43       44 </v>
   <v type="int" >        4       32       43       43       44 </v>
   <v type="int" >        4       32       33       33       44 </v>
   <v type="int" >        4       32       33       44       44 </v>
   <v type="int" >        4       32       43       44       44 </v>
   <v type="int" >        4       33       33       34       45 </v>
   <v type="int" >        4       33       33       44       45 </v>
   <v type="int" >        4       33       44       44       45 </v>
   <v type="int" >        4       33       34       34       45 </v>
   <v type="int" >        4       33       34       45       45 </v>
   <v type="int" >        4       33       44       45       45 </v>
   <v type="int" >        4       34       34       35       46 </v>
   <v type="int" >        4       34       34       45       46 </v>
   <v type="int" >        4       34       45       45       46 </v>
   <v type="int" >        4       34       35       35       46 </v>
   <v type="int" >        4       34       35       46       46 </v>
   <v type="int" >        4       34       45       46       46 </v>
   <v type="int" >        4       35       35       36       47 </v>
   <v type="int" >        4       35       35       46       47 </v>
   <v type="int" >        4       35       46       46       47 </v>
   <v type="int" >        4       35       36       36       47 </v>
   <v type="int" >        4       35       36       47       47 </v>
   <v type="int" >        4       35       46       47       47 </v>
   <v type="int" >        4       36       36       37       48 </v>
   <v type="int" >        4       36       36       47       48 </v>
   <v type="int" >        4       36       47       47       48 </v>
   <v type="int" >        4       36       37       37       48 </v>
   <v type="int" >        4       36       37       48       48 </v>
   <v type="int" >        4       36       47       48       48 </v>
   <v type="int" >        4       37       37       38       48 </v>
   <v type="int" >        4       37       38       48       48 </v>
   <v type="int" >        4       37       38       38       48 </v>
   <v type="int" >        4       38       38       48       49 </v>
   <v type="int" >        4       38       48       49       49 </v>
   <v type="int" >        4       38       48       48       49 </v>
   <v type="int" >        2       39       39       40       40 </v>
   <v type="int" >        4       39       40       40       40 </v>
   <v type="int" >        4       40       40       41       50 </v>
   <v type="int" >        4       40       40       40       50 </v>
   <v type="int" >        4       40       41       41       50 </v>
   <v type="int" >        4       40       41       50       50 </v>
   <v type="int" >        2       40       40       50       50 </v>
   <v type="int" >        4       41       41       42       51 </v>
   <v type="int" >        4       41       41       50       51 </v>
   <v type="int" >        4       41       50       50       51 </v>
   <v type="int" >        4       41       42       42       51 </v>
   <v type="int" >        4       41       42       51       51 </v>
   <v type="int" >        4       41       50       51       51 </v>
   <v type="int" >        4       42       42       43       52 </v>
   <v type="int" >        4       42       42       51       52 </v>
   <v type="int" >        4       42       51       51       52 </v>
   <v type="int" >        4       42       43       43       52 </v>
   <v type="int" >        4       42       43       52       52 </v>
   <v type="int" >        4       42       51       52       52 </v>
   <v type="int" >        4       43       43       44       53 </v>
   <v type="int" >        4       43       43       52       53 </v>
   <v type="int" >        4       43       52       52       53 </v>
   <v type="int" >        4       43       44       44       53 </v>
   <v type="int" >        4       43       44       53       53 </v>
   <v type="int" >        4       43       52       53       53 </v>
   <v type="int" >        4       44       44       45       54 </v>
   <v type="int" >        4       44       44       53       54 </v>
   <v type="int" >        4       44       53       53       54 </v>
   <v type="int" >        4       44       45       45       54 </v>
   <v type="int" >        4       44       45       54       54 </v>
   <v type="int" >        4       44       53       54       54 </v>
   <v type="int" >        4       45       45       46       55 </v>
   <v type="int" >        4       45       45       54       55 </v>
   <v type="int" >        4       45       54       54       55 </v>
   <v type="int" >        4       45       46       46       55 </v>
   <v type="int" >        4       45       46       55       55 </v>
   <v type="int" >        4       45       54       55       55 </v>
   <v type="int" >        4       46       46       47       56 </v>
   <v type="int" >        4       46       46       55       56 </v>
   <v type="int" >        4       46       55       55       56 </v>
   <v type="int" >        4       46       47       47       56 </v>
   <v type="int" >        4       46       47       56       56 </v>
   <v type="int" >        4       46       55       56       56 </v>
   <v type="int" >        4       47       47       48       57 </v>
   <v type="int" >        4       47       47       56       57 </v>
   <v type="int" >        4       47       56       56       57 </v>
   <v type="int" >        4       47       48       48       57 </v>
   <v type="int" >        4       47       48       57       57 </v>
   <v type="int" >        4       47       56       57       57 </v>
   <v type="int" >        4       48       48       49       57 </v>
   <v type="int" >        4       48       49       57       57 </v>
   <v type="int" >        4       48       49       49       57 </v>
   <v type="int" >        4       49       49       57       58 </v>
   <v type="int" >        4       49       57       58       58 </v>
   <v type="int" >        4       49       57       57       58 </v>
   <v type="int" >        2       50       50       51       51 </v>
   <v type="int" >        4       50       51       51       51 </v>
   <v type="int" >        4       51       51       52       59 </v>
   <v type="int" >        4       51       51       51       59 </v>
   <v type="int" >        4       51       52       52       59 </v>
   <v type="int" >        4       51       52       59       59 </v>
   <v type="int" >        2       51       51       59       59 </v>
   <v type="int" >        4       52       52       53       60 </v>
   <v type="int" >        4       52       52       59       60 </v>
   <v type="int" >        4       52       59       59       60 </v>
   <v type="int" >        4       52       53       53       60 </v>
   <v type="int" >        4       52       53       60       60 </v>
   <v type="int" >        4       52       59       60       60 </v>
   <v type="int" >        4       53       53       54       61 </v>
   <v type="int" >        4       53       53       60       61 </v>
   <v type="int" >        4       53       60       60       61 </v>
   <v type="int" >        4       53       54       54       61 </v>
   <v type="int" >        4       53       54       61       61 </v>
   <v type="int" >        4       53       60       61       61 </v>
   <v type="int" >        4       54       54       55       62 </v>
   <v type="int" >        4       54       54       61       62 </v>
   <v type="int" >        4       54       61       61       62 </v>
   <v type="int" >        4       54       55       55       62 </v>
   <v type="int" >        4       54       55       62       62 </v>
   <v type="int" >        4       54       61       62       62 </v>
   <v type="int" >        4       55       55       56       63 </v>
   <v type="int" >        4       55       55       62       63 </v>
   <v type="int" >        4       55       62       62       63 </v>
   <v type="int" >        4       55       56       56       63 </v>
   <v type="int" >        4       55       56       63       63 </v>
   <v type="int" >        4       55       62       63       63 </v>
   <v type="int" >        4       56       56       57       64 </v>
   <v type="int" >        4       56       56       63       64 </v>
   <v type="int" >        4       56       63       63       64 </v>
   <v type="int" >        4       56       57       57       64 </v>
   <v type="int" >        4       56       57       64       64 </v>
   <v type="int" >        4       56       63       64       64 </v>
   <v type="int" >        4       57       57       58       64 </v>
   <v type="int" >        4       57       58       64       64 </v>
   <v type="int" >        4       57       58       58       64 </v>
   <v type="int" >        4       58       58       64       65 </v>
   <v type="int" >        4       58       64       65       65 </v>
   <v type="int" >        4       58       64       64       65 </v>
   <v type="int" >        2       59       59       60       60 </v>
   <v type="int" >        4       59       60       60       60 </v>
   <v type="int" >        4       60       60       61       66 </v>
   <v type="int" >        4       60       60       60       66 </v>
   <v type="int" >        4       60       61       61       66 </v>
   <v type="int" >        4       60       61       66       66 </v>
   <v type="int" >        2       60       60       66       66 </v>
   <v type="int" >        4       61       61       62       67 </v>
   <v type="int" >        4       61       61       66       67 </v>
   <v type="int" >        4       61       66       66       67 </v>
   <v type="int" >        4       61       62       62       67 </v>
   <v type="int" >        4       61       62       67       67 </v>
   <v type="int" >        4       61       66       67       67 </v>
   <v type="int" >        4       62       62       63       68 </v>
   <v type="int" >        4       62       62       67       68 </v>
   <v type="int" >        4       62       67       67       68 </v>
   <v type="int" >        4       62       63       63       68 </v>
   <v type="int" >        4       62       63       68       68 </v>
   <v type="int" >        4       62       67       68       68 </v>
   <v type="int" >        4       63       63       64       69 </v>
   <v type="int" >        4       63       63       68       69 </v>
   <v type="int" >        4       63       68       68       69 </v>
   <v type="int" >        4       63       64       64       69 </v>
   <v type="int" >        4       63       64       69       69 </v>
   <v type="int" >        4       63       68       69       69 </v>
   <v type="int" >        4       64       64       65       69 </v>
   <v type="int" >        4       64       65       69       69 </v>
   <v type="int" >        4       64       65       65       69 </v>
   <v type="int" >        4       65       65       69       70 </v>
   <v type="int" >        4       65       69       70       70 </v>
   <v type="int" >        4       65       69       69       70 </v>
   <v type="int" >        2       66       66       67       67 </v>
   <v type="int" >        4       66       67       67       67 </v>
   <v type="int" >        4       67       67       68       71 </v>
   <v type="int" >        4       67       67       67       71 </v>
   <v type="int" >        4       67       68       68       71 </v>
   <v type="int" >        4       67       68       71       71 </v>
   <v type="int" >        2       67       67       71       71 </v>
   <v type="int" >        4       68       68       69       72 </v>
   <v type="int" >        4       68       68       71       72 </v>
   <v type="int" >        4       68       71       71       72 </v>
   <v type="int" >        4       68       69       69       72 </v>
   <v type="int" >        4       68       69       72       72 </v>
   <v type="int" >        4       68       71       72       72 </v>
   <v type="int" >        4       69       69       70       72 </v>
   <v type="int" >        4       69       70       72       72 </v>
   <v type="int" >        4       69       70       70       72 </v>
   <v type="int" >        4       70       70       72       73 </v>
   <v type="int" >        4       70       72       73       73 </v>
   <v type="int" >        4       70       72       72       73 </v>
   <v type="int" >        2       71       71       72       72 </v>
   <v type="int" >        4       71       72       72       72 </v>
   <v type="int" >        4       72       72       72       73 </v>
   <v type="int" >        2       72       72       73       73 </v>
  </varray>
  <i name="volumeweight">      0.00065104 </i>
 </kpoints>
 <parameters>
  <separator name="general" >
   <i type="string" name="SYSTEM">BC3 DOS</i>
   <i type="logical" name="LCOMPAT"> F  </i>
  </separator>
  <separator name="electronic" >
   <i type="string" name="PREC">accura</i>
   <i name="ENMAX">    450.00000000</i>
   <i name="ENAUG">    644.87300000</i>
   <i name="EDIFF">      0.00000100</i>
   <i type="int" name="IALGO">    38</i>
   <i type="int" name="IWAVPR">    10</i>
   <i type="int" name="NBANDS">    24</i>
   <i name="NELECT">     30.00000000</i>
   <i type="int" name="TURBO">     0</i>
   <i type="int" name="IRESTART">     0</i>
   <i type="int" name="NREBOOT">     0</i>
   <i type="int" name="NMIN">     0</i>
   <i name="EREF">      0.00000000</i>
   <separator name="electronic smearing" >
    <i type="int" name="ISMEAR">    -5</i>
    <i name="SIGMA">      0.20000000</i>
    <i name="KSPACING">      0.50000000</i>
    <i type="logical" name="KGAMMA"> T  </i>
   </separator>
   <separator name="electronic projectors" >
    <i type="logical" name="LREAL"> F  </i>
    <v name="ROPT">      0.00000000      0.00000000</v>
    <i type="int" name="LMAXPAW">  -100</i>
    <i type="int" name="LMAXMIX">     2</i>
    <i type="logical" name="NLSPLINE"> F  </i>
   </separator>
   <separator name="electronic startup" >
    <i type="int" name="ISTART">     0</i>
    <i type="int" name="ICHARG">     2</i>
    <i type="int" name="INIWAV">     1</i>
   </separator>
   <separator name="electronic spin" >
    <i type="int" name="ISPIN">     1</i>
    <i type="logical" name="LNONCOLLINEAR"> F  </i>
    <v name="MAGMOM">      1.00000000      1.00000000      1.00000000      1.00000000      1.00000000      1.00000000      1.00000000      1.00000000</v>
    <i name="NUPDOWN">     -1.00000000</i>
    <i type="logical" name="LSORBIT"> F  </i>
    <v name="SAXIS">      0.00000000      0.00000000      1.00000000</v>
    <i type="logical" name="LSPIRAL"> F  </i>
    <v name="QSPIRAL">      0.00000000      0.00000000      0.00000000</v>
    <i type="logical" name="LZEROZ"> F  </i>
   </separator>
   <separator name="electronic exchange-correlation" >
    <i type="logical" name="LASPH"> F  </i>
    <i type="logical" name="LMETAGGA"> F  </i>
   </separator>
   <separator name="electronic convergence" >
    <i type="int" name="NELM">    60</i>
    <i type="int" name="NELMDL">    -5</i>
    <i type="int" name="NELMIN">     2</i>
    <i name="ENINI">    450.00000000</i>
    <separator name="electronic convergence detail" >
     <i type="logical" name="LDIAG"> T  </i>
     <i type="logical" name="LSUBROT"> F  </i>
     <i name="WEIMIN">      0.00000000</i>
     <i name="EBREAK">      0.00000000</i>
     <i name="DEPER">      0.30000000</i>
     <i type="int" name="NRMM">     4</i>
     <i name="TIME">      0.40000000</i>
    </separator>
   </separator>
   <separator name="electronic mixer" >
    <i name="AMIX">      0.40000000</i>
    <i name="BMIX">      1.00000000</i>
    <i name="AMIN">      0.10000000</i>
    <i name="AMIX_MAG">      1.60000000</i>
    <i name="BMIX_MAG">      1.00000000</i>
    <separator name="electronic mixer details" >
     <i type="int" name="IMIX">     4</i>
     <i type="logical" name="MIXFIRST"> F  </i>
     <i type="int" name="MAXMIX">   -45</i>
     <i name="WC">    100.00000000</i>
     <i type="int" name="INIMIX">     1</i>
     <i type="int" name="MIXPRE">     1</i>
     <i type="int" name="MREMOVE">     5</i>
    </separator>
   </separator>
   <separator name="electronic dipolcorrection" >
    <i type="logical" name="LDIPOL"> F  </i>
    <i type="logical" name="LMONO"> F  </i>
    <i type="int" name="IDIPOL">     0</i>
    <i name="EPSILON">      1.00000000</i>
    <v name="DIPOL">   -100.00000000   -100.00000000   -100.00000000</v>
    <i name="EFIELD">      0.00000000</i>
   </separator>
  </separator>
  <separator name="grids" >
   <i type="int" name="NGX">    36</i>
   <i type="int" name="NGY">    36</i>
   <i type="int" name="NGZ">   140</i>
   <i type="int" name="NGXF">    72</i>
   <i type="int" name="NGYF">    72</i>
   <i type="int" name="NGZF">   280</i>
   <i type="logical" name="ADDGRID"> F  </i>
  </separator>
  <separator name="ionic" >
   <i type="int" name="NSW">     0</i>
   <i type="int" name="IBRION">    -1</i>
   <i type="int" name="MDALGO">     0</i>
   <i type="int" name="ISIF">     2</i>
   <i name="PSTRESS">      0.00000000</i>
   <i name="EDIFFG">     -0.00000100</i>
   <i type="int" name="NFREE">     0</i>
   <i name="POTIM">      0.50000000</i>
   <i name="SMASS">     -3.00000000</i>
   <i name="SCALEE">      1.00000000</i>
  </separator>
  <separator name="ionic md" >
   <i name="TEBEG">      0.00010000</i>
   <i name="TEEND">      0.00010000</i>
   <i type="int" name="NBLOCK">     1</i>
   <i type="int" name="KBLOCK">     1</i>
   <i type="int" name="NPACO">   256</i>
   <i name="APACO">     16.00000000</i>
  </separator>
  <separator name="symmetry" >
   <i type="int" name="ISYM">     2</i>
   <i name="SYMPREC">      0.00001000</i>
  </separator>
  <separator name="dos" >
   <i type="int" name="LORBIT">     0</i>
   <v name="RWIGS">     -1.00000000     -1.00000000</v>
   <i type="int" name="NEDOS">   301</i>
   <i name="EMIN">     10.00000000</i>
   <i name="EMAX">    -10.00000000</i>
   <i name="EFERMI">      0.00000000</i>
  </separator>
  <separator name="writing" >
   <i type="int" name="NWRITE">     2</i>
   <i type="logical" name="LWAVE"> T  </i>
   <i type="logical" name="LDOWNSAMPLE"> F  </i>
   <i type="logical" name="LCHARG"> T  </i>
   <i type="logical" name="LPARD"> F  </i>
   <i type="logical" name="LVTOT"> F  </i>
   <i type="logical" name="LVHAR"> F  </i>
   <i type="logical" name="LELF"> F  </i>
   <i type="logical" name="LOPTICS"> F  </i>
   <v name="STM">      0.00000000      0.00000000      0.00000000      0.00000000      0.00000000      0.00000000      0.00000000</v>
  </separator>
  <separator name="performance" >
   <i type="int" name="NPAR">    12</i>
   <i type="int" name="NSIM">     4</i>
   <i type="int" name="NBLK">    -1</i>
   <i type="logical" name="LPLANE"> T  </i>
   <i type="logical" name="LSCALAPACK"> T  </i>
   <i type="logical" name="LSCAAWARE"> F  </i>
   <i type="logical" name="LSCALU"> F  </i>
   <i type="logical" name="LASYNC"> F  </i>
   <i type="logical" name="LORBITALREAL"> F  </i>
  </separator>
  <separator name="miscellaneous" >
   <i type="int" name="IDIOT">     3</i>
   <i type="int" name="ISPECIAL">     0</i>
   <i type="logical" name="LMUSIC"> F  </i>
   <v name="POMASS">     10.81100000     12.01100000</v>
   <v name="DARWINR">      0.00000000      0.00000000</v>
   <v name="DARWINV">      1.00000000      1.00000000</v>
   <i type="logical" name="LCORR"> T  </i>
  </separator>
  <i type="logical" name="GGA_COMPAT"> T  </i>
  <i type="logical" name="LBERRY"> F  </i>
  <i type="int" name="ICORELEVEL">     0</i>
  <i type="logical" name="LDAU"> F  </i>
  <i type="int" name="I_CONSTRAINED_M">     0</i>
  <separator name="electronic exchange-correlation" >
   <i type="string" name="GGA">--</i>
   <i type="int" name="VOSKOWN">     0</i>
   <i type="logical" name="LHFCALC"> F  </i>
   <i type="string" name="PRECFOCK"></i>
   <i type="logical" name="LSYMGRAD"> F  </i>
   <i type="logical" name="LHFONE"> F  </i>
   <i type="logical" name="LRHFCALC"> F  </i>
   <i type="logical" name="LTHOMAS"> F  </i>
   <i type="logical" name="LMODELHF"> F  </i>
   <i name="ENCUT4O">     -1.00000000</i>
   <i type="int" name="EXXOEP">     0</i>
   <i type="int" name="FOURORBIT">     0</i>
   <i name="AEXX">      0.00000000</i>
   <i name="HFALPHA">      0.00000000</i>
   <i name="MCALPHA">      0.00000000</i>
   <i name="ALDAX">      1.00000000</i>
   <i name="AGGAX">      1.00000000</i>
   <i name="ALDAC">      1.00000000</i>
   <i name="AGGAC">      1.00000000</i>
   <i type="int" name="NKREDX">     1</i>
   <i type="int" name="NKREDY">     1</i>
   <i type="int" name="NKREDZ">     1</i>
   <i type="logical" name="SHIFTRED"> F  </i>
   <i type="logical" name="ODDONLY"> F  </i>
   <i type="logical" name="EVENONLY"> F  </i>
   <i type="int" name="LMAXFOCK">     0</i>
   <i type="int" name="NMAXFOCKAE">     0</i>
   <i type="logical" name="LFOCKAEDFT"> F  </i>
   <i name="HFSCREEN">      0.00000000</i>
   <i name="HFSCREENC">      0.00000000</i>
   <i type="int" name="NBANDSGWLOW">     0</i>
  </separator>
  <separator name="vdW DFT" >
   <i type="logical" name="LUSE_VDW"> F  </i>
   <i name="Zab_VDW">     -0.84910000</i>
   <i name="PARAM1">      0.12340000</i>
   <i name="PARAM2">      1.00000000</i>
   <i name="PARAM3">      0.00000000</i>
  </separator>
  <separator name="model GW" >
   <i type="int" name="MODEL_GW">     0</i>
   <i name="MODEL_EPS0">     34.77704100</i>
   <i name="MODEL_ALPHA">      1.00000000</i>
  </separator>
  <separator name="linear response parameters" >
   <i type="logical" name="LEPSILON"> F  </i>
   <i type="logical" name="LRPA"> F  </i>
   <i type="logical" name="LNABLA"> F  </i>
   <i type="logical" name="LVEL"> F  </i>
   <i type="int" name="KINTER">     0</i>
   <i name="CSHIFT">      0.10000000</i>
   <i name="OMEGAMAX">     -1.00000000</i>
   <i name="DEG_THRESHOLD">      0.00200000</i>
   <i name="RTIME">     -0.10000000</i>
   <i name="WPLASMAI">      0.00000000</i>
   <v name="DFIELD">      0.00000000      0.00000000      0.00000000</v>
   <v name="WPLASMA">      0.00000000      0.00000000      0.00000000      0.00000000      0.00000000      0.00000000      0.00000000      0.00000000      0.00000000</v>
  </separator>
  <separator name="orbital magnetization" >
   <i type="logical" name="NUCIND"> F  </i>
   <v name="MAGPOS">      0.00000000      0.00000000      0.00000000</v>
   <i type="logical" name="LNICSALL"> T  </i>
   <i type="logical" name="ORBITALMAG"> F  </i>
   <i type="logical" name="LMAGBLOCH"> F  </i>
   <i type="logical" name="LCHIMAG"> F  </i>
   <i type="logical" name="LGAUGE"> T  </i>
   <i type="int" name="MAGATOM">     0</i>
   <v name="MAGDIPOL">      0.00000000      0.00000000      0.00000000</v>
   <v name="AVECCONST">      0.00000000      0.00000000      0.00000000</v>
  </separator>
  <separator name="response functions" >
   <i type="logical" name="LADDER"> F  </i>
   <i type="logical" name="LRPAFORCE"> F  </i>
   <i type="logical" name="LFXC"> F  </i>
   <i type="logical" name="LHARTREE"> T  </i>
   <i type="int" name="IBSE">     0</i>
   <v type="int" name="KPOINT">    -1     0     0     0</v>
   <i type="logical" name="LTCTE"> F  </i>
   <i type="logical" name="LTETE"> F  </i>
   <i type="logical" name="LTRIPLET"> F  </i>
   <i type="logical" name="LFXCEPS"> F  </i>
   <i type="logical" name="LFXHEG"> F  </i>
   <i type="int" name="NATURALO">     2</i>
   <i type="logical" name="L2ORDER"> F  </i>
   <i type="logical" name="LMP2LT"> F  </i>
   <i type="logical" name="LUSEW"> F  </i>
   <i name="ENCUTGW">     -2.00000000</i>
   <i name="ENCUTGWSOFT">     -2.00000000</i>
   <i name="ENCUTLF">     -1.00000000</i>
   <i type="int" name="LMAXMP2">    -1</i>
   <i name="SCISSOR">      0.00000000</i>
   <i type="int" name="NOMEGA">     0</i>
   <i type="int" name="NOMEGAR">     0</i>
   <i type="int" name="NBANDSGW">    -1</i>
   <i type="int" name="NBANDSO">    -1</i>
   <i type="int" name="NBANDSV">    -1</i>
   <i type="int" name="NELM">     1</i>
   <i type="int" name="NELMHF">     1</i>
   <i type="int" name="DIM">     3</i>
   <i type="int" name="ANTIRES">     0</i>
   <i name="OMEGAMAX">    -30.00000000</i>
   <i name="OMEGAMIN">    -30.00000000</i>
   <i name="OMEGATL">   -200.00000000</i>
   <i type="int" name="OMEGAGRID">   140</i>
   <i name="CSHIFT">     -0.10000000</i>
   <i type="logical" name="SELFENERGY"> F  </i>
   <i type="logical" name="LSPECTRAL"> F  </i>
   <i type="logical" name="LSPECTRALGW"> F  </i>
   <i type="logical" name="LSINGLES"> F  </i>
   <i type="logical" name="LFERMIGW"> F  </i>
   <i type="logical" name="ODDONLYGW"> F  </i>
   <i type="logical" name="EVENONLYGW"> F  </i>
   <i type="int" name="NKREDLFX">     1</i>
   <i type="int" name="NKREDLFY">     1</i>
   <i type="int" name="NKREDLFZ">     1</i>
   <i type="int" name="MAXMEM">  2800</i>
   <i type="int" name="TELESCOPE">     0</i>
   <i type="int" name="TAUPAR">     1</i>
   <i type="int" name="OMEGAPAR">    -1</i>
   <i name="LAMBDA">      1.00000000</i>
  </separator>
  <separator name="External order field" >
   <i name="OFIELD_KAPPA">      0.00000000</i>
   <v name="OFIELD_K">      0.00000000      0.00000000      0.00000000</v>
   <i name="OFIELD_Q6_NEAR">      0.00000000</i>
   <i name="OFIELD_Q6_FAR">      0.00000000</i>
   <i name="OFIELD_A">      0.00000000</i>
  </separator>
 </parameters>
 <atominfo>
  <atoms>       8 </atoms>
  <types>       2 </types>
  <array name="atoms" >
   <dimension dim="1">ion</dimension>
   <field type="string">element</field>
   <field type="int">atomtype</field>
   <set>
    <rc><c>B </c><c>   1</c></rc>
    <rc><c>B </c><c>   1</c></rc>
    <rc><c>C </c><c>   2</c></rc>
    <rc><c>C </c><c>   2</c></rc>
    <rc><c>C </c><c>   2</c></rc>
    <rc><c>C </c><c>   2</c></rc>
    <rc><c>C </c><c>   2</c></rc>
    <rc><c>C </c><c>   2</c></rc>
   </set>
  </array>
  <array name="atomtypes" >
   <dimension dim="1">type</dimension>
   <field type="int">atomspertype</field>
   <field type="string">element</field>
   <field>mass</field>
   <field>valence</field>
   <field type="string">pseudopotential</field>
   <set>
    <rc><c>   2</c><c>B </c><c>     10.81100000</c><c>      3.00000000</c><c>  PAW_PBE B 06Sep2000                   </c></rc>
    <rc><c>   6</c><c>C </c><c>     12.01100000</c><c>      4.00000000</c><c>  PAW_PBE C 08Apr2002                   </c></rc>
   </set>
  </array>
 </atominfo>
 <structure name="initialpos" >
  <crystal>
   <varray name="basis" >
    <v>       5.17400000       0.00000000       0.00000000 </v>
    <v>       2.58700000       4.48100000       0.00000000 </v>
    <v>       0.00000000       0.00000000      20.00000000 </v>
   </varray>
   <i name="volume">    463.69388000 </i>
   <varray name="rec_basis" >
    <v>       0.19327406      -0.11158224       0.00000000 </v>
    <v>       0.00000000       0.22316447       0.00000000 </v>
    <v>       0.00000000       0.00000000       0.05000000 </v>
   </varray>
  </crystal>
  <varray name="positions" >
   <v>       0.17457326       0.17462620       0.00000000 </v>
   <v>       0.50792519       0.50792234       0.00000000 </v>
   <v>       0.00000000       0.00000000       0.00000000 </v>
   <v>       0.52377271       0.00000000       0.00000000 </v>
   <v>       0.68255138       0.15866994       0.00000000 </v>
   <v>       0.99994706       0.52387860       0.00000000 </v>
   <v>       0.15872573       0.68254854       0.00000000 </v>
   <v>       0.68249844       0.68254854       0.00000000 </v>
  </varray>
 </structure>
 <calculation>
  <scstep>
   <time name="dav">   11.81   11.84</time>
   <time name="total">   11.98   12.01</time>
   <energy>
    <i name="alphaZ">     10.93933817 </i>
    <i name="ewald">   4060.05404224 </i>
    <i name="hartreedc">  -4796.78910906 </i>
    <i name="XCdc">     91.14028263 </i>
    <i name="pawpsdc">    738.13200929 </i>
    <i name="pawaedc">   -739.83780425 </i>
    <i name="eentropy">      0.00000000 </i>
    <i name="bandstr">   -195.21670318 </i>
    <i name="atom">   1025.20389953 </i>
    <i name="e_fr_energy">    193.62595538 </i>
    <i name="e_wo_entrp">    193.62595538 </i>
    <i name="e_0_energy">    193.62595538 </i>
   </energy>
  </scstep>
  <scstep>
   <time name="dav">   15.65   15.68</time>
   <time name="total">   15.66   15.69</time>
   <energy>
    <i name="e_fr_energy">    -41.96544047 </i>
    <i name="e_wo_entrp">    -41.96544047 </i>
    <i name="e_0_energy">    -41.96544047 </i>
   </energy>
  </scstep>
  <scstep>
   <time name="dav">   13.10   13.13</time>
   <time name="total">   13.11   13.13</time>
   <energy>
    <i name="e_fr_energy">    -72.67596910 </i>
    <i name="e_wo_entrp">    -72.67596910 </i>
    <i name="e_0_energy">    -72.67596910 </i>
   </energy>
  </scstep>
  <scstep>
   <time name="dav">   14.91   14.94</time>
   <time name="total">   14.91   14.94</time>
   <energy>
    <i name="e_fr_energy">    -73.41918089 </i>
    <i name="e_wo_entrp">    -73.41918089 </i>
    <i name="e_0_energy">    -73.41918089 </i>
   </energy>
  </scstep>
  <scstep>
   <time name="dav">   13.05   13.09</time>
   <time name="total">   14.02   14.06</time>
   <energy>
    <i name="e_fr_energy">    -73.43744967 </i>
    <i name="e_wo_entrp">    -73.43744967 </i>
    <i name="e_0_energy">    -73.43744967 </i>
   </energy>
  </scstep>
  <scstep>
   <time name="dav">   14.68   14.72</time>
   <time name="total">   15.78   15.81</time>
   <energy>
    <i name="e_fr_energy">    -68.97804411 </i>
    <i name="e_wo_entrp">    -68.97804411 </i>
    <i name="e_0_energy">    -68.97804411 </i>
   </energy>
  </scstep>
  <scstep>
   <time name="dav">   14.84   14.87</time>
   <time name="total">   15.92   15.95</time>
   <energy>
    <i name="e_fr_energy">    -67.33306199 </i>
    <i name="e_wo_entrp">    -67.33306199 </i>
    <i name="e_0_energy">    -67.33306199 </i>
   </energy>
  </scstep>
  <scstep>
   <time name="dav">   15.34   15.38</time>
   <time name="total">   16.42   16.46</time>
   <energy>
    <i name="e_fr_energy">    -67.25254625 </i>
    <i name="e_wo_entrp">    -67.25254625 </i>
    <i name="e_0_energy">    -67.25254625 </i>
   </energy>
  </scstep>
  <scstep>
   <time name="dav">   12.95   12.99</time>
   <time name="total">   14.02   14.07</time>
   <energy>
    <i name="e_fr_energy">    -67.23480281 </i>
    <i name="e_wo_entrp">    -67.23480281 </i>
    <i name="e_0_energy">    -67.23480281 </i>
   </energy>
  </scstep>
  <scstep>
   <time name="dav">   13.35   13.38</time>
   <time name="total">   14.43   14.47</time>
   <energy>
    <i name="e_fr_energy">    -67.22329640 </i>
    <i name="e_wo_entrp">    -67.22329640 </i>
    <i name="e_0_energy">    -67.22329640 </i>
   </energy>
  </scstep>
  <scstep>
   <time name="dav">   12.30   12.33</time>
   <time name="total">   13.41   13.43</time>
   <energy>
    <i name="e_fr_energy">    -67.22264963 </i>
    <i name="e_wo_entrp">    -67.22264963 </i>
    <i name="e_0_energy">    -67.22264963 </i>
   </energy>
  </scstep>
  <scstep>
   <time name="dav">   11.84   11.87</time>
   <time name="total">   12.92   12.95</time>
   <energy>
    <i name="e_fr_energy">    -67.22284089 </i>
    <i name="e_wo_entrp">    -67.22284089 </i>
    <i name="e_0_energy">    -67.22284089 </i>
   </energy>
  </scstep>
  <scstep>
   <time name="dav">   11.54   11.56</time>
   <time name="total">   12.62   12.65</time>
   <energy>
    <i name="e_fr_energy">    -67.22706299 </i>
    <i name="e_wo_entrp">    -67.22706299 </i>
    <i name="e_0_energy">    -67.22706299 </i>
   </energy>
  </scstep>
  <scstep>
   <time name="dav">   12.34   12.37</time>
   <time name="total">   13.43   13.45</time>
   <energy>
    <i name="e_fr_energy">    -67.22966135 </i>
    <i name="e_wo_entrp">    -67.22966135 </i>
    <i name="e_0_energy">    -67.22966135 </i>
   </energy>
  </scstep>
  <scstep>
   <time name="dav">   11.70   11.73</time>
   <time name="total">   12.81   12.83</time>
   <energy>
    <i name="e_fr_energy">    -67.23019095 </i>
    <i name="e_wo_entrp">    -67.23019095 </i>
    <i name="e_0_energy">    -67.23019095 </i>
   </energy>
  </scstep>
  <scstep>
   <time name="dav">   11.40   11.43</time>
   <time name="total">   12.49   12.51</time>
   <energy>
    <i name="e_fr_energy">    -67.23052614 </i>
    <i name="e_wo_entrp">    -67.23052614 </i>
    <i name="e_0_energy">    -67.23052614 </i>
   </energy>
  </scstep>
  <scstep>
   <time name="dav">   12.39   12.41</time>
   <time name="total">   13.47   13.50</time>
   <energy>
    <i name="e_fr_energy">    -67.23057673 </i>
    <i name="e_wo_entrp">    -67.23057673 </i>
    <i name="e_0_energy">    -67.23057673 </i>
   </energy>
  </scstep>
  <scstep>
   <time name="dav">   12.09   12.12</time>
   <time name="total">   13.18   13.21</time>
   <energy>
    <i name="e_fr_energy">    -67.23061500 </i>
    <i name="e_wo_entrp">    -67.23061500 </i>
    <i name="e_0_energy">    -67.23061500 </i>
   </energy>
  </scstep>
  <scstep>
   <time name="dav">   11.42   11.44</time>
   <time name="total">   12.51   12.54</time>
   <energy>
    <i name="e_fr_energy">    -67.23062056 </i>
    <i name="e_wo_entrp">    -67.23062056 </i>
    <i name="e_0_energy">    -67.23062056 </i>
   </energy>
  </scstep>
  <scstep>
   <time name="dav">   10.89   10.92</time>
   <time name="total">   11.97   12.00</time>
   <energy>
    <i name="e_fr_energy">    -67.23063363 </i>
    <i name="e_wo_entrp">    -67.23063363 </i>
    <i name="e_0_energy">    -67.23063363 </i>
   </energy>
  </scstep>
  <scstep>
   <time name="dav">    9.91    9.93</time>
   <time name="total">   11.00   11.02</time>
   <energy>
    <i name="e_fr_energy">    -67.23063613 </i>
    <i name="e_wo_entrp">    -67.23063613 </i>
    <i name="e_0_energy">    -67.23063613 </i>
   </energy>
  </scstep>
  <scstep>
   <time name="dav">    9.56    9.58</time>
   <time name="total">    9.70    9.72</time>
   <energy>
    <i name="alphaZ">     10.93933817 </i>
    <i name="ewald">   4060.05404224 </i>
    <i name="hartreedc">  -4938.55693026 </i>
    <i name="XCdc">     96.01877051 </i>
    <i name="pawpsdc">   2893.57504994 </i>
    <i name="pawaedc">  -2896.10204612 </i>
    <i name="eentropy">      0.00000000 </i>
    <i name="bandstr">   -318.36276094 </i>
    <i name="atom">   1025.20389953 </i>
    <i name="e_fr_energy">    -67.23063694 </i>
    <i name="e_wo_entrp">    -67.23063694 </i>
    <i name="e_0_energy">    -67.23063694 </i>
   </energy>
  </scstep>
  <structure>
   <crystal>
    <varray name="basis" >
     <v>       5.17400000       0.00000000       0.00000000 </v>
     <v>       2.58700000       4.48100000       0.00000000 </v>
     <v>       0.00000000       0.00000000      20.00000000 </v>
    </varray>
    <i name="volume">    463.69388000 </i>
    <varray name="rec_basis" >
     <v>       0.19327406      -0.11158224       0.00000000 </v>
     <v>       0.00000000       0.22316447       0.00000000 </v>
     <v>       0.00000000       0.00000000       0.05000000 </v>
    </varray>
   </crystal>
   <varray name="positions" >
    <v>       0.17457326       0.17462620       0.00000000 </v>
    <v>       0.50792519       0.50792234       0.00000000 </v>
    <v>       0.00000000       0.00000000       0.00000000 </v>
    <v>       0.52377271       0.00000000       0.00000000 </v>
    <v>       0.68255138       0.15866994       0.00000000 </v>
    <v>       0.99994706       0.52387860       0.00000000 </v>
    <v>       0.15872573       0.68254854       0.00000000 </v>
    <v>       0.68249844       0.68254854       0.00000000 </v>
   </varray>
  </structure>
  <varray name="forces" >
   <v>       0.00000000       0.00448518       0.00000000 </v>
   <v>      -0.00000000      -0.00448518      -0.00000000 </v>
   <v>      -0.01816181      -0.01141470      -0.00000000 </v>
   <v>       0.01816181      -0.01141470       0.00000000 </v>
   <v>       0.00000000      -0.00888978       0.00000000 </v>
   <v>      -0.00000000       0.00888978      -0.00000000 </v>
   <v>      -0.01816181       0.01141470      -0.00000000 </v>
   <v>       0.01816181       0.01141470      -0.00000000 </v>
  </varray>
  <varray name="stress" >
   <v>      -0.27540868      -0.00000000       0.00000000 </v>
   <v>      -0.00000000      -0.32701446       0.00000000 </v>
   <v>       0.00000000       0.00000000      -0.61274773 </v>
  </varray>
  <energy>
   <i name="e_fr_energy">    -67.23063694 </i>
   <i name="e_wo_entrp">    -67.23063694 </i>
   <i name="e_0_energy">      0.00000000 </i>
  </energy>
  <time name="totalsc">  309.12  311.81</time>
  <eigenvalues>
   <array>
    <dimension dim="1">band</dimension>
    <dimension dim="2">kpoint</dimension>
    <dimension dim="3">spin</dimension>
    <field>eigene</field>
    <field>occ</field>
    <set>
     <set comment="spin 1">
      <set comment="kpoint 1">
       <r>  -20.3127    1.0000 </r>
       <r>  -16.4220    1.0000 </r>
       <r>  -16.4215    1.0000 </r>
       <r>  -14.0746    1.0000 </r>
       <r>  -14.0742    1.0000 </r>
       <r>  -13.0043    1.0000 </r>
       <r>  -11.6917    1.0000 </r>
       <r>   -9.1191    1.0000 </r>
       <r>   -8.8973    1.0000 </r>
       <r>   -6.7472    1.0000 </r>
       <r>   -6.7462    1.0000 </r>
       <r>   -4.9229    1.0000 </r>
       <r>   -4.9229    1.0000 </r>
       <r>   -4.2433    1.0000 </r>
       <r>   -4.2408    1.0000 </r>
       <r>   -2.4086    0.0000 </r>
       <r>   -0.6760    0.0000 </r>
       <r>   -0.6756    0.0000 </r>
       <r>   -0.0190    0.0000 </r>
       <r>    0.4142    0.0000 </r>
       <r>    1.2706    0.0000 </r>
       <r>    1.4877    0.0000 </r>
       <r>    2.5031    0.0000 </r>
       <r>    2.8598    0.0000 </r>
      </set>
      <set comment="kpoint 2">
       <r>  -20.2974    1.0000 </r>
       <r>  -16.4982    1.0000 </r>
       <r>  -16.4461    1.0000 </r>
       <r>  -14.0962    1.0000 </r>
       <r>  -14.0183    1.0000 </r>
       <r>  -12.9285    1.0000 </r>
       <r>  -11.6000    1.0000 </r>
       <r>   -9.0959    1.0000 </r>
       <r>   -8.9294    1.0000 </r>
       <r>   -6.8169    1.0000 </r>
       <r>   -6.7599    1.0000 </r>
       <r>   -4.9936    1.0000 </r>
       <r>   -4.9346    1.0000 </r>
       <r>   -4.3235    1.0000 </r>
       <r>   -4.2805    1.0000 </r>
       <r>   -2.5338    0.0000 </r>
       <r>   -0.6420    0.0000 </r>
       <r>   -0.4878    0.0000 </r>
       <r>    0.0466    0.0000 </r>
       <r>    0.4433    0.0000 </r>
       <r>    1.3021    0.0000 </r>
       <r>    1.5169    0.0000 </r>
       <r>    2.5325    0.0000 </r>
       <r>    2.8892    0.0000 </r>
      </set>
      <set comment="kpoint 3">
       <r>  -20.2522    1.0000 </r>
       <r>  -16.7007    1.0000 </r>
       <r>  -16.5113    1.0000 </r>
       <r>  -14.1643    1.0000 </r>
       <r>  -13.8592    1.0000 </r>
       <r>  -12.7056    1.0000 </r>
       <r>  -11.3441    1.0000 </r>
       <r>   -9.0293    1.0000 </r>
       <r>   -9.0267    1.0000 </r>
       <r>   -7.0187    1.0000 </r>
       <r>   -6.7891    1.0000 </r>
       <r>   -5.1957    1.0000 </r>
       <r>   -4.9674    1.0000 </r>
       <r>   -4.5588    1.0000 </r>
       <r>   -4.3930    1.0000 </r>
       <r>   -2.7889    0.0000 </r>
       <r>   -0.5459    0.0000 </r>
       <r>   -0.1101    0.0000 </r>
       <r>    0.2954    0.0000 </r>
       <r>    0.5304    0.0000 </r>
       <r>    1.3978    0.0000 </r>
       <r>    1.6047    0.0000 </r>
       <r>    2.6207    0.0000 </r>
       <r>    2.9772    0.0000 </r>
      </set>
      <set comment="kpoint 4">
       <r>  -20.1793    1.0000 </r>
       <r>  -16.9761    1.0000 </r>
       <r>  -16.5990    1.0000 </r>
       <r>  -14.2667    1.0000 </r>
       <r>  -13.6187    1.0000 </r>
       <r>  -12.3643    1.0000 </r>
       <r>  -10.9626    1.0000 </r>
       <r>   -9.2039    1.0000 </r>
       <r>   -8.9125    1.0000 </r>
       <r>   -7.3306    1.0000 </r>
       <r>   -6.8088    1.0000 </r>
       <r>   -5.5003    1.0000 </r>
       <r>   -5.0148    1.0000 </r>
       <r>   -4.9298    1.0000 </r>
       <r>   -4.5654    1.0000 </r>
       <r>   -3.0409    0.0000 </r>
       <r>   -0.3999    0.0000 </r>
       <r>    0.1903    0.0000 </r>
       <r>    0.6752    0.0000 </r>
       <r>    0.8145    0.0000 </r>
       <r>    1.5657    0.0000 </r>
       <r>    1.7508    0.0000 </r>
       <r>    2.7679    0.0000 </r>
       <r>    3.1232    0.0000 </r>
      </set>
      <set comment="kpoint 5">
       <r>  -20.0832    1.0000 </r>
       <r>  -17.2764    1.0000 </r>
       <r>  -16.6910    1.0000 </r>
       <r>  -14.3781    1.0000 </r>
       <r>  -13.3216    1.0000 </r>
       <r>  -11.9462    1.0000 </r>
       <r>  -10.4912    1.0000 </r>
       <r>   -9.4513    1.0000 </r>
       <r>   -8.7561    1.0000 </r>
       <r>   -7.7229    1.0000 </r>
       <r>   -6.7957    1.0000 </r>
       <r>   -5.8673    1.0000 </r>
       <r>   -5.4102    1.0000 </r>
       <r>   -5.0681    1.0000 </r>
       <r>   -4.7783    1.0000 </r>
       <r>   -3.2478    0.0000 </r>
       <r>   -0.2244    0.0000 </r>
       <r>    0.4483    0.0000 </r>
       <r>    0.8771    0.0000 </r>
       <r>    1.4213    0.0000 </r>
       <r>    1.8543    0.0000 </r>
       <r>    1.9553    0.0000 </r>
       <r>    2.9750    0.0000 </r>
       <r>    3.3268    0.0000 </r>
      </set>
      <set comment="kpoint 6">
       <r>  -19.9724    1.0000 </r>
       <r>  -17.5655    1.0000 </r>
       <r>  -16.7735    1.0000 </r>
       <r>  -14.4783    1.0000 </r>
       <r>  -12.9940    1.0000 </r>
       <r>  -11.4833    1.0000 </r>
       <r>   -9.9651    1.0000 </r>
       <r>   -9.7525    1.0000 </r>
       <r>   -8.5624    1.0000 </r>
       <r>   -8.1572    1.0000 </r>
       <r>   -6.7419    1.0000 </r>
       <r>   -6.2565    1.0000 </r>
       <r>   -5.9716    1.0000 </r>
       <r>   -5.1190    1.0000 </r>
       <r>   -5.0077    1.0000 </r>
       <r>   -3.4044    0.0000 </r>
       <r>   -0.0438    0.0000 </r>
       <r>    0.6961    0.0000 </r>
       <r>    1.1357    0.0000 </r>
       <r>    1.8652    0.0000 </r>
       <r>    2.2181    0.0000 </r>
       <r>    2.4095    0.0000 </r>
       <r>    3.2446    0.0000 </r>
       <r>    3.5875    0.0000 </r>
      </set>
      <set comment="kpoint 7">
       <r>  -19.8614    1.0000 </r>
       <r>  -17.8124    1.0000 </r>
       <r>  -16.8376    1.0000 </r>
       <r>  -14.5558    1.0000 </r>
       <r>  -12.6696    1.0000 </r>
       <r>  -10.9991    1.0000 </r>
       <r>  -10.0683    1.0000 </r>
       <r>   -9.4676    1.0000 </r>
       <r>   -8.5431    1.0000 </r>
       <r>   -8.3435    1.0000 </r>
       <r>   -6.6581    1.0000 </r>
       <r>   -6.6305    1.0000 </r>
       <r>   -6.5860    1.0000 </r>
       <r>   -5.2253    1.0000 </r>
       <r>   -5.1605    1.0000 </r>
       <r>   -3.5136    0.0000 </r>
       <r>    0.1136    0.0000 </r>
       <r>    0.9122    0.0000 </r>
       <r>    1.4508    0.0000 </r>
       <r>    2.2155    0.0000 </r>
       <r>    2.5391    0.0000 </r>
       <r>    3.1002    0.0000 </r>
       <r>    3.2691    0.0000 </r>
       <r>    3.5801    0.0000 </r>
      </set>
      <set comment="kpoint 8">
       <r>  -19.7741    1.0000 </r>
       <r>  -17.9843    1.0000 </r>
       <r>  -16.8779    1.0000 </r>
       <r>  -14.6042    1.0000 </r>
       <r>  -12.4057    1.0000 </r>
       <r>  -10.5260    1.0000 </r>
       <r>  -10.3319    1.0000 </r>
       <r>   -9.4077    1.0000 </r>
       <r>   -8.4556    1.0000 </r>
       <r>   -8.1334    1.0000 </r>
       <r>   -7.2241    1.0000 </r>
       <r>   -6.9391    1.0000 </r>
       <r>   -6.5741    1.0000 </r>
       <r>   -5.3921    1.0000 </r>
       <r>   -5.1875    1.0000 </r>
       <r>   -3.5782    0.0000 </r>
       <r>    0.2219    0.0000 </r>
       <r>    1.0630    0.0000 </r>
       <r>    1.8221    0.0000 </r>
       <r>    2.5881    0.0000 </r>
       <r>    2.7319    0.0000 </r>
       <r>    2.9183    0.0000 </r>
       <r>    3.4475    0.0000 </r>
       <r>    3.8512    0.0000 </r>
      </set>
      <set comment="kpoint 9">
       <r>  -19.7401    1.0000 </r>
       <r>  -18.0471    1.0000 </r>
       <r>  -16.8916    1.0000 </r>
       <r>  -14.6207    1.0000 </r>
       <r>  -12.2968    1.0000 </r>
       <r>  -10.4416    1.0000 </r>
       <r>  -10.2352    1.0000 </r>
       <r>   -9.6275    1.0000 </r>
       <r>   -8.0305    1.0000 </r>
       <r>   -8.0050    1.0000 </r>
       <r>   -7.7527    1.0000 </r>
       <r>   -7.0759    1.0000 </r>
       <r>   -6.5366    1.0000 </r>
       <r>   -5.4575    1.0000 </r>
       <r>   -5.1968    1.0000 </r>
       <r>   -3.5996    0.0000 </r>
       <r>    0.2606    0.0000 </r>
       <r>    1.1175    0.0000 </r>
       <r>    2.2472    0.0000 </r>
       <r>    2.2513    0.0000 </r>
       <r>    2.9800    0.0000 </r>
       <r>    3.0323    0.0000 </r>
       <r>    3.3555    0.0000 </r>
       <r>    3.3560    0.0000 </r>
      </set>
      <set comment="kpoint 10">
       <r>  -20.2974    1.0000 </r>
       <r>  -16.4978    1.0000 </r>
       <r>  -16.4465    1.0000 </r>
       <r>  -14.0959    1.0000 </r>
       <r>  -14.0186    1.0000 </r>
       <r>  -12.9284    1.0000 </r>
       <r>  -11.6001    1.0000 </r>
       <r>   -9.0959    1.0000 </r>
       <r>   -8.9293    1.0000 </r>
       <r>   -6.8162    1.0000 </r>
       <r>   -6.7606    1.0000 </r>
       <r>   -4.9937    1.0000 </r>
       <r>   -4.9346    1.0000 </r>
       <r>   -4.3216    1.0000 </r>
       <r>   -4.2823    1.0000 </r>
       <r>   -2.5337    0.0000 </r>
       <r>   -0.6424    0.0000 </r>
       <r>   -0.4878    0.0000 </r>
       <r>    0.0468    0.0000 </r>
       <r>    0.4433    0.0000 </r>
       <r>    1.3021    0.0000 </r>
       <r>    1.5169    0.0000 </r>
       <r>    2.5325    0.0000 </r>
       <r>    2.8892    0.0000 </r>
      </set>
      <set comment="kpoint 11">
       <r>  -20.2671    1.0000 </r>
       <r>  -16.6323    1.0000 </r>
       <r>  -16.4965    1.0000 </r>
       <r>  -14.1220    1.0000 </r>
       <r>  -13.9321    1.0000 </r>
       <r>  -12.7757    1.0000 </r>
       <r>  -11.4270    1.0000 </r>
       <r>   -9.0497    1.0000 </r>
       <r>   -8.9958    1.0000 </r>
       <r>   -6.9449    1.0000 </r>
       <r>   -6.7886    1.0000 </r>
       <r>   -5.1227    1.0000 </r>
       <r>   -4.9656    1.0000 </r>
       <r>   -4.4791    1.0000 </r>
       <r>   -4.3586    1.0000 </r>
       <r>   -2.7134    0.0000 </r>
       <r>   -0.6069    0.0000 </r>
       <r>   -0.1648    0.0000 </r>
       <r>    0.1846    0.0000 </r>
       <r>    0.5014    0.0000 </r>
       <r>    1.3655    0.0000 </r>
       <r>    1.5754    0.0000 </r>
       <r>    2.5913    0.0000 </r>
       <r>    2.9479    0.0000 </r>
      </set>
      <set comment="kpoint 12">
       <r>  -20.2080    1.0000 </r>
       <r>  -16.8601    1.0000 </r>
       <r>  -16.5855    1.0000 </r>
       <r>  -14.1767    1.0000 </r>
       <r>  -13.7699    1.0000 </r>
       <r>  -12.4815    1.0000 </r>
       <r>  -11.1120    1.0000 </r>
       <r>   -9.1363    1.0000 </r>
       <r>   -8.9580    1.0000 </r>
       <r>   -7.1812    1.0000 </r>
       <r>   -6.8308    1.0000 </r>
       <r>   -5.3613    1.0000 </r>
       <r>   -5.0279    1.0000 </r>
       <r>   -4.7745    1.0000 </r>
       <r>   -4.5088    1.0000 </r>
       <r>   -2.9339    0.0000 </r>
       <r>   -0.5460    0.0000 </r>
       <r>    0.2480    0.0000 </r>
       <r>    0.5318    0.0000 </r>
       <r>    0.6174    0.0000 </r>
       <r>    1.4953    0.0000 </r>
       <r>    1.6924    0.0000 </r>
       <r>    2.7089    0.0000 </r>
       <r>    3.0650    0.0000 </r>
      </set>
      <set comment="kpoint 13">
       <r>  -20.1233    1.0000 </r>
       <r>  -17.1382    1.0000 </r>
       <r>  -16.6876    1.0000 </r>
       <r>  -14.2645    1.0000 </r>
       <r>  -13.5250    1.0000 </r>
       <r>  -12.0883    1.0000 </r>
       <r>  -10.6913    1.0000 </r>
       <r>   -9.3555    1.0000 </r>
       <r>   -8.8226    1.0000 </r>
       <r>   -7.5093    1.0000 </r>
       <r>   -6.8511    1.0000 </r>
       <r>   -5.6858    1.0000 </r>
       <r>   -5.1903    1.0000 </r>
       <r>   -5.1045    1.0000 </r>
       <r>   -4.7111    1.0000 </r>
       <r>   -3.1208    0.0000 </r>
       <r>   -0.4445    0.0000 </r>
       <r>    0.5431    0.0000 </r>
       <r>    0.7907    0.0000 </r>
       <r>    1.1271    0.0000 </r>
       <r>    1.7078    0.0000 </r>
       <r>    1.8677    0.0000 </r>
       <r>    2.8858    0.0000 </r>
       <r>    3.2398    0.0000 </r>
      </set>
      <set comment="kpoint 14">
       <r>  -20.0193    1.0000 </r>
       <r>  -17.4265    1.0000 </r>
       <r>  -16.7842    1.0000 </r>
       <r>  -14.3594    1.0000 </r>
       <r>  -13.2229    1.0000 </r>
       <r>  -11.6385    1.0000 </r>
       <r>  -10.1972    1.0000 </r>
       <r>   -9.6429    1.0000 </r>
       <r>   -8.6470    1.0000 </r>
       <r>   -7.9020    1.0000 </r>
       <r>   -6.8294    1.0000 </r>
       <r>   -6.0578    1.0000 </r>
       <r>   -5.7006    1.0000 </r>
       <r>   -5.1806    1.0000 </r>
       <r>   -4.9420    1.0000 </r>
       <r>   -3.2618    0.0000 </r>
       <r>   -0.3132    0.0000 </r>
       <r>    0.8155    0.0000 </r>
       <r>    1.0210    0.0000 </r>
       <r>    1.6881    0.0000 </r>
       <r>    2.1011    0.0000 </r>
       <r>    2.1013    0.0000 </r>
       <r>    3.1232    0.0000 </r>
       <r>    3.4721    0.0000 </r>
      </set>
      <set comment="kpoint 15">
       <r>  -19.9071    1.0000 </r>
       <r>  -17.6915    1.0000 </r>
       <r>  -16.8640    1.0000 </r>
       <r>  -14.4419    1.0000 </r>
       <r>  -12.8966    1.0000 </r>
       <r>  -11.1620    1.0000 </r>
       <r>   -9.9716    1.0000 </r>
       <r>   -9.6673    1.0000 </r>
       <r>   -8.4392    1.0000 </r>
       <r>   -8.3133    1.0000 </r>
       <r>   -6.7715    1.0000 </r>
       <r>   -6.4377    1.0000 </r>
       <r>   -6.2727    1.0000 </r>
       <r>   -5.2458    1.0000 </r>
       <r>   -5.1750    1.0000 </r>
       <r>   -3.3623    0.0000 </r>
       <r>   -0.1765    0.0000 </r>
       <r>    1.0659    0.0000 </r>
       <r>    1.3079    0.0000 </r>
       <r>    2.0671    0.0000 </r>
       <r>    2.3932    0.0000 </r>
       <r>    2.7492    0.0000 </r>
       <r>    3.4248    0.0000 </r>
       <r>    3.5797    0.0000 </r>
      </set>
      <set comment="kpoint 16">
       <r>  -19.8055    1.0000 </r>
       <r>  -17.9007    1.0000 </r>
       <r>  -16.9203    1.0000 </r>
       <r>  -14.5013    1.0000 </r>
       <r>  -12.5921    1.0000 </r>
       <r>  -10.6924    1.0000 </r>
       <r>  -10.2710    1.0000 </r>
       <r>   -9.2910    1.0000 </r>
       <r>   -8.5530    1.0000 </r>
       <r>   -8.2190    1.0000 </r>
       <r>   -6.9339    1.0000 </r>
       <r>   -6.7834    1.0000 </r>
       <r>   -6.6440    1.0000 </r>
       <r>   -5.3770    1.0000 </r>
       <r>   -5.2930    1.0000 </r>
       <r>   -3.4274    0.0000 </r>
       <r>   -0.0630    0.0000 </r>
       <r>    1.2640    0.0000 </r>
       <r>    1.6511    0.0000 </r>
       <r>    2.4224    0.0000 </r>
       <r>    2.7434    0.0000 </r>
       <r>    3.0155    0.0000 </r>
       <r>    3.4127    0.0000 </r>
       <r>    3.7125    0.0000 </r>
      </set>
      <set comment="kpoint 17">
       <r>  -19.7423    1.0000 </r>
       <r>  -18.0194    1.0000 </r>
       <r>  -16.9492    1.0000 </r>
       <r>  -14.5321    1.0000 </r>
       <r>  -12.3893    1.0000 </r>
       <r>  -10.5269    1.0000 </r>
       <r>  -10.2300    1.0000 </r>
       <r>   -9.4483    1.0000 </r>
       <r>   -8.1940    1.0000 </r>
       <r>   -8.0460    1.0000 </r>
       <r>   -7.5374    1.0000 </r>
       <r>   -7.0219    1.0000 </r>
       <r>   -6.5955    1.0000 </r>
       <r>   -5.5021    1.0000 </r>
       <r>   -5.3176    1.0000 </r>
       <r>   -3.4595    0.0000 </r>
       <r>    0.0016    0.0000 </r>
       <r>    1.3754    0.0000 </r>
       <r>    2.0504    0.0000 </r>
       <r>    2.5054    0.0000 </r>
       <r>    2.8136    0.0000 </r>
       <r>    3.1517    0.0000 </r>
       <r>    3.2539    0.0000 </r>
       <r>    3.6182    0.0000 </r>
      </set>
      <set comment="kpoint 18">
       <r>  -19.7423    1.0000 </r>
       <r>  -18.0194    1.0000 </r>
       <r>  -16.9493    1.0000 </r>
       <r>  -14.5321    1.0000 </r>
       <r>  -12.3894    1.0000 </r>
       <r>  -10.5273    1.0000 </r>
       <r>  -10.2293    1.0000 </r>
       <r>   -9.4485    1.0000 </r>
       <r>   -8.1943    1.0000 </r>
       <r>   -8.0460    1.0000 </r>
       <r>   -7.5371    1.0000 </r>
       <r>   -7.0219    1.0000 </r>
       <r>   -6.5955    1.0000 </r>
       <r>   -5.5022    1.0000 </r>
       <r>   -5.3177    1.0000 </r>
       <r>   -3.4594    0.0000 </r>
       <r>    0.0015    0.0000 </r>
       <r>    1.3755    0.0000 </r>
       <r>    2.0504    0.0000 </r>
       <r>    2.5055    0.0000 </r>
       <r>    2.8136    0.0000 </r>
       <r>    3.1517    0.0000 </r>
       <r>    3.2539    0.0000 </r>
       <r>    3.6182    0.0000 </r>
      </set>
      <set comment="kpoint 19">
       <r>  -19.8056    1.0000 </r>
       <r>  -17.9006    1.0000 </r>
       <r>  -16.9204    1.0000 </r>
       <r>  -14.5012    1.0000 </r>
       <r>  -12.5923    1.0000 </r>
       <r>  -10.6928    1.0000 </r>
       <r>  -10.2702    1.0000 </r>
       <r>   -9.2912    1.0000 </r>
       <r>   -8.5534    1.0000 </r>
       <r>   -8.2190    1.0000 </r>
       <r>   -6.9334    1.0000 </r>
       <r>   -6.7833    1.0000 </r>
       <r>   -6.6440    1.0000 </r>
       <r>   -5.3773    1.0000 </r>
       <r>   -5.2931    1.0000 </r>
       <r>   -3.4271    0.0000 </r>
       <r>   -0.0633    0.0000 </r>
       <r>    1.2643    0.0000 </r>
       <r>    1.6511    0.0000 </r>
       <r>    2.4224    0.0000 </r>
       <r>    2.7433    0.0000 </r>
       <r>    3.0155    0.0000 </r>
       <r>    3.4125    0.0000 </r>
       <r>    3.7125    0.0000 </r>
      </set>
      <set comment="kpoint 20">
       <r>  -19.9071    1.0000 </r>
       <r>  -17.6913    1.0000 </r>
       <r>  -16.8642    1.0000 </r>
       <r>  -14.4418    1.0000 </r>
       <r>  -12.8969    1.0000 </r>
       <r>  -11.1619    1.0000 </r>
       <r>   -9.9712    1.0000 </r>
       <r>   -9.6675    1.0000 </r>
       <r>   -8.4393    1.0000 </r>
       <r>   -8.3135    1.0000 </r>
       <r>   -6.7714    1.0000 </r>
       <r>   -6.4376    1.0000 </r>
       <r>   -6.2723    1.0000 </r>
       <r>   -5.2461    1.0000 </r>
       <r>   -5.1754    1.0000 </r>
       <r>   -3.3619    0.0000 </r>
       <r>   -0.1771    0.0000 </r>
       <r>    1.0662    0.0000 </r>
       <r>    1.3079    0.0000 </r>
       <r>    2.0671    0.0000 </r>
       <r>    2.3932    0.0000 </r>
       <r>    2.7490    0.0000 </r>
       <r>    3.4247    0.0000 </r>
       <r>    3.5797    0.0000 </r>
      </set>
      <set comment="kpoint 21">
       <r>  -20.0193    1.0000 </r>
       <r>  -17.4263    1.0000 </r>
       <r>  -16.7844    1.0000 </r>
       <r>  -14.3592    1.0000 </r>
       <r>  -13.2233    1.0000 </r>
       <r>  -11.6382    1.0000 </r>
       <r>  -10.1974    1.0000 </r>
       <r>   -9.6426    1.0000 </r>
       <r>   -8.6471    1.0000 </r>
       <r>   -7.9021    1.0000 </r>
       <r>   -6.8294    1.0000 </r>
       <r>   -6.0577    1.0000 </r>
       <r>   -5.6999    1.0000 </r>
       <r>   -5.1809    1.0000 </r>
       <r>   -4.9426    1.0000 </r>
       <r>   -3.2613    0.0000 </r>
       <r>   -0.3140    0.0000 </r>
       <r>    0.8160    0.0000 </r>
       <r>    1.0210    0.0000 </r>
       <r>    1.6880    0.0000 </r>
       <r>    2.1010    0.0000 </r>
       <r>    2.1013    0.0000 </r>
       <r>    3.1232    0.0000 </r>
[...]
       <r>  -16.8782    1.0000 </r>
       <r>  -14.6042    1.0000 </r>
       <r>  -12.4069    1.0000 </r>
       <r>  -10.5260    1.0000 </r>
       <r>  -10.3312    1.0000 </r>
       <r>   -9.4083    1.0000 </r>
       <r>   -8.4537    1.0000 </r>
       <r>   -8.1338    1.0000 </r>
       <r>   -7.2233    1.0000 </r>
       <r>   -6.9389    1.0000 </r>
       <r>   -6.5755    1.0000 </r>
       <r>   -5.3926    1.0000 </r>
       <r>   -5.1874    1.0000 </r>
       <r>   -3.5774    0.0000 </r>
       <r>    0.2214    0.0000 </r>
       <r>    1.0617    0.0000 </r>
       <r>    1.8220    0.0000 </r>
       <r>    2.5879    0.0000 </r>
       <r>    2.7317    0.0000 </r>
       <r>    2.9182    0.0000 </r>
       <r>    3.4471    0.0000 </r>
       <r>    3.7607    0.0000 </r>
      </set>
      <set comment="kpoint 71">
       <r>  -19.7159    1.0000 </r>
       <r>  -17.9986    1.0000 </r>
       <r>  -17.1099    1.0000 </r>
       <r>  -14.3102    1.0000 </r>
       <r>  -12.5251    1.0000 </r>
       <r>  -10.7719    1.0000 </r>
       <r>   -9.9296    1.0000 </r>
       <r>   -9.2902    1.0000 </r>
       <r>   -7.9941    1.0000 </r>
       <r>   -7.9815    1.0000 </r>
       <r>   -7.7325    1.0000 </r>
       <r>   -7.0058    1.0000 </r>
       <r>   -6.7155    1.0000 </r>
       <r>   -5.6972    1.0000 </r>
       <r>   -5.6061    1.0000 </r>
       <r>   -3.1409    0.0000 </r>
       <r>   -0.4271    0.0000 </r>
       <r>    1.8879    0.0000 </r>
       <r>    2.3322    0.0000 </r>
       <r>    2.3396    0.0000 </r>
       <r>    3.0626    0.0000 </r>
       <r>    3.1341    0.0000 </r>
       <r>    3.4433    0.0000 </r>
       <r>    3.4434    0.0000 </r>
      </set>
      <set comment="kpoint 72">
       <r>  -19.7426    1.0000 </r>
       <r>  -18.0187    1.0000 </r>
       <r>  -16.9496    1.0000 </r>
       <r>  -14.5319    1.0000 </r>
       <r>  -12.3906    1.0000 </r>
       <r>  -10.5264    1.0000 </r>
       <r>  -10.2299    1.0000 </r>
       <r>   -9.4484    1.0000 </r>
       <r>   -8.1926    1.0000 </r>
       <r>   -8.0463    1.0000 </r>
       <r>   -7.5365    1.0000 </r>
       <r>   -7.0216    1.0000 </r>
       <r>   -6.5969    1.0000 </r>
       <r>   -5.5027    1.0000 </r>
       <r>   -5.3175    1.0000 </r>
       <r>   -3.4587    0.0000 </r>
       <r>    0.0008    0.0000 </r>
       <r>    1.3743    0.0000 </r>
       <r>    2.0503    0.0000 </r>
       <r>    2.5053    0.0000 </r>
       <r>    2.8134    0.0000 </r>
       <r>    3.1516    0.0000 </r>
       <r>    3.2537    0.0000 </r>
       <r>    3.6180    0.0000 </r>
      </set>
      <set comment="kpoint 73">
       <r>  -19.7403    1.0000 </r>
       <r>  -18.0464    1.0000 </r>
       <r>  -16.8919    1.0000 </r>
       <r>  -14.6206    1.0000 </r>
       <r>  -12.2981    1.0000 </r>
       <r>  -10.4408    1.0000 </r>
       <r>  -10.2356    1.0000 </r>
       <r>   -9.6273    1.0000 </r>
       <r>   -8.0308    1.0000 </r>
       <r>   -8.0034    1.0000 </r>
       <r>   -7.7522    1.0000 </r>
       <r>   -7.0756    1.0000 </r>
       <r>   -6.5380    1.0000 </r>
       <r>   -5.4580    1.0000 </r>
       <r>   -5.1967    1.0000 </r>
       <r>   -3.5989    0.0000 </r>
       <r>    0.2600    0.0000 </r>
       <r>    1.1161    0.0000 </r>
       <r>    2.2471    0.0000 </r>
       <r>    2.2512    0.0000 </r>
       <r>    2.9799    0.0000 </r>
       <r>    3.0320    0.0000 </r>
       <r>    3.3554    0.0000 </r>
       <r>    3.3558    0.0000 </r>
      </set>
     </set>
    </set>
   </array>
  </eigenvalues>
  <separator name="orbital magnetization" >
   <v name="MAGDIPOLOUT">      0.00000000      0.00000000      0.00000000</v>
  </separator>
  <dos>
   <i name="efermi">     -4.22243742 </i>
   <total>
    <array>
     <dimension dim="1">gridpoints</dimension>
     <dimension dim="2">spin</dimension>
     <field>energy</field>
     <field>total</field>
     <field>integrated</field>
     <set>
      <set comment="spin 1">
       <r>   -22.3127     0.0000     0.0000 </r>
       <r>   -22.2188     0.0000     0.0000 </r>
       <r>   -22.1248     0.0000     0.0000 </r>
       <r>   -22.0308     0.0000     0.0000 </r>
       <r>   -21.9368     0.0000     0.0000 </r>
       <r>   -21.8429     0.0000     0.0000 </r>
       <r>   -21.7489     0.0000     0.0000 </r>
       <r>   -21.6549     0.0000     0.0000 </r>
       <r>   -21.5609     0.0000     0.0000 </r>
       <r>   -21.4670     0.0000     0.0000 </r>
       <r>   -21.3730     0.0000     0.0000 </r>
       <r>   -21.2790     0.0000     0.0000 </r>
       <r>   -21.1850     0.0000     0.0000 </r>
       <r>   -21.0911     0.0000     0.0000 </r>
       <r>   -20.9971     0.0000     0.0000 </r>
       <r>   -20.9031     0.0000     0.0000 </r>
       <r>   -20.8091     0.0000     0.0000 </r>
       <r>   -20.7152     0.0000     0.0000 </r>
       <r>   -20.6212     0.0000     0.0000 </r>
       <r>   -20.5272     0.0000     0.0000 </r>
       <r>   -20.4332     0.0000     0.0000 </r>
       <r>   -20.3393     0.0000     0.0000 </r>
       <r>   -20.2453     1.8320     0.1196 </r>
       <r>   -20.1513     2.0590     0.3045 </r>
       <r>   -20.0573     2.2278     0.5037 </r>
       <r>   -19.9633     2.4952     0.7242 </r>
       <r>   -19.8694     3.0471     0.9832 </r>
       <r>   -19.7754     4.8035     1.3366 </r>
       <r>   -19.6814     4.4300     1.8852 </r>
       <r>   -19.5874     0.0000     2.0000 </r>
       <r>   -19.4935     0.0000     2.0000 </r>
       <r>   -19.3995     0.0000     2.0000 </r>
       <r>   -19.3055     0.0000     2.0000 </r>
       <r>   -19.2115     0.0000     2.0000 </r>
       <r>   -19.1176     0.0000     2.0000 </r>
       <r>   -19.0236     0.0000     2.0000 </r>
       <r>   -18.9296     0.0000     2.0000 </r>
       <r>   -18.8356     0.0000     2.0000 </r>
       <r>   -18.7417     0.0000     2.0000 </r>
       <r>   -18.6477     0.0000     2.0000 </r>
       <r>   -18.5537     0.0000     2.0000 </r>
       <r>   -18.4597     0.0000     2.0000 </r>
       <r>   -18.3658     0.0000     2.0000 </r>
       <r>   -18.2718     0.0000     2.0000 </r>
       <r>   -18.1778     0.0000     2.0000 </r>
       <r>   -18.0838     0.0000     2.0000 </r>
       <r>   -17.9899     2.5155     2.1308 </r>
       <r>   -17.8959     3.1645     2.4103 </r>
       <r>   -17.8019     4.1128     2.7939 </r>
       <r>   -17.7079     1.8251     3.0187 </r>
       <r>   -17.6140     1.8165     3.1774 </r>
       <r>   -17.5200     1.8771     3.3534 </r>
       <r>   -17.4260     1.9753     3.5315 </r>
       <r>   -17.3320     2.0372     3.7195 </r>
       <r>   -17.2381     2.2033     3.9179 </r>
       <r>   -17.1441     2.3793     4.1306 </r>
       <r>   -17.0501     2.7514     4.3689 </r>
       <r>   -16.9561     3.1440     4.6446 </r>
       <r>   -16.8622     3.7213     5.0547 </r>
       <r>   -16.7682     2.6099     5.3414 </r>
       <r>   -16.6742     2.2357     5.5628 </r>
       <r>   -16.5802     1.9804     5.7499 </r>
       <r>   -16.4863     1.8524     5.9146 </r>
       <r>   -16.3923     0.0000     6.0000 </r>
       <r>   -16.2983     0.0000     6.0000 </r>
       <r>   -16.2043     0.0000     6.0000 </r>
       <r>   -16.1103     0.0000     6.0000 </r>
       <r>   -16.0164     0.0000     6.0000 </r>
       <r>   -15.9224     0.0000     6.0000 </r>
       <r>   -15.8284     0.0000     6.0000 </r>
       <r>   -15.7344     0.0000     6.0000 </r>
       <r>   -15.6405     0.0000     6.0000 </r>
       <r>   -15.5465     0.0000     6.0000 </r>
       <r>   -15.4525     0.0000     6.0000 </r>
       <r>   -15.3585     0.0000     6.0000 </r>
       <r>   -15.2646     0.0000     6.0000 </r>
       <r>   -15.1706     0.0000     6.0000 </r>
       <r>   -15.0766     0.0000     6.0000 </r>
       <r>   -14.9826     0.0000     6.0000 </r>
       <r>   -14.8887     0.0000     6.0000 </r>
       <r>   -14.7947     0.0000     6.0000 </r>
       <r>   -14.7007     0.0000     6.0000 </r>
       <r>   -14.6067     0.9786     6.0068 </r>
       <r>   -14.5128     2.1173     6.1914 </r>
       <r>   -14.4188     2.2496     6.3922 </r>
       <r>   -14.3248     2.7054     6.6239 </r>
       <r>   -14.2308     3.4364     6.9003 </r>
       <r>   -14.1369     3.6308     7.3346 </r>
       <r>   -14.0429     1.8306     7.5784 </r>
       <r>   -13.9489     1.6240     7.7564 </r>
       <r>   -13.8549     1.5078     7.9033 </r>
       <r>   -13.7610     1.5503     8.0365 </r>
       <r>   -13.6670     1.2946     8.1737 </r>
       <r>   -13.5730     1.3322     8.2979 </r>
       <r>   -13.4790     1.4372     8.4201 </r>
       <r>   -13.3851     1.0090     8.5388 </r>
       <r>   -13.2911     1.2022     8.6429 </r>
       <r>   -13.1971     1.6832     8.7691 </r>
       <r>   -13.1031     2.2457     8.9415 </r>
       <r>   -13.0092     1.8941     9.1636 </r>
       <r>   -12.9152     1.8505     9.3475 </r>
       <r>   -12.8212     1.7623     9.5172 </r>
       <r>   -12.7272     1.5896     9.6759 </r>
       <r>   -12.6333     1.5279     9.8206 </r>
       <r>   -12.5393     1.4687     9.9643 </r>
       <r>   -12.4453     1.3083    10.0951 </r>
       <r>   -12.3513     1.2061    10.2258 </r>
       <r>   -12.2574     0.4301    10.2867 </r>
       <r>   -12.1634     0.4535    10.3282 </r>
       <r>   -12.0694     0.4463    10.3709 </r>
       <r>   -11.9754     0.4576    10.4134 </r>
       <r>   -11.8814     0.4748    10.4571 </r>
       <r>   -11.7875     0.4947    10.5027 </r>
       <r>   -11.6935     0.5146    10.5501 </r>
       <r>   -11.5995     0.7851    10.6217 </r>
       <r>   -11.5055     0.8528    10.6987 </r>
       <r>   -11.4116     0.9084    10.7819 </r>
       <r>   -11.3176     0.9094    10.8668 </r>
       <r>   -11.2236     1.5043    10.9971 </r>
       <r>   -11.1296     1.6911    11.1463 </r>
       <r>   -11.0357     1.7488    11.3091 </r>
       <r>   -10.9417     1.8591    11.4777 </r>
       <r>   -10.8477     1.9805    11.6581 </r>
       <r>   -10.7537     2.9991    11.9620 </r>
       <r>   -10.6598     1.6497    12.1760 </r>
       <r>   -10.5658     1.3382    12.3164 </r>
       <r>   -10.4718     1.0515    12.4528 </r>
       <r>   -10.3778     0.4745    12.5058 </r>
       <r>   -10.2839     1.9723    12.5866 </r>
       <r>   -10.1899     3.7172    12.9497 </r>
       <r>   -10.0959     2.9868    13.2577 </r>
       <r>   -10.0019     2.9843    13.5249 </r>
       <r>    -9.9080     0.5550    13.6909 </r>
       <r>    -9.8140     1.1941    13.7722 </r>
       <r>    -9.7200     2.2666    13.9181 </r>
       <r>    -9.6260     2.0427    14.1667 </r>
       <r>    -9.5321     2.2767    14.3684 </r>
       <r>    -9.4381     2.8401    14.5987 </r>
       <r>    -9.3441     2.7492    14.8826 </r>
       <r>    -9.2501     2.3618    15.1245 </r>
       <r>    -9.1562     2.0233    15.3291 </r>
       <r>    -9.0622     3.3417    15.6064 </r>
       <r>    -8.9682     3.7721    15.8745 </r>
       <r>    -8.8742     2.0656    16.1339 </r>
       <r>    -8.7803     2.1405    16.3287 </r>
       <r>    -8.6863     1.6191    16.5295 </r>
       <r>    -8.5923     1.3367    16.6613 </r>
       <r>    -8.4983     3.1091    16.9012 </r>
       <r>    -8.4044     2.4090    17.1470 </r>
       <r>    -8.3104     5.2670    17.4510 </r>
       <r>    -8.2164     4.8170    17.9674 </r>
       <r>    -8.1224     3.6759    18.3791 </r>
       <r>    -8.0284     4.9265    18.8598 </r>
       <r>    -7.9345     2.8017    19.1597 </r>
       <r>    -7.8405     2.1807    19.3692 </r>
       <r>    -7.7465     0.7831    19.4621 </r>
       <r>    -7.6525     2.3513    19.6217 </r>
       <r>    -7.5586     2.3613    19.8806 </r>
       <r>    -7.4646     1.7049    20.0560 </r>
       <r>    -7.3706     1.5832    20.2098 </r>
       <r>    -7.2766     1.7029    20.3641 </r>
       <r>    -7.1827     1.6323    20.5226 </r>
       <r>    -7.0887     1.8225    20.6956 </r>
       <r>    -6.9947     3.6744    20.9860 </r>
       <r>    -6.9007     5.1679    21.4062 </r>
       <r>    -6.8068    13.1379    22.2636 </r>
       <r>    -6.7128     6.3138    23.0016 </r>
       <r>    -6.6188     4.6826    23.4445 </r>
       <r>    -6.5248     2.0802    23.8241 </r>
       <r>    -6.4309     2.4378    24.0527 </r>
       <r>    -6.3369     2.3207    24.2792 </r>
       <r>    -6.2429     2.3885    24.5008 </r>
       <r>    -6.1489     2.5015    24.7316 </r>
       <r>    -6.0550     2.5454    24.9680 </r>
       <r>    -5.9610     2.6437    25.2113 </r>
       <r>    -5.8670     2.8057    25.4694 </r>
       <r>    -5.7730     2.9251    25.7388 </r>
       <r>    -5.6791     3.1643    26.0245 </r>
       <r>    -5.5851     3.5336    26.3394 </r>
       <r>    -5.4911     4.6663    26.6959 </r>
       <r>    -5.3971     4.2934    27.1266 </r>
       <r>    -5.3032     4.6216    27.5167 </r>
       <r>    -5.2092     5.6102    27.9981 </r>
       <r>    -5.1152     4.5436    28.4591 </r>
       <r>    -5.0212     4.0364    28.7979 </r>
       <r>    -4.9273     3.0167    29.1809 </r>
       <r>    -4.8333     1.3421    29.3171 </r>
       <r>    -4.7393     1.2485    29.4377 </r>
       <r>    -4.6453     1.2296    29.5559 </r>
       <r>    -4.5514     1.1380    29.6662 </r>
       <r>    -4.4574     1.1689    29.7777 </r>
       <r>    -4.3634     1.1468    29.8812 </r>
       <r>    -4.2694     1.0203    29.9856 </r>
       <r>    -4.1754     0.0000    30.0000 </r>
       <r>    -4.0815     0.0000    30.0000 </r>
       <r>    -3.9875     0.0000    30.0000 </r>
       <r>    -3.8935     0.0000    30.0000 </r>
       <r>    -3.7995     0.0000    30.0000 </r>
       <r>    -3.7056     0.0000    30.0000 </r>
       <r>    -3.6116     0.0000    30.0000 </r>
       <r>    -3.5176     1.4197    30.0723 </r>
       <r>    -3.4236     1.5685    30.2269 </r>
       <r>    -3.3297     1.7229    30.3806 </r>
       <r>    -3.2357     2.0967    30.5556 </r>
       <r>    -3.1417     2.5322    30.7731 </r>
       <r>    -3.0477     2.8346    31.0918 </r>
       <r>    -2.9538     2.0115    31.3027 </r>
       <r>    -2.8598     1.4222    31.4597 </r>
       <r>    -2.7658     1.2674    31.5885 </r>
       <r>    -2.6718     0.9730    31.6924 </r>
       <r>    -2.5779     0.8307    31.7758 </r>
       <r>    -2.4839     0.7222    31.8517 </r>
       <r>    -2.3899     0.3628    31.9013 </r>
       <r>    -2.2959     0.3192    31.9336 </r>
       <r>    -2.2020     0.2595    31.9608 </r>
       <r>    -2.1080     0.1997    31.9824 </r>
       <r>    -2.0140     0.0000    32.0000 </r>
       <r>    -1.9200     0.0000    32.0000 </r>
       <r>    -1.8261     0.0000    32.0000 </r>
       <r>    -1.7321     0.0000    32.0000 </r>
       <r>    -1.6381     0.0000    32.0000 </r>
       <r>    -1.5441     0.1919    32.0152 </r>
       <r>    -1.4502     0.2547    32.0362 </r>
       <r>    -1.3562     0.3174    32.0631 </r>
       <r>    -1.2622     0.3605    32.0955 </r>
       <r>    -1.1682     0.5052    32.1364 </r>
       <r>    -1.0743     0.5412    32.1855 </r>
       <r>    -0.9803     0.6572    32.2400 </r>
       <r>    -0.8863     0.8480    32.3107 </r>
       <r>    -0.7923     1.1441    32.3925 </r>
       <r>    -0.6984     1.1123    32.4959 </r>
       <r>    -0.6044     2.8331    32.6981 </r>
       <r>    -0.5104     2.9506    33.0816 </r>
       <r>    -0.4164     2.0719    33.3162 </r>
       <r>    -0.3225     1.7474    33.4914 </r>
       <r>    -0.2285     1.5018    33.6442 </r>
       <r>    -0.1345     1.3693    33.7791 </r>
       <r>    -0.0405     1.2886    33.9027 </r>
       <r>     0.0535     1.5980    34.0508 </r>
       <r>     0.1474     1.3957    34.1925 </r>
       <r>     0.2414     0.9692    34.3090 </r>
       <r>     0.3354     0.7909    34.3827 </r>
       <r>     0.4294     1.7121    34.4672 </r>
       <r>     0.5233     1.8949    34.6466 </r>
       <r>     0.6173     1.9240    34.8256 </r>
       <r>     0.7113     1.8849    34.9956 </r>
       <r>     0.8053     1.9802    35.1799 </r>
       <r>     0.8992     2.0932    35.3706 </r>
       <r>     0.9932     2.2606    35.5756 </r>
       <r>     1.0872     2.4684    35.7957 </r>
       <r>     1.1812     2.5061    36.0326 </r>
       <r>     1.2751     2.6299    36.2639 </r>
       <r>     1.3691     3.2588    36.5661 </r>
       <r>     1.4631     3.0752    36.8541 </r>
       <r>     1.5571     3.9613    37.1989 </r>
       <r>     1.6510     4.0756    37.5715 </r>
       <r>     1.7450     3.9715    37.9506 </r>
       <r>     1.8390     3.9229    38.3244 </r>
       <r>     1.9330     3.9105    38.6910 </r>
       <r>     2.0269     3.9396    39.0600 </r>
       <r>     2.1209     3.9211    39.4402 </r>
       <r>     2.2149     3.6609    39.7966 </r>
       <r>     2.3089     3.5398    40.1311 </r>
       <r>     2.4028     4.3181    40.4898 </r>
       <r>     2.4968     5.0637    40.9051 </r>
       <r>     2.5908     4.3027    41.4022 </r>
       <r>     2.6848     9.8827    41.8237 </r>
       <r>     2.7787     4.8265    42.2467 </r>
       <r>     2.8727     4.9561    42.6809 </r>
       <r>     2.9667     5.8588    43.1802 </r>
       <r>     3.0607     7.3372    43.9040 </r>
       <r>     3.1546     3.6816    44.4259 </r>
       <r>     3.2486     3.7037    44.8299 </r>
       <r>     3.3426     5.3209    45.2629 </r>
       <r>     3.4366     5.5836    45.9259 </r>
       <r>     3.5305     6.0880    46.4824 </r>
       <r>     3.6245     4.1847    47.0503 </r>
       <r>     3.7185     5.5154    47.6029 </r>
       <r>     3.8125     1.9975    47.9350 </r>
       <r>     3.9065     0.0000    48.0000 </r>
       <r>     4.0004     0.0000    48.0000 </r>
       <r>     4.0944     0.0000    48.0000 </r>
       <r>     4.1884     0.0000    48.0000 </r>
       <r>     4.2824     0.0000    48.0000 </r>
       <r>     4.3763     0.0000    48.0000 </r>
       <r>     4.4703     0.0000    48.0000 </r>
       <r>     4.5643     0.0000    48.0000 </r>
       <r>     4.6583     0.0000    48.0000 </r>
       <r>     4.7522     0.0000    48.0000 </r>
       <r>     4.8462     0.0000    48.0000 </r>
       <r>     4.9402     0.0000    48.0000 </r>
       <r>     5.0342     0.0000    48.0000 </r>
       <r>     5.1281     0.0000    48.0000 </r>
       <r>     5.2221     0.0000    48.0000 </r>
       <r>     5.3161     0.0000    48.0000 </r>
       <r>     5.4101     0.0000    48.0000 </r>
       <r>     5.5040     0.0000    48.0000 </r>
       <r>     5.5980     0.0000    48.0000 </r>
       <r>     5.6920     0.0000    48.0000 </r>
       <r>     5.7860     0.0000    48.0000 </r>
       <r>     5.8799     0.0000    48.0000 </r>
      </set>
     </set>
    </array>
   </total>
  </dos>
 </calculation>
 <structure name="finalpos" >
  <crystal>
   <varray name="basis" >
    <v>       5.17400000       0.00000000       0.00000000 </v>
    <v>       2.58700000       4.48100000       0.00000000 </v>
    <v>       0.00000000       0.00000000      20.00000000 </v>
   </varray>
   <i name="volume">    463.69388000 </i>
   <varray name="rec_basis" >
    <v>       0.19327406      -0.11158224       0.00000000 </v>
    <v>       0.00000000       0.22316447       0.00000000 </v>
    <v>       0.00000000       0.00000000       0.05000000 </v>
   </varray>
  </crystal>
  <varray name="positions" >
   <v>       0.17457326       0.17462620       0.00000000 </v>
   <v>       0.50792519       0.50792234       0.00000000 </v>
   <v>       0.00000000       0.00000000       0.00000000 </v>
   <v>       0.52377271       0.00000000       0.00000000 </v>
   <v>       0.68255138       0.15866994       0.00000000 </v>
   <v>       0.99994706       0.52387860       0.00000000 </v>
   <v>       0.15872573       0.68254854       0.00000000 </v>
   <v>       0.68249844       0.68254854       0.00000000 </v>
  </varray>
 </structure>
</modeling>
