 running on   12 total cores
 distrk:  each k-point on   12 cores,    1 groups
 distr:  one band on    1 cores,   12 groups
 using from now: INCAR     
 vasp.5.4.4.18Apr17-6-g9f103f2a35 (build Mar 30 2023 15:39:25) complex          
  
 POSCAR found type information on POSCAR  B  C 
 POSCAR found :  2 types and       8 ions
 scaLAPACK will be used

 ----------------------------------------------------------------------------- 
|                                                                             |
|           W    W    AA    RRRRR   N    N  II  N    N   GGGG   !!!           |
|           W    W   A  A   R    R  NN   N  II  NN   N  G    G  !!!           |
|           W    W  A    A  R    R  N N  N  II  N N  N  G       !!!           |
|           W WW W  AAAAAA  RRRRR   N  N N  II  N  N N  G  GGG   !            |
|           WW  WW  A    A  R   R   N   NN  II  N   NN  G    G                |
|           W    W  A    A  R    R  N    N  II  N    N   GGGG   !!!           |
|                                                                             |
|      For optimal performance we recommend to set                            |
|        NCORE= 4 - approx SQRT( number of cores)                             |
|      NCORE specifies how many cores store one orbital (NPAR=cpu/NCORE).     |
|      This setting can  greatly improve the performance of VASP for DFT.     |
|      The default,   NCORE=1            might be grossly inefficient         |
|      on modern multi-core architectures or massively parallel machines.     |
|      Do your own testing !!!!                                               |
|      Unfortunately you need to use the default for GW and RPA calculations. |
|      (for HF NCORE is supported but not extensively tested yet)             |
|                                                                             |
 ----------------------------------------------------------------------------- 

 LDA part: xc-table for Pade appr. of Perdew
 POSCAR, INCAR and KPOINTS ok, starting setup
 FFT: planning ...
 WAVECAR not read
 entering main loop
       N       E                     dE             d eps       ncg     rms          rms(c)
DAV:   1     0.181091701800E+03    0.18109E+03   -0.94744E+03   372   0.719E+02
DAV:   2    -0.427605782539E+02   -0.22385E+03   -0.20682E+03   468   0.179E+02
DAV:   3    -0.726529178369E+02   -0.29892E+02   -0.29738E+02   420   0.784E+01
DAV:   4    -0.734016791680E+02   -0.74876E+00   -0.74679E+00   480   0.153E+01
DAV:   5    -0.734217379828E+02   -0.20059E-01   -0.20037E-01   432   0.227E+00    0.131E+01
DAV:   6    -0.689816184864E+02    0.44401E+01   -0.51688E+00   492   0.104E+01    0.741E+00
DAV:   7    -0.673346223753E+02    0.16470E+01   -0.39654E+00   492   0.906E+00    0.214E+00
DAV:   8    -0.672583886347E+02    0.76234E-01   -0.21598E-01   408   0.210E+00    0.602E-01
DAV:   9    -0.672409543578E+02    0.17434E-01   -0.17873E-02   432   0.744E-01    0.176E-01
DAV:  10    -0.672298435777E+02    0.11111E-01   -0.16691E-02   408   0.524E-01    0.133E-01
DAV:  11    -0.672286795587E+02    0.11640E-02   -0.54995E-03   384   0.354E-01    0.607E-02
DAV:  12    -0.672289976931E+02   -0.31813E-03   -0.19323E-03   360   0.159E-01    0.360E-02
DAV:  13    -0.672328902948E+02   -0.38926E-02   -0.45387E-04   336   0.904E-02    0.218E-02
DAV:  14    -0.672355972454E+02   -0.27070E-02   -0.32469E-04   384   0.559E-02    0.113E-02
DAV:  15    -0.672363673056E+02   -0.77006E-03   -0.59752E-05   360   0.275E-02    0.563E-03
DAV:  16    -0.672366656582E+02   -0.29835E-03   -0.30886E-05   360   0.181E-02    0.226E-03
DAV:  17    -0.672367423431E+02   -0.76685E-04   -0.53680E-06   408   0.714E-03    0.145E-03
DAV:  18    -0.672367694491E+02   -0.27106E-04   -0.97281E-07   432   0.385E-03    0.572E-04
DAV:  19    -0.672367845648E+02   -0.15116E-04   -0.86662E-07   360   0.244E-03    0.674E-04
DAV:  20    -0.672367950545E+02   -0.10490E-04   -0.53504E-08   252   0.108E-03    0.247E-04
DAV:  21    -0.672367997299E+02   -0.46753E-05   -0.41878E-08   252   0.903E-04    0.211E-04
DAV:  22    -0.672368006157E+02   -0.88583E-06   -0.92391E-09   252   0.468E-04
   1 F= -.67236801E+02 E0= -.67236801E+02  d E =-.672368E+02
 curvature:   0.00 expect dE= 0.000E+00 dE for cont linesearch  0.000E+00
 trial: gam= 0.00000 g(F)=  0.232E-02 g(S)=  0.000E+00 ort = 0.000E+00 (trialstep = 0.100E+01)
 search vector abs. value=  0.232E-02
 bond charge predicted
       N       E                     dE             d eps       ncg     rms          rms(c)
DAV:   1    -0.672360688886E+02    0.73084E-03   -0.34779E-01   336   0.353E+00    0.161E-01
DAV:   2    -0.672356321845E+02    0.43670E-03   -0.57773E-03   384   0.490E-01    0.826E-02
DAV:   3    -0.672355410112E+02    0.91173E-04   -0.11966E-03   336   0.192E-01    0.329E-02
DAV:   4    -0.672355424297E+02   -0.14185E-05   -0.15908E-04   336   0.633E-02    0.154E-02
DAV:   5    -0.672355450929E+02   -0.26632E-05   -0.55520E-06   336   0.160E-02    0.240E-03
DAV:   6    -0.672355453799E+02   -0.28700E-06   -0.14653E-06   396   0.645E-03
   2 F= -.67235545E+02 E0= -.67235545E+02  d E =0.125524E-02
 trial-energy change:    0.001255  1 .order    0.001263   -0.002318    0.004844
 step:   0.3251(harm=  0.3236)  dis= 0.00127  next Energy=   -67.237178 (dE=-0.377E-03)
 bond charge predicted
       N       E                     dE             d eps       ncg     rms          rms(c)
DAV:   1    -0.672374149717E+02   -0.18699E-02   -0.15834E-01   336   0.238E+00    0.108E-01
DAV:   2    -0.672372114877E+02    0.20348E-03   -0.26144E-03   336   0.329E-01    0.558E-02
DAV:   3    -0.672371732942E+02    0.38193E-04   -0.55012E-04   336   0.130E-01    0.224E-02
DAV:   4    -0.672371750308E+02   -0.17366E-05   -0.74160E-05   384   0.431E-02    0.105E-02
DAV:   5    -0.672371772790E+02   -0.22482E-05   -0.26552E-06   336   0.112E-02    0.161E-03
DAV:   6    -0.672371773559E+02   -0.76852E-07   -0.73486E-07   420   0.460E-03
   3 F= -.67237177E+02 E0= -.67237177E+02  d E =-.376740E-03
 curvature:  -0.16 expect dE=-0.463E-06 dE for cont linesearch -0.206E-08
 ZBRENT: interpolating
 opt :   0.3258  next Energy=   -67.237177 (dE=-0.377E-03)
 bond charge predicted
       N       E                     dE             d eps       ncg     rms          rms(c)
DAV:   1    -0.672371772950E+02   -0.15969E-07   -0.12615E-07   264   0.246E-03    0.269E-04
DAV:   2    -0.672371773371E+02   -0.42059E-07   -0.12358E-08   348   0.655E-04
   4 F= -.67237177E+02 E0= -.67237177E+02  d E =-.376721E-03
 curvature:  -0.16 expect dE=-0.468E-06 dE for cont linesearch -0.480E-08
 ZBRENT: interpolating
 opt :   0.3254  next Energy=   -67.237177 (dE=-0.377E-03)
 bond charge predicted
       N       E                     dE             d eps       ncg     rms          rms(c)
DAV:   1    -0.672371774319E+02   -0.13693E-06   -0.63426E-08   276   0.149E-03    0.698E-05
DAV:   2    -0.672371774756E+02   -0.43641E-07   -0.29501E-09   252   0.371E-04
   5 F= -.67237177E+02 E0= -.67237177E+02  d E =-.376860E-03
 curvature:  -0.03 expect dE=-0.781E-07 dE for cont linesearch -0.183E-09
 ZBRENT: interpolating
 opt :   0.3252  next Energy=   -67.237177 (dE=-0.377E-03)
 bond charge predicted
       N       E                     dE             d eps       ncg     rms          rms(c)
DAV:   1    -0.672371775476E+02   -0.11567E-06   -0.61654E-09   252   0.513E-04    0.314E-05
DAV:   2    -0.672371775775E+02   -0.29937E-07   -0.39035E-10   276   0.138E-04
   6 F= -.67237178E+02 E0= -.67237178E+02  d E =-.376962E-03
 curvature:  -0.04 expect dE=-0.106E-06 dE for cont linesearch -0.148E-09
 ZBRENT: bisectioning
 opt :   0.3252  next Energy=   -67.237178 (dE=-0.377E-03)
 bond charge predicted
       N       E                     dE             d eps       ncg     rms          rms(c)
DAV:   1    -0.672371776496E+02   -0.10198E-06   -0.32527E-09   252   0.342E-04    0.111E-05
DAV:   2    -0.672371776601E+02   -0.10494E-07   -0.17463E-10   324   0.869E-05
   7 F= -.67237178E+02 E0= -.67237178E+02  d E =-.377044E-03
 curvature:  -0.06 expect dE=-0.169E-06 dE for cont linesearch -0.167E-09
 ZBRENT: bisectioning
 opt :   0.3251  next Energy=   -67.237178 (dE=-0.377E-03)
 bond charge predicted
       N       E                     dE             d eps       ncg     rms          rms(c)
DAV:   1    -0.672371776760E+02   -0.26413E-07   -0.66214E-10   252   0.171E-04    0.822E-06
DAV:   2    -0.672371776809E+02   -0.49313E-08    0.21465E-11   300   0.457E-05
   8 F= -.67237178E+02 E0= -.67237178E+02  d E =-.377065E-03
 curvature:  -0.04 expect dE=-0.107E-06 dE for cont linesearch -0.866E-10
 ZBRENT: bisectioning
 opt :   0.3251  next Energy=   -67.237178 (dE=-0.377E-03)
 bond charge predicted
       N       E                     dE             d eps       ncg     rms          rms(c)
DAV:   1    -0.672371776923E+02   -0.16305E-07   -0.16010E-10   252   0.871E-05    0.362E-06
DAV:   2    -0.672371776940E+02   -0.17330E-08    0.39293E-11   348   0.225E-05
   9 F= -.67237178E+02 E0= -.67237178E+02  d E =-.377078E-03
 curvature:  -0.02 expect dE=-0.602E-07 dE for cont linesearch -0.429E-10
 ZBRENT: bisectioning
 opt :   0.3251  next Energy=   -67.237178 (dE=-0.377E-03)
 bond charge predicted
       N       E                     dE             d eps       ncg     rms          rms(c)
DAV:   1    -0.672371776975E+02   -0.51405E-08   -0.12472E-11   252   0.465E-05    0.213E-06
DAV:   2    -0.672371776980E+02   -0.49704E-09    0.45266E-11   324   0.130E-05
  10 F= -.67237178E+02 E0= -.67237178E+02  d E =-.377082E-03
 curvature:  -0.01 expect dE=-0.324E-07 dE for cont linesearch -0.222E-10
 ZBRENT: bisectioning
 opt :   0.3251  next Energy=   -67.237178 (dE=-0.377E-03)
 bond charge predicted
       N       E                     dE             d eps       ncg     rms          rms(c)
DAV:   1    -0.672371776991E+02   -0.16526E-08    0.37079E-11   252   0.230E-05    0.110E-06
DAV:   2    -0.672371776992E+02   -0.10868E-09    0.24162E-11   348   0.622E-06
  11 F= -.67237178E+02 E0= -.67237178E+02  d E =-.377084E-03
 curvature:  -0.01 expect dE=-0.167E-07 dE for cont linesearch -0.110E-10
 ZBRENT: bisectioning
 opt :   0.3251  next Energy=   -67.237178 (dE=-0.377E-03)
 bond charge predicted
       N       E                     dE             d eps       ncg     rms          rms(c)
DAV:   1    -0.672371776995E+02   -0.37016E-09    0.48738E-11   252   0.122E-05    0.672E-07
DAV:   2    -0.672371776997E+02   -0.19418E-09    0.50773E-11   288   0.364E-06
  12 F= -.67237178E+02 E0= -.67237178E+02  d E =-.377084E-03
 curvature:  -0.00 expect dE=-0.854E-08 dE for cont linesearch -0.559E-11
 ZBRENT: bisectioning
 opt :   0.3251  next Energy=   -67.237178 (dE=-0.377E-03)
 bond charge predicted
       N       E                     dE             d eps       ncg     rms          rms(c)
DAV:   1    -0.672371776998E+02   -0.33378E-09    0.47041E-11   252   0.594E-06    0.377E-07
DAV:   2    -0.672371776998E+02    0.35016E-10    0.44714E-11   216   0.171E-06
  13 F= -.67237178E+02 E0= -.67237178E+02  d E =-.377084E-03
 curvature:  -0.00 expect dE=-0.430E-08 dE for cont linesearch -0.278E-11
 ZBRENT: bisectioning
 opt :   0.3251  next Energy=   -67.237178 (dE=-0.377E-03)
 bond charge predicted
       N       E                     dE             d eps       ncg     rms          rms(c)
DAV:   1    -0.672371776997E+02    0.12369E-09    0.51991E-11   276   0.325E-06    0.226E-07
DAV:   2    -0.672371776996E+02    0.59572E-10    0.24701E-11   168   0.105E-06
  14 F= -.67237178E+02 E0= -.67237178E+02  d E =-.377084E-03
 curvature:  -0.00 expect dE=-0.216E-08 dE for cont linesearch -0.140E-11
 ZBRENT: bisectioning
 opt :   0.3251  next Energy=   -67.237178 (dE=-0.377E-03)
 bond charge predicted
       N       E                     dE             d eps       ncg     rms          rms(c)
DAV:   1    -0.672371776997E+02   -0.59117E-10    0.35963E-11   240   0.156E-06    0.133E-07
DAV:   2    -0.672371776997E+02    0.77762E-10    0.27740E-11   168   0.498E-07
  15 F= -.67237178E+02 E0= -.67237178E+02  d E =-.377084E-03
 curvature:  -0.00 expect dE=-0.108E-08 dE for cont linesearch -0.697E-12
 ZBRENT: bisectioning
 opt :   0.3251  next Energy=   -67.237178 (dE=-0.377E-03)
 bond charge predicted
       N       E                     dE             d eps       ncg     rms          rms(c)
DAV:   1    -0.672371776998E+02   -0.47294E-10    0.37325E-11   168   0.904E-07    0.756E-08
DAV:   2    -0.672371776997E+02    0.11869E-09    0.54603E-11   168   0.322E-07
  16 F= -.67237178E+02 E0= -.67237178E+02  d E =-.377084E-03
 curvature:  -0.00 expect dE=-0.542E-09 dE for cont linesearch -0.349E-12
 ZBRENT: bisectioning
 opt :   0.3251  next Energy=   -67.237178 (dE=-0.377E-03)
 bond charge predicted
       N       E                     dE             d eps       ncg     rms          rms(c)
DAV:   1    -0.672371776998E+02    0.50022E-11    0.32538E-11   168   0.432E-07    0.452E-08
DAV:   2    -0.672371776998E+02   -0.50932E-10    0.34773E-11   168   0.156E-07
  17 F= -.67237178E+02 E0= -.67237178E+02  d E =-.377084E-03
 curvature:  -0.00 expect dE=-0.271E-09 dE for cont linesearch -0.174E-12
 ZBRENT: bisectioning
 opt :   0.3251  next Energy=   -67.237178 (dE=-0.377E-03)
 bond charge predicted
       N       E                     dE             d eps       ncg     rms          rms(c)
DAV:   1    -0.672371776998E+02    0.86402E-11    0.47526E-11   168   0.272E-07    0.275E-08
DAV:   2    -0.672371776998E+02    0.11369E-10    0.51187E-11   168   0.104E-07
  18 F= -.67237178E+02 E0= -.67237178E+02  d E =-.377084E-03
 curvature:  -0.00 expect dE=-0.135E-09 dE for cont linesearch -0.873E-13
 ZBRENT: bisectioning
 opt :   0.3251  next Energy=   -67.237178 (dE=-0.377E-03)
 bond charge predicted
       N       E                     dE             d eps       ncg     rms          rms(c)
DAV:   1    -0.672371776997E+02    0.12415E-09    0.39910E-11   168   0.121E-07    0.155E-08
DAV:   2    -0.672371776997E+02   -0.94133E-10    0.42304E-11   168   0.485E-08
  19 F= -.67237178E+02 E0= -.67237178E+02  d E =-.377084E-03
 curvature:  -0.00 expect dE=-0.677E-10 dE for cont linesearch -0.436E-13
 ZBRENT:  can not reach accuracy
 opt :   0.0000  next Energy=     0.000000 (dE= 0.672E+02)
 bond charge predicted
       N       E                     dE             d eps       ncg     rms          rms(c)
DAV:   1    -0.672368565611E+02    0.32114E-03   -0.36749E-02   336   0.115E+00    0.521E-02
DAV:   2    -0.672368075479E+02    0.49013E-04   -0.60827E-04   336   0.159E-01    0.269E-02
DAV:   3    -0.672367991067E+02    0.84411E-05   -0.12768E-04   372   0.627E-02    0.108E-02
DAV:   4    -0.672367997874E+02   -0.68070E-06   -0.17193E-05   408   0.207E-02    0.505E-03
DAV:   5    -0.672368005406E+02   -0.75321E-06   -0.60586E-07   336   0.537E-03
  20 F= -.67236801E+02 E0= -.67236801E+02  d E =0.750406E-07
 curvature:   0.00 expect dE= 0.145-309 dE for cont linesearch  0.145-309
 ZBRENT: fatal error in bracketing
     please rerun with smaller EDIFF, or copy CONTCAR
     to POSCAR and continue
