fcc Si                                  
   5.00000000000000     
     0.500000    0.500000    0.000000
     0.000000    0.500000    0.500000
     0.500000    0.000000    0.500000
   Si
     1
Direct
  0.000000  0.000000  0.000000
 
   36   36   36
 -5.0100     -4.1568     -1.7948      1.5404      5.1275      8.2551      10.397      11.320      11.100      10.054    
  8.6203      7.1921      5.9199      4.8561      4.0184      3.3997      2.9805      2.7394      2.6610      2.7394    
  2.9805      3.3997      4.0184      4.8561      5.9199      7.1921      8.6203      10.054      11.100      11.320    
  10.397      8.2551      5.1275      1.5404     -1.7948     -4.1568     -4.1568     -2.5502     0.29105      3.7304    
  7.0450      9.6143      11.063      11.324      10.605      9.2978      7.8381      6.4878      5.3245      4.3813    
  3.6613      3.1496      2.8248      2.6678      2.6678      2.8248      3.1496      3.6613      4.3813      5.3245    
  6.4878      7.8381      9.2978      10.605      11.324      11.063      9.6143      7.0450      3.7304     0.29105    
 -2.5502     -4.1568     -1.7948     0.29105      3.2195      6.3357      8.9974      10.737      11.359      10.952    
  9.8252      8.3925      6.9981      5.7621      4.7320      3.9224      3.3249      2.9202      2.6875      2.6117    
  2.6875      2.9202      3.3249      3.9224      4.7320      5.7621      6.9981      8.3925      9.8252      10.952    
  11.359      10.737      8.9974      6.3357      3.2195     0.29105     -1.7948     -2.5502      1.5404      3.7304    
  6.3357      8.7644      10.519      11.317      11.135      10.187      8.8285      7.4239      6.1451      5.0518    
  4.1695      3.4977      3.0207      2.7180      2.5717      2.5717      2.7180      3.0207      3.4977      4.1695    
  5.0518      6.1451      7.4239      8.8285      10.187      11.135      11.317      10.519      8.7644      6.3357    
  3.7304      1.5404     0.29105     0.29105      5.1275      7.0450      8.9974      10.519      11.290      11.209    
  10.394      9.1254      7.7433      6.4524      5.3226      4.3887      3.6581      3.1201      2.7559      2.5464    
  2.4781      2.5464      2.7559      3.1201      3.6581      4.3887      5.3226      6.4524      7.7433      9.1254    
  10.394      11.209      11.290      10.519      8.9974      7.0450      5.1275      3.7304      3.2195      3.7304    
  8.2551      9.6143      10.737      11.317      11.209      10.460      9.2746      7.9411      6.6669      5.5284    
  4.5666      3.7960      3.2114      2.7967      2.5334      2.4060      2.4060      2.5334      2.7967      3.2114    
  3.7960      4.5666      5.5284      6.6669      7.9411      9.2746      10.460      11.209      11.317      10.737    
  9.6143      8.2551      7.0450      6.3357      6.3357      7.0450      10.397      11.063      11.359      11.135    
  10.394      9.2746      8.0080      6.7771      5.6570      4.6921      3.9023      3.2876      2.8357      2.5296    
  2.3532      2.2957      2.3532      2.5296      2.8357      3.2876      3.9023      4.6921      5.6570      6.7771    
  8.0080      9.2746      10.394      11.135      11.359      11.063      10.397      9.6143      8.9974      8.7644    
  8.9974      9.6143      11.320      11.324      10.952      10.187      9.1254      7.9411      6.7771      5.7008    
  4.7570      3.9693      3.3424      2.8678      2.5311      2.3168      2.2129      2.2129      2.3168      2.5311    
  2.8678      3.3424      3.9693      4.7570      5.7008      6.7771      7.9411      9.1255      10.187      10.952    
  11.324      11.320      11.063      10.737      10.519      10.519      10.737      11.063      11.100      10.605    
  9.8252      8.8285      7.7433      6.6669      5.6570      4.7570      3.9923      3.3711      2.8890      2.5344    
  2.2936      2.1545      2.1090      2.1545      2.2936      2.5344      2.8890      3.3711      3.9923      4.7570    
  5.6570      6.6669      7.7433      8.8285      9.8252      10.605      11.100      11.324      11.359      11.317    
  11.290      11.317      11.359      11.324      10.054      9.2978      8.3925      7.4239      6.4524      5.5284    
  4.6921      3.9693      3.3711      2.8964      2.5369      2.2810      2.1174      2.0379      2.0379      2.1174    
  2.2810      2.5369      2.8964      3.3711      3.9693      4.6921      5.5284      6.4524      7.4239      8.3925    
  9.2978      10.054      10.605      10.952      11.135      11.209      11.209      11.135      10.952      10.605    
  8.6203      7.8381      6.9981      6.1451      5.3226      4.5666      3.9023      3.3424      2.8890      2.5369    
  2.2770      2.0995      1.9966      1.9629      1.9966      2.0995      2.2770      2.5369      2.8890      3.3424    
  3.9023      4.5666      5.3226      6.1451      6.9981      7.8381      8.6203      9.2978      9.8252      10.187    
  10.394      10.460      10.394      10.187      9.8252      9.2978      7.1921      6.4878      5.7621      5.0518    
  4.3887      3.7960      3.2876      2.8678      2.5344      2.2810      2.0995      1.9830      1.9262      1.9262    
  1.9830      2.0995      2.2810      2.5344      2.8678      3.2876      3.7960      4.3887      5.0518      5.7621    
  6.4878      7.1921      7.8381      8.3925      8.8285      9.1255      9.2746      9.2746      9.1254      8.8285    
  8.3925      7.8381      5.9199      5.3245      4.7320      4.1695      3.6581      3.2114      2.8357      2.5311    
  2.2936      2.1174      1.9966      1.9262      1.9030      1.9262      1.9966      2.1174      2.2936      2.5311    
  2.8357      3.2114      3.6581      4.1695      4.7320      5.3245      5.9199      6.4878      6.9981      7.4239    
  7.7433      7.9411      8.0080      7.9411      7.7433      7.4239      6.9981      6.4878      4.8561      4.3813    
  3.9224      3.4977      3.1201      2.7967      2.5296      2.3168      2.1545      2.0379      1.9629      1.9262    
  1.9262      1.9629      2.0379      2.1545      2.3168      2.5296      2.7967      3.1201      3.4977      3.9224    
  4.3813      4.8561      5.3245      5.7621      6.1451      6.4524      6.6669      6.7771      6.7771      6.6669    
  6.4524      6.1451      5.7621      5.3245      4.0184      3.6613      3.3249      3.0207      2.7559      2.5334    
  2.3532      2.2129      2.1090      2.0379      1.9966      1.9830      1.9966      2.0379      2.1090      2.2129    
  2.3532      2.5334      2.7559      3.0207      3.3249      3.6613      4.0184      4.3813      4.7320      5.0518    
  5.3226      5.5284      5.6570      5.7008      5.6570      5.5284      5.3226      5.0518      4.7320      4.3813    
  3.3997      3.1496      2.9202      2.7180      2.5464      2.4060      2.2957      2.2129      2.1545      2.1174    
  2.0995      2.0995      2.1174      2.1545      2.2129      2.2957      2.4060      2.5464      2.7180      2.9202    
  3.1496      3.3997      3.6613      3.9224      4.1695      4.3887      4.5666      4.6921      4.7570      4.7570    
  4.6921      4.5666      4.3887      4.1695      3.9224      3.6613      2.9805      2.8248      2.6875      2.5717    
  2.4781      2.4060      2.3532      2.3168      2.2936      2.2810      2.2770      2.2810      2.2936      2.3168    
  2.3532      2.4060      2.4781      2.5717      2.6875      2.8248      2.9805      3.1496      3.3249      3.4977    
  3.6581      3.7960      3.9023      3.9693      3.9923      3.9693      3.9023      3.7960      3.6581      3.4977    
  3.3249      3.1496      2.7394      2.6678      2.6117      2.5717      2.5464      2.5334      2.5296      2.5311    
  2.5344      2.5369      2.5369      2.5344      2.5311      2.5296      2.5334      2.5464      2.5717      2.6117    
  2.6678      2.7394      2.8248      2.9202      3.0207      3.1201      3.2114      3.2876      3.3424      3.3711    
  3.3711      3.3424      3.2876      3.2114      3.1201      3.0207      2.9202      2.8248      2.6610      2.6678    
  2.6875      2.7180      2.7559      2.7967      2.8357      2.8678      2.8890      2.8964      2.8890      2.8678    
  2.8357      2.7967      2.7559      2.7180      2.6875      2.6678      2.6610      2.6678      2.6875      2.7180    
  2.7559      2.7967      2.8357      2.8678      2.8890      2.8964      2.8890      2.8678      2.8357      2.7967    
  2.7559      2.7180      2.6875      2.6678      2.7394      2.8248      2.9202      3.0207      3.1201      3.2114    
  3.2876      3.3424      3.3711      3.3711      3.3424      3.2876      3.2114      3.1201      3.0207      2.9202    
  2.8248      2.7394      2.6678      2.6117      2.5717      2.5464      2.5334      2.5296      2.5311      2.5344    
  2.5369      2.5369      2.5344      2.5311      2.5296      2.5334      2.5464      2.5717      2.6117      2.6678    
  2.9805      3.1496      3.3249      3.4977      3.6581      3.7960      3.9023      3.9693      3.9923      3.9693    
  3.9023      3.7960      3.6581      3.4977      3.3249      3.1496      2.9805      2.8248      2.6875      2.5717    
  2.4781      2.4060      2.3532      2.3168      2.2936      2.2810      2.2770      2.2810      2.2936      2.3168    
  2.3532      2.4060      2.4781      2.5717      2.6875      2.8248      3.3997      3.6613      3.9224      4.1695    
  4.3887      4.5666      4.6921      4.7570      4.7570      4.6921      4.5666      4.3887      4.1695      3.9224    
  3.6613      3.3997      3.1496      2.9202      2.7180      2.5464      2.4060      2.2957      2.2129      2.1545    
  2.1174      2.0995      2.0995      2.1174      2.1545      2.2129      2.2957      2.4060      2.5464      2.7180    
  2.9202      3.1496      4.0184      4.3813      4.7320      5.0518      5.3226      5.5284      5.6570      5.7008    
  5.6570      5.5284      5.3226      5.0518      4.7320      4.3813      4.0184      3.6613      3.3249      3.0207    
  2.7559      2.5334      2.3532      2.2129      2.1090      2.0379      1.9966      1.9830      1.9966      2.0379    
  2.1090      2.2129      2.3532      2.5334      2.7559      3.0207      3.3249      3.6613      4.8561      5.3245    
  5.7621      6.1451      6.4524      6.6669      6.7771      6.7771      6.6669      6.4524      6.1451      5.7621    
  5.3245      4.8561      4.3813      3.9224      3.4977      3.1201      2.7967      2.5296      2.3168      2.1545    
  2.0379      1.9629      1.9262      1.9262      1.9629      2.0379      2.1545      2.3168      2.5296      2.7967    
  3.1201      3.4977      3.9224      4.3813      5.9199      6.4878      6.9981      7.4239      7.7433      7.9411    
  8.0080      7.9411      7.7433      7.4239      6.9981      6.4878      5.9199      5.3245      4.7320      4.1695    
  3.6581      3.2114      2.8357      2.5311      2.2936      2.1174      1.9966      1.9262      1.9030      1.9262    
  1.9966      2.1174      2.2936      2.5311      2.8357      3.2114      3.6581      4.1695      4.7320      5.3245    
  7.1921      7.8381      8.3925      8.8285      9.1254      9.2746      9.2746      9.1255      8.8285      8.3925    
  7.8381      7.1921      6.4878      5.7621      5.0518      4.3887      3.7960      3.2876      2.8678      2.5344    
  2.2810      2.0995      1.9830      1.9262      1.9262      1.9830      2.0995      2.2810      2.5344      2.8678    
  3.2876      3.7960      4.3887      5.0518      5.7621      6.4878      8.6203      9.2978      9.8252      10.187    
  10.394      10.460      10.394      10.187      9.8252      9.2978      8.6203      7.8381      6.9981      6.1451    
  5.3226      4.5666      3.9023      3.3424      2.8890      2.5369      2.2770      2.0995      1.9966      1.9629    
  1.9966      2.0995      2.2770      2.5369      2.8890      3.3424      3.9023      4.5666      5.3226      6.1451    
  6.9981      7.8381      10.054      10.605      10.952      11.135      11.209      11.209      11.135      10.952    
  10.605      10.054      9.2978      8.3925      7.4239      6.4524      5.5284      4.6921      3.9693      3.3711    
  2.8964      2.5369      2.2810      2.1174      2.0379      2.0379      2.1174      2.2810      2.5369      2.8964    
  3.3711      3.9693      4.6921      5.5284      6.4524      7.4239      8.3925      9.2978      11.100      11.324    
  11.359      11.317      11.290      11.317      11.359      11.324      11.100      10.605      9.8252      8.8285    
  7.7433      6.6669      5.6570      4.7570      3.9923      3.3711      2.8890      2.5344      2.2936      2.1545    
  2.1090      2.1545      2.2936      2.5344      2.8890      3.3711      3.9923      4.7570      5.6570      6.6669    
  7.7433      8.8285      9.8252      10.605      11.320      11.063      10.737      10.519      10.519      10.737    
  11.063      11.320      11.324      10.952      10.187      9.1255      7.9411      6.7771      5.7008      4.7570    
  3.9693      3.3424      2.8678      2.5311      2.3168      2.2129      2.2129      2.3168      2.5311      2.8678    
  3.3424      3.9693      4.7570      5.7008      6.7771      7.9411      9.1254      10.187      10.952      11.324    
  10.397      9.6143      8.9974      8.7644      8.9974      9.6143      10.397      11.063      11.359      11.135    
  10.394      9.2746      8.0080      6.7771      5.6570      4.6921      3.9023      3.2876      2.8357      2.5296    
  2.3532      2.2957      2.3532      2.5296      2.8357      3.2876      3.9023      4.6921      5.6570      6.7771    
  8.0080      9.2746      10.394      11.135      11.359      11.063      8.2551      7.0450      6.3357      6.3357    
  7.0450      8.2551      9.6143      10.737      11.317      11.209      10.460      9.2746      7.9411      6.6669    
  5.5284      4.5666      3.7960      3.2114      2.7967      2.5334      2.4060      2.4060      2.5334      2.7967    
  3.2114      3.7960      4.5666      5.5284      6.6669      7.9411      9.2746      10.460      11.209      11.317    
  10.737      9.6143      5.1275      3.7304      3.2195      3.7304      5.1275      7.0450      8.9974      10.519    
  11.290      11.209      10.394      9.1254      7.7433      6.4524      5.3226      4.3887      3.6581      3.1201    
  2.7559      2.5464      2.4781      2.5464      2.7559      3.1201      3.6581      4.3887      5.3226      6.4524    
  7.7433      9.1254      10.394      11.209      11.290      10.519      8.9974      7.0450      1.5404     0.29105    
 0.29105      1.5404      3.7304      6.3357      8.7644      10.519      11.317      11.135      10.187      8.8285    
  7.4239      6.1451      5.0518      4.1695      3.4977      3.0207      2.7180      2.5717      2.5717      2.7180    
  3.0207      3.4977      4.1695      5.0518      6.1451      7.4239      8.8285      10.187      11.135      11.317    
  10.519      8.7644      6.3357      3.7304     -1.7948     -2.5502     -1.7948     0.29105      3.2195      6.3357    
  8.9974      10.737      11.359      10.952      9.8252      8.3925      6.9981      5.7621      4.7320      3.9224    
  3.3249      2.9202      2.6875      2.6117      2.6875      2.9202      3.3249      3.9224      4.7320      5.7621    
  6.9981      8.3925      9.8252      10.952      11.359      10.737      8.9974      6.3357      3.2195     0.29105    
 -4.1568     -4.1568     -2.5502     0.29105      3.7304      7.0450      9.6143      11.063      11.324      10.605    
  9.2978      7.8381      6.4878      5.3245      4.3813      3.6613      3.1496      2.8248      2.6678      2.6678    
  2.8248      3.1496      3.6613      4.3813      5.3245      6.4878      7.8381      9.2978      10.605      11.324    
  11.063      9.6143      7.0450      3.7304     0.29105     -2.5502     -4.1568     -2.5502     0.29105      3.7304    
  7.0450      9.6143      11.063      11.324      10.605      9.2978      7.8381      6.4878      5.3245      4.3813    
  3.6613      3.1496      2.8248      2.6678      2.6678      2.8248      3.1496      3.6613      4.3813      5.3245    
  6.4878      7.8381      9.2978      10.605      11.324      11.063      9.6143      7.0450      3.7304     0.29105    
 -2.5502     -4.1568     -2.5502     -.37428      2.6866      5.9557      8.7683      10.638      11.356      11.008    
  9.9059      8.4716      7.0658      5.8176      4.7763      3.9573      3.3527      2.9432      2.7077      2.6311    
  2.7077      2.9432      3.3527      3.9573      4.7763      5.8176      7.0658      8.4716      9.9059      11.008    
  11.356      10.638      8.7683      5.9557      2.6866     -.37427     -2.5502     -3.3375     0.29105      2.6866    
  5.5543      8.2607      10.269      11.268      11.220      10.339      8.9912      7.5663      6.2636      5.1470    
  4.2446      3.5570      3.0686      2.7586      2.6088      2.6088      2.7586      3.0686      3.5570      4.2446    
  5.1470      6.2636      7.5663      8.9912      10.339      11.220      11.268      10.269      8.2607      5.5543    
  2.6866     0.29105     -1.0712     -1.0712      3.7304      5.9557      8.2607      10.125      11.184      11.307    
  10.605      9.3694      7.9639      6.6381      5.4732      4.5078      3.7515      3.1943      2.8170      2.6000    
  2.5293      2.6000      2.8170      3.1943      3.7515      4.5078      5.4732      6.6381      7.9639      9.3694    
  10.605      11.307      11.184      10.125      8.2607      5.9557      3.7304      2.1231      1.5374      2.1231    
  7.0450      8.7683      10.269      11.184      11.329      10.729      9.5959      8.2393      6.9207      5.7361    
  4.7317      3.9252      3.3127      2.8782      2.6023      2.4688      2.4688      2.6023      2.8782      3.3127    
  3.9252      4.7317      5.7361      6.9207      8.2393      9.5959      10.729      11.329      11.184      10.269    
  8.7683      7.0450      5.5471      4.6787      4.6787      5.5471      9.6143      10.638      11.268      11.307    
  10.729      9.6709      8.3800      7.0965      5.9204      4.9025      4.0669      3.4156      2.9367      2.6123    
  2.4255      2.3646      2.4255      2.6123      2.9367      3.4156      4.0669      4.9025      5.9204      7.0965    
  8.3800      9.6709      10.729      11.307      11.268      10.638      9.6143      8.5134      7.6763      7.3647    
  7.6763      8.5134      11.063      11.356      11.220      10.605      9.5959      8.3800      7.1561      6.0153    
  5.0095      4.1672      3.4955      2.9869      2.6261      2.3966      2.2854      2.2854      2.3966      2.6261    
  2.9869      3.4955      4.1672      5.0095      6.0153      7.1561      8.3800      9.5959      10.605      11.220    
  11.356      11.063      10.516      9.9535      9.6037      9.6037      9.9535      10.516      11.324      11.008    
  10.339      9.3694      8.2393      7.0965      6.0153      5.0460      4.2192      3.5463      3.0237      2.6396    
  2.3788      2.2283      2.1792      2.2283      2.3788      2.6396      3.0237      3.5463      4.2192      5.0460    
  6.0153      7.0965      8.2393      9.3694      10.339      11.008      11.324      11.334      11.168      10.982    
  10.903      10.982      11.168      11.334      10.605      9.9059      8.9912      7.9639      6.9207      5.9204    
  5.0095      4.2192      3.5637      3.0432      2.6492      2.3691      2.1903      2.1034      2.1034      2.1903    
  2.3691      2.6492      3.0432      3.5637      4.2192      5.0095      5.9204      6.9207      7.9639      8.9912    
  9.9059      10.605      11.049      11.267      11.337      11.344      11.344      11.337      11.267      11.049    
  9.2978      8.4716      7.5663      6.6381      5.7361      4.9025      4.1672      3.5463      3.0432      2.6528    
  2.3649      2.1687      2.0549      2.0177      2.0549      2.1687      2.3649      2.6528      3.0432      3.5463    
  4.1672      4.9025      5.7361      6.6381      7.5663      8.4716      9.2978      9.9738      10.462      10.770    
  10.931      10.980      10.931      10.770      10.462      9.9738      7.8381      7.0658      6.2636      5.4732    
  4.7317      4.0669      3.4955      3.0237      2.6492      2.3649      2.1617      2.0313      1.9678      1.9678    
  2.0313      2.1617      2.3649      2.6492      3.0237      3.4955      4.0669      4.7317      5.4732      6.2636    
  7.0658      7.8381      8.5398      9.1324      9.5813      9.8752      10.019      10.019      9.8752      9.5813    
  9.1324      8.5398      6.4878      5.8176      5.1470      4.5078      3.9252      3.4156      2.9869      2.6396    
  2.3691      2.1687      2.0313      1.9514      1.9252      1.9514      2.0313      2.1687      2.3691      2.6396    
  2.9869      3.4156      3.9252      4.5078      5.1470      5.8176      6.4878      7.1230      7.6897      8.1591    
  8.5090      8.7242      8.7967      8.7242      8.5090      8.1591      7.6897      7.1230      5.3245      4.7763    
  4.2446      3.7515      3.3127      2.9367      2.6261      2.3788      2.1903      2.0549      1.9678      1.9252    
  1.9252      1.9678      2.0549      2.1903      2.3788      2.6261      2.9367      3.3127      3.7515      4.2446    
  4.7763      5.3245      5.8630      6.3635      6.7993      7.1470      7.3888      7.5127      7.5127      7.3888    
  7.1470      6.7993      6.3635      5.8630      4.3813      3.9573      3.5570      3.1943      2.8782      2.6123    
  2.3966      2.2283      2.1034      2.0177      1.9678      1.9514      1.9678      2.0177      2.1034      2.2283    
  2.3966      2.6123      2.8782      3.1943      3.5570      3.9573      4.3813      4.8106      5.2241      5.5995    
  5.9159      6.1556      6.3049      6.3556      6.3049      6.1556      5.9159      5.5995      5.2241      4.8106    
  3.6613      3.3527      3.0686      2.8170      2.6023      2.4255      2.2854      2.1792      2.1034      2.0549    
  2.0313      2.0313      2.0549      2.1034      2.1792      2.2854      2.4255      2.6023      2.8170      3.0686    
  3.3527      3.6613      3.9825      4.3017      4.6025      4.8680      5.0827      5.2337      5.3115      5.3115    
  5.2337      5.0827      4.8680      4.6025      4.3017      3.9825      3.1496      2.9432      2.7586      2.6000    
  2.4688      2.3646      2.2854      2.2283      2.1903      2.1687      2.1617      2.1687      2.1903      2.2283    
  2.2854      2.3646      2.4688      2.6000      2.7586      2.9432      3.1496      3.3710      3.5983      3.8202    
  4.0246      4.1992      4.3330      4.4171      4.4458      4.4171      4.3330      4.1992      4.0246      3.8202    
  3.5983      3.3710      2.8248      2.7077      2.6088      2.5293      2.4688      2.4255      2.3966      2.3788    
  2.3691      2.3649      2.3649      2.3691      2.3788      2.3966      2.4255      2.4688      2.5293      2.6088    
  2.7077      2.8248      2.9567      3.0986      3.2434      3.3833      3.5095      3.6134      3.6874      3.7259    
  3.7259      3.6874      3.6134      3.5095      3.3833      3.2434      3.0986      2.9567      2.6678      2.6311    
  2.6088      2.6000      2.6023      2.6123      2.6261      2.6396      2.6492      2.6528      2.6492      2.6396    
  2.6261      2.6123      2.6023      2.6000      2.6088      2.6311      2.6678      2.7185      2.7814      2.8529    
  2.9284      3.0022      3.0681      3.1204      3.1540      3.1656      3.1540      3.1204      3.0681      3.0022    
  2.9284      2.8529      2.7814      2.7185      2.6678      2.7077      2.7586      2.8170      2.8782      2.9367    
  2.9869      3.0237      3.0432      3.0432      3.0237      2.9869      2.9367      2.8782      2.8170      2.7586    
  2.7077      2.6678      2.6410      2.6281      2.6283      2.6396      2.6587      2.6815      2.7037      2.7213    
  2.7309      2.7309      2.7213      2.7037      2.6815      2.6587      2.6396      2.6283      2.6281      2.6410    
  2.8248      2.9432      3.0686      3.1943      3.3127      3.4156      3.4955      3.5463      3.5637      3.5463    
  3.4955      3.4156      3.3127      3.1943      3.0686      2.9432      2.8248      2.7185      2.6281      2.5552    
  2.5000      2.4610      2.4359      2.4213      2.4140      2.4110      2.4102      2.4110      2.4140      2.4213    
  2.4359      2.4610      2.5000      2.5552      2.6281      2.7185      3.1496      3.3527      3.5570      3.7515    
  3.9252      4.0669      4.1672      4.2192      4.2192      4.1672      4.0669      3.9252      3.7515      3.5570    
  3.3527      3.1496      2.9567      2.7814      2.6283      2.5000      2.3967      2.3170      2.2586      2.2183    
  2.1934      2.1815      2.1815      2.1934      2.2183      2.2586      2.3170      2.3967      2.5000      2.6283    
  2.7814      2.9567      3.6613      3.9573      4.2446      4.5078      4.7317      4.9025      5.0095      5.0460    
  5.0095      4.9025      4.7317      4.5078      4.2446      3.9573      3.6613      3.3710      3.0986      2.8529    
  2.6396      2.4610      2.3170      2.2054      2.1233      2.0675      2.0352      2.0246      2.0352      2.0675    
  2.1233      2.2054      2.3170      2.4610      2.6396      2.8529      3.0986      3.3710      4.3813      4.7763    
  5.1470      5.4732      5.7361      5.9204      6.0153      6.0153      5.9204      5.7361      5.4732      5.1470    
  4.7763      4.3813      3.9825      3.5983      3.2434      2.9284      2.6587      2.4359      2.2586      2.1233    
  2.0263      1.9639      1.9335      1.9335      1.9639      2.0263      2.1233      2.2586      2.4359      2.6587    
  2.9284      3.2434      3.5983      3.9825      5.3245      5.8176      6.2636      6.6381      6.9207      7.0965    
  7.1561      7.0965      6.9207      6.6381      6.2636      5.8176      5.3245      4.8106      4.3017      3.8202    
  3.3833      3.0022      2.6815      2.4213      2.2183      2.0675      1.9639      1.9036      1.8837      1.9036    
  1.9639      2.0675      2.2183      2.4213      2.6815      3.0022      3.3833      3.8202      4.3017      4.8106    
  6.4878      7.0658      7.5663      7.9639      8.2393      8.3800      8.3800      8.2393      7.9639      7.5663    
  7.0658      6.4878      5.8630      5.2241      4.6025      4.0246      3.5095      3.0681      2.7037      2.4140    
  2.1934      2.0352      1.9335      1.8837      1.8837      1.9335      2.0352      2.1934      2.4140      2.7037    
  3.0681      3.5095      4.0246      4.6025      5.2241      5.8630      7.8381      8.4716      8.9912      9.3694    
  9.5959      9.6709      9.5959      9.3694      8.9912      8.4716      7.8381      7.1230      6.3635      5.5995    
  4.8680      4.1992      3.6134      3.1204      2.7213      2.4110      2.1815      2.0246      1.9335      1.9036    
  1.9335      2.0246      2.1815      2.4110      2.7213      3.1204      3.6134      4.1992      4.8680      5.5995    
  6.3635      7.1230      9.2978      9.9059      10.339      10.605      10.729      10.729      10.605      10.339    
  9.9059      9.2978      8.5398      7.6897      6.7993      5.9159      5.0827      4.3330      3.6874      3.1540    
  2.7309      2.4102      2.1815      2.0352      1.9639      1.9639      2.0352      2.1815      2.4102      2.7309    
  3.1540      3.6874      4.3330      5.0827      5.9159      6.7993      7.6897      8.5398      10.605      11.008    
  11.220      11.307      11.329      11.307      11.220      11.008      10.605      9.9738      9.1324      8.1591    
  7.1470      6.1556      5.2337      4.4171      3.7259      3.1656      2.7309      2.4110      2.1934      2.0675    
  2.0263      2.0675      2.1934      2.4110      2.7309      3.1656      3.7259      4.4171      5.2337      6.1556    
  7.1470      8.1591      9.1324      9.9738      11.324      11.356      11.268      11.184      11.184      11.268    
  11.356      11.324      11.049      10.462      9.5813      8.5090      7.3888      6.3049      5.3115      4.4458    
  3.7259      3.1540      2.7213      2.4140      2.2183      2.1233      2.1233      2.2183      2.4140      2.7213    
  3.1540      3.7259      4.4458      5.3115      6.3049      7.3888      8.5090      9.5813      10.462      11.049    
  11.063      10.638      10.269      10.125      10.269      10.638      11.063      11.334      11.267      10.770    
  9.8752      8.7242      7.5127      6.3556      5.3115      4.4171      3.6874      3.1204      2.7037      2.4213    
  2.2586      2.2054      2.2586      2.4213      2.7037      3.1204      3.6874      4.4171      5.3115      6.3556    
  7.5127      8.7242      9.8752      10.770      11.267      11.334      9.6143      8.7683      8.2607      8.2607    
  8.7683      9.6143      10.516      11.168      11.337      10.931      10.019      8.7967      7.5127      6.3049    
  5.2337      4.3330      3.6134      3.0681      2.6815      2.4359      2.3170      2.3170      2.4359      2.6815    
  3.0681      3.6134      4.3330      5.2337      6.3049      7.5127      8.7967      10.019      10.931      11.337    
  11.168      10.516      7.0450      5.9557      5.5543      5.9557      7.0450      8.5134      9.9535      10.982    
  11.344      10.980      10.019      8.7242      7.3888      6.1556      5.0827      4.1992      3.5095      3.0022    
  2.6587      2.4610      2.3967      2.4610      2.6587      3.0022      3.5095      4.1992      5.0827      6.1556    
  7.3888      8.7242      10.019      10.980      11.344      10.982      9.9535      8.5134      3.7304      2.6866    