fcc So                                  
   4.30000000000000     
     0.500000    0.500000    0.000000
     0.000000    0.500000    0.500000
     0.500000    0.000000    0.500000
   Si
     1
Direct
  0.000000  0.000000  0.000000
 
   14   14   14
 -.32477143263E+01 -.79187040376E+00 0.41480429088E+01 0.72190506721E+01 0.69103829610E+01
 0.52043006613E+01 0.39522525951E+01 0.35215646536E+01 0.39522525951E+01 0.52043006613E+01
 0.69103829610E+01 0.72190506721E+01 0.41480429088E+01 -.79187040376E+00 -.79187040376E+00
 0.28476032781E+01 0.65313293775E+01 0.73504187064E+01 0.58953516834E+01 0.43650408788E+01
 0.35420652702E+01 0.35420541505E+01 0.43650459211E+01 0.58953541992E+01 0.73504135271E+01
 0.65313586576E+01 0.28475908913E+01 -.79190360373E+00 0.41480429088E+01 0.65313293775E+01
 0.74176798687E+01 0.62733632250E+01 0.46685654724E+01 0.35840520512E+01 0.32181697364E+01
 0.35840616094E+01 0.46685524594E+01 0.62733580064E+01 0.74176770752E+01 0.65313312795E+01
 0.41480889642E+01 0.28475908913E+01 0.72190506721E+01 0.73504187064E+01 0.62733632250E+01
 0.47789496906E+01 0.36137277935E+01 0.30161467326E+01 0.30161397632E+01 0.36137296165E+01
 0.47789588403E+01 0.62733722327E+01 0.73504197903E+01 0.72190157276E+01 0.65313312795E+01
 0.65313586576E+01 0.69103829610E+01 0.58953516834E+01 0.46685654724E+01 0.36137277935E+01
 0.29475203704E+01 0.27265602024E+01 0.29475211177E+01 0.36137296852E+01 0.46685466695E+01
 0.58953492350E+01 0.69104062679E+01 0.73504197903E+01 0.74176770752E+01 0.73504135271E+01
 0.52043006613E+01 0.43650408788E+01 0.35840520512E+01 0.30161467326E+01 0.27265602024E+01
 0.27265597878E+01 0.30161419016E+01 0.35840659974E+01 0.43650580359E+01 0.52042802655E+01
 0.58953492350E+01 0.62733722327E+01 0.62733580064E+01 0.58953541992E+01 0.39522525951E+01
 0.35420652702E+01 0.32181697364E+01 0.30161397632E+01 0.29475211177E+01 0.30161419016E+01
 0.32181588728E+01 0.35420536643E+01 0.39522619458E+01 0.43650580359E+01 0.46685466695E+01
 0.47789588403E+01 0.46685524594E+01 0.43650459211E+01 0.35215646536E+01 0.35420541505E+01
 0.35840616094E+01 0.36137296165E+01 0.36137296852E+01 0.35840659974E+01 0.35420536643E+01
 0.35215550428E+01 0.35420536643E+01 0.35840659974E+01 0.36137296852E+01 0.36137296165E+01
 0.35840616094E+01 0.35420541505E+01 0.39522525951E+01 0.43650459211E+01 0.46685524594E+01
 0.47789588403E+01 0.46685466695E+01 0.43650580359E+01 0.39522619458E+01 0.35420536643E+01
 0.32181588728E+01 0.30161419016E+01 0.29475211177E+01 0.30161397632E+01 0.32181697364E+01
 0.35420652702E+01 0.52043006613E+01 0.58953541992E+01 0.62733580064E+01 0.62733722327E+01
 0.58953492350E+01 0.52042802655E+01 0.43650580359E+01 0.35840659974E+01 0.30161419016E+01
 0.27265597878E+01 0.27265602024E+01 0.30161467326E+01 0.35840520512E+01 0.43650408788E+01
 0.69103829610E+01 0.73504135271E+01 0.74176770752E+01 0.73504197903E+01 0.69104062679E+01
 0.58953492350E+01 0.46685466695E+01 0.36137296852E+01 0.29475211177E+01 0.27265602024E+01
 0.29475203704E+01 0.36137277935E+01 0.46685654724E+01 0.58953516834E+01 0.72190506721E+01
 0.65313586576E+01 0.65313312795E+01 0.72190157276E+01 0.73504197903E+01 0.62733722327E+01
 0.47789588403E+01 0.36137296165E+01 0.30161397632E+01 0.30161467326E+01 0.36137277935E+01
 0.47789496906E+01 0.62733632250E+01 0.73504187064E+01 0.41480429088E+01 0.28475908913E+01
 0.41480889642E+01 0.65313312795E+01 0.74176770752E+01 0.62733580064E+01 0.46685524594E+01
 0.35840616094E+01 0.32181697364E+01 0.35840520512E+01 0.46685654724E+01 0.62733632250E+01
 0.74176798687E+01 0.65313293775E+01 -.79187040376E+00 -.79190360373E+00 0.28475908913E+01
 0.65313586576E+01 0.73504135271E+01 0.58953541992E+01 0.43650459211E+01 0.35420541505E+01
 0.35420652702E+01 0.43650408788E+01 0.58953516834E+01 0.73504187064E+01 0.65313293775E+01
 0.28476032781E+01 -.79187426373E+00 0.28476010567E+01 0.65313298400E+01 0.73504186400E+01
 0.58953537458E+01 0.43650398832E+01 0.35420668099E+01 0.35420537814E+01 0.43650464056E+01
 0.58953551698E+01 0.73504132505E+01 0.65313614136E+01 0.28475904787E+01 -.79190367781E+00
 0.28476010567E+01 0.59688600994E+01 0.74637508859E+01 0.65228548888E+01 0.48674000792E+01
 0.37263053702E+01 0.33392399276E+01 0.37263152759E+01 0.48673884575E+01 0.65228546159E+01
 0.74637728892E+01 0.59688548716E+01 0.28475951634E+01 0.12091252188E+01 0.65313298400E+01
 0.74637508859E+01 0.67313086353E+01 0.51571027722E+01 0.38708183885E+01 0.32036220399E+01
 0.32036104849E+01 0.38708214320E+01 0.51571092170E+01 0.67312869280E+01 0.74637448724E+01
 0.65313606570E+01 0.51391040265E+01 0.51390807495E+01 0.73504186400E+01 0.65228548888E+01
 0.51571027722E+01 0.39247067634E+01 0.31358679358E+01 0.28741833138E+01 0.31358695271E+01
 0.39246977291E+01 0.51571072545E+01 0.65228715613E+01 0.73504051363E+01 0.73336602327E+01
 0.71570021792E+01 0.73336904241E+01 0.58953537458E+01 0.48674000792E+01 0.38708183885E+01
 0.31358679358E+01 0.27629737709E+01 0.27629746512E+01 0.31358737402E+01 0.38708191651E+01
 0.48673830312E+01 0.58953484894E+01 0.66646263602E+01 0.69965983904E+01 0.69965797049E+01
 0.66646000308E+01 0.43650398832E+01 0.37263053702E+01 0.32036220399E+01 0.28741833138E+01
 0.27629746512E+01 0.28741755894E+01 0.32036146964E+01 0.37263234769E+01 0.43650529897E+01
 0.49788492676E+01 0.54126327933E+01 0.55668798670E+01 0.54126417835E+01 0.49788619524E+01
 0.35420668099E+01 0.33392399276E+01 0.32036104849E+01 0.31358695271E+01 0.31358737402E+01
 0.32036146964E+01 0.33392267304E+01 0.35420535591E+01 0.37865226495E+01 0.40082851012E+01
 0.41376980333E+01 0.41377015196E+01 0.40082769170E+01 0.37865110343E+01 0.35420537814E+01
 0.37263152759E+01 0.38708214320E+01 0.39246977291E+01 0.38708191651E+01 0.37263234769E+01
 0.35420535591E+01 0.33793478782E+01 0.32690125040E+01 0.32075741490E+01 0.31874119307E+01
 0.32075700047E+01 0.32690134527E+01 0.33793573112E+01 0.43650464056E+01 0.48673884575E+01
 0.51571092170E+01 0.51571072545E+01 0.48673830312E+01 0.43650529897E+01 0.37865226495E+01
 0.32690125040E+01 0.28975352780E+01 0.27063827113E+01 0.27063805824E+01 0.28975447075E+01
 0.32690214281E+01 0.37865099673E+01 0.58953551698E+01 0.65228546159E+01 0.67312869280E+01
 0.65228715613E+01 0.58953484894E+01 0.49788492676E+01 0.40082851012E+01 0.32075741490E+01
 0.27063827113E+01 0.25392362720E+01 0.27063859686E+01 0.32075609509E+01 0.40082758370E+01
 0.49788638577E+01 0.73504132505E+01 0.74637728892E+01 0.74637448724E+01 0.73504051363E+01
 0.66646263602E+01 0.54126327933E+01 0.41376980333E+01 0.31874119307E+01 0.27063805824E+01
 0.27063859686E+01 0.31874103606E+01 0.41377065085E+01 0.54126393980E+01 0.66645976309E+01
 0.65313614136E+01 0.59688548716E+01 0.65313606570E+01 0.73336602327E+01 0.69965983904E+01
 0.55668798670E+01 0.41377015196E+01 0.32075700047E+01 0.28975447075E+01 0.32075609509E+01
 0.41377065085E+01 0.55668628386E+01 0.69965984391E+01 0.73336931277E+01 0.28475904787E+01
 0.28475951634E+01 0.51391040265E+01 0.71570021792E+01 0.69965797049E+01 0.54126417835E+01
 0.40082769170E+01 0.32690134527E+01 0.32690214281E+01 0.40082758370E+01 0.54126393980E+01
 0.69965984391E+01 0.71569946930E+01 0.51390797912E+01 -.79190367781E+00 0.12091252188E+01
 0.51390807495E+01 0.73336904241E+01 0.66646000308E+01 0.49788619524E+01 0.37865110343E+01
 0.33793573112E+01 0.37865099673E+01 0.49788638577E+01 0.66645976309E+01 0.73336931277E+01
 0.51390797912E+01 0.12091272980E+01 0.41480404402E+01 0.65313311310E+01 0.74176806200E+01
 0.62733629888E+01 0.46685672005E+01 0.35840500018E+01 0.32181720045E+01 0.35840597836E+01
 0.46685536791E+01 0.62733578563E+01 0.74176764519E+01 0.65313328212E+01 0.41480860888E+01
 0.28475918576E+01 0.65313311310E+01 0.74637548011E+01 0.67313089408E+01 0.51571026351E+01
 0.38708181411E+01 0.32036210436E+01 0.32036112857E+01 0.38708200335E+01 0.51571099986E+01
 0.67312858568E+01 0.74637445111E+01 0.65313594117E+01 0.51391014562E+01 0.51390816827E+01
 0.74176806200E+01 0.67313089408E+01 0.53368304005E+01 0.40414667545E+01 0.32071531673E+01
 0.29301459351E+01 0.32071640057E+01 0.40414620286E+01 0.53368426470E+01 0.67312971849E+01
 0.74176583029E+01 0.71570215224E+01 0.68576940963E+01 0.71569959014E+01 0.62733629888E+01
 0.51571026351E+01 0.40414667545E+01 0.32102224090E+01 0.27890130920E+01 0.27890162182E+01
 0.32102223337E+01 0.40414624155E+01 0.51571079606E+01 0.62733737042E+01 0.69965755892E+01
 0.72171326011E+01 0.72171568453E+01 0.69965955808E+01 0.46685672005E+01 0.38708181411E+01
 0.32071531673E+01 0.27890130920E+01 0.26489305127E+01 0.27890156053E+01 0.32071687857E+01
 0.38708225850E+01 0.46685495057E+01 0.54126383135E+01 0.59211748087E+01 0.60958215078E+01
 0.59211620603E+01 0.54126414278E+01 0.35840500018E+01 0.32036210436E+01 0.29301459351E+01
 0.27890162182E+01 0.27890156053E+01 0.29301363574E+01 0.32036164607E+01 0.35840663908E+01
 0.40082812826E+01 0.43740544797E+01 0.45830600656E+01 0.45830674939E+01 0.43740655334E+01
 0.40082729010E+01 0.32181720045E+01 0.32036112857E+01 0.32071640057E+01 0.32102223337E+01
 0.32071687857E+01 0.32036164607E+01 0.32181607757E+01 0.32690137834E+01 0.33460615783E+01
 0.34128283746E+01 0.34383561497E+01 0.34128233568E+01 0.33460555130E+01 0.32690232176E+01
 0.35840597836E+01 0.38708200335E+01 0.40414620286E+01 0.40414624155E+01 0.38708225850E+01
 0.35840663908E+01 0.32690137834E+01 0.30010265998E+01 0.28146205133E+01 0.27190362606E+01
 0.27190324783E+01 0.28146225217E+01 0.30010350594E+01 0.32690120097E+01 0.46685536791E+01
 0.51571099986E+01 0.53368426470E+01 0.51571079606E+01 0.46685495057E+01 0.40082812826E+01
 0.33460615783E+01 0.28146205133E+01 0.24814501379E+01 0.23689489510E+01 0.24814558311E+01
 0.28146225760E+01 0.33460545167E+01 0.40082766137E+01 0.62733578563E+01 0.67312858568E+01
 0.67312971849E+01 0.62733737042E+01 0.54126383135E+01 0.43740544797E+01 0.34128283746E+01
 0.27190362606E+01 0.23689489510E+01 0.23689494599E+01 0.27190301779E+01 0.34128258947E+01
 0.43740673598E+01 0.54126425621E+01 0.74176764519E+01 0.74637445111E+01 0.74176583029E+01
 0.69965755892E+01 0.59211748087E+01 0.45830600656E+01 0.34383561497E+01 0.27190324783E+01
 0.24814558311E+01 0.27190301779E+01 0.34383660197E+01 0.45830597544E+01 0.59211598261E+01
 0.69965769997E+01 0.65313328212E+01 0.65313594117E+01 0.71570215224E+01 0.72171326011E+01
 0.60958215078E+01 0.45830674939E+01 0.34128233568E+01 0.28146225217E+01 0.28146225760E+01
 0.34128258947E+01 0.45830597544E+01 0.60958285003E+01 0.72171585321E+01 0.71570036473E+01
 0.41480860888E+01 0.51391014562E+01 0.68576940963E+01 0.72171568453E+01 0.59211620603E+01
 0.43740655334E+01 0.33460555130E+01 0.30010350594E+01 0.33460545167E+01 0.43740673598E+01
 0.59211598261E+01 0.72171585321E+01 0.68576905635E+01 0.51391006284E+01 0.28475918576E+01
 0.51390816827E+01 0.71569959014E+01 0.69965955808E+01 0.54126414278E+01 0.40082729010E+01
 0.32690232176E+01 0.32690120097E+01 0.40082766137E+01 0.54126425621E+01 0.69965769997E+01
 0.71570036473E+01 0.51391006284E+01 0.28475982626E+01 0.72190464694E+01 0.73504182024E+01
 0.62733613536E+01 0.47789500387E+01 0.36137291404E+01 0.30161451950E+01 0.30161421732E+01
 0.36137275761E+01 0.47789608647E+01 0.62733714877E+01 0.73504203430E+01 0.72190178970E+01
 0.65313310196E+01 0.65313609670E+01 0.73504182024E+01 0.65228565371E+01 0.51571004664E+01
 0.39247071733E+01 0.31358673157E+01 0.28741827921E+01 0.31358704691E+01 0.39246961070E+01
 0.51571088315E+01 0.65228699212E+01 0.73504059400E+01 0.73336596566E+01 0.71570022201E+01
 0.73336927259E+01 0.62733613536E+01 0.51571004664E+01 0.40414642321E+01 0.32102229833E+01
 0.27890127368E+01 0.27890166632E+01 0.32102224506E+01 0.40414621466E+01 0.51571086892E+01
 0.62733730657E+01 0.69965766607E+01 0.72171332287E+01 0.72171594410E+01 0.69965970102E+01
 0.47789500387E+01 0.39247071733E+01 0.32102229833E+01 0.27604209619E+01 0.26101904557E+01
 0.27604114652E+01 0.32102216230E+01 0.39246941979E+01 0.47789532598E+01 0.55668847006E+01
 0.60958187574E+01 0.62713770244E+01 0.60958275182E+01 0.55668606413E+01 0.36137291404E+01
 0.31358673157E+01 0.27890127368E+01 0.26101904557E+01 0.26101901936E+01 0.27890134115E+01
 0.31358742616E+01 0.36137303297E+01 0.41376965022E+01 0.45830652182E+01 0.48356479845E+01
 0.48356375315E+01 0.45830616390E+01 0.41377081957E+01 0.30161451950E+01 0.28741827921E+01
 0.27890166632E+01 0.27604114652E+01 0.27890134115E+01 0.28741703031E+01 0.30161425418E+01
 0.32075727989E+01 0.34128305479E+01 0.35712857445E+01 0.36304990265E+01 0.35712903519E+01
 0.34128246850E+01 0.32075586151E+01 0.30161421732E+01 0.31358704691E+01 0.32102224506E+01
 0.32102216230E+01 0.31358742616E+01 0.30161425418E+01 0.28975372021E+01 0.28146218359E+01
 0.27708651661E+01 0.27532270856E+01 0.27532260306E+01 0.27708607815E+01 0.28146237355E+01
 0.28975466826E+01 0.36137275761E+01 0.39246961070E+01 0.40414621466E+01 0.39246941979E+01
 0.36137303297E+01 0.32075727989E+01 0.28146218359E+01 0.25065125618E+01 0.23138591985E+01
 0.22483254924E+01 0.23138604733E+01 0.25065143387E+01 0.28146223364E+01 0.32075683998E+01
 0.47789608647E+01 0.51571088315E+01 0.51571086892E+01 0.47789532598E+01 0.41376965022E+01
 0.34128305479E+01 0.27708651661E+01 0.23138591985E+01 0.20813585305E+01 0.20813585378E+01
 0.23138599558E+01 0.27708604565E+01 0.34128232033E+01 0.41377020798E+01 0.62733714877E+01
 0.65228699212E+01 0.62733730657E+01 0.55668847006E+01 0.45830652182E+01 0.35712857445E+01
 0.27532270856E+01 0.22483254924E+01 0.20813585378E+01 0.22483246116E+01 0.27532258163E+01
 0.35712908986E+01 0.45830686916E+01 0.55668800624E+01 0.73504203430E+01 0.73504059400E+01
 0.69965766607E+01 0.60958187574E+01 0.48356479845E+01 0.36304990265E+01 0.27532260306E+01
 0.23138604733E+01 0.23138599558E+01 0.27532258163E+01 0.36304922500E+01 0.48356367959E+01
 0.60958204755E+01 0.69965968907E+01 0.72190178970E+01 0.73336596566E+01 0.72171332287E+01
 0.62713770244E+01 0.48356375315E+01 0.35712903519E+01 0.27708607815E+01 0.25065143387E+01
 0.27708604565E+01 0.35712908986E+01 0.48356367959E+01 0.62713784427E+01 0.72171348098E+01
 0.73336622561E+01 0.65313310196E+01 0.71570022201E+01 0.72171594410E+01 0.60958275182E+01
 0.45830616390E+01 0.34128246850E+01 0.28146237355E+01 0.28146223364E+01 0.34128232033E+01
 0.45830686916E+01 0.60958204755E+01 0.72171348098E+01 0.71570205567E+01 0.65313598096E+01
 0.65313609670E+01 0.73336927259E+01 0.69965970102E+01 0.55668606413E+01 0.41377081957E+01
 0.32075586151E+01 0.28975466826E+01 0.32075683998E+01 0.41377020798E+01 0.55668800624E+01
 0.69965968907E+01 0.73336622561E+01 0.65313598096E+01 0.59688591925E+01 0.69103790354E+01
 0.58953534920E+01 0.46685657304E+01 0.36137292984E+01 0.29475213425E+01 0.27265591611E+01
 0.29475231358E+01 0.36137278941E+01 0.46685486066E+01 0.58953482934E+01 0.69104070631E+01
 0.73504206830E+01 0.74176750204E+01 0.73504130950E+01 0.58953534920E+01 0.48674039346E+01
 0.38708181572E+01 0.31358694471E+01 0.27629728010E+01 0.27629746279E+01 0.31358743336E+01
 0.38708178312E+01 0.48673845687E+01 0.58953467419E+01 0.66646274573E+01 0.69965966099E+01
 0.69965779320E+01 0.66645995493E+01 0.46685657304E+01 0.38708181572E+01 0.32071527192E+01
 0.27890147431E+01 0.26489298261E+01 0.27890165400E+01 0.32071685773E+01 0.38708226182E+01
 0.46685502053E+01 0.54126375935E+01 0.59211761635E+01 0.60958209495E+01 0.59211628192E+01
 0.54126400709E+01 0.36137292984E+01 0.31358694471E+01 0.27890147431E+01 0.26101914554E+01
 0.26101898189E+01 0.27890138588E+01 0.31358739157E+01 0.36137306130E+01 0.41376964720E+01
 0.45830651748E+01 0.48356483295E+01 0.48356364463E+01 0.45830598804E+01 0.41377054626E+01
 0.29475213425E+01 0.27629728010E+01 0.26489298261E+01 0.26101898189E+01 0.26489390919E+01
 0.27629737844E+01 0.29475267290E+01 0.31874109516E+01 0.34383526572E+01 0.36304931252E+01
 0.37023075342E+01 0.36304924897E+01 0.34383674147E+01 0.31874116248E+01 0.27265591611E+01
 0.27629746279E+01 0.27890165400E+01 0.27890138588E+01 0.27629737844E+01 0.27265577575E+01
 0.27063822115E+01 0.27190359092E+01 0.27532273920E+01 0.27806558335E+01 0.27806593059E+01
 0.27532256928E+01 0.27190293997E+01 0.27063841150E+01 0.29475231358E+01 0.31358743336E+01
 0.32071685773E+01 0.31358739157E+01 0.29475267290E+01 0.27063822115E+01 0.24814499795E+01
 0.23138581924E+01 0.22141678154E+01 0.21812274002E+01 0.22141652612E+01 0.23138598315E+01
 0.24814565200E+01 0.27063821332E+01 0.36137278941E+01 0.38708178312E+01 0.38708226182E+01
 0.36137306130E+01 0.31874109516E+01 0.27190359092E+01 0.23138581924E+01 0.20281144790E+01
 0.18822971962E+01 0.18822962097E+01 0.20281169615E+01 0.23138607005E+01 0.27190324911E+01
 0.31874105627E+01 0.46685486066E+01 0.48673845687E+01 0.46685502053E+01 0.41376964720E+01
 0.34383526572E+01 0.27532273920E+01 0.22141678154E+01 0.18822971962E+01 0.17716862880E+01
 0.18822969867E+01 0.22141652989E+01 0.27532256245E+01 0.34383558824E+01 0.41376985138E+01
 0.58953482934E+01 0.58953467419E+01 0.54126375935E+01 0.45830651748E+01 0.36304931252E+01
 0.27806558335E+01 0.21812274002E+01 0.18822962097E+01 0.18822969867E+01 0.21812275709E+01
 0.27806592769E+01 0.36304993876E+01 0.45830610332E+01 0.54126327909E+01 0.69104070631E+01
 0.66646274573E+01 0.59211761635E+01 0.48356483295E+01 0.37023075342E+01 0.27806593059E+01
 0.22141652612E+01 0.20281169615E+01 0.22141652989E+01 0.27806592769E+01 0.37023076243E+01
 0.48356475568E+01 0.59211740647E+01 0.66646251451E+01 0.73504206830E+01 0.69965966099E+01
 0.60958209495E+01 0.48356364463E+01 0.36304924897E+01 0.27532256928E+01 0.23138598315E+01
 0.23138607005E+01 0.27532256245E+01 0.36304993876E+01 0.48356475568E+01 0.60958189692E+01
 0.69965765650E+01 0.73504058937E+01 0.74176750204E+01 0.69965779320E+01 0.59211628192E+01
 0.45830598804E+01 0.34383674147E+01 0.27190293997E+01 0.24814565200E+01 0.27190324911E+01
 0.34383558824E+01 0.45830610332E+01 0.59211740647E+01 0.69965765650E+01 0.74176556687E+01
 0.74637422749E+01 0.73504130950E+01 0.66645995493E+01 0.54126400709E+01 0.41377054626E+01
 0.31874116248E+01 0.27063841150E+01 0.27063821332E+01 0.31874105627E+01 0.41376985138E+01
 0.54126327909E+01 0.66646251451E+01 0.73504058937E+01 0.74637422749E+01 0.74637744834E+01
 0.52042983231E+01 0.43650412453E+01 0.35840501562E+01 0.30161469749E+01 0.27265607169E+01
 0.27265586630E+01 0.30161435711E+01 0.35840642238E+01 0.43650596764E+01 0.52042792243E+01
 0.58953497420E+01 0.62733732472E+01 0.62733579082E+01 0.58953565154E+01 0.43650412453E+01
 0.37263078070E+01 0.32036196911E+01 0.28741835603E+01 0.27629732395E+01 0.28741754564E+01
 0.32036149253E+01 0.37263221300E+01 0.43650541950E+01 0.49788474087E+01 0.54126335737E+01
 0.55668782241E+01 0.54126419673E+01 0.49788642508E+01 0.35840501562E+01 0.32036196911E+01
 0.29301434539E+01 0.27890166554E+01 0.27890145391E+01 0.29301371960E+01 0.32036159153E+01
 0.35840664200E+01 0.40082816412E+01 0.43740536267E+01 0.45830610224E+01 0.45830670030E+01
 0.43740681565E+01 0.40082742923E+01 0.30161469749E+01 0.28741835603E+01 0.27890166554E+01
 0.27604112586E+01 0.27890126837E+01 0.28741706581E+01 0.30161418728E+01 0.32075730755E+01
 0.34128301676E+01 0.35712855609E+01 0.36304989482E+01 0.35712893278E+01 0.34128247682E+01
 0.32075586296E+01 0.27265607169E+01 0.27629732395E+01 0.27890145391E+01 0.27890126837E+01
 0.27629734708E+01 0.27265576948E+01 0.27063819244E+01 0.27190359426E+01 0.27532270904E+01
 0.27806557328E+01 0.27806588879E+01 0.27532257201E+01 0.27190311651E+01 0.27063867810E+01
 0.27265586630E+01 0.28741754564E+01 0.29301371960E+01 0.28741706581E+01 0.27265576948E+01
 0.25392363232E+01 0.23689502176E+01 0.22483272898E+01 0.21812278483E+01 0.21601392812E+01
 0.21812275894E+01 0.22483244943E+01 0.23689486613E+01 0.25392343674E+01 0.30161435711E+01
 0.32036149253E+01 0.32036159153E+01 0.30161418728E+01 0.27063819244E+01 0.23689502176E+01
 0.20813575914E+01 0.18822962927E+01 0.17822776448E+01 0.17822772789E+01 0.18822966926E+01
 0.20813581639E+01 0.23689493537E+01 0.27063839420E+01 0.35840642238E+01 0.37263221300E+01
 0.35840664200E+01 0.32075730755E+01 0.27190359426E+01 0.22483272898E+01 0.18822962927E+01
 0.16577063129E+01 0.15827394897E+01 0.16577075283E+01 0.18822962677E+01 0.22483258076E+01
 0.27190363405E+01 0.32075728330E+01 0.43650596764E+01 0.43650541950E+01 0.40082816412E+01
 0.34128301676E+01 0.27532270904E+01 0.21812278483E+01 0.17822776448E+01 0.15827394897E+01
 0.15827397039E+01 0.17822772928E+01 0.21812271598E+01 0.27532264469E+01 0.34128278580E+01
 0.40082853341E+01 0.52042792243E+01 0.49788474087E+01 0.43740536267E+01 0.35712855609E+01
 0.27806557328E+01 0.21601392812E+01 0.17822772789E+01 0.16577075283E+01 0.17822772928E+01
 0.21601392250E+01 0.27806557597E+01 0.35712860815E+01 0.43740553893E+01 0.49788492188E+01
 0.58953497420E+01 0.54126335737E+01 0.45830610224E+01 0.36304989482E+01 0.27806588879E+01
 0.21812275894E+01 0.18822966926E+01 0.18822962677E+01 0.21812271598E+01 0.27806557597E+01
 0.36304928923E+01 0.45830645174E+01 0.54126373123E+01 0.58953470531E+01 0.62733732472E+01
 0.55668782241E+01 0.45830670030E+01 0.35712893278E+01 0.27532257201E+01 0.22483244943E+01
 0.20813581639E+01 0.22483258076E+01 0.27532264469E+01 0.35712860815E+01 0.45830645174E+01
 0.55668850236E+01 0.62733748043E+01 0.65228724724E+01 0.62733579082E+01 0.54126419673E+01
 0.43740681565E+01 0.34128247682E+01 0.27190311651E+01 0.23689486613E+01 0.23689493537E+01
 0.27190363405E+01 0.34128278580E+01 0.43740553893E+01 0.54126373123E+01 0.62733748043E+01
 0.67312964643E+01 0.67312862873E+01 0.58953565154E+01 0.49788642508E+01 0.40082742923E+01
 0.32075586296E+01 0.27063867810E+01 0.25392343674E+01 0.27063839420E+01 0.32075728330E+01
 0.40082853341E+01 0.49788492188E+01 0.58953470531E+01 0.65228724724E+01 0.67312862873E+01
 0.65228589021E+01 0.39522477588E+01 0.35420656527E+01 0.32181696385E+01 0.30161414889E+01
 0.29475222414E+01 0.30161411814E+01 0.32181608205E+01 0.35420522060E+01 0.39522638640E+01
 0.43650573272E+01 0.46685477294E+01 0.47789602523E+01 0.46685513441E+01 0.43650452881E+01
 0.35420656527E+01 0.33392423156E+01 0.32036098671E+01 0.31358711880E+01 0.31358729109E+01
 0.32036149470E+01 0.33392272357E+01 0.35420525272E+01 0.37865241381E+01 0.40082836145E+01
 0.41376994183E+01 0.41377003586E+01 0.40082761425E+01 0.37865104144E+01 0.32181696385E+01
 0.32036098671E+01 0.32071632405E+01 0.32102241443E+01 0.32071682844E+01 0.32036176491E+01
 0.32181604997E+01 0.32690141264E+01 0.33460622291E+01 0.34128279263E+01 0.34383577292E+01
 0.34128233893E+01 0.33460571912E+01 0.32690217101E+01 0.30161414889E+01 0.31358711880E+01
 0.32102241443E+01 0.32102227434E+01 0.31358740670E+01 0.30161432062E+01 0.28975367779E+01
 0.28146223879E+01 0.27708650359E+01 0.27532272802E+01 0.27532265662E+01 0.27708603290E+01
 0.28146229394E+01 0.28975438848E+01 0.29475222414E+01 0.31358729109E+01 0.32071682844E+01
 0.31358740670E+01 0.29475269429E+01 0.27063824427E+01 0.24814499235E+01 0.23138584825E+01
 0.22141677525E+01 0.21812276697E+01 0.22141654565E+01 0.23138604393E+01 0.24814574169E+01
 0.27063820059E+01 0.30161411814E+01 0.32036149470E+01 0.32036176491E+01 0.30161432062E+01
 0.27063824427E+01 0.23689505070E+01 0.20813578195E+01 0.18822965368E+01 0.17822778546E+01
 0.17822775950E+01 0.18822972539E+01 0.20813587086E+01 0.23689484921E+01 0.27063811927E+01
 0.32181608205E+01 0.33392272357E+01 0.32181604997E+01 0.28975367779E+01 0.24814499235E+01
 0.20813578195E+01 0.17716858754E+01 0.15827395332E+01 0.15199023129E+01 0.15827399061E+01
 0.17716861956E+01 0.20813583633E+01 0.24814507679E+01 0.28975367598E+01 0.35420522060E+01
 0.35420525272E+01 0.32690141264E+01 0.28146223879E+01 0.23138584825E+01 0.18822965368E+01
 0.15827395332E+01 0.14331950184E+01 0.14331947490E+01 0.15827397367E+01 0.18822974772E+01
 0.23138597428E+01 0.28146208400E+01 0.32690114646E+01 0.39522638640E+01 0.37865241381E+01
 0.33460622291E+01 0.27708650359E+01 0.22141677525E+01 0.17822778546E+01 0.15199023129E+01
 0.14331947490E+01 0.15199023143E+01 0.17822778694E+01 0.22141677580E+01 0.27708647266E+01
 0.33460612674E+01 0.37865231245E+01 0.43650573272E+01 0.40082836145E+01 0.34128279263E+01
 0.27532272802E+01 0.21812276697E+01 0.17822775950E+01 0.15827399061E+01 0.15827397367E+01
 0.17822778694E+01 0.21812281206E+01 0.27532276144E+01 0.34128311835E+01 0.40082824612E+01
 0.43650532438E+01 0.46685477294E+01 0.41376994183E+01 0.34383577292E+01 0.27532265662E+01
 0.22141654565E+01 0.18822972539E+01 0.17716861956E+01 0.18822974772E+01 0.22141677580E+01
 0.27532276144E+01 0.34383529012E+01 0.41376962935E+01 0.46685489841E+01 0.48673821304E+01
 0.47789602523E+01 0.41377003586E+01 0.34128233893E+01 0.27708603290E+01 0.23138604393E+01
 0.20813587086E+01 0.20813583633E+01 0.23138597428E+01 0.27708647266E+01 0.34128311835E+01
 0.41376962935E+01 0.47789540242E+01 0.51571094476E+01 0.51571085651E+01 0.46685513441E+01
 0.40082761425E+01 0.33460571912E+01 0.28146229394E+01 0.24814574169E+01 0.23689484921E+01
 0.24814507679E+01 0.28146208400E+01 0.33460612674E+01 0.40082824612E+01 0.46685489841E+01
 0.51571094476E+01 0.53368409242E+01 0.51571075730E+01 0.43650452881E+01 0.37865104144E+01
 0.32690217101E+01 0.28975438848E+01 0.27063820059E+01 0.27063811927E+01 0.28975367598E+01
 0.32690114646E+01 0.37865231245E+01 0.43650532438E+01 0.48673821304E+01 0.51571085651E+01
 0.51571075730E+01 0.48673898264E+01 0.35215629946E+01 0.35420558037E+01 0.35840605497E+01
 0.36137299932E+01 0.36137300341E+01 0.35840648596E+01 0.35420552047E+01 0.35215532585E+01
 0.35420552047E+01 0.35840648596E+01 0.36137300341E+01 0.36137299932E+01 0.35840605497E+01
 0.35420558037E+01 0.35420558037E+01 0.37263189468E+01 0.38708198874E+01 0.39246980722E+01
 0.38708176024E+01 0.37263233365E+01 0.35420536739E+01 0.33793465224E+01 0.32690135941E+01
 0.32075722092E+01 0.31874125621E+01 0.32075677762E+01 0.32690127015E+01 0.33793589616E+01
 0.35840605497E+01 0.38708198874E+01 0.40414603780E+01 0.40414629474E+01 0.38708214063E+01
 0.35840672129E+01 0.32690131454E+01 0.30010266449E+01 0.28146207882E+01 0.27190353861E+01
 0.27190332845E+01 0.28146214514E+01 0.30010366796E+01 0.32690127015E+01 0.36137299932E+01
 0.39246980722E+01 0.40414629474E+01 0.39246940318E+01 0.36137294793E+01 0.32075731136E+01
 0.28146210839E+01 0.25065128444E+01 0.23138587134E+01 0.22483252797E+01 0.23138602279E+01
 0.25065127785E+01 0.28146214514E+01 0.32075677762E+01 0.36137300341E+01 0.38708176024E+01
 0.38708214063E+01 0.36137294793E+01 0.31874105251E+01 0.27190358019E+01 0.23138578196E+01
 0.20281145123E+01 0.18822968110E+01 0.18822961193E+01 0.20281164247E+01 0.23138602279E+01
 0.27190332845E+01 0.31874125621E+01 0.35840648596E+01 0.37263233365E+01 0.35840672129E+01
 0.32075731136E+01 0.27190358019E+01 0.22483272369E+01 0.18822962028E+01 0.16577063058E+01
 0.15827393945E+01 0.16577074953E+01 0.18822961193E+01 0.22483252797E+01 0.27190353861E+01
 0.32075722092E+01 0.35420552047E+01 0.35420536739E+01 0.32690131454E+01 0.28146210839E+01
 0.23138578196E+01 0.18822962028E+01 0.15827392073E+01 0.14331947519E+01 0.14331944381E+01
 0.15827393945E+01 0.18822968110E+01 0.23138587134E+01 0.28146207882E+01 0.32690135941E+01
 0.35215532585E+01 0.33793465224E+01 0.30010266449E+01 0.25065128444E+01 0.20281145123E+01
 0.16577063058E+01 0.14331947519E+01 0.13590937313E+01 0.14331947519E+01 0.16577063058E+01
 0.20281145123E+01 0.25065128444E+01 0.30010266449E+01 0.33793465224E+01 0.35420552047E+01
 0.32690135941E+01 0.28146207882E+01 0.23138587134E+01 0.18822968110E+01 0.15827393945E+01
 0.14331944381E+01 0.14331947519E+01 0.15827392073E+01 0.18822962028E+01 0.23138578196E+01
 0.28146210839E+01 0.32690131454E+01 0.35420536739E+01 0.35840648596E+01 0.32075722092E+01
 0.27190353861E+01 0.22483252797E+01 0.18822961193E+01 0.16577074953E+01 0.15827393945E+01
 0.16577063058E+01 0.18822962028E+01 0.22483272369E+01 0.27190358019E+01 0.32075731136E+01
 0.35840672129E+01 0.37263233365E+01 0.36137300341E+01 0.31874125621E+01 0.27190332845E+01
 0.23138602279E+01 0.20281164247E+01 0.18822961193E+01 0.18822968110E+01 0.20281145123E+01
 0.23138578196E+01 0.27190358019E+01 0.31874105251E+01 0.36137294793E+01 0.38708214063E+01
 0.38708176024E+01 0.36137299932E+01 0.32075677762E+01 0.28146214514E+01 0.25065127785E+01
 0.23138602279E+01 0.22483252797E+01 0.23138587134E+01 0.25065128444E+01 0.28146210839E+01
 0.32075731136E+01 0.36137294793E+01 0.39246940318E+01 0.40414629474E+01 0.39246980722E+01
 0.35840605497E+01 0.32690127015E+01 0.30010366796E+01 0.28146214514E+01 0.27190332845E+01
 0.27190353861E+01 0.28146207882E+01 0.30010266449E+01 0.32690131454E+01 0.35840672129E+01
 0.38708214063E+01 0.40414629474E+01 0.40414603780E+01 0.38708198874E+01 0.35420558037E+01
 0.33793589616E+01 0.32690127015E+01 0.32075677762E+01 0.31874125621E+01 0.32075722092E+01
 0.32690135941E+01 0.33793465224E+01 0.35420536739E+01 0.37263233365E+01 0.38708176024E+01
 0.39246980722E+01 0.38708198874E+01 0.37263189468E+01 0.39522477588E+01 0.43650452881E+01
 0.46685513441E+01 0.47789602523E+01 0.46685477294E+01 0.43650573272E+01 0.39522638640E+01
 0.35420522060E+01 0.32181608205E+01 0.30161411814E+01 0.29475222414E+01 0.30161414889E+01
 0.32181696385E+01 0.35420656527E+01 0.43650452881E+01 0.48673898264E+01 0.51571075730E+01
 0.51571085651E+01 0.48673821304E+01 0.43650532438E+01 0.37865231245E+01 0.32690114646E+01
 0.28975367598E+01 0.27063811927E+01 0.27063820059E+01 0.28975438848E+01 0.32690217101E+01
 0.37865104144E+01 0.46685513441E+01 0.51571075730E+01 0.53368409242E+01 0.51571094476E+01
 0.46685489841E+01 0.40082824612E+01 0.33460612674E+01 0.28146208400E+01 0.24814507679E+01
 0.23689484921E+01 0.24814574169E+01 0.28146229394E+01 0.33460571912E+01 0.40082761425E+01
 0.47789602523E+01 0.51571085651E+01 0.51571094476E+01 0.47789540242E+01 0.41376962935E+01
 0.34128311835E+01 0.27708647266E+01 0.23138597428E+01 0.20813583633E+01 0.20813587086E+01
 0.23138604393E+01 0.27708603290E+01 0.34128233893E+01 0.41377003586E+01 0.46685477294E+01
 0.48673821304E+01 0.46685489841E+01 0.41376962935E+01 0.34383529012E+01 0.27532276144E+01