   1   1   0   0
  0.3125000E+02  0.3535534E-09  0.3535534E-09  0.3535534E-09  0.5000000E-15
  1.000000000000000E-004
  CAR 
 fcc Si                                  
     26.95690742     -8.14532060  301      2.55683135      1.00000000
     -8.145  0.0000E+00  0.0000E+00
     -8.028  0.0000E+00  0.0000E+00
     -7.911  0.0000E+00  0.0000E+00
     -7.794  0.0000E+00  0.0000E+00
     -7.677  0.0000E+00  0.0000E+00
     -7.560  0.0000E+00  0.0000E+00
     -7.443  0.0000E+00  0.0000E+00
     -7.326  0.0000E+00  0.0000E+00
     -7.209  0.0000E+00  0.0000E+00
     -7.092  0.1091E-15  0.1276E-16
     -6.975  0.1139E-10  0.1333E-11
     -6.858  0.8259E-07  0.9665E-08
     -6.741  0.4373E-04  0.5127E-05
     -6.624  0.2062E-02  0.2464E-03
     -6.507  0.2132E-01  0.2741E-02
     -6.390  0.9209E-01  0.1352E-01
     -6.273  0.9859E-01  0.2505E-01
     -6.156  0.1465E+00  0.4219E-01
     -6.039  0.2603E+00  0.7265E-01
     -5.922  0.1481E+00  0.8998E-01
     -5.805  0.1414E+00  0.1065E+00
     -5.688  0.3616E+00  0.1488E+00
     -5.571  0.2832E+00  0.1820E+00
     -5.454  0.2984E+00  0.2169E+00
     -5.337  0.2723E+00  0.2487E+00
     -5.220  0.1582E+00  0.2673E+00
     -5.103  0.4596E+00  0.3210E+00
     -4.986  0.5350E+00  0.3836E+00
     -4.869  0.3224E+00  0.4214E+00
     -4.752  0.4320E+00  0.4719E+00
     -4.635  0.2744E+00  0.5040E+00
     -4.518  0.3090E+00  0.5402E+00
     -4.401  0.6519E+00  0.6164E+00
     -4.284  0.7029E+00  0.6987E+00
     -4.167  0.6236E+00  0.7716E+00
     -4.050  0.4092E+00  0.8195E+00
     -3.933  0.4876E+00  0.8766E+00
     -3.816  0.5912E+00  0.9457E+00
     -3.699  0.1190E+01  0.1085E+01
     -3.582  0.9473E+00  0.1196E+01
     -3.465  0.7544E+00  0.1284E+01
     -3.348  0.6482E+00  0.1360E+01
     -3.231  0.6576E+00  0.1437E+01
     -3.114  0.1150E+01  0.1572E+01
     -2.997  0.6368E+00  0.1646E+01
     -2.880  0.7407E+00  0.1733E+01
     -2.763  0.1006E+01  0.1850E+01
     -2.646  0.7785E+00  0.1941E+01
     -2.529  0.4384E+00  0.1993E+01
     -2.412  0.6069E-01  0.2000E+01
     -2.295  0.9661E-03  0.2000E+01
     -2.178  0.1300E-05  0.2000E+01
     -2.061  0.1305E-09  0.2000E+01
     -1.944  0.9239E-15  0.2000E+01
     -1.827  0.0000E+00  0.2000E+01
     -1.710  0.0000E+00  0.2000E+01
     -1.593  0.0000E+00  0.2000E+01
     -1.476  0.0000E+00  0.2000E+01
     -1.359  0.0000E+00  0.2000E+01
     -1.242  0.0000E+00  0.2000E+01
     -1.125  0.0000E+00  0.2000E+01
     -1.008  0.0000E+00  0.2000E+01
     -0.891  0.7186E-15  0.2000E+01
     -0.774  0.9805E-10  0.2000E+01
     -0.657  0.9300E-06  0.2000E+01
     -0.540  0.6434E-03  0.2000E+01
     -0.423  0.3641E-01  0.2004E+01
     -0.306  0.2085E+00  0.2029E+01
     -0.189  0.1525E+00  0.2047E+01
     -0.072  0.9666E-01  0.2058E+01
      0.045  0.5004E+00  0.2116E+01
      0.162  0.5331E+00  0.2179E+01
      0.279  0.2989E+00  0.2214E+01
      0.396  0.5436E+00  0.2277E+01
      0.513  0.5371E+00  0.2340E+01
      0.630  0.8231E+00  0.2437E+01
      0.747  0.1249E+01  0.2583E+01
      0.864  0.1000E+01  0.2700E+01
      0.981  0.9894E+00  0.2816E+01
      1.098  0.1247E+01  0.2961E+01
      1.215  0.1248E+01  0.3107E+01
      1.332  0.5406E+00  0.3171E+01
      1.449  0.6714E+00  0.3249E+01
      1.566  0.7503E+00  0.3337E+01
      1.683  0.4631E+00  0.3391E+01
      1.800  0.7009E+00  0.3473E+01
      1.917  0.8400E+00  0.3572E+01
      2.034  0.5343E+00  0.3634E+01
      2.151  0.5274E+00  0.3696E+01
      2.268  0.9861E+00  0.3811E+01
      2.385  0.8122E+00  0.3906E+01
      2.502  0.5763E+00  0.3974E+01
      2.619  0.5113E+00  0.4033E+01
      2.736  0.7478E+00  0.4121E+01
      2.853  0.9368E+00  0.4231E+01
      2.970  0.8338E+00  0.4328E+01
      3.087  0.7823E+00  0.4420E+01
      3.204  0.7014E+00  0.4502E+01
      3.321  0.8071E+00  0.4596E+01
      3.438  0.7390E+00  0.4683E+01
      3.555  0.4844E+00  0.4739E+01
      3.672  0.6762E+00  0.4818E+01
      3.789  0.1657E+01  0.5012E+01
      3.906  0.1355E+01  0.5171E+01
      4.023  0.6484E+00  0.5247E+01
      4.140  0.5750E+00  0.5314E+01
      4.257  0.1170E+01  0.5451E+01
      4.374  0.1580E+01  0.5636E+01
      4.491  0.1586E+01  0.5821E+01
      4.608  0.7843E+00  0.5913E+01
      4.725  0.1119E+01  0.6044E+01
      4.843  0.1315E+01  0.6198E+01
      4.960  0.1134E+01  0.6331E+01
      5.077  0.5452E+00  0.6394E+01
      5.194  0.7239E+00  0.6479E+01
      5.311  0.1534E+01  0.6658E+01
      5.428  0.1343E+01  0.6816E+01
      5.545  0.1269E+01  0.6964E+01
      5.662  0.8056E+00  0.7058E+01
      5.779  0.9547E+00  0.7170E+01
      5.896  0.1194E+01  0.7310E+01
      6.013  0.6915E+00  0.7391E+01
      6.130  0.5814E+00  0.7459E+01
      6.247  0.1186E+01  0.7597E+01
      6.364  0.9096E+00  0.7704E+01
      6.481  0.4892E+00  0.7761E+01
      6.598  0.6594E+00  0.7838E+01
      6.715  0.4773E+00  0.7894E+01
      6.832  0.2780E+00  0.7927E+01
      6.949  0.2695E+00  0.7958E+01
      7.066  0.2453E+00  0.7987E+01
      7.183  0.1032E+00  0.7999E+01
      7.300  0.9047E-02  0.8000E+01
      7.417  0.1029E-01  0.8001E+01
      7.534  0.5258E-01  0.8007E+01
      7.651  0.9351E-01  0.8018E+01
      7.768  0.7491E-01  0.8027E+01
      7.885  0.1196E+00  0.8041E+01
      8.002  0.3369E+00  0.8080E+01
      8.119  0.2303E+00  0.8107E+01
      8.236  0.1041E+00  0.8120E+01
      8.353  0.1635E+00  0.8139E+01
      8.470  0.3149E+00  0.8176E+01
      8.587  0.3534E+00  0.8217E+01
      8.704  0.4774E+00  0.8273E+01
      8.821  0.6866E+00  0.8353E+01
      8.938  0.6082E+00  0.8424E+01
      9.055  0.7573E+00  0.8513E+01
      9.172  0.5163E+00  0.8573E+01
      9.289  0.5729E+00  0.8640E+01
      9.406  0.4467E+00  0.8693E+01
      9.523  0.4421E+00  0.8744E+01
      9.640  0.5840E+00  0.8813E+01
      9.757  0.1093E+01  0.8941E+01
      9.874  0.9863E+00  0.9056E+01
      9.991  0.8225E+00  0.9152E+01
     10.108  0.5967E+00  0.9222E+01
     10.225  0.5162E+00  0.9282E+01
     10.342  0.4835E+00  0.9339E+01
     10.459  0.1202E+01  0.9480E+01
     10.576  0.1950E+01  0.9708E+01
     10.693  0.1825E+01  0.9921E+01
     10.810  0.1125E+01  0.1005E+02
     10.927  0.1217E+01  0.1020E+02
     11.044  0.1216E+01  0.1034E+02
     11.161  0.1043E+01  0.1046E+02
     11.278  0.8514E+00  0.1056E+02
     11.395  0.9681E+00  0.1067E+02
     11.512  0.9926E+00  0.1079E+02
     11.629  0.7113E+00  0.1087E+02
     11.746  0.7844E+00  0.1096E+02
     11.863  0.7592E+00  0.1105E+02
     11.980  0.8679E+00  0.1115E+02
     12.097  0.1155E+01  0.1129E+02
     12.214  0.2198E+01  0.1155E+02
     12.331  0.1787E+01  0.1176E+02
     12.448  0.1123E+01  0.1189E+02
     12.565  0.1149E+01  0.1202E+02
     12.682  0.9885E+00  0.1214E+02
     12.799  0.7359E+00  0.1222E+02
     12.916  0.6514E+00  0.1230E+02
     13.033  0.9672E+00  0.1241E+02
     13.150  0.1445E+01  0.1258E+02
     13.267  0.1342E+01  0.1274E+02
     13.384  0.1022E+01  0.1286E+02
     13.501  0.9323E+00  0.1297E+02
     13.618  0.1415E+01  0.1313E+02
     13.735  0.1249E+01  0.1328E+02
     13.852  0.7696E+00  0.1337E+02
     13.969  0.4642E+00  0.1342E+02
     14.086  0.8175E+00  0.1352E+02
     14.203  0.1060E+01  0.1364E+02
     14.320  0.1021E+01  0.1376E+02
     14.437  0.1097E+01  0.1389E+02
     14.554  0.1389E+01  0.1405E+02
     14.671  0.1045E+01  0.1418E+02
     14.788  0.8112E+00  0.1427E+02
     14.905  0.1131E+01  0.1440E+02
     15.022  0.1367E+01  0.1456E+02
     15.139  0.7504E+00  0.1465E+02
     15.256  0.1120E+01  0.1478E+02
     15.373  0.1653E+01  0.1498E+02
     15.490  0.1186E+01  0.1511E+02
     15.607  0.9633E+00  0.1523E+02
     15.724  0.1851E+01  0.1544E+02
     15.841  0.2193E+01  0.1570E+02
     15.958  0.1657E+01  0.1589E+02
     16.075  0.6665E+00  0.1597E+02
     16.192  0.2214E+00  0.1600E+02
     16.309  0.3647E+00  0.1604E+02
     16.426  0.5946E+00  0.1611E+02
     16.543  0.6546E+00  0.1619E+02
     16.660  0.9814E+00  0.1630E+02
     16.777  0.1191E+01  0.1644E+02
     16.894  0.7445E+00  0.1653E+02
     17.011  0.8466E+00  0.1663E+02
     17.128  0.1335E+01  0.1678E+02
     17.245  0.1153E+01  0.1692E+02
     17.362  0.1102E+01  0.1705E+02
     17.479  0.1215E+01  0.1719E+02
     17.596  0.1064E+01  0.1731E+02
     17.713  0.7383E+00  0.1740E+02
     17.830  0.9658E+00  0.1751E+02
     17.947  0.6104E+00  0.1758E+02
     18.064  0.5732E+00  0.1765E+02
     18.181  0.1953E+01  0.1788E+02
     18.298  0.2835E+01  0.1821E+02
     18.415  0.1349E+01  0.1837E+02
     18.532  0.7536E+00  0.1846E+02
     18.649  0.7904E+00  0.1855E+02
     18.766  0.8237E+00  0.1865E+02
     18.883  0.7110E+00  0.1873E+02
     19.000  0.6278E+00  0.1880E+02
     19.117  0.5696E+00  0.1887E+02
     19.234  0.7037E+00  0.1895E+02
     19.351  0.9210E+00  0.1906E+02
     19.468  0.1626E+01  0.1925E+02
     19.585  0.1741E+01  0.1945E+02
     19.702  0.1348E+01  0.1961E+02
     19.819  0.1497E+01  0.1979E+02
     19.936  0.7553E+00  0.1988E+02
     20.053  0.3665E+00  0.1992E+02
     20.170  0.5825E+00  0.1999E+02
     20.287  0.3808E+00  0.2003E+02
     20.404  0.3607E+00  0.2007E+02
     20.521  0.8256E+00  0.2017E+02
     20.639  0.5246E+00  0.2023E+02
     20.756  0.4110E+00  0.2028E+02
     20.873  0.4607E+00  0.2033E+02
     20.990  0.5206E+00  0.2039E+02
     21.107  0.8986E+00  0.2050E+02
     21.224  0.9626E+00  0.2061E+02
     21.341  0.1247E+01  0.2076E+02
     21.458  0.1302E+01  0.2091E+02
     21.575  0.1477E+01  0.2108E+02
     21.692  0.1091E+01  0.2121E+02
     21.809  0.1143E+01  0.2134E+02
     21.926  0.1489E+01  0.2152E+02
     22.043  0.9368E+00  0.2163E+02
     22.160  0.2631E+00  0.2166E+02
     22.277  0.2566E+00  0.2169E+02
     22.394  0.1088E+01  0.2182E+02
     22.511  0.1561E+01  0.2200E+02
     22.628  0.1526E+01  0.2218E+02
     22.745  0.1534E+01  0.2236E+02
     22.862  0.5747E+00  0.2242E+02
     22.979  0.4845E+00  0.2248E+02
     23.096  0.9098E+00  0.2259E+02
     23.213  0.1078E+01  0.2271E+02
     23.330  0.9163E+00  0.2282E+02
     23.447  0.1367E+01  0.2298E+02
     23.564  0.1351E+01  0.2314E+02
     23.681  0.1317E+01  0.2329E+02
     23.798  0.1573E+01  0.2348E+02
     23.915  0.1028E+01  0.2360E+02
     24.032  0.6655E+00  0.2367E+02
     24.149  0.8596E+00  0.2378E+02
     24.266  0.7836E+00  0.2387E+02
     24.383  0.2499E+00  0.2390E+02
     24.500  0.9515E-01  0.2391E+02
     24.617  0.1798E+00  0.2393E+02
     24.734  0.4699E-01  0.2393E+02
     24.851  0.4815E-01  0.2394E+02
     24.968  0.2062E+00  0.2396E+02
     25.085  0.1684E+00  0.2398E+02
     25.202  0.3937E-01  0.2399E+02
     25.319  0.2822E-01  0.2399E+02
     25.436  0.5961E-01  0.2400E+02
     25.553  0.1467E-01  0.2400E+02
     25.670  0.3473E-03  0.2400E+02
     25.787  0.6605E-06  0.2400E+02
     25.904  0.9115E-10  0.2400E+02
     26.021  0.8669E-15  0.2400E+02
     26.138  0.0000E+00  0.2400E+02
     26.255  0.0000E+00  0.2400E+02
     26.372  0.0000E+00  0.2400E+02
     26.489  0.0000E+00  0.2400E+02
     26.606  0.0000E+00  0.2400E+02
     26.723  0.0000E+00  0.2400E+02
     26.840  0.0000E+00  0.2400E+02
     26.957  0.0000E+00  0.2400E+02
