   1   1   0   0
  0.1987675E+02  0.3040559E-09  0.3040559E-09  0.3040559E-09  0.5000000E-15
  1.000000000000000E-004
  CAR 
 fcc So                                  
     37.81594070     -7.42598781  301      6.38218690      1.00000000
     -7.426  0.0000E+00  0.0000E+00
     -7.275  0.0000E+00  0.0000E+00
     -7.124  0.0000E+00  0.0000E+00
     -6.974  0.0000E+00  0.0000E+00
     -6.823  0.0000E+00  0.0000E+00
     -6.672  0.0000E+00  0.0000E+00
     -6.521  0.0000E+00  0.0000E+00
     -6.370  0.0000E+00  0.0000E+00
     -6.220  0.0000E+00  0.0000E+00
     -6.069  0.0000E+00  0.0000E+00
     -5.918  0.4370E-16  0.6590E-17
     -5.767  0.9369E-10  0.1413E-10
     -5.616  0.2407E-05  0.3630E-06
     -5.466  0.8700E-03  0.1316E-03
     -5.315  0.9174E-02  0.1515E-02
     -5.164  0.6054E-01  0.1064E-01
     -5.013  0.7534E-01  0.2201E-01
     -4.862  0.6232E-01  0.3140E-01
     -4.711  0.1292E+00  0.5089E-01
     -4.561  0.2145E+00  0.8324E-01
     -4.410  0.4775E-01  0.9044E-01
     -4.259  0.6539E-01  0.1003E+00
     -4.108  0.2747E+00  0.1417E+00
     -3.957  0.1943E+00  0.1710E+00
     -3.807  0.1686E+00  0.1965E+00
     -3.656  0.2223E+00  0.2300E+00
     -3.505  0.1552E+00  0.2534E+00
     -3.354  0.5836E-01  0.2622E+00
     -3.203  0.2024E+00  0.2927E+00
     -3.053  0.5249E+00  0.3719E+00
     -2.902  0.1588E+00  0.3958E+00
     -2.751  0.1999E+00  0.4260E+00
     -2.600  0.3026E+00  0.4716E+00
     -2.449  0.1751E+00  0.4980E+00
     -2.299  0.7444E-01  0.5092E+00
     -2.148  0.3309E+00  0.5592E+00
     -1.997  0.3807E+00  0.6166E+00
     -1.846  0.3075E+00  0.6629E+00
     -1.695  0.4667E+00  0.7333E+00
     -1.545  0.4049E+00  0.7944E+00
     -1.394  0.3778E-01  0.8001E+00
     -1.243  0.1701E+00  0.8257E+00
     -1.092  0.4520E+00  0.8939E+00
     -0.941  0.2169E+00  0.9266E+00
     -0.791  0.4131E+00  0.9889E+00
     -0.640  0.5611E+00  0.1074E+01
     -0.489  0.1529E+00  0.1097E+01
     -0.338  0.5849E+00  0.1185E+01
     -0.187  0.7095E+00  0.1292E+01
     -0.036  0.3232E+00  0.1341E+01
      0.114  0.7469E-01  0.1352E+01
      0.265  0.3905E+00  0.1411E+01
      0.416  0.2566E+00  0.1449E+01
      0.567  0.2566E+00  0.1488E+01
      0.718  0.7733E+00  0.1605E+01
      0.868  0.2080E+00  0.1636E+01
      1.019  0.2248E+00  0.1670E+01
      1.170  0.5090E+00  0.1747E+01
      1.321  0.2133E+00  0.1779E+01
      1.472  0.8785E-01  0.1792E+01
      1.622  0.5723E+00  0.1878E+01
      1.773  0.3637E+00  0.1933E+01
      1.924  0.2227E+00  0.1967E+01
      2.075  0.2179E+00  0.2000E+01
      2.226  0.4128E+00  0.2062E+01
      2.376  0.4219E+00  0.2126E+01
      2.527  0.3693E+00  0.2181E+01
      2.678  0.4746E+00  0.2253E+01
      2.829  0.1897E+00  0.2281E+01
      2.980  0.1084E-01  0.2283E+01
      3.130  0.1849E+00  0.2311E+01
      3.281  0.5216E+00  0.2390E+01
      3.432  0.6841E+00  0.2493E+01
      3.583  0.5070E+00  0.2569E+01
      3.734  0.7539E+00  0.2683E+01
      3.884  0.6819E+00  0.2786E+01
      4.035  0.2450E+00  0.2823E+01
      4.186  0.3983E+00  0.2883E+01
      4.337  0.3667E+00  0.2938E+01
      4.488  0.6084E+00  0.3030E+01
      4.639  0.7762E+00  0.3147E+01
      4.789  0.3025E+00  0.3193E+01
      4.940  0.3272E+00  0.3242E+01
      5.091  0.3629E+00  0.3297E+01
      5.242  0.5492E+00  0.3379E+01
      5.393  0.3165E+00  0.3427E+01
      5.543  0.5743E+00  0.3514E+01
      5.694  0.7864E+00  0.3632E+01
      5.845  0.3829E+00  0.3690E+01
      5.996  0.9200E+00  0.3829E+01
      6.147  0.3994E+00  0.3889E+01
      6.297  0.3368E+00  0.3940E+01
      6.448  0.7340E+00  0.4051E+01
      6.599  0.5194E+00  0.4129E+01
      6.750  0.3454E+00  0.4181E+01
      6.901  0.4112E+00  0.4243E+01
      7.051  0.3887E+00  0.4302E+01
      7.202  0.5684E+00  0.4387E+01
      7.353  0.5121E+00  0.4465E+01
      7.504  0.5130E+00  0.4542E+01
      7.655  0.7442E+00  0.4654E+01
      7.805  0.9072E+00  0.4791E+01
      7.956  0.6602E+00  0.4890E+01
      8.107  0.3574E+00  0.4944E+01
      8.258  0.1039E+01  0.5101E+01
      8.409  0.6644E+00  0.5201E+01
      8.559  0.6213E+00  0.5295E+01
      8.710  0.4789E+00  0.5367E+01
      8.861  0.4901E+00  0.5441E+01
      9.012  0.4641E+00  0.5511E+01
      9.163  0.3756E+00  0.5568E+01
      9.314  0.8911E+00  0.5702E+01
      9.464  0.1097E+01  0.5868E+01
      9.615  0.1242E+01  0.6055E+01
      9.766  0.8545E+00  0.6184E+01
      9.917  0.6342E+00  0.6280E+01
     10.068  0.2666E+00  0.6320E+01
     10.218  0.3658E+00  0.6375E+01
     10.369  0.6556E+00  0.6474E+01
     10.520  0.1639E+00  0.6499E+01
     10.671  0.5709E+00  0.6585E+01
     10.822  0.1062E+01  0.6745E+01
     10.972  0.7719E+00  0.6861E+01
     11.123  0.4988E+00  0.6936E+01
     11.274  0.3022E+00  0.6982E+01
     11.425  0.6211E+00  0.7076E+01
     11.576  0.7872E+00  0.7194E+01
     11.726  0.5983E+00  0.7285E+01
     11.877  0.4803E+00  0.7357E+01
     12.028  0.5694E+00  0.7443E+01
     12.179  0.5365E+00  0.7524E+01
     12.330  0.4290E+00  0.7589E+01
     12.480  0.6708E+00  0.7690E+01
     12.631  0.6095E+00  0.7782E+01
     12.782  0.4852E+00  0.7855E+01
     12.933  0.4992E+00  0.7930E+01
     13.084  0.4522E+00  0.7998E+01
     13.234  0.5517E+00  0.8081E+01
     13.385  0.6611E+00  0.8181E+01
     13.536  0.3399E+00  0.8232E+01
     13.687  0.4506E+00  0.8300E+01
     13.838  0.6314E+00  0.8396E+01
     13.989  0.6624E+00  0.8495E+01
     14.139  0.6750E+00  0.8597E+01
     14.290  0.6428E+00  0.8694E+01
     14.441  0.6891E+00  0.8798E+01
     14.592  0.4927E+00  0.8872E+01
     14.743  0.1740E+00  0.8899E+01
     14.893  0.7399E+00  0.9010E+01
     15.044  0.6018E+00  0.9101E+01
     15.195  0.2396E+00  0.9137E+01
     15.346  0.3152E+00  0.9185E+01
     15.497  0.5520E+00  0.9268E+01
     15.647  0.2074E+00  0.9299E+01
     15.798  0.4554E+00  0.9368E+01
     15.949  0.7626E+00  0.9483E+01
     16.100  0.1017E+01  0.9636E+01
     16.251  0.1389E+01  0.9846E+01
     16.401  0.8853E+00  0.9979E+01
     16.552  0.6882E+00  0.1008E+02
     16.703  0.6037E+00  0.1017E+02
     16.854  0.7795E+00  0.1029E+02
     17.005  0.7747E+00  0.1041E+02
     17.155  0.9150E+00  0.1055E+02
     17.306  0.7110E+00  0.1065E+02
     17.457  0.5513E+00  0.1074E+02
     17.608  0.5671E+00  0.1082E+02
     17.759  0.6876E+00  0.1093E+02
     17.909  0.1280E+01  0.1112E+02
     18.060  0.1130E+01  0.1129E+02
     18.211  0.5791E+00  0.1138E+02
     18.362  0.8855E+00  0.1151E+02
     18.513  0.6547E+00  0.1161E+02
     18.664  0.8009E+00  0.1173E+02
     18.814  0.1003E+01  0.1188E+02
     18.965  0.9850E+00  0.1203E+02
     19.116  0.9202E+00  0.1217E+02
     19.267  0.6120E+00  0.1226E+02
     19.418  0.6146E+00  0.1235E+02
     19.568  0.4932E+00  0.1243E+02
     19.719  0.5362E+00  0.1251E+02
     19.870  0.6682E+00  0.1261E+02
     20.021  0.1235E+01  0.1280E+02
     20.172  0.1118E+01  0.1296E+02
     20.322  0.7529E+00  0.1308E+02
     20.473  0.1193E+01  0.1326E+02
     20.624  0.5757E+00  0.1334E+02
     20.775  0.2608E+00  0.1338E+02
     20.926  0.3030E+00  0.1343E+02
     21.076  0.5186E+00  0.1351E+02
     21.227  0.4081E+00  0.1357E+02
     21.378  0.1009E+01  0.1372E+02
     21.529  0.9293E+00  0.1386E+02
     21.680  0.9126E+00  0.1400E+02
     21.830  0.1223E+01  0.1418E+02
     21.981  0.9231E+00  0.1432E+02
     22.132  0.5434E+00  0.1440E+02
     22.283  0.5600E+00  0.1449E+02
     22.434  0.6068E+00  0.1458E+02
     22.584  0.1015E+01  0.1473E+02
     22.735  0.6694E+00  0.1483E+02
     22.886  0.8176E+00  0.1496E+02
     23.037  0.9136E+00  0.1510E+02
     23.188  0.5605E+00  0.1518E+02
     23.339  0.7451E+00  0.1529E+02
     23.489  0.1641E+01  0.1554E+02
     23.640  0.1062E+01  0.1570E+02
     23.791  0.1017E+01  0.1585E+02
     23.942  0.6583E+00  0.1595E+02
     24.093  0.7927E+00  0.1607E+02
     24.243  0.8835E+00  0.1621E+02
     24.394  0.9156E+00  0.1634E+02
     24.545  0.5006E+00  0.1642E+02
     24.696  0.6633E+00  0.1652E+02
     24.847  0.8872E+00  0.1665E+02
     24.997  0.7489E+00  0.1677E+02
     25.148  0.8243E+00  0.1689E+02
     25.299  0.8908E+00  0.1702E+02
     25.450  0.7027E+00  0.1713E+02
     25.601  0.9168E+00  0.1727E+02
     25.751  0.5104E+00  0.1735E+02
     25.902  0.4266E+00  0.1741E+02
     26.053  0.7128E+00  0.1752E+02
     26.204  0.9608E+00  0.1766E+02
     26.355  0.1646E+01  0.1791E+02
     26.505  0.1610E+01  0.1815E+02
     26.656  0.1114E+01  0.1832E+02
     26.807  0.5191E+00  0.1840E+02
     26.958  0.6788E+00  0.1850E+02
     27.109  0.7065E+00  0.1861E+02
     27.259  0.5285E+00  0.1869E+02
     27.410  0.3894E+00  0.1875E+02
     27.561  0.6003E+00  0.1884E+02
     27.712  0.5584E+00  0.1892E+02
     27.863  0.9710E+00  0.1907E+02
     28.014  0.1055E+01  0.1923E+02
     28.164  0.6813E+00  0.1933E+02
     28.315  0.9255E+00  0.1947E+02
     28.466  0.4703E+00  0.1954E+02
     28.617  0.3883E+00  0.1960E+02
     28.768  0.4676E+00  0.1967E+02
     28.918  0.1411E+00  0.1969E+02
     29.069  0.2552E+00  0.1973E+02
     29.220  0.5123E+00  0.1981E+02
     29.371  0.3367E+00  0.1986E+02
     29.522  0.2797E+00  0.1990E+02
     29.672  0.5091E+00  0.1998E+02
     29.823  0.3387E+00  0.2003E+02
     29.974  0.1871E+00  0.2006E+02
     30.125  0.1464E+00  0.2008E+02
     30.276  0.5446E+00  0.2016E+02
     30.426  0.4906E+00  0.2023E+02
     30.577  0.6609E+00  0.2033E+02
     30.728  0.5300E+00  0.2041E+02
     30.879  0.1622E+00  0.2044E+02
     31.030  0.8230E+00  0.2056E+02
     31.180  0.8960E+00  0.2070E+02
     31.331  0.9041E+00  0.2083E+02
     31.482  0.8392E+00  0.2096E+02
     31.633  0.6192E+00  0.2105E+02
     31.784  0.1218E+01  0.2124E+02
     31.934  0.8830E+00  0.2137E+02
     32.085  0.1819E+00  0.2140E+02
     32.236  0.1440E+00  0.2142E+02
     32.387  0.7533E+00  0.2153E+02
     32.538  0.7301E+00  0.2164E+02
     32.689  0.8778E+00  0.2178E+02
     32.839  0.3296E+00  0.2183E+02
     32.990  0.7264E+00  0.2194E+02
     33.141  0.1268E+01  0.2213E+02
     33.292  0.1350E+01  0.2233E+02
     33.443  0.1380E+01  0.2254E+02
     33.593  0.1612E+01  0.2278E+02
     33.744  0.9725E+00  0.2293E+02
     33.895  0.6822E+00  0.2303E+02
     34.046  0.4011E+00  0.2309E+02
     34.197  0.5817E+00  0.2318E+02
     34.347  0.1154E+01  0.2335E+02
     34.498  0.1089E+01  0.2352E+02
     34.649  0.3668E+00  0.2357E+02
     34.800  0.2189E+00  0.2361E+02
     34.951  0.4031E+00  0.2367E+02
     35.101  0.5413E+00  0.2375E+02
     35.252  0.7412E+00  0.2386E+02
     35.403  0.4366E+00  0.2393E+02
     35.554  0.3867E+00  0.2398E+02
     35.705  0.4553E-01  0.2399E+02
     35.855  0.5534E-01  0.2400E+02
     36.006  0.6944E-02  0.2400E+02
     36.157  0.1926E-04  0.2400E+02
     36.308  0.7495E-09  0.2400E+02
     36.459  0.3540E-15  0.2400E+02
     36.609  0.0000E+00  0.2400E+02
     36.760  0.0000E+00  0.2400E+02
     36.911  0.0000E+00  0.2400E+02
     37.062  0.0000E+00  0.2400E+02
     37.213  0.0000E+00  0.2400E+02
     37.364  0.0000E+00  0.2400E+02
     37.514  0.0000E+00  0.2400E+02
     37.665  0.0000E+00  0.2400E+02
     37.816  0.0000E+00  0.2400E+02
