    1    1    1    1
  0.1987675E+02  0.3040559E-09  0.3040559E-09  0.3040559E-09  0.5000000E-15
  1.000000000000000E-004
  CAR 
 fcc So                                  
      4     56     12
 
  0.0000000E+00  0.0000000E+00  0.0000000E+00  0.7513148E-03
    1       -5.369537   1.000000
    2       14.250836   0.000000
    3       14.250867   0.000000
    4       14.250867   0.000000
    5       17.336287   0.000000
    6       17.336356   0.000000
    7       17.336356   0.000000
    8       21.905356   0.000000
    9       22.667562   0.000000
   10       22.667562   0.000000
   11       23.290530   0.000000
   12       28.055289   0.000000
 
  0.9090909E-01  0.0000000E+00  0.0000000E+00  0.6010518E-02
    1       -5.178101   1.000000
    2       12.568923   0.000000
    3       13.924308   0.000000
    4       13.924331   0.000000
    5       17.493866   0.000000
    6       17.855080   0.000000
    7       17.855199   0.000000
    8       21.939149   0.000000
    9       21.939218   0.000000
   10       23.237358   0.000000
   11       23.654866   0.000000
   12       27.418730   0.000000
 
  0.1818182E+00  0.0000000E+00  0.0000000E+00  0.6010518E-02
    1       -4.605766   1.000000
    2        9.663594   0.000000
    3       13.355683   0.000000
    4       13.355700   0.000000
    5       17.306563   0.000000
    6       18.512414   0.000000
    7       18.512734   0.000000
    8       21.275593   0.000000
    9       21.275934   0.000000
   10       23.546485   0.000000
   11       25.318268   0.000000
   12       28.594639   0.000000
 
  0.2727273E+00  0.0000000E+00  0.0000000E+00  0.6010518E-02
    1       -3.660482   1.000000
    2        6.747870   0.000000
    3       12.900213   0.000000
    4       12.900223   0.000000
    5       17.031438   0.000000
    6       17.937244   0.000000
    7       17.937594   0.000000
    8       22.383790   0.000000
    9       22.477211   0.000000
   10       22.477630   0.000000
   11       27.220981   0.000000
   12       32.379534   0.000000
 
  0.3636364E+00  0.0000000E+00  0.0000000E+00  0.6010518E-02
    1       -2.365845   1.000000
    2        4.082056   1.000000
    3       12.628503   0.000000
    4       12.628503   0.000000
    5       16.861706   0.000000
    6       17.084769   0.000000
    7       17.085066   0.000000
    8       21.309157   0.000000
    9       24.586017   0.000000
   10       24.586679   0.000000
   11       29.281531   0.000000
   12       35.759489   0.000000
 
  0.4545455E+00  0.0000000E+00  0.0000000E+00  0.6010518E-02
    1       -0.861076   1.000000
    2        1.882304   1.000000
    3       12.513785   0.000000
    4       12.513791   0.000000
    5       16.573899   0.000000
    6       16.574198   0.000000
    7       16.808358   0.000000
    8       20.698347   0.000000
    9       26.558514   0.000000
   10       26.559671   0.000000
   11       30.984839   0.000000
   12       33.212235   0.000000
 
  0.9090909E-01  0.9090909E-01  0.0000000E+00  0.4507889E-02
    1       -5.114269   1.000000
    2       13.141664   0.000000
    3       13.141684   0.000000
    4       13.550301   0.000000
    5       16.177718   0.000000
    6       18.750563   0.000000
    7       18.750613   0.000000
    8       20.427389   0.000000
    9       22.897961   0.000000
   10       23.585320   0.000000
   11       24.192276   0.000000
   12       28.467011   0.000000
 
  0.1818182E+00  0.9090909E-01  0.0000000E+00  0.1803156E-01
    1       -4.668710   1.000000
    2       10.751851   0.000000
    3       12.404351   0.000000
    4       13.294467   0.000000
    5       16.194864   0.000000
    6       18.850081   0.000000
    7       19.421067   0.000000
    8       19.759037   0.000000
    9       22.692972   0.000000
   10       24.950227   0.000000
   11       25.551417   0.000000
   12       28.208887   0.000000
 
  0.2727273E+00  0.9090909E-01  0.0000000E+00  0.1803156E-01
    1       -3.847178   1.000000
    2        7.837476   0.000000
    3       11.901907   0.000000
    4       12.681274   0.000000
    5       16.267334   0.000000
    6       18.294962   0.000000
    7       19.582736   0.000000
    8       20.014128   0.000000
    9       23.465385   0.000000
   10       24.203055   0.000000
   11       27.448465   0.000000
   12       31.114789   0.000000
 
  0.3636364E+00  0.9090909E-01  0.0000000E+00  0.1803156E-01
    1       -2.665465   1.000000
    2        5.085679   1.000000
    3       11.682414   0.000000
    4       12.040350   0.000000
    5       15.713402   0.000000
    6       18.219375   0.000000
    7       18.629929   0.000000
    8       21.653621   0.000000
    9       23.179891   0.000000
   10       25.343168   0.000000
   11       29.500724   0.000000
   12       35.196646   0.000000
 
  0.4545455E+00  0.9090909E-01  0.0000000E+00  0.1803156E-01
    1       -1.190731   1.000000
    2        2.691625   1.000000
    3       11.456382   0.000000
    4       11.746100   0.000000
    5       15.478430   0.000000
    6       17.770837   0.000000
    7       18.102846   0.000000
    8       22.297070   0.000000
    9       24.102552   0.000000
   10       26.946354   0.000000
   11       31.407856   0.000000
   12       33.228822   0.000000
 
 -0.4545455E+00  0.9090909E-01  0.0000000E+00  0.1803156E-01
    1       -0.327653   1.000000
    2        1.597571   1.000000
    3       11.004336   0.000000
    4       12.068413   0.000000
    5       15.735717   0.000000
    6       17.259413   0.000000
    7       17.986095   0.000000
    8       22.214495   0.000000
    9       25.922434   0.000000
   10       26.327869   0.000000
   11       31.677547   0.000000
   12       32.855444   0.000000
 
 -0.3636364E+00  0.9090909E-01  0.0000000E+00  0.1803156E-01
    1       -1.703684   1.000000
    2        3.436514   1.000000
    3       10.769149   0.000000
    4       12.590111   0.000000
    5       16.432099   0.000000
    6       17.164035   0.000000
    7       17.915044   0.000000
    8       22.597220   0.000000
    9       24.020501   0.000000
   10       25.520107   0.000000
   11       31.129293   0.000000
   12       33.047506   0.000000
 
 -0.2727273E+00  0.9090909E-01  0.0000000E+00  0.1803156E-01
    1       -3.097960   1.000000
    2        5.976426   1.000000
    3       10.806179   0.000000
    4       13.224878   0.000000
    5       17.452987   0.000000
    6       17.542670   0.000000
    7       17.955718   0.000000
    8       21.701640   0.000000
    9       22.748004   0.000000
   10       24.436395   0.000000
   11       29.105621   0.000000
   12       33.314269   0.000000
 
 -0.1818182E+00  0.9090909E-01  0.0000000E+00  0.1803156E-01
    1       -4.162413   1.000000
    2        8.808640   0.000000
    3       11.141763   0.000000
    4       13.854758   0.000000
    5       17.933020   0.000000
    6       18.154432   0.000000
    7       18.655262   0.000000
    8       20.034818   0.000000
    9       21.563152   0.000000
   10       25.095408   0.000000
   11       27.000436   0.000000
   12       29.740712   0.000000
 
 -0.9090909E-01  0.9090909E-01  0.0000000E+00  0.9015778E-02
    1       -4.859690   1.000000
    2       11.582492   0.000000
    3       11.908741   0.000000
    4       14.235561   0.000000
    5       17.713754   0.000000
    6       17.834755   0.000000
    7       18.891295   0.000000
    8       20.447372   0.000000
    9       21.504077   0.000000
   10       24.798722   0.000000
   11       24.912390   0.000000
   12       27.954455   0.000000
 
  0.1818182E+00  0.1818182E+00  0.0000000E+00  0.4507889E-02
    1       -4.350683   1.000000
    2       11.545731   0.000000
    3       11.545750   0.000000
    4       11.842006   0.000000
    5       14.404405   0.000000
    6       16.938839   0.000000
    7       21.193337   0.000000
    8       21.193398   0.000000
    9       23.566535   0.000000
   10       26.532023   0.000000
   11       26.920087   0.000000
   12       29.746906   0.000000
 
  0.2727273E+00  0.1818182E+00  0.0000000E+00  0.1803156E-01
    1       -3.655279   1.000000
    2        9.128428   0.000000
    3       10.946703   0.000000
    4       11.317002   0.000000
    5       14.443956   0.000000
    6       16.085158   0.000000
    7       21.702823   0.000000
    8       21.832677   0.000000
    9       24.341206   0.000000
   10       27.091811   0.000000
   11       28.715309   0.000000
   12       30.459024   0.000000
 
  0.3636364E+00  0.1818182E+00  0.0000000E+00  0.1803156E-01
    1       -2.593744   1.000000
    2        6.393111   0.438614
    3       10.334685   0.000000
    4       10.651839   0.000000
    5       14.146612   0.000000
    6       17.421265   0.000000
    7       20.875012   0.000000
    8       21.835493   0.000000
    9       26.113430   0.000000
   10       26.174142   0.000000
   11       30.590569   0.000000
   12       33.894786   0.000000
 
  0.4545455E+00  0.1818182E+00  0.0000000E+00  0.1803156E-01
    1       -1.204074   1.000000
    2        3.894004   1.000000
    3        9.393831   0.000000
    4       10.675212   0.000000
    5       13.995878   0.000000
    6       19.218240   0.000000
    7       19.936813   0.000000
    8       22.035485   0.000000
    9       25.514006   0.000000
   10       27.439477   0.000000
   11       32.352479   0.000000
   12       33.723833   0.000000
 
 -0.4545455E+00  0.1818182E+00  0.0000000E+00  0.1803156E-01
    1        0.163309   1.000000
    2        2.075460   1.000000
    3        8.660051   0.000000
    4       11.007349   0.000000
    5       14.283297   0.000000
    6       19.210537   0.000000
    7       19.948904   0.000000
    8       23.327627   0.000000
    9       25.346329   0.000000
   10       26.285830   0.000000
   11       31.357876   0.000000
   12       34.405493   0.000000
 
 -0.3636364E+00  0.1818182E+00  0.0000000E+00  0.1803156E-01
    1       -0.700774   1.000000
    2        3.173100   1.000000
    3        8.210876   0.000000
    4       11.626571   0.000000
    5       14.985915   0.000000
    6       18.820025   0.000000
    7       19.888160   0.000000
    8       23.776809   0.000000
    9       24.200112   0.000000
   10       25.841413   0.000000
   11       30.560969   0.000000
   12       34.420650   0.000000
 
 -0.2727273E+00  0.1818182E+00  0.0000000E+00  0.1803156E-01
    1       -2.168110   1.000000
    2        5.551578   1.000000
    3        8.084654   0.000000
    4       12.468972   0.000000
    5       16.055480   0.000000
    6       18.800660   0.000000
    7       19.642358   0.000000
    8       21.297612   0.000000
    9       23.135185   0.000000
   10       26.847062   0.000000
   11       30.934560   0.000000
   12       33.354890   0.000000
 
 -0.1818182E+00  0.1818182E+00  0.0000000E+00  0.9015778E-02
    1       -3.344665   1.000000
    2        8.143135   0.000000
    3        8.420213   0.000000
    4       13.371392   0.000000
    5       17.389127   0.000000
    6       19.045654   0.000000
    7       19.139458   0.000000
    8       19.307708   0.000000
    9       21.920747   0.000000
   10       27.346124   0.000000
   11       28.615894   0.000000
   12       31.074380   0.000000
 
  0.2727273E+00  0.2727273E+00  0.0000000E+00  0.4507889E-02
    1       -3.086815   1.000000
    2        9.404086   0.000000
    3       10.244190   0.000000
    4       10.244207   0.000000
    5       12.941715   0.000000
    6       14.250341   0.000000
    7       23.769587   0.000000
    8       23.769644   0.000000
    9       24.639411   0.000000
   10       29.573178   0.000000
   11       30.990941   0.000000
   12       31.045797   0.000000
 
  0.3636364E+00  0.2727273E+00  0.0000000E+00  0.1803156E-01
    1       -2.149686   1.000000
    2        7.553694   0.000000
    3        8.905336   0.000000
    4        9.849299   0.000000
    5       12.941499   0.000000
    6       14.454533   0.000000
    7       23.453259   0.000000
    8       24.335170   0.000000
    9       26.456162   0.000000
   10       29.851264   0.000000
   11       31.790983   0.000000
   12       33.385959   0.000000
 
  0.4545455E+00  0.2727273E+00  0.0000000E+00  0.1803156E-01
    1       -0.868832   1.000000
    2        5.298593   1.000000
    3        7.470028   0.000000
    4        9.780318   0.000000
    5       12.838837   0.000000
    6       16.567826   0.000000
    7       22.505133   0.000000
    8       24.030754   0.000000
    9       27.793914   0.000000
   10       29.209282   0.000000
   11       33.212874   0.000000
   12       34.434678   0.000000
 
 -0.4545455E+00  0.2727273E+00  0.0000000E+00  0.1803156E-01
    1        0.610854   1.000000
    2        3.251046   1.000000
    3        6.443493   0.192973
    4       10.036839   0.000000
    5       13.079680   0.000000
    6       19.082137   0.000000
    7       21.674056   0.000000
    8       23.436198   0.000000
    9       26.462882   0.000000
   10       28.697292   0.000000
   11       31.904779   0.000000
   12       35.209060   0.000000
 
 -0.3636364E+00  0.2727273E+00  0.0000000E+00  0.1803156E-01
    1        0.576294   1.000000
    2        3.326111   1.000000
    3        5.786974   1.000000
    4       10.607831   0.000000
    5       13.718838   0.000000
    6       21.077393   0.000000
    7       21.349904   0.000000
    8       22.808950   0.000000
    9       23.918589   0.000000
   10       27.962280   0.000000
   11       31.193206   0.000000
   12       35.154324   0.000000
 
 -0.2727273E+00  0.2727273E+00  0.0000000E+00  0.9015778E-02
    1       -0.897405   1.000000
    2        5.412910   1.000000
    3        5.571046   1.000000
    4       11.456721   0.000000
    5       14.732946   0.000000
    6       20.469133   0.000000
    7       21.275867   0.000000
    8       21.704344   0.000000
    9       23.005089   0.000000
   10       28.039083   0.000000
   11       31.543341   0.000000
   12       32.048911   0.000000
 
  0.3636364E+00  0.3636364E+00  0.0000000E+00  0.4507889E-02
    1       -1.338827   1.000000
    2        6.471556   0.103138
    3        9.350435   0.000000
    4        9.350452   0.000000
    5       11.934893   0.000000
    6       12.711672   0.000000
    7       25.953287   0.000000
    8       26.186784   0.000000
    9       26.186863   0.000000
   10       32.223785   0.000000
   11       32.988719   0.000000
   12       34.356500   0.000000
 
  0.4545455E+00  0.3636364E+00  0.0000000E+00  0.1803156E-01
    1       -0.179371   1.000000
    2        5.034827   1.000000
    3        7.692665   0.000000
    4        9.177884   0.000000
    5       12.054724   0.000000
    6       13.624832   0.000000
    7       25.241015   0.000000
    8       26.514220   0.000000
    9       27.974355   0.000000
   10       32.641331   0.000000
   11       33.397914   0.000000
   12       34.278108   0.000000
 
 -0.4545455E+00  0.3636364E+00  0.0000000E+00  0.1803156E-01
    1        1.241630   1.000000
    2        3.817352   1.000000
    3        5.599592   1.000000
    4        9.336505   0.000000
    5       12.238510   0.000000
    6       16.120158   0.000000
    7       24.335350   0.000000
    8       25.719389   0.000000
    9       26.948483   0.000000
   10       30.931278   0.000000
   11       34.144212   0.000000
   12       35.368134   0.000000
 
 -0.3636364E+00  0.3636364E+00  0.0000000E+00  0.9015778E-02
    1        1.813856   1.000000
    2        3.625769   1.000000
    3        4.235196   1.000000
    4        9.820883   0.000000
    5       12.792438   0.000000
    6       18.956732   0.000000
    7       23.210809   0.000000
    8       24.302784   0.000000
    9       24.836660   0.000000
   10       29.222752   0.000000
   11       34.233692   0.000000
   12       34.906595   0.000000
 
  0.4545455E+00  0.4545455E+00  0.0000000E+00  0.4507889E-02
    1        0.846127   1.000000
    2        3.574157   1.000000
    3        8.898710   0.000000
    4        8.898726   0.000000
    5       11.429554   0.000000
    6       12.038901   0.000000
    7       27.161159   0.000000
    8       28.219410   0.000000
    9       28.219486   0.000000
   10       33.197681   0.000000
   11       33.441147   0.000000
   12       33.441197   0.000000
 
 -0.4545455E+00  0.4545455E+00  0.0000000E+00  0.9015778E-02
    1        1.885395   1.000000
    2        2.644999   1.000000
    3        7.393536   0.000000
    4        8.951837   0.000000
    5       11.762866   0.000000
    6       13.356583   0.000000
    7       26.443747   0.000000
    8       27.676103   0.000000
    9       27.877850   0.000000
   10       32.285549   0.000000
   11       34.025731   0.000000
   12       34.227620   0.000000
 
  0.2727273E+00  0.1818182E+00  0.9090909E-01  0.1803156E-01
    1       -4.098217   1.000000
    2        9.861573   0.000000
    3       10.201938   0.000000
    4       13.122675   0.000000
    5       16.172413   0.000000
    6       17.608130   0.000000
    7       19.962987   0.000000
    8       20.507303   0.000000
    9       22.737484   0.000000
   10       26.518227   0.000000
   11       27.451140   0.000000
   12       29.204630   0.000000
 
  0.3636364E+00  0.1818182E+00  0.9090909E-01  0.3606311E-01
    1       -3.156361   1.000000
    2        7.177056   0.000000
    3        9.601224   0.000000
    4       12.346881   0.000000
    5       16.226914   0.000000
    6       17.865331   0.000000
    7       19.382413   0.000000
    8       20.995674   0.000000
    9       23.719853   0.000000
   10       26.297655   0.000000
   11       29.572893   0.000000
   12       31.771030   0.000000
 
  0.4545455E+00  0.1818182E+00  0.9090909E-01  0.3606311E-01
    1       -1.866346   1.000000
    2        4.547846   1.000000
    3        9.443927   0.000000
    4       11.458060   0.000000
    5       15.915366   0.000000
    6       17.741735   0.000000
    7       19.855096   0.000000
    8       21.750490   0.000000
    9       24.811437   0.000000
   10       26.005156   0.000000
   11       31.677913   0.000000
   12       33.160388   0.000000
 
 -0.4545455E+00  0.1818182E+00  0.9090909E-01  0.3606311E-01
    1       -0.367684   1.000000
    2        2.362402   1.000000
    3        9.492335   0.000000
    4       10.839231   0.000000
    5       15.859683   0.000000
    6       17.174420   0.000000
    7       20.139779   0.000000
    8       23.540717   0.000000
    9       24.589986   0.000000
   10       26.225128   0.000000
   11       31.793326   0.000000
   12       33.142481   0.000000
 
  0.3636364E+00  0.2727273E+00  0.9090909E-01  0.1803156E-01
    1       -2.839141   1.000000
    2        8.308682   0.000000
    3        8.826458   0.000000
    4       10.689261   0.000000
    5       14.809454   0.000000
    6       15.425086   0.000000
    7       21.348237   0.000000
    8       23.396893   0.000000
    9       25.076536   0.000000
   10       28.553864   0.000000
   11       30.288196   0.000000
   12       31.399282   0.000000
 
  0.4545455E+00  0.2727273E+00  0.9090909E-01  0.3606311E-01
    1       -1.665965   1.000000
    2        5.929970   1.000000
    3        8.205846   0.000000
    4        9.685837   0.000000
    5       14.831497   0.000000
    6       17.013037   0.000000
    7       20.435141   0.000000
    8       23.730487   0.000000
    9       26.293956   0.000000
   10       28.298160   0.000000
   11       32.347538   0.000000
   12       33.616147   0.000000
 
 -0.4545455E+00  0.2727273E+00  0.9090909E-01  0.3606311E-01
    1       -0.204425   1.000000
    2        3.613217   1.000000
    3        7.737951   0.000000
    4        9.254558   0.000000
    5       14.923278   0.000000
    6       18.726401   0.000000
    7       20.212539   0.000000
    8       23.388012   0.000000
    9       26.480848   0.000000
   10       27.791114   0.000000
   11       32.575375   0.000000
   12       33.550527   0.000000
 
 -0.3636364E+00  0.2727273E+00  0.9090909E-01  0.3606311E-01
    1        0.639377   1.000000
    2        2.556460   1.000000
    3        7.209407   0.000000
    4        9.537898   0.000000
    5       15.351100   0.000000
    6       18.558519   0.000000
    7       21.901357   0.000000
    8       22.497012   0.000000
    9       25.238398   0.000000
   10       27.635634   0.000000
   11       31.489145   0.000000
   12       34.505841   0.000000
 
 -0.2727273E+00  0.2727273E+00  0.9090909E-01  0.3606311E-01
    1       -0.721713   1.000000
    2        4.373657   1.000000
    3        6.888169   0.000000
    4       10.276096   0.000000
    5       16.062964   0.000000
    6       18.323917   0.000000
    7       20.412746   0.000000
    8       22.946550   0.000000
    9       24.732030   0.000000
   10       27.864543   0.000000
   11       31.000513   0.000000
   12       33.872575   0.000000
 
 -0.1818182E+00  0.2727273E+00  0.9090909E-01  0.1803156E-01
    1       -2.101392   1.000000
    2        6.729510   0.000000
    3        7.005701   0.000000
    4       11.310502   0.000000
    5       16.851197   0.000000
    6       17.951327   0.000000
    7       18.894517   0.000000
    8       22.480749   0.000000
    9       23.922052   0.000000
   10       28.386129   0.000000
   11       30.413789   0.000000
   12       33.446363   0.000000
 
  0.4545455E+00  0.3636364E+00  0.9090909E-01  0.1803156E-01
    1       -1.100578   1.000000
    2        6.381211   0.505505
    3        7.886542   0.000000
    4        8.557638   0.000000
    5       13.859533   0.000000
    6       14.209784   0.000000
    7       23.022247   0.000000
    8       26.068502   0.000000
    9       26.825332   0.000000
   10       31.281637   0.000000
   11       33.487890   0.000000
   12       33.531736   0.000000
 
 -0.4545455E+00  0.3636364E+00  0.9090909E-01  0.3606311E-01
    1        0.266631   1.000000
    2        4.820877   1.000000
    3        6.284451   0.916544
    4        8.212712   0.000000
    5       14.057400   0.000000
    6       16.386688   0.000000
    7       22.141789   0.000000
    8       25.511393   0.000000
    9       27.142023   0.000000
   10       31.242825   0.000000
   11       33.450585   0.000000
   12       34.224521   0.000000
 
 -0.3636364E+00  0.3636364E+00  0.9090909E-01  0.3606311E-01
    1        1.564095   1.000000
    2        3.393785   1.000000
    3        5.177787   1.000000
    4        8.531724   0.000000
    5       14.435159   0.000000
    6       18.997754   0.000000
    7       21.485488   0.000000
    8       23.388640   0.000000
    9       26.386952   0.000000
   10       30.236258   0.000000
   11       32.974025   0.000000
   12       35.442047   0.000000
 
 -0.2727273E+00  0.3636364E+00  0.9090909E-01  0.1803156E-01
    1        0.692789   1.000000
    2        4.555526   1.000000
    3        4.600836   1.000000
    4        9.242960   0.000000
    5       15.146192   0.000000
    6       20.406620   0.000000
    7       20.715632   0.000000
    8       22.412600   0.000000
    9       25.124076   0.000000
   10       28.980865   0.000000
   11       32.911481   0.000000
   12       33.575213   0.000000
 
 -0.4545455E+00  0.4545455E+00  0.9090909E-01  0.1803156E-01
    1        1.058907   1.000000
    2        3.755972   1.000000
    3        7.412348   0.000000
    4        7.764146   0.000000
    5       13.379931   0.000000
    6       13.655146   0.000000
    7       24.919152   0.000000
    8       26.696961   0.000000
    9       28.189635   0.000000
   10       33.081784   0.000000
   11       33.634779   0.000000
   12       34.360569   0.000000
 
 -0.3636364E+00  0.4545455E+00  0.9090909E-01  0.1803156E-01
    1        2.147857   1.000000
    2        3.135851   1.000000
    3        5.524834   1.000000
    4        7.889525   0.000000
    5       13.802446   0.000000
    6       16.166195   0.000000
    7       24.081867   0.000000
    8       24.239531   0.000000
    9       27.935060   0.000000
   10       31.772456   0.000000
   11       35.056147   0.000000
   12       35.132552   0.000000
 
 -0.4545455E+00  0.3636364E+00  0.1818182E+00  0.1803156E-01
    1       -0.399560   1.000000
    2        5.594499   1.000000
    3        6.045039   0.999999
    4        8.400817   0.000000
    5       16.683983   0.000000
    6       17.074251   0.000000
    7       19.593228   0.000000
    8       25.096488   0.000000
    9       25.681975   0.000000
   10       30.132321   0.000000
   11       32.491968   0.000000
   12       33.060952   0.000000
 
 -0.3636364E+00  0.3636364E+00  0.1818182E+00  0.3606311E-01
    1        1.060143   1.000000
    2        3.736207   1.000000
    3        5.905575   1.000000
    4        7.597954   0.000000
    5       16.807558   0.000000
    6       18.370480   0.000000
    7       20.060335   0.000000
    8       22.901729   0.000000
    9       26.624528   0.000000
   10       30.602834   0.000000
   11       32.629238   0.000000
   12       34.812563   0.000000
 
 -0.3636364E+00  0.4545455E+00  0.1818182E+00  0.1803156E-01
    1        1.640302   1.000000
    2        4.167247   1.000000
    3        5.562047   1.000000
    4        6.502019   0.045068
    5       16.416302   0.000000
    6       16.623773   0.000000
    7       21.329038   0.000000
    8       23.502611   0.000000
    9       28.207339   0.000000
   10       33.294075   0.000000
   11       33.781370   0.000000
   12       34.216755   0.000000
 
 -0.2727273E+00  0.4545455E+00  0.1818182E+00  0.1803156E-01
    1        2.228303   1.000000
    2        4.112404   1.000000
    3        4.464601   1.000000
    4        6.610087   0.000634
    5       16.866186   0.000000
    6       19.039059   0.000000
    7       20.308322   0.000000
    8       21.428404   0.000000
    9       28.120805   0.000000
   10       32.382151   0.000000
   11       34.358055   0.000000
   12       35.013808   0.000000
