       N       E                     dE             d eps       ncg     rms          rms(c)
DAV:   1    -0.397691989837E+01   -0.39769E+01   -0.10944E+03  1584   0.136E+02
DAV:   2    -0.459573113432E+01   -0.61881E+00   -0.59872E+00  1884   0.981E+00
DAV:   3    -0.459682697158E+01   -0.10958E-02   -0.10958E-02  1632   0.401E-01
DAV:   4    -0.459682732871E+01   -0.35712E-06   -0.35747E-06  2232   0.639E-03
DAV:   5    -0.459682732831E+01    0.39650E-09   -0.11203E-11  1632   0.914E-06    0.173E+00
DAV:   6    -0.458758573920E+01    0.92416E-02   -0.48085E-03  1512   0.197E-01    0.935E-01
DAV:   7    -0.458292412525E+01    0.46616E-02   -0.88265E-03  1596   0.266E-01    0.118E-01
DAV:   8    -0.458292794294E+01   -0.38177E-05   -0.36110E-05  1656   0.293E-02    0.147E-02
DAV:   9    -0.458292959195E+01   -0.16490E-05   -0.36363E-07  2088   0.276E-03    0.264E-03
DAV:  10    -0.458292939716E+01    0.19478E-06   -0.11614E-08  1440   0.432E-04
   1 F= -.45829294E+01 E0= -.45809964E+01  d E =-.386596E-02
