 vasp.5.4.4.18Apr17-6-g9f103f2a35 (build Mar 30 2023 15:39:25) complex          
  
 executed on             LinuxIFC date 2023.04.28  16:14:28
 running on   12 total cores
 distrk:  each k-point on   12 cores,    1 groups
 distr:  one band on NCORES_PER_BAND=   1 cores,   12 groups


--------------------------------------------------------------------------------------------------------


 INCAR:
 POTCAR:    PAW_PBE Si 05Jan2001                  

 ----------------------------------------------------------------------------- 
|                                                                             |
|           W    W    AA    RRRRR   N    N  II  N    N   GGGG   !!!           |
|           W    W   A  A   R    R  NN   N  II  NN   N  G    G  !!!           |
|           W    W  A    A  R    R  N N  N  II  N N  N  G       !!!           |
|           W WW W  AAAAAA  RRRRR   N  N N  II  N  N N  G  GGG   !            |
|           WW  WW  A    A  R   R   N   NN  II  N   NN  G    G                |
|           W    W  A    A  R    R  N    N  II  N    N   GGGG   !!!           |
|                                                                             |
|      For optimal performance we recommend to set                            |
|        NCORE= 4 - approx SQRT( number of cores)                             |
|      NCORE specifies how many cores store one orbital (NPAR=cpu/NCORE).     |
|      This setting can  greatly improve the performance of VASP for DFT.     |
|      The default,   NCORE=1            might be grossly inefficient         |
|      on modern multi-core architectures or massively parallel machines.     |
|      Do your own testing !!!!                                               |
|      Unfortunately you need to use the default for GW and RPA calculations. |
|      (for HF NCORE is supported but not extensively tested yet)             |
|                                                                             |
 ----------------------------------------------------------------------------- 

 POTCAR:    PAW_PBE Si 05Jan2001                  
   SHA256 =  79d9987ad8750f624c4d6acb2a16d13abf6a777132adc04dc6c8399be72b42bb Si
   COPYR  = (c) Copyright 05Jan2001 Georg Kresse                                
   COPYR  = This file is part of the software VASP. Any use, copying, and all ot
   COPYR  = If you do not have a valid VASP license, you may not use, copy or di
   VRHFIN =Si: s2p2                                                             
   LEXCH  = PE                                                                  
   EATOM  =   103.0669 eV,    7.5752 Ry                                         
                                                                                
   TITEL  = PAW_PBE Si 05Jan2001                                                
   LULTRA =        F    use ultrasoft PP ?                                      
   IUNSCR =        1    unscreen: 0-lin 1-nonlin 2-no                           
   RPACOR =    1.500    partial core radius                                     
   POMASS =   28.085; ZVAL   =    4.000    mass and valenz                      
   RCORE  =    1.900    outmost cutoff radius                                   
   RWIGS  =    2.480; RWIGS  =    1.312    wigner-seitz radius (au A)           
   ENMAX  =  245.345; ENMIN  =  184.009 eV                                      
   ICORE  =        2    local potential                                         
   LCOR   =        T    correct aug charges                                     
   LPAW   =        T    paw PP                                                  
   EAUG   =  322.069                                                            
   DEXC   =    0.000                                                            
   RMAX   =    1.950    core radius for proj-oper                               
   RAUG   =    1.300    factor for augmentation sphere                          
   RDEP   =    1.993    radius for radial grids                                 
   RDEPT  =    1.837    core radius for aug-charge                              
                                                                                
   Atomic configuration                                                         
    6 entries                                                                   
     n  l   j            E        occ.                                          
     1  0  0.50     -1785.8828   2.0000                                         
     2  0  0.50      -139.4969   2.0000                                         
     2  1  1.50       -95.5546   6.0000                                         
     3  0  0.50       -10.8127   2.0000                                         
     3  1  0.50        -4.0811   2.0000                                         
     3  2  1.50        -4.0817   0.0000                                         
   Description                                                                  
     l       E           TYP  RCUT    TYP  RCUT                                 
     0    -10.8127223     23  1.900                                             
     0     -7.6451159     23  1.900                                             
     1     -4.0811372     23  1.900                                             
     1      2.4879257     23  1.900                                             
     2     -4.0817478      7  1.900                                             
  local pseudopotential read in
  partial core-charges read in
  partial kinetic energy density read in
  atomic valenz-charges read in
  non local Contribution for L=           0  read in
    real space projection operators read in
  non local Contribution for L=           0  read in
    real space projection operators read in
  non local Contribution for L=           1  read in
    real space projection operators read in
  non local Contribution for L=           1  read in
    real space projection operators read in
    PAW grid and wavefunctions read in
 
   number of l-projection  operators is LMAX  =           4
   number of lm-projection operators is LMMAX =           8
 
  PAW_PBE Si 05Jan2001                  :
 energy of atom  1       EATOM= -103.0669
 kinetic energy error for atom=    0.0061 (will be added to EATOM!!)
 
 
 POSCAR: fcc:                                    
  positions in direct lattice
  No initial velocities read in
 exchange correlation table for  LEXCH =        8
   RHO(1)=    0.500       N(1)  =     2000
   RHO(2)=  100.500       N(2)  =     4000
 


--------------------------------------------------------------------------------------------------------


 ion  position               nearest neighbor table
   1  0.000  0.000  0.000-
 
  LATTYP: Found a face centered cubic cell.
 ALAT       =     4.3000000000
  
  Lattice vectors:
  
 A1 = (   2.1500000000,   2.1500000000,   0.0000000000)
 A2 = (   0.0000000000,   2.1500000000,   2.1500000000)
 A3 = (   2.1500000000,   0.0000000000,   2.1500000000)


Analysis of symmetry for initial positions (statically):
=====================================================================
 Subroutine PRICEL returns:
 Original cell was already a primitive cell.
 

 Routine SETGRP: Setting up the symmetry group for a 
 face centered cubic supercell.


 Subroutine GETGRP returns: Found 48 space group operations
 (whereof 48 operations were pure point group operations)
 out of a pool of 48 trial point group operations.


The static configuration has the point symmetry O_h .


Analysis of symmetry for dynamics (positions and initial velocities):
=====================================================================
 Subroutine PRICEL returns:
 Original cell was already a primitive cell.
 

 Routine SETGRP: Setting up the symmetry group for a 
 face centered cubic supercell.


 Subroutine GETGRP returns: Found 48 space group operations
 (whereof 48 operations were pure point group operations)
 out of a pool of 48 trial point group operations.


The dynamic configuration has the point symmetry O_h .


 Subroutine INISYM returns: Found 48 space group operations
 (whereof 48 operations are pure point group operations),
 and found     1 'primitive' translations

 
 
 KPOINTS: k-points                                

Automatic generation of k-mesh.
Space group operators:
 irot       det(A)        alpha          n_x          n_y          n_z        tau_x        tau_y        tau_z
    1     1.000000     0.000000     1.000000     0.000000     0.000000     0.000000     0.000000     0.000000
    2    -1.000000     0.000000     1.000000     0.000000     0.000000     0.000000     0.000000     0.000000
    3     1.000000   120.000000    -0.577350    -0.577350    -0.577350     0.000000     0.000000     0.000000
    4    -1.000000   120.000000    -0.577350    -0.577350    -0.577350     0.000000     0.000000     0.000000
    5     1.000000   120.000000     0.577350     0.577350     0.577350     0.000000     0.000000     0.000000
    6    -1.000000   120.000000     0.577350     0.577350     0.577350     0.000000     0.000000     0.000000
    7     1.000000    90.000000     0.000000    -1.000000     0.000000     0.000000     0.000000     0.000000
    8    -1.000000    90.000000     0.000000    -1.000000     0.000000     0.000000     0.000000     0.000000
    9     1.000000   180.000000     0.707107     0.707107     0.000000     0.000000     0.000000     0.000000
   10    -1.000000   180.000000     0.707107     0.707107     0.000000     0.000000     0.000000     0.000000
   11     1.000000    90.000000     1.000000     0.000000     0.000000     0.000000     0.000000     0.000000
   12    -1.000000    90.000000     1.000000     0.000000     0.000000     0.000000     0.000000     0.000000
   13     1.000000   180.000000     0.000000     1.000000     0.000000     0.000000     0.000000     0.000000
   14    -1.000000   180.000000     0.000000     1.000000     0.000000     0.000000     0.000000     0.000000
   15     1.000000   120.000000     0.577350     0.577350    -0.577350     0.000000     0.000000     0.000000
   16    -1.000000   120.000000     0.577350     0.577350    -0.577350     0.000000     0.000000     0.000000
   17     1.000000   120.000000     0.577350    -0.577350    -0.577350     0.000000     0.000000     0.000000
   18    -1.000000   120.000000     0.577350    -0.577350    -0.577350     0.000000     0.000000     0.000000
   19     1.000000    90.000000     0.000000     1.000000     0.000000     0.000000     0.000000     0.000000
   20    -1.000000    90.000000     0.000000     1.000000     0.000000     0.000000     0.000000     0.000000
   21     1.000000    90.000000     0.000000     0.000000    -1.000000     0.000000     0.000000     0.000000
   22    -1.000000    90.000000     0.000000     0.000000    -1.000000     0.000000     0.000000     0.000000
   23     1.000000   180.000000     0.000000     0.707107     0.707107     0.000000     0.000000     0.000000
   24    -1.000000   180.000000     0.000000     0.707107     0.707107     0.000000     0.000000     0.000000
   25     1.000000   120.000000    -0.577350     0.577350     0.577350     0.000000     0.000000     0.000000
   26    -1.000000   120.000000    -0.577350     0.577350     0.577350     0.000000     0.000000     0.000000
   27     1.000000   120.000000    -0.577350     0.577350    -0.577350     0.000000     0.000000     0.000000
   28    -1.000000   120.000000    -0.577350     0.577350    -0.577350     0.000000     0.000000     0.000000
   29     1.000000   180.000000     0.000000     0.000000     1.000000     0.000000     0.000000     0.000000
   30    -1.000000   180.000000     0.000000     0.000000     1.000000     0.000000     0.000000     0.000000
   31     1.000000    90.000000    -1.000000     0.000000     0.000000     0.000000     0.000000     0.000000
   32    -1.000000    90.000000    -1.000000     0.000000     0.000000     0.000000     0.000000     0.000000
   33     1.000000   180.000000     0.707107     0.000000     0.707107     0.000000     0.000000     0.000000
   34    -1.000000   180.000000     0.707107     0.000000     0.707107     0.000000     0.000000     0.000000
   35     1.000000    90.000000     0.000000     0.000000     1.000000     0.000000     0.000000     0.000000
   36    -1.000000    90.000000     0.000000     0.000000     1.000000     0.000000     0.000000     0.000000
   37     1.000000   120.000000    -0.577350    -0.577350     0.577350     0.000000     0.000000     0.000000
   38    -1.000000   120.000000    -0.577350    -0.577350     0.577350     0.000000     0.000000     0.000000
   39     1.000000   180.000000     1.000000     0.000000     0.000000     0.000000     0.000000     0.000000
   40    -1.000000   180.000000     1.000000     0.000000     0.000000     0.000000     0.000000     0.000000
   41     1.000000   120.000000     0.577350    -0.577350     0.577350     0.000000     0.000000     0.000000
   42    -1.000000   120.000000     0.577350    -0.577350     0.577350     0.000000     0.000000     0.000000
   43     1.000000   180.000000     0.707107    -0.707107     0.000000     0.000000     0.000000     0.000000
   44    -1.000000   180.000000     0.707107    -0.707107     0.000000     0.000000     0.000000     0.000000
   45     1.000000   180.000000     0.707107     0.000000    -0.707107     0.000000     0.000000     0.000000
   46    -1.000000   180.000000     0.707107     0.000000    -0.707107     0.000000     0.000000     0.000000
   47     1.000000   180.000000     0.000000    -0.707107     0.707107     0.000000     0.000000     0.000000
   48    -1.000000   180.000000     0.000000    -0.707107     0.707107     0.000000     0.000000     0.000000
 
 Subroutine IBZKPT returns following result:
 ===========================================
 
 Found     56 irreducible k-points:
 
 Following reciprocal coordinates:
            Coordinates               Weight
  0.000000  0.000000  0.000000      1.000000
  0.090909  0.000000  0.000000      8.000000
  0.181818  0.000000  0.000000      8.000000
  0.272727  0.000000  0.000000      8.000000
  0.363636  0.000000  0.000000      8.000000
  0.454545  0.000000  0.000000      8.000000
  0.090909  0.090909  0.000000      6.000000
  0.181818  0.090909  0.000000     24.000000
  0.272727  0.090909  0.000000     24.000000
  0.363636  0.090909  0.000000     24.000000
  0.454545  0.090909  0.000000     24.000000
 -0.454545  0.090909  0.000000     24.000000
 -0.363636  0.090909  0.000000     24.000000
 -0.272727  0.090909  0.000000     24.000000
 -0.181818  0.090909  0.000000     24.000000
 -0.090909  0.090909  0.000000     12.000000
  0.181818  0.181818  0.000000      6.000000
  0.272727  0.181818  0.000000     24.000000
  0.363636  0.181818  0.000000     24.000000
  0.454545  0.181818  0.000000     24.000000
 -0.454545  0.181818  0.000000     24.000000
 -0.363636  0.181818  0.000000     24.000000
 -0.272727  0.181818  0.000000     24.000000
 -0.181818  0.181818  0.000000     12.000000
  0.272727  0.272727  0.000000      6.000000
  0.363636  0.272727  0.000000     24.000000
  0.454545  0.272727  0.000000     24.000000
 -0.454545  0.272727  0.000000     24.000000
 -0.363636  0.272727  0.000000     24.000000
 -0.272727  0.272727  0.000000     12.000000
  0.363636  0.363636  0.000000      6.000000
  0.454545  0.363636  0.000000     24.000000
 -0.454545  0.363636  0.000000     24.000000
 -0.363636  0.363636  0.000000     12.000000
  0.454545  0.454545  0.000000      6.000000
 -0.454545  0.454545  0.000000     12.000000
  0.272727  0.181818  0.090909     24.000000
  0.363636  0.181818  0.090909     48.000000
  0.454545  0.181818  0.090909     48.000000
 -0.454545  0.181818  0.090909     48.000000
  0.363636  0.272727  0.090909     24.000000
  0.454545  0.272727  0.090909     48.000000
 -0.454545  0.272727  0.090909     48.000000
 -0.363636  0.272727  0.090909     48.000000
 -0.272727  0.272727  0.090909     48.000000
 -0.181818  0.272727  0.090909     24.000000
  0.454545  0.363636  0.090909     24.000000
 -0.454545  0.363636  0.090909     48.000000
 -0.363636  0.363636  0.090909     48.000000
 -0.272727  0.363636  0.090909     24.000000
 -0.454545  0.454545  0.090909     24.000000
 -0.363636  0.454545  0.090909     24.000000
 -0.454545  0.363636  0.181818     24.000000
 -0.363636  0.363636  0.181818     48.000000
 -0.363636  0.454545  0.181818     24.000000
 -0.272727  0.454545  0.181818     24.000000
 
 Following cartesian coordinates:
            Coordinates               Weight
  0.000000  0.000000  0.000000      1.000000
  0.090909  0.090909 -0.090909      8.000000
  0.181818  0.181818 -0.181818      8.000000
  0.272727  0.272727 -0.272727      8.000000
  0.363636  0.363636 -0.363636      8.000000
  0.454545  0.454545 -0.454545      8.000000
  0.000000  0.181818  0.000000      6.000000
  0.090909  0.272727 -0.090909     24.000000
  0.181818  0.363636 -0.181818     24.000000
  0.272727  0.454545 -0.272727     24.000000
  0.363636  0.545455 -0.363636     24.000000
 -0.545455 -0.363636  0.545455     24.000000
 -0.454545 -0.272727  0.454545     24.000000
 -0.363636 -0.181818  0.363636     24.000000
 -0.272727 -0.090909  0.272727     24.000000
 -0.181818  0.000000  0.181818     12.000000
  0.000000  0.363636  0.000000      6.000000
  0.090909  0.454545 -0.090909     24.000000
  0.181818  0.545455 -0.181818     24.000000
  0.272727  0.636364 -0.272727     24.000000
 -0.636364 -0.272727  0.636364     24.000000
 -0.545455 -0.181818  0.545455     24.000000
 -0.454545 -0.090909  0.454545     24.000000
 -0.363636  0.000000  0.363636     12.000000
  0.000000  0.545455  0.000000      6.000000
  0.090909  0.636364 -0.090909     24.000000
  0.181818  0.727273 -0.181818     24.000000
 -0.727273 -0.181818  0.727273     24.000000
 -0.636364 -0.090909  0.636364     24.000000
 -0.545455  0.000000  0.545455     12.000000
  0.000000  0.727273  0.000000      6.000000
  0.090909  0.818182 -0.090909     24.000000
 -0.818182 -0.090909  0.818182     24.000000
 -0.727273  0.000000  0.727273     12.000000
  0.000000  0.909091  0.000000      6.000000
 -0.909091  0.000000  0.909091     12.000000
  0.181818  0.363636  0.000000     24.000000
  0.272727  0.454545 -0.090909     48.000000
  0.363636  0.545455 -0.181818     48.000000
 -0.545455 -0.363636  0.727273     48.000000
  0.181818  0.545455  0.000000     24.000000
  0.272727  0.636364 -0.090909     48.000000
 -0.636364 -0.272727  0.818182     48.000000
 -0.545455 -0.181818  0.727273     48.000000
 -0.454545 -0.090909  0.636364     48.000000
 -0.363636 -0.000000  0.545455     24.000000
  0.181818  0.727273 -0.000000     24.000000
 -0.727273 -0.181818  0.909091     48.000000
 -0.636364 -0.090909  0.818182     48.000000
 -0.545455 -0.000000  0.727273     24.000000
 -0.818182 -0.090909  1.000000     24.000000
 -0.727273 -0.000000  0.909091     24.000000
 -0.636364 -0.272727  1.000000     24.000000
 -0.545455 -0.181818  0.909091     48.000000
 -0.636364 -0.090909  1.000000     24.000000
 -0.545455  0.000000  0.909091     24.000000
 


--------------------------------------------------------------------------------------------------------




 Dimension of arrays:
   k-points           NKPTS =     56   k-points in BZ     NKDIM =     56   number of bands    NBANDS=     12
   number of dos      NEDOS =    301   number of ions     NIONS =      1
   non local maximal  LDIM  =      4   non local SUM 2l+1 LMDIM =      8
   total plane-waves  NPLWV =   1728
   max r-space proj   IRMAX =      1   max aug-charges    IRDMAX=    776
   dimension x,y,z NGX =    12 NGY =   12 NGZ =   12
   dimension x,y,z NGXF=    14 NGYF=   14 NGZF=   14
   support grid    NGXF=    14 NGYF=   14 NGZF=   14
   ions per type =               1
   NGX,Y,Z   is equivalent  to a cutoff of   6.56,  6.56,  6.56 a.u.
   NGXF,Y,Z  is equivalent  to a cutoff of   7.65,  7.65,  7.65 a.u.

 SYSTEM =  fcc So                                  
 POSCAR =  fcc:                                    

 Startparameter for this run:
   NWRITE =      2    write-flag & timer
   PREC   = low       normal or accurate (medium, high low for compatibility)
   ISTART =      0    job   : 0-new  1-cont  2-samecut
   ICHARG =      2    charge: 1-file 2-atom 10-const
   ISPIN  =      1    spin polarized calculation?
   LNONCOLLINEAR =      F non collinear calculations
   LSORBIT =      F    spin-orbit coupling
   INIWAV =      1    electr: 0-lowe 1-rand  2-diag
   LASPH  =      F    aspherical Exc in radial PAW
   METAGGA=      F    non-selfconsistent MetaGGA calc.

 Electronic Relaxation 1
   ENCUT  =  240.0 eV  17.64 Ry    4.20 a.u.   3.84  3.84  3.84*2*pi/ulx,y,z
   ENINI  =  240.0     initial cutoff
   ENAUG  =  322.1 eV  augmentation charge cutoff
   NELM   =     60;   NELMIN=  2; NELMDL= -5     # of ELM steps 
   EDIFF  = 0.1E-05   stopping-criterion for ELM
   LREAL  =      F    real-space projection
   NLSPLINE    = F    spline interpolate recip. space projectors
   LCOMPAT=      F    compatible to vasp.4.4
   GGA_COMPAT  = T    GGA compatible to vasp.4.4-vasp.4.6
   LMAXPAW     = -100 max onsite density
   LMAXMIX     =    2 max onsite mixed and CHGCAR
   VOSKOWN=      0    Vosko Wilk Nusair interpolation
   ROPT   =    0.00000
 Ionic relaxation
   EDIFFG = -.1E-05   stopping-criterion for IOM
   NSW    =      0    number of steps for IOM
   NBLOCK =      1;   KBLOCK =      1    inner block; outer block 
   IBRION =     -1    ionic relax: 0-MD 1-quasi-New 2-CG
   NFREE  =      0    steps in history (QN), initial steepest desc. (CG)
   ISIF   =      2    stress and relaxation
   IWAVPR =     10    prediction:  0-non 1-charg 2-wave 3-comb
   ISYM   =      2    0-nonsym 1-usesym 2-fastsym
   LCORR  =      T    Harris-Foulkes like correction to forces

   POTIM  = 0.5000    time-step for ionic-motion
   TEIN   =    0.0    initial temperature
   TEBEG  =    0.0;   TEEND  =   0.0 temperature during run
   SMASS  =  -3.00    Nose mass-parameter (am)
   estimated Nose-frequenzy (Omega)   =  0.10E-29 period in steps =****** mass=  -0.211E-27a.u.
   SCALEE = 1.0000    scale energy and forces
   NPACO  =    256;   APACO  = 16.0  distance and # of slots for P.C.
   PSTRESS=    0.0 pullay stress

  Mass of Ions in am
   POMASS =  28.09
  Ionic Valenz
   ZVAL   =   4.00
  Atomic Wigner-Seitz radii
   RWIGS  =  -1.00
  virtual crystal weights 
   VCA    =   1.00
   NELECT =       4.0000    total number of electrons
   NUPDOWN=      -1.0000    fix difference up-down

 DOS related values:
   EMIN   =  10.00;   EMAX   =-10.00  energy-range for DOS
   EFERMI =   0.00
   ISMEAR =     0;   SIGMA  =   0.10  broadening in eV -4-tet -1-fermi 0-gaus

 Electronic relaxation 2 (details)
   IALGO  =     38    algorithm
   LDIAG  =      T    sub-space diagonalisation (order eigenvalues)
   LSUBROT=      F    optimize rotation matrix (better conditioning)
   TURBO    =      0    0=normal 1=particle mesh
   IRESTART =      0    0=no restart 2=restart with 2 vectors
   NREBOOT  =      0    no. of reboots
   NMIN     =      0    reboot dimension
   EREF     =   0.00    reference energy to select bands
   IMIX   =      4    mixing-type and parameters
     AMIX     =   0.40;   BMIX     =  1.00
     AMIX_MAG =   1.60;   BMIX_MAG =  1.00
     AMIN     =   0.10
     WC   =   100.;   INIMIX=   1;  MIXPRE=   1;  MAXMIX= -45

 Intra band minimization:
   WEIMIN = 0.0000     energy-eigenvalue tresh-hold
   EBREAK =  0.21E-08  absolut break condition
   DEPER  =   0.30     relativ break condition  

   TIME   =   0.40     timestep for ELM

  volume/ion in A,a.u.               =      19.88       134.13
  Fermi-wavevector in a.u.,A,eV,Ry     =   0.959356  1.812920 12.522306  0.920364
  Thomas-Fermi vector in A             =   2.088545
 
 Write flags
   LWAVE        =      T    write WAVECAR
   LDOWNSAMPLE  =      F    k-point downsampling of WAVECAR
   LCHARG       =      T    write CHGCAR
   LVTOT        =      F    write LOCPOT, total local potential
   LVHAR        =      F    write LOCPOT, Hartree potential only
   LELF         =      F    write electronic localiz. function (ELF)
   LORBIT       =      0    0 simple, 1 ext, 2 COOP (PROOUT), +10 PAW based schemes


 Dipole corrections
   LMONO  =      F    monopole corrections only (constant potential shift)
   LDIPOL =      F    correct potential (dipole corrections)
   IDIPOL =      0    1-x, 2-y, 3-z, 4-all directions 
   EPSILON=  1.0000000 bulk dielectric constant

 Exchange correlation treatment:
   GGA     =    --    GGA type
   LEXCH   =     8    internal setting for exchange type
   VOSKOWN=      0    Vosko Wilk Nusair interpolation
   LHFCALC =     F    Hartree Fock is set to
   LHFONE  =     F    Hartree Fock one center treatment
   AEXX    =    0.0000 exact exchange contribution

 Linear response parameters
   LEPSILON=     F    determine dielectric tensor
   LRPA    =     F    only Hartree local field effects (RPA)
   LNABLA  =     F    use nabla operator in PAW spheres
   LVEL    =     F    velocity operator in full k-point grid
   LINTERFAST=   F  fast interpolation
   KINTER  =     0    interpolate to denser k-point grid
   CSHIFT  =0.1000    complex shift for real part using Kramers Kronig
   OMEGAMAX=  -1.0    maximum frequency
   DEG_THRESHOLD= 0.2000000E-02 threshold for treating states as degnerate
   RTIME   =   -0.100 relaxation time in fs
  (WPLASMAI=    0.000 imaginary part of plasma frequency in eV, 0.658/RTIME)
   DFIELD  = 0.0000000 0.0000000 0.0000000 field for delta impulse in time
 
 Orbital magnetization related:
   ORBITALMAG=     F  switch on orbital magnetization
   LCHIMAG   =     F  perturbation theory with respect to B field
   DQ        =  0.001000  dq finite difference perturbation B field
   LLRAUG    =     F  two centre corrections for induced B field



--------------------------------------------------------------------------------------------------------


 Static calculation
 charge density and potential will be updated during run
 non-spin polarized calculation
 Variant of blocked Davidson
 Davidson routine will perform the subspace rotation
 perform sub-space diagonalisation
    after iterative eigenvector-optimisation
 modified Broyden-mixing scheme, WC =      100.0
 initial mixing is a Kerker type mixing with AMIX =  0.4000 and BMIX =      1.0000
 Hartree-type preconditioning will be used
 using additional bands           10
 reciprocal scheme for non local part
 use partial core corrections
 calculate Harris-corrections to forces 
   (improved forces if not selfconsistent)
 use gradient corrections 
 use of overlap-Matrix (Vanderbilt PP)
 Gauss-broadening in eV      SIGMA  =   0.10


--------------------------------------------------------------------------------------------------------


  energy-cutoff  :      240.00
  volume of cell :       19.88
      direct lattice vectors                 reciprocal lattice vectors
     2.150000000  2.150000000  0.000000000     0.232558140  0.232558140 -0.232558140
     0.000000000  2.150000000  2.150000000    -0.232558140  0.232558140  0.232558140
     2.150000000  0.000000000  2.150000000     0.232558140 -0.232558140  0.232558140

  length of vectors
     3.040559159  3.040559159  3.040559159     0.402802513  0.402802513  0.402802513


 
 k-points in units of 2pi/SCALE and weight: k-points                                
   0.00000000  0.00000000  0.00000000       0.001
   0.09090909  0.09090909 -0.09090909       0.006
   0.18181818  0.18181818 -0.18181818       0.006
   0.27272727  0.27272727 -0.27272727       0.006
   0.36363636  0.36363636 -0.36363636       0.006
   0.45454545  0.45454545 -0.45454545       0.006
   0.00000000  0.18181818  0.00000000       0.005
   0.09090909  0.27272727 -0.09090909       0.018
   0.18181818  0.36363636 -0.18181818       0.018
   0.27272727  0.45454545 -0.27272727       0.018
   0.36363636  0.54545455 -0.36363636       0.018
  -0.54545455 -0.36363636  0.54545455       0.018
  -0.45454545 -0.27272727  0.45454545       0.018
  -0.36363636 -0.18181818  0.36363636       0.018
  -0.27272727 -0.09090909  0.27272727       0.018
  -0.18181818  0.00000000  0.18181818       0.009
   0.00000000  0.36363636  0.00000000       0.005
   0.09090909  0.45454545 -0.09090909       0.018
   0.18181818  0.54545455 -0.18181818       0.018
   0.27272727  0.63636364 -0.27272727       0.018
  -0.63636364 -0.27272727  0.63636364       0.018
  -0.54545455 -0.18181818  0.54545455       0.018
  -0.45454545 -0.09090909  0.45454545       0.018
  -0.36363636  0.00000000  0.36363636       0.009
   0.00000000  0.54545455  0.00000000       0.005
   0.09090909  0.63636364 -0.09090909       0.018
   0.18181818  0.72727273 -0.18181818       0.018
  -0.72727273 -0.18181818  0.72727273       0.018
  -0.63636364 -0.09090909  0.63636364       0.018
  -0.54545455  0.00000000  0.54545455       0.009
   0.00000000  0.72727273  0.00000000       0.005
   0.09090909  0.81818182 -0.09090909       0.018
  -0.81818182 -0.09090909  0.81818182       0.018
  -0.72727273  0.00000000  0.72727273       0.009
   0.00000000  0.90909091  0.00000000       0.005
  -0.90909091  0.00000000  0.90909091       0.009
   0.18181818  0.36363636  0.00000000       0.018
   0.27272727  0.45454545 -0.09090909       0.036
   0.36363636  0.54545455 -0.18181818       0.036
  -0.54545455 -0.36363636  0.72727273       0.036
   0.18181818  0.54545455  0.00000000       0.018
   0.27272727  0.63636364 -0.09090909       0.036
  -0.63636364 -0.27272727  0.81818182       0.036
  -0.54545455 -0.18181818  0.72727273       0.036
  -0.45454545 -0.09090909  0.63636364       0.036
  -0.36363636 -0.00000000  0.54545455       0.018
   0.18181818  0.72727273 -0.00000000       0.018
  -0.72727273 -0.18181818  0.90909091       0.036
  -0.63636364 -0.09090909  0.81818182       0.036
  -0.54545455 -0.00000000  0.72727273       0.018
  -0.81818182 -0.09090909  1.00000000       0.018
  -0.72727273 -0.00000000  0.90909091       0.018
  -0.63636364 -0.27272727  1.00000000       0.018
  -0.54545455 -0.18181818  0.90909091       0.036
  -0.63636364 -0.09090909  1.00000000       0.018
  -0.54545455  0.00000000  0.90909091       0.018
 
 k-points in reciprocal lattice and weights: k-points                                
   0.00000000  0.00000000  0.00000000       0.001
   0.09090909  0.00000000  0.00000000       0.006
   0.18181818  0.00000000  0.00000000       0.006
   0.27272727  0.00000000  0.00000000       0.006
   0.36363636  0.00000000  0.00000000       0.006
   0.45454545  0.00000000  0.00000000       0.006
   0.09090909  0.09090909  0.00000000       0.005
   0.18181818  0.09090909  0.00000000       0.018
   0.27272727  0.09090909  0.00000000       0.018
   0.36363636  0.09090909  0.00000000       0.018
   0.45454545  0.09090909  0.00000000       0.018
  -0.45454545  0.09090909  0.00000000       0.018
  -0.36363636  0.09090909  0.00000000       0.018
  -0.27272727  0.09090909  0.00000000       0.018
  -0.18181818  0.09090909  0.00000000       0.018
  -0.09090909  0.09090909  0.00000000       0.009
   0.18181818  0.18181818  0.00000000       0.005
   0.27272727  0.18181818  0.00000000       0.018
   0.36363636  0.18181818  0.00000000       0.018
   0.45454545  0.18181818  0.00000000       0.018
  -0.45454545  0.18181818  0.00000000       0.018
  -0.36363636  0.18181818  0.00000000       0.018
  -0.27272727  0.18181818  0.00000000       0.018
  -0.18181818  0.18181818  0.00000000       0.009
   0.27272727  0.27272727  0.00000000       0.005
   0.36363636  0.27272727  0.00000000       0.018
   0.45454545  0.27272727  0.00000000       0.018
  -0.45454545  0.27272727  0.00000000       0.018
  -0.36363636  0.27272727  0.00000000       0.018
  -0.27272727  0.27272727  0.00000000       0.009
   0.36363636  0.36363636  0.00000000       0.005
   0.45454545  0.36363636  0.00000000       0.018
  -0.45454545  0.36363636  0.00000000       0.018
  -0.36363636  0.36363636  0.00000000       0.009
   0.45454545  0.45454545  0.00000000       0.005
  -0.45454545  0.45454545  0.00000000       0.009
   0.27272727  0.18181818  0.09090909       0.018
   0.36363636  0.18181818  0.09090909       0.036
   0.45454545  0.18181818  0.09090909       0.036
  -0.45454545  0.18181818  0.09090909       0.036
   0.36363636  0.27272727  0.09090909       0.018
   0.45454545  0.27272727  0.09090909       0.036
  -0.45454545  0.27272727  0.09090909       0.036
  -0.36363636  0.27272727  0.09090909       0.036
  -0.27272727  0.27272727  0.09090909       0.036
  -0.18181818  0.27272727  0.09090909       0.018
   0.45454545  0.36363636  0.09090909       0.018
  -0.45454545  0.36363636  0.09090909       0.036
  -0.36363636  0.36363636  0.09090909       0.036
  -0.27272727  0.36363636  0.09090909       0.018
  -0.45454545  0.45454545  0.09090909       0.018
  -0.36363636  0.45454545  0.09090909       0.018
  -0.45454545  0.36363636  0.18181818       0.018
  -0.36363636  0.36363636  0.18181818       0.036
  -0.36363636  0.45454545  0.18181818       0.018
  -0.27272727  0.45454545  0.18181818       0.018
 
 position of ions in fractional coordinates (direct lattice) 
   0.00000000  0.00000000  0.00000000
 
 position of ions in cartesian coordinates  (Angst):
   0.00000000  0.00000000  0.00000000
 


--------------------------------------------------------------------------------------------------------


 k-point  1 :   0.0000 0.0000 0.0000  plane waves:     169
 k-point  2 :   0.0909 0.0000 0.0000  plane waves:     169
 k-point  3 :   0.1818 0.0000 0.0000  plane waves:     168
 k-point  4 :   0.2727 0.0000 0.0000  plane waves:     162
 k-point  5 :   0.3636 0.0000 0.0000  plane waves:     162
 k-point  6 :   0.4545 0.0000 0.0000  plane waves:     168
 k-point  7 :   0.0909 0.0909 0.0000  plane waves:     169
 k-point  8 :   0.1818 0.0909 0.0000  plane waves:     167
 k-point  9 :   0.2727 0.0909 0.0000  plane waves:     165
 k-point 10 :   0.3636 0.0909 0.0000  plane waves:     164
 k-point 11 :   0.4545 0.0909 0.0000  plane waves:     169
 k-point 12 :  -0.4545 0.0909 0.0000  plane waves:     166
 k-point 13 :  -0.3636 0.0909 0.0000  plane waves:     167
 k-point 14 :  -0.2727 0.0909 0.0000  plane waves:     163
 k-point 15 :  -0.1818 0.0909 0.0000  plane waves:     164
 k-point 16 :  -0.0909 0.0909 0.0000  plane waves:     170
 k-point 17 :   0.1818 0.1818 0.0000  plane waves:     169
 k-point 18 :   0.2727 0.1818 0.0000  plane waves:     166
 k-point 19 :   0.3636 0.1818 0.0000  plane waves:     166
 k-point 20 :   0.4545 0.1818 0.0000  plane waves:     163
 k-point 21 :  -0.4545 0.1818 0.0000  plane waves:     168
 k-point 22 :  -0.3636 0.1818 0.0000  plane waves:     168
 k-point 23 :  -0.2727 0.1818 0.0000  plane waves:     164
 k-point 24 :  -0.1818 0.1818 0.0000  plane waves:     168
 k-point 25 :   0.2727 0.2727 0.0000  plane waves:     165
 k-point 26 :   0.3636 0.2727 0.0000  plane waves:     167
 k-point 27 :   0.4545 0.2727 0.0000  plane waves:     167
 k-point 28 :  -0.4545 0.2727 0.0000  plane waves:     174
 k-point 29 :  -0.3636 0.2727 0.0000  plane waves:     172
 k-point 30 :  -0.2727 0.2727 0.0000  plane waves:     168
 k-point 31 :   0.3636 0.3636 0.0000  plane waves:     170
 k-point 32 :   0.4545 0.3636 0.0000  plane waves:     168
 k-point 33 :  -0.4545 0.3636 0.0000  plane waves:     174
 k-point 34 :  -0.3636 0.3636 0.0000  plane waves:     172
 k-point 35 :   0.4545 0.4545 0.0000  plane waves:     162
 k-point 36 :  -0.4545 0.4545 0.0000  plane waves:     178
 k-point 37 :   0.2727 0.1818 0.0909  plane waves:     164
 k-point 38 :   0.3636 0.1818 0.0909  plane waves:     166
 k-point 39 :   0.4545 0.1818 0.0909  plane waves:     162
 k-point 40 :  -0.4545 0.1818 0.0909  plane waves:     167
 k-point 41 :   0.3636 0.2727 0.0909  plane waves:     165
 k-point 42 :   0.4545 0.2727 0.0909  plane waves:     168
 k-point 43 :  -0.4545 0.2727 0.0909  plane waves:     167
 k-point 44 :  -0.3636 0.2727 0.0909  plane waves:     170
 k-point 45 :  -0.2727 0.2727 0.0909  plane waves:     168
 k-point 46 :  -0.1818 0.2727 0.0909  plane waves:     166
 k-point 47 :   0.4545 0.3636 0.0909  plane waves:     172
 k-point 48 :  -0.4545 0.3636 0.0909  plane waves:     169
 k-point 49 :  -0.3636 0.3636 0.0909  plane waves:     173
 k-point 50 :  -0.2727 0.3636 0.0909  plane waves:     169
 k-point 51 :  -0.4545 0.4545 0.0909  plane waves:     171
 k-point 52 :  -0.3636 0.4545 0.0909  plane waves:     172
 k-point 53 :  -0.4545 0.3636 0.1818  plane waves:     167
 k-point 54 :  -0.3636 0.3636 0.1818  plane waves:     169
 k-point 55 :  -0.3636 0.4545 0.1818  plane waves:     166
 k-point 56 :  -0.2727 0.4545 0.1818  plane waves:     169

 maximum and minimum number of plane-waves per node :       178      162

 maximum number of plane-waves:       178
 maximum index in each direction: 
   IXMAX=    4   IYMAX=    3   IZMAX=    3
   IXMIN=   -4   IYMIN=   -4   IZMIN=   -3


 serial   3D FFT for wavefunctions
 parallel 3D FFT for charge:
    minimum data exchange during FFTs selected (reduces bandwidth)


 total amount of memory used by VASP MPI-rank0    30938. kBytes
=======================================================================

   base      :      30000. kBytes
   nonl-proj :        648. kBytes
   fftplans  :         23. kBytes
   grid      :         92. kBytes
   one-center:          3. kBytes
   wavefun   :        172. kBytes
 
     INWAV:  cpu time    0.0000: real time    0.0000
 Broyden mixing: mesh for mixing (old mesh)
   NGX =  7   NGY =  7   NGZ =  7
  (NGX  = 14   NGY  = 14   NGZ  = 14)
  gives a total of    343 points

 initial charge density was supplied:
 charge density of overlapping atoms calculated
 number of electron       4.0000000 magnetization 
 keeping initial charge density in first step


--------------------------------------------------------------------------------------------------------


 Maximum index for augmentation-charges          142 (set IRDMAX)


--------------------------------------------------------------------------------------------------------


 First call to EWALD:  gamma=   0.654
 Maximum number of real-space cells 3x 3x 3
 Maximum number of reciprocal cells 3x 3x 3

    FEWALD:  cpu time    0.0029: real time    0.0029


--------------------------------------- Iteration      1(   1)  ---------------------------------------


    POTLOK:  cpu time    0.0057: real time    0.0064
    SETDIJ:  cpu time    0.0029: real time    0.0030
     EDDAV:  cpu time    0.1977: real time    0.1979
       DOS:  cpu time    0.0009: real time    0.0009
    --------------------------------------------
      LOOP:  cpu time    0.2072: real time    0.2082

 eigenvalue-minimisations  :  1584
 total energy-change (2. order) :-0.3976920E+01  (-0.1094430E+03)
 number of electron       4.0000000 magnetization 
 augmentation part        4.0000000 magnetization 

 Free energy of the ion-electron system (eV)
  ---------------------------------------------------
  alpha Z        PSCENC =         1.69359331
  Ewald energy   TEWEN  =      -122.82983823
  -Hartree energ DENC   =        -1.63218439
  -exchange      EXHF   =         0.00000000
  -V(xc)+E(xc)   XCENC  =        -9.56153104
  PAW double counting   =        88.12379961      -70.53051779
  entropy T*S    EENTRO =        -0.00961813
  eigenvalues    EBANDS =         7.70860017
  atomic energy  EATOM  =       103.06077658
  Solvation  Ediel_sol  =         0.00000000
  ---------------------------------------------------
  free energy    TOTEN  =        -3.97691990 eV

  energy without entropy =       -3.96730177  energy(sigma->0) =       -3.97211083


--------------------------------------------------------------------------------------------------------




--------------------------------------- Iteration      1(   2)  ---------------------------------------


     EDDAV:  cpu time    0.2517: real time    0.2520
       DOS:  cpu time    0.0008: real time    0.0008
    --------------------------------------------
      LOOP:  cpu time    0.2524: real time    0.2528

 eigenvalue-minimisations  :  1884
 total energy-change (2. order) :-0.6188112E+00  (-0.5987242E+00)
 number of electron       4.0000000 magnetization 
 augmentation part        4.0000000 magnetization 

 Free energy of the ion-electron system (eV)
  ---------------------------------------------------
  alpha Z        PSCENC =         1.69359331
  Ewald energy   TEWEN  =      -122.82983823
  -Hartree energ DENC   =        -1.63218439
  -exchange      EXHF   =         0.00000000
  -V(xc)+E(xc)   XCENC  =        -9.56153104
  PAW double counting   =        88.12379961      -70.53051779
  entropy T*S    EENTRO =        -0.00382290
  eigenvalues    EBANDS =         7.08399371
  atomic energy  EATOM  =       103.06077658
  Solvation  Ediel_sol  =         0.00000000
  ---------------------------------------------------
  free energy    TOTEN  =        -4.59573113 eV

  energy without entropy =       -4.59190824  energy(sigma->0) =       -4.59381969


--------------------------------------------------------------------------------------------------------




--------------------------------------- Iteration      1(   3)  ---------------------------------------


     EDDAV:  cpu time    0.1416: real time    0.1417
       DOS:  cpu time    0.0005: real time    0.0005
    --------------------------------------------
      LOOP:  cpu time    0.1421: real time    0.1422

 eigenvalue-minimisations  :  1632
 total energy-change (2. order) :-0.1095837E-02  (-0.1095818E-02)
 number of electron       4.0000000 magnetization 
 augmentation part        4.0000000 magnetization 

 Free energy of the ion-electron system (eV)
  ---------------------------------------------------
  alpha Z        PSCENC =         1.69359331
  Ewald energy   TEWEN  =      -122.82983823
  -Hartree energ DENC   =        -1.63218439
  -exchange      EXHF   =         0.00000000
  -V(xc)+E(xc)   XCENC  =        -9.56153104
  PAW double counting   =        88.12379961      -70.53051779
  entropy T*S    EENTRO =        -0.00382432
  eigenvalues    EBANDS =         7.08289930
  atomic energy  EATOM  =       103.06077658
  Solvation  Ediel_sol  =         0.00000000
  ---------------------------------------------------
  free energy    TOTEN  =        -4.59682697 eV

  energy without entropy =       -4.59300265  energy(sigma->0) =       -4.59491481


--------------------------------------------------------------------------------------------------------




--------------------------------------- Iteration      1(   4)  ---------------------------------------


     EDDAV:  cpu time    0.2059: real time    0.2062
       DOS:  cpu time    0.0004: real time    0.0004
    --------------------------------------------
      LOOP:  cpu time    0.2063: real time    0.2066

 eigenvalue-minimisations  :  2232
 total energy-change (2. order) :-0.3571229E-06  (-0.3574686E-06)
 number of electron       4.0000000 magnetization 
 augmentation part        4.0000000 magnetization 

 Free energy of the ion-electron system (eV)
  ---------------------------------------------------
  alpha Z        PSCENC =         1.69359331
  Ewald energy   TEWEN  =      -122.82983823
  -Hartree energ DENC   =        -1.63218439
  -exchange      EXHF   =         0.00000000
  -V(xc)+E(xc)   XCENC  =        -9.56153104
  PAW double counting   =        88.12379961      -70.53051779
  entropy T*S    EENTRO =        -0.00382433
  eigenvalues    EBANDS =         7.08289894
  atomic energy  EATOM  =       103.06077658
  Solvation  Ediel_sol  =         0.00000000
  ---------------------------------------------------
  free energy    TOTEN  =        -4.59682733 eV

  energy without entropy =       -4.59300300  energy(sigma->0) =       -4.59491517


--------------------------------------------------------------------------------------------------------




--------------------------------------- Iteration      1(   5)  ---------------------------------------


     EDDAV:  cpu time    0.1268: real time    0.1269
       DOS:  cpu time    0.0004: real time    0.0004
    CHARGE:  cpu time    0.0018: real time    0.0018
    MIXING:  cpu time    0.0002: real time    0.0002
    --------------------------------------------
      LOOP:  cpu time    0.1292: real time    0.1293

 eigenvalue-minimisations  :  1632
 total energy-change (2. order) : 0.3964971E-09  (-0.1120348E-11)
 number of electron       4.0000052 magnetization 
 augmentation part       -0.2524323 magnetization 

 Broyden mixing:
  rms(total) = 0.17346E+00    rms(broyden)= 0.17345E+00
  rms(prec ) = 0.30272E+00
  weight for this iteration     100.00

 Free energy of the ion-electron system (eV)
  ---------------------------------------------------
  alpha Z        PSCENC =         1.69359331
  Ewald energy   TEWEN  =      -122.82983823
  -Hartree energ DENC   =        -1.63218439
  -exchange      EXHF   =         0.00000000
  -V(xc)+E(xc)   XCENC  =        -9.56153104
  PAW double counting   =        88.12379961      -70.53051779
  entropy T*S    EENTRO =        -0.00382433
  eigenvalues    EBANDS =         7.08289894
  atomic energy  EATOM  =       103.06077658
  Solvation  Ediel_sol  =         0.00000000
  ---------------------------------------------------
  free energy    TOTEN  =        -4.59682733 eV

  energy without entropy =       -4.59300300  energy(sigma->0) =       -4.59491516


--------------------------------------------------------------------------------------------------------




--------------------------------------- Iteration      1(   6)  ---------------------------------------


    POTLOK:  cpu time    0.0014: real time    0.0014
    SETDIJ:  cpu time    0.0015: real time    0.0015
     EDDAV:  cpu time    0.1093: real time    0.1093
       DOS:  cpu time    0.0004: real time    0.0004
    CHARGE:  cpu time    0.0016: real time    0.0016
    MIXING:  cpu time    0.0002: real time    0.0002
    --------------------------------------------
      LOOP:  cpu time    0.1144: real time    0.1144

 eigenvalue-minimisations  :  1512
 total energy-change (2. order) : 0.9241589E-02  (-0.4808486E-03)
 number of electron       4.0000052 magnetization 
 augmentation part       -0.2549321 magnetization 

 Broyden mixing:
  rms(total) = 0.93540E-01    rms(broyden)= 0.93540E-01
  rms(prec ) = 0.17351E+00
  weight for this iteration     100.00

 eigenvalues of (default mixing * dielectric matrix)
  average eigenvalue GAMMA=   2.1454
  2.1454

 Free energy of the ion-electron system (eV)
  ---------------------------------------------------
  alpha Z        PSCENC =         1.69359331
  Ewald energy   TEWEN  =      -122.82983823
  -Hartree energ DENC   =        -1.47692496
  -exchange      EXHF   =         0.00000000
  -V(xc)+E(xc)   XCENC  =        -9.56883922
  PAW double counting   =       133.60398311     -115.99470463
  entropy T*S    EENTRO =        -0.00383940
  eigenvalues    EBANDS =         6.92820770
  atomic energy  EATOM  =       103.06077658
  Solvation  Ediel_sol  =         0.00000000
  ---------------------------------------------------
  free energy    TOTEN  =        -4.58758574 eV

  energy without entropy =       -4.58374634  energy(sigma->0) =       -4.58566604


--------------------------------------------------------------------------------------------------------




--------------------------------------- Iteration      1(   7)  ---------------------------------------


    POTLOK:  cpu time    0.0012: real time    0.0012
    SETDIJ:  cpu time    0.0014: real time    0.0014
     EDDAV:  cpu time    0.1170: real time    0.1171
       DOS:  cpu time    0.0004: real time    0.0004
    CHARGE:  cpu time    0.0016: real time    0.0016
    MIXING:  cpu time    0.0002: real time    0.0002
    --------------------------------------------
      LOOP:  cpu time    0.1218: real time    0.1219

 eigenvalue-minimisations  :  1596
 total energy-change (2. order) : 0.4661614E-02  (-0.8826481E-03)
 number of electron       4.0000053 magnetization 
 augmentation part       -0.2583768 magnetization 

 Broyden mixing:
  rms(total) = 0.11755E-01    rms(broyden)= 0.11752E-01
  rms(prec ) = 0.15740E-01
  weight for this iteration     100.00

 eigenvalues of (default mixing * dielectric matrix)
  average eigenvalue GAMMA=   2.3365
  2.3365  2.3365

 Free energy of the ion-electron system (eV)
  ---------------------------------------------------
  alpha Z        PSCENC =         1.69359331
  Ewald energy   TEWEN  =      -122.82983823
  -Hartree energ DENC   =        -1.28776644
  -exchange      EXHF   =         0.00000000
  -V(xc)+E(xc)   XCENC  =        -9.57687998
  PAW double counting   =       206.23242523     -188.60602928
  entropy T*S    EENTRO =        -0.00386749
  eigenvalues    EBANDS =         6.73466217
  atomic energy  EATOM  =       103.06077658
  Solvation  Ediel_sol  =         0.00000000
  ---------------------------------------------------
  free energy    TOTEN  =        -4.58292413 eV

  energy without entropy =       -4.57905664  energy(sigma->0) =       -4.58099038


--------------------------------------------------------------------------------------------------------




--------------------------------------- Iteration      1(   8)  ---------------------------------------


    POTLOK:  cpu time    0.0013: real time    0.0013
    SETDIJ:  cpu time    0.0014: real time    0.0014
     EDDAV:  cpu time    0.1267: real time    0.1268
       DOS:  cpu time    0.0004: real time    0.0004
    CHARGE:  cpu time    0.0016: real time    0.0016
    MIXING:  cpu time    0.0002: real time    0.0002
    --------------------------------------------
      LOOP:  cpu time    0.1315: real time    0.1317

 eigenvalue-minimisations  :  1656
 total energy-change (2. order) :-0.3817686E-05  (-0.3611023E-05)
 number of electron       4.0000053 magnetization 
 augmentation part       -0.2584506 magnetization 

 Broyden mixing:
  rms(total) = 0.14743E-02    rms(broyden)= 0.14733E-02
  rms(prec ) = 0.22306E-02
  weight for this iteration     100.00

 eigenvalues of (default mixing * dielectric matrix)
  average eigenvalue GAMMA=   2.0093
  1.0300  2.3581  2.6400

 Free energy of the ion-electron system (eV)
  ---------------------------------------------------
  alpha Z        PSCENC =         1.69359331
  Ewald energy   TEWEN  =      -122.82983823
  -Hartree energ DENC   =        -1.28524009
  -exchange      EXHF   =         0.00000000
  -V(xc)+E(xc)   XCENC  =        -9.57636088
  PAW double counting   =       196.49725070     -178.87675617
  entropy T*S    EENTRO =        -0.00386624
  eigenvalues    EBANDS =         6.73751307
  atomic energy  EATOM  =       103.06077658
  Solvation  Ediel_sol  =         0.00000000
  ---------------------------------------------------
  free energy    TOTEN  =        -4.58292794 eV

  energy without entropy =       -4.57906171  energy(sigma->0) =       -4.58099482


--------------------------------------------------------------------------------------------------------




--------------------------------------- Iteration      1(   9)  ---------------------------------------


    POTLOK:  cpu time    0.0012: real time    0.0013
    SETDIJ:  cpu time    0.0014: real time    0.0014
     EDDAV:  cpu time    0.1851: real time    0.1851
       DOS:  cpu time    0.0004: real time    0.0004
    CHARGE:  cpu time    0.0016: real time    0.0016
    MIXING:  cpu time    0.0001: real time    0.0001
    --------------------------------------------
      LOOP:  cpu time    0.1898: real time    0.1899

 eigenvalue-minimisations  :  2088
 total energy-change (2. order) :-0.1649007E-05  (-0.3636317E-07)
 number of electron       4.0000053 magnetization 
 augmentation part       -0.2584651 magnetization 

 Broyden mixing:
  rms(total) = 0.26376E-03    rms(broyden)= 0.26348E-03
  rms(prec ) = 0.33362E-03
  weight for this iteration     100.00

 eigenvalues of (default mixing * dielectric matrix)
  average eigenvalue GAMMA=   2.0705
  1.0029  2.6878  2.2956  2.2956

 Free energy of the ion-electron system (eV)
  ---------------------------------------------------
  alpha Z        PSCENC =         1.69359331
  Ewald energy   TEWEN  =      -122.82983823
  -Hartree energ DENC   =        -1.28470185
  -exchange      EXHF   =         0.00000000
  -V(xc)+E(xc)   XCENC  =        -9.57637897
  PAW double counting   =       194.96114211     -177.34131764
  entropy T*S    EENTRO =        -0.00386603
  eigenvalues    EBANDS =         6.73766114
  atomic energy  EATOM  =       103.06077658
  Solvation  Ediel_sol  =         0.00000000
  ---------------------------------------------------
  free energy    TOTEN  =        -4.58292959 eV

  energy without entropy =       -4.57906356  energy(sigma->0) =       -4.58099658


--------------------------------------------------------------------------------------------------------




--------------------------------------- Iteration      1(  10)  ---------------------------------------


    POTLOK:  cpu time    0.0011: real time    0.0012
    SETDIJ:  cpu time    0.0014: real time    0.0014
     EDDAV:  cpu time    0.1108: real time    0.1109
       DOS:  cpu time    0.0004: real time    0.0004
    --------------------------------------------
      LOOP:  cpu time    0.1138: real time    0.1139

 eigenvalue-minimisations  :  1440
 total energy-change (2. order) : 0.1947845E-06  (-0.1161420E-08)
 number of electron       4.0000053 magnetization 
 augmentation part       -0.2584651 magnetization 

 Free energy of the ion-electron system (eV)
  ---------------------------------------------------
  alpha Z        PSCENC =         1.69359331
  Ewald energy   TEWEN  =      -122.82983823
  -Hartree energ DENC   =        -1.28476994
  -exchange      EXHF   =         0.00000000
  -V(xc)+E(xc)   XCENC  =        -9.57649715
  PAW double counting   =       194.95210307     -177.33191469
  entropy T*S    EENTRO =        -0.00386596
  eigenvalues    EBANDS =         6.73748362
  atomic energy  EATOM  =       103.06077658
  Solvation  Ediel_sol  =         0.00000000
  ---------------------------------------------------
  free energy    TOTEN  =        -4.58292940 eV

  energy without entropy =       -4.57906343  energy(sigma->0) =       -4.58099642


--------------------------------------------------------------------------------------------------------




 average (electrostatic) potential at core
  the test charge radii are     0.9892
  (the norm of the test charge is              1.0000)
       1 -83.7502
 
 
 
 E-fermi :   6.3822     XC(G=0):  -9.9470     alpha+bet :-12.0666


 k-point     1 :       0.0000    0.0000    0.0000
  band No.  band energies     occupation 
      1      -5.3695      2.00000
      2      14.2508      0.00000
      3      14.2509      0.00000
      4      14.2509      0.00000
      5      17.3363      0.00000
      6      17.3364      0.00000
      7      17.3364      0.00000
      8      21.9054      0.00000
      9      22.6676      0.00000
     10      22.6676      0.00000
     11      23.2905      0.00000
     12      28.0553      0.00000

 k-point     2 :       0.0909    0.0000    0.0000
  band No.  band energies     occupation 
      1      -5.1781      2.00000
      2      12.5689      0.00000
      3      13.9243      0.00000
      4      13.9243      0.00000
      5      17.4939      0.00000
      6      17.8551      0.00000
      7      17.8552      0.00000
      8      21.9391      0.00000
      9      21.9392      0.00000
     10      23.2374      0.00000
     11      23.6549      0.00000
     12      27.4187      0.00000

 k-point     3 :       0.1818    0.0000    0.0000
  band No.  band energies     occupation 
      1      -4.6058      2.00000
      2       9.6636      0.00000
      3      13.3557      0.00000
      4      13.3557      0.00000
      5      17.3066      0.00000
      6      18.5124      0.00000
      7      18.5127      0.00000
      8      21.2756      0.00000
      9      21.2759      0.00000
     10      23.5465      0.00000
     11      25.3183      0.00000
     12      28.5946      0.00000

 k-point     4 :       0.2727    0.0000    0.0000
  band No.  band energies     occupation 
      1      -3.6605      2.00000
      2       6.7479      0.00000
      3      12.9002      0.00000
      4      12.9002      0.00000
      5      17.0314      0.00000
      6      17.9372      0.00000
      7      17.9376      0.00000
      8      22.3838      0.00000
      9      22.4772      0.00000
     10      22.4776      0.00000
     11      27.2210      0.00000
     12      32.3795      0.00000

 k-point     5 :       0.3636    0.0000    0.0000
  band No.  band energies     occupation 
      1      -2.3658      2.00000
      2       4.0821      2.00000
      3      12.6285      0.00000
      4      12.6285      0.00000
      5      16.8617      0.00000
      6      17.0848      0.00000
      7      17.0851      0.00000
      8      21.3092      0.00000
      9      24.5860      0.00000
     10      24.5867      0.00000
     11      29.2815      0.00000
     12      35.7595      0.00000

 k-point     6 :       0.4545    0.0000    0.0000
  band No.  band energies     occupation 
      1      -0.8611      2.00000
      2       1.8823      2.00000
      3      12.5138      0.00000
      4      12.5138      0.00000
      5      16.5739      0.00000
      6      16.5742      0.00000
      7      16.8084      0.00000
      8      20.6983      0.00000
      9      26.5585      0.00000
     10      26.5597      0.00000
     11      30.9848      0.00000
     12      33.2122      0.00000

 k-point     7 :       0.0909    0.0909    0.0000
  band No.  band energies     occupation 
      1      -5.1143      2.00000
      2      13.1417      0.00000
      3      13.1417      0.00000
      4      13.5503      0.00000
      5      16.1777      0.00000
      6      18.7506      0.00000
      7      18.7506      0.00000
      8      20.4274      0.00000
      9      22.8980      0.00000
     10      23.5853      0.00000
     11      24.1923      0.00000
     12      28.4670      0.00000

 k-point     8 :       0.1818    0.0909    0.0000
  band No.  band energies     occupation 
      1      -4.6687      2.00000
      2      10.7519      0.00000
      3      12.4044      0.00000
      4      13.2945      0.00000
      5      16.1949      0.00000
      6      18.8501      0.00000
      7      19.4211      0.00000
      8      19.7590      0.00000
      9      22.6930      0.00000
     10      24.9502      0.00000
     11      25.5514      0.00000
     12      28.2089      0.00000

 k-point     9 :       0.2727    0.0909    0.0000
  band No.  band energies     occupation 
      1      -3.8472      2.00000
      2       7.8375      0.00000
      3      11.9019      0.00000
      4      12.6813      0.00000
      5      16.2673      0.00000
      6      18.2950      0.00000
      7      19.5827      0.00000
      8      20.0141      0.00000
      9      23.4654      0.00000
     10      24.2031      0.00000
     11      27.4485      0.00000
     12      31.1148      0.00000

 k-point    10 :       0.3636    0.0909    0.0000
  band No.  band energies     occupation 
      1      -2.6655      2.00000
      2       5.0857      2.00000
      3      11.6824      0.00000
      4      12.0403      0.00000
      5      15.7134      0.00000
      6      18.2194      0.00000
      7      18.6299      0.00000
      8      21.6536      0.00000
      9      23.1799      0.00000
     10      25.3432      0.00000
     11      29.5007      0.00000
     12      35.1966      0.00000

 k-point    11 :       0.4545    0.0909    0.0000
  band No.  band energies     occupation 
      1      -1.1907      2.00000
      2       2.6916      2.00000
      3      11.4564      0.00000
      4      11.7461      0.00000
      5      15.4784      0.00000
      6      17.7708      0.00000
      7      18.1028      0.00000
      8      22.2971      0.00000
      9      24.1026      0.00000
     10      26.9464      0.00000
     11      31.4079      0.00000
     12      33.2288      0.00000

 k-point    12 :      -0.4545    0.0909    0.0000
  band No.  band energies     occupation 
      1      -0.3277      2.00000
      2       1.5976      2.00000
      3      11.0043      0.00000
      4      12.0684      0.00000
      5      15.7357      0.00000
      6      17.2594      0.00000
      7      17.9861      0.00000
      8      22.2145      0.00000
      9      25.9224      0.00000
     10      26.3279      0.00000
     11      31.6775      0.00000
     12      32.8554      0.00000

 k-point    13 :      -0.3636    0.0909    0.0000
  band No.  band energies     occupation 
      1      -1.7037      2.00000
      2       3.4365      2.00000
      3      10.7691      0.00000
      4      12.5901      0.00000
      5      16.4321      0.00000
      6      17.1640      0.00000
      7      17.9150      0.00000
      8      22.5972      0.00000
      9      24.0205      0.00000
     10      25.5201      0.00000
     11      31.1293      0.00000
     12      33.0475      0.00000

 k-point    14 :      -0.2727    0.0909    0.0000
  band No.  band energies     occupation 
      1      -3.0980      2.00000
      2       5.9764      2.00000
      3      10.8062      0.00000
      4      13.2249      0.00000
      5      17.4530      0.00000
      6      17.5427      0.00000
      7      17.9557      0.00000
      8      21.7016      0.00000
      9      22.7480      0.00000
     10      24.4364      0.00000
     11      29.1056      0.00000
     12      33.3143      0.00000

 k-point    15 :      -0.1818    0.0909    0.0000
  band No.  band energies     occupation 
      1      -4.1624      2.00000
      2       8.8086      0.00000
      3      11.1418      0.00000
      4      13.8548      0.00000
      5      17.9330      0.00000
      6      18.1544      0.00000
      7      18.6553      0.00000
      8      20.0348      0.00000
      9      21.5632      0.00000
     10      25.0954      0.00000
     11      27.0004      0.00000
     12      29.7407      0.00000

 k-point    16 :      -0.0909    0.0909    0.0000
  band No.  band energies     occupation 
      1      -4.8597      2.00000
      2      11.5825      0.00000
      3      11.9087      0.00000
      4      14.2356      0.00000
      5      17.7138      0.00000
      6      17.8348      0.00000
      7      18.8913      0.00000
      8      20.4474      0.00000
      9      21.5041      0.00000
     10      24.7987      0.00000
     11      24.9124      0.00000
     12      27.9545      0.00000

 k-point    17 :       0.1818    0.1818    0.0000
  band No.  band energies     occupation 
      1      -4.3507      2.00000
      2      11.5457      0.00000
      3      11.5457      0.00000
      4      11.8420      0.00000
      5      14.4044      0.00000
      6      16.9388      0.00000
      7      21.1933      0.00000
      8      21.1934      0.00000
      9      23.5665      0.00000
     10      26.5320      0.00000
     11      26.9201      0.00000
     12      29.7469      0.00000

 k-point    18 :       0.2727    0.1818    0.0000
  band No.  band energies     occupation 
      1      -3.6553      2.00000
      2       9.1284      0.00000
      3      10.9467      0.00000
      4      11.3170      0.00000
      5      14.4440      0.00000
      6      16.0852      0.00000
      7      21.7028      0.00000
      8      21.8327      0.00000
      9      24.3412      0.00000
     10      27.0918      0.00000
     11      28.7153      0.00000
     12      30.4590      0.00000

 k-point    19 :       0.3636    0.1818    0.0000
  band No.  band energies     occupation 
      1      -2.5937      2.00000
      2       6.3931      0.87723
      3      10.3347      0.00000
      4      10.6518      0.00000
      5      14.1466      0.00000
      6      17.4213      0.00000
      7      20.8750      0.00000
      8      21.8355      0.00000
      9      26.1134      0.00000
     10      26.1741      0.00000
     11      30.5906      0.00000
     12      33.8948      0.00000

 k-point    20 :       0.4545    0.1818    0.0000
  band No.  band energies     occupation 
      1      -1.2041      2.00000
      2       3.8940      2.00000
      3       9.3938      0.00000
      4      10.6752      0.00000
      5      13.9959      0.00000
      6      19.2182      0.00000
      7      19.9368      0.00000
      8      22.0355      0.00000
      9      25.5140      0.00000
     10      27.4395      0.00000
     11      32.3525      0.00000
     12      33.7238      0.00000

 k-point    21 :      -0.4545    0.1818    0.0000
  band No.  band energies     occupation 
      1       0.1633      2.00000
      2       2.0755      2.00000
      3       8.6601      0.00000
      4      11.0073      0.00000
      5      14.2833      0.00000
      6      19.2105      0.00000
      7      19.9489      0.00000
      8      23.3276      0.00000
      9      25.3463      0.00000
     10      26.2858      0.00000
     11      31.3579      0.00000
     12      34.4055      0.00000

 k-point    22 :      -0.3636    0.1818    0.0000
  band No.  band energies     occupation 
      1      -0.7008      2.00000
      2       3.1731      2.00000
      3       8.2109      0.00000
      4      11.6266      0.00000
      5      14.9859      0.00000
      6      18.8200      0.00000
      7      19.8882      0.00000
      8      23.7768      0.00000
      9      24.2001      0.00000
     10      25.8414      0.00000
     11      30.5610      0.00000
     12      34.4207      0.00000

 k-point    23 :      -0.2727    0.1818    0.0000
  band No.  band energies     occupation 
      1      -2.1681      2.00000
      2       5.5516      2.00000
      3       8.0847      0.00000
      4      12.4690      0.00000
      5      16.0555      0.00000
      6      18.8007      0.00000
      7      19.6424      0.00000
      8      21.2976      0.00000
      9      23.1352      0.00000
     10      26.8471      0.00000
     11      30.9346      0.00000
     12      33.3549      0.00000

 k-point    24 :      -0.1818    0.1818    0.0000
  band No.  band energies     occupation 
      1      -3.3447      2.00000
      2       8.1431      0.00000
      3       8.4202      0.00000
      4      13.3714      0.00000
      5      17.3891      0.00000
      6      19.0457      0.00000
      7      19.1395      0.00000
      8      19.3077      0.00000
      9      21.9207      0.00000
     10      27.3461      0.00000
     11      28.6159      0.00000
     12      31.0744      0.00000

 k-point    25 :       0.2727    0.2727    0.0000
  band No.  band energies     occupation 
      1      -3.0868      2.00000
      2       9.4041      0.00000
      3      10.2442      0.00000
      4      10.2442      0.00000
      5      12.9417      0.00000
      6      14.2503      0.00000
      7      23.7696      0.00000
      8      23.7696      0.00000
      9      24.6394      0.00000
     10      29.5732      0.00000
     11      30.9909      0.00000
     12      31.0458      0.00000

 k-point    26 :       0.3636    0.2727    0.0000
  band No.  band energies     occupation 
      1      -2.1497      2.00000
      2       7.5537      0.00000
      3       8.9053      0.00000
      4       9.8493      0.00000
      5      12.9415      0.00000
      6      14.4545      0.00000
      7      23.4533      0.00000
      8      24.3352      0.00000
      9      26.4562      0.00000
     10      29.8513      0.00000
     11      31.7910      0.00000
     12      33.3860      0.00000

 k-point    27 :       0.4545    0.2727    0.0000
  band No.  band energies     occupation 
      1      -0.8688      2.00000
      2       5.2986      2.00000
      3       7.4700      0.00000
      4       9.7803      0.00000
      5      12.8388      0.00000
      6      16.5678      0.00000
      7      22.5051      0.00000
      8      24.0308      0.00000
      9      27.7939      0.00000
     10      29.2093      0.00000
     11      33.2129      0.00000
     12      34.4347      0.00000

 k-point    28 :      -0.4545    0.2727    0.0000
  band No.  band energies     occupation 
      1       0.6109      2.00000
      2       3.2510      2.00000
      3       6.4435      0.38595
      4      10.0368      0.00000
      5      13.0797      0.00000
      6      19.0821      0.00000
      7      21.6741      0.00000
      8      23.4362      0.00000
      9      26.4629      0.00000
     10      28.6973      0.00000
     11      31.9048      0.00000
     12      35.2091      0.00000

 k-point    29 :      -0.3636    0.2727    0.0000
  band No.  band energies     occupation 
      1       0.5763      2.00000
      2       3.3261      2.00000
      3       5.7870      2.00000
      4      10.6078      0.00000
      5      13.7188      0.00000
      6      21.0774      0.00000
      7      21.3499      0.00000
      8      22.8089      0.00000
      9      23.9186      0.00000
     10      27.9623      0.00000
     11      31.1932      0.00000
     12      35.1543      0.00000

 k-point    30 :      -0.2727    0.2727    0.0000
  band No.  band energies     occupation 
      1      -0.8974      2.00000
      2       5.4129      2.00000
      3       5.5710      2.00000
      4      11.4567      0.00000
      5      14.7329      0.00000
      6      20.4691      0.00000
      7      21.2759      0.00000
      8      21.7043      0.00000
      9      23.0051      0.00000
     10      28.0391      0.00000
     11      31.5433      0.00000
     12      32.0489      0.00000

 k-point    31 :       0.3636    0.3636    0.0000
  band No.  band energies     occupation 
      1      -1.3388      2.00000
      2       6.4716      0.20628
      3       9.3504      0.00000
      4       9.3505      0.00000
      5      11.9349      0.00000
      6      12.7117      0.00000
      7      25.9533      0.00000
      8      26.1868      0.00000
      9      26.1869      0.00000
     10      32.2238      0.00000
     11      32.9887      0.00000
     12      34.3565      0.00000

 k-point    32 :       0.4545    0.3636    0.0000
  band No.  band energies     occupation 
      1      -0.1794      2.00000
      2       5.0348      2.00000
      3       7.6927      0.00000
      4       9.1779      0.00000
      5      12.0547      0.00000
      6      13.6248      0.00000
      7      25.2410      0.00000
      8      26.5142      0.00000
      9      27.9744      0.00000
     10      32.6413      0.00000
     11      33.3979      0.00000
     12      34.2781      0.00000

 k-point    33 :      -0.4545    0.3636    0.0000
  band No.  band energies     occupation 
      1       1.2416      2.00000
      2       3.8174      2.00000
      3       5.5996      2.00000
      4       9.3365      0.00000
      5      12.2385      0.00000
      6      16.1202      0.00000
      7      24.3353      0.00000
      8      25.7194      0.00000
      9      26.9485      0.00000
     10      30.9313      0.00000
     11      34.1442      0.00000
     12      35.3681      0.00000

 k-point    34 :      -0.3636    0.3636    0.0000
  band No.  band energies     occupation 
      1       1.8139      2.00000
      2       3.6258      2.00000
      3       4.2352      2.00000
      4       9.8209      0.00000
      5      12.7924      0.00000
      6      18.9567      0.00000
      7      23.2108      0.00000
      8      24.3028      0.00000
      9      24.8367      0.00000
     10      29.2228      0.00000
     11      34.2337      0.00000
     12      34.9066      0.00000

 k-point    35 :       0.4545    0.4545    0.0000
  band No.  band energies     occupation 
      1       0.8461      2.00000
      2       3.5742      2.00000
      3       8.8987      0.00000
      4       8.8987      0.00000
      5      11.4296      0.00000
      6      12.0389      0.00000
      7      27.1612      0.00000
      8      28.2194      0.00000
      9      28.2195      0.00000
     10      33.1977      0.00000
     11      33.4411      0.00000
     12      33.4412      0.00000

 k-point    36 :      -0.4545    0.4545    0.0000
  band No.  band energies     occupation 
      1       1.8854      2.00000
      2       2.6450      2.00000
      3       7.3935      0.00000
      4       8.9518      0.00000
      5      11.7629      0.00000
      6      13.3566      0.00000
      7      26.4437      0.00000
      8      27.6761      0.00000
      9      27.8778      0.00000
     10      32.2855      0.00000
     11      34.0257      0.00000
     12      34.2276      0.00000

 k-point    37 :       0.2727    0.1818    0.0909
  band No.  band energies     occupation 
      1      -4.0982      2.00000
      2       9.8616      0.00000
      3      10.2019      0.00000
      4      13.1227      0.00000
      5      16.1724      0.00000
      6      17.6081      0.00000
      7      19.9630      0.00000
      8      20.5073      0.00000
      9      22.7375      0.00000
     10      26.5182      0.00000
     11      27.4511      0.00000
     12      29.2046      0.00000

 k-point    38 :       0.3636    0.1818    0.0909
  band No.  band energies     occupation 
      1      -3.1564      2.00000
      2       7.1771      0.00000
      3       9.6012      0.00000
      4      12.3469      0.00000
      5      16.2269      0.00000
      6      17.8653      0.00000
      7      19.3824      0.00000
      8      20.9957      0.00000
      9      23.7199      0.00000
     10      26.2977      0.00000
     11      29.5729      0.00000
     12      31.7710      0.00000

 k-point    39 :       0.4545    0.1818    0.0909
  band No.  band energies     occupation 
      1      -1.8663      2.00000
      2       4.5478      2.00000
      3       9.4439      0.00000
      4      11.4581      0.00000
      5      15.9154      0.00000
      6      17.7417      0.00000
      7      19.8551      0.00000
      8      21.7505      0.00000
      9      24.8114      0.00000
     10      26.0052      0.00000
     11      31.6779      0.00000
     12      33.1604      0.00000

 k-point    40 :      -0.4545    0.1818    0.0909
  band No.  band energies     occupation 
      1      -0.3677      2.00000
      2       2.3624      2.00000
      3       9.4923      0.00000
      4      10.8392      0.00000
      5      15.8597      0.00000
      6      17.1744      0.00000
      7      20.1398      0.00000
      8      23.5407      0.00000
      9      24.5900      0.00000
     10      26.2251      0.00000
     11      31.7933      0.00000
     12      33.1425      0.00000

 k-point    41 :       0.3636    0.2727    0.0909
  band No.  band energies     occupation 
      1      -2.8391      2.00000
      2       8.3087      0.00000
      3       8.8265      0.00000
      4      10.6893      0.00000
      5      14.8095      0.00000
      6      15.4251      0.00000
      7      21.3482      0.00000
      8      23.3969      0.00000
      9      25.0765      0.00000
     10      28.5539      0.00000
     11      30.2882      0.00000
     12      31.3993      0.00000

 k-point    42 :       0.4545    0.2727    0.0909
  band No.  band energies     occupation 
      1      -1.6660      2.00000
      2       5.9300      2.00000
      3       8.2058      0.00000
      4       9.6858      0.00000
      5      14.8315      0.00000
      6      17.0130      0.00000
      7      20.4351      0.00000
      8      23.7305      0.00000
      9      26.2940      0.00000
     10      28.2982      0.00000
     11      32.3475      0.00000
     12      33.6161      0.00000

 k-point    43 :      -0.4545    0.2727    0.0909
  band No.  band energies     occupation 
      1      -0.2044      2.00000
      2       3.6132      2.00000
      3       7.7380      0.00000
      4       9.2546      0.00000
      5      14.9233      0.00000
      6      18.7264      0.00000
      7      20.2125      0.00000
      8      23.3880      0.00000
      9      26.4808      0.00000
     10      27.7911      0.00000
     11      32.5754      0.00000
     12      33.5505      0.00000

 k-point    44 :      -0.3636    0.2727    0.0909
  band No.  band energies     occupation 
      1       0.6394      2.00000
      2       2.5565      2.00000
      3       7.2094      0.00000
      4       9.5379      0.00000
      5      15.3511      0.00000
      6      18.5585      0.00000
      7      21.9014      0.00000
      8      22.4970      0.00000
      9      25.2384      0.00000
     10      27.6356      0.00000
     11      31.4891      0.00000
     12      34.5058      0.00000

 k-point    45 :      -0.2727    0.2727    0.0909
  band No.  band energies     occupation 
      1      -0.7217      2.00000
      2       4.3737      2.00000
      3       6.8882      0.00000
      4      10.2761      0.00000
      5      16.0630      0.00000
      6      18.3239      0.00000
      7      20.4127      0.00000
      8      22.9465      0.00000
      9      24.7320      0.00000
     10      27.8645      0.00000
     11      31.0005      0.00000
     12      33.8726      0.00000

 k-point    46 :      -0.1818    0.2727    0.0909
  band No.  band energies     occupation 
      1      -2.1014      2.00000
      2       6.7295      0.00000
      3       7.0057      0.00000
      4      11.3105      0.00000
      5      16.8512      0.00000
      6      17.9513      0.00000
      7      18.8945      0.00000
      8      22.4807      0.00000
      9      23.9221      0.00000
     10      28.3861      0.00000
     11      30.4138      0.00000
     12      33.4464      0.00000

 k-point    47 :       0.4545    0.3636    0.0909
  band No.  band energies     occupation 
      1      -1.1006      2.00000
      2       6.3812      1.01101
      3       7.8865      0.00000
      4       8.5576      0.00000
      5      13.8595      0.00000
      6      14.2098      0.00000
      7      23.0222      0.00000
      8      26.0685      0.00000
      9      26.8253      0.00000
     10      31.2816      0.00000
     11      33.4879      0.00000
     12      33.5317      0.00000

 k-point    48 :      -0.4545    0.3636    0.0909
  band No.  band energies     occupation 
      1       0.2666      2.00000
      2       4.8209      2.00000
      3       6.2845      1.83309
      4       8.2127      0.00000
      5      14.0574      0.00000
      6      16.3867      0.00000
      7      22.1418      0.00000
      8      25.5114      0.00000
      9      27.1420      0.00000
     10      31.2428      0.00000
     11      33.4506      0.00000
     12      34.2245      0.00000

 k-point    49 :      -0.3636    0.3636    0.0909
  band No.  band energies     occupation 
      1       1.5641      2.00000
      2       3.3938      2.00000
      3       5.1778      2.00000
      4       8.5317      0.00000
      5      14.4352      0.00000
      6      18.9978      0.00000
      7      21.4855      0.00000
      8      23.3886      0.00000
      9      26.3870      0.00000
     10      30.2363      0.00000
     11      32.9740      0.00000
     12      35.4420      0.00000

 k-point    50 :      -0.2727    0.3636    0.0909
  band No.  band energies     occupation 
      1       0.6928      2.00000
      2       4.5555      2.00000
      3       4.6008      2.00000
      4       9.2430      0.00000
      5      15.1462      0.00000
      6      20.4066      0.00000
      7      20.7156      0.00000
      8      22.4126      0.00000
      9      25.1241      0.00000
     10      28.9809      0.00000
     11      32.9115      0.00000
     12      33.5752      0.00000

 k-point    51 :      -0.4545    0.4545    0.0909
  band No.  band energies     occupation 
      1       1.0589      2.00000
      2       3.7560      2.00000
      3       7.4123      0.00000
      4       7.7641      0.00000
      5      13.3799      0.00000
      6      13.6551      0.00000
      7      24.9192      0.00000
      8      26.6970      0.00000
      9      28.1896      0.00000
     10      33.0818      0.00000
     11      33.6348      0.00000
     12      34.3606      0.00000

 k-point    52 :      -0.3636    0.4545    0.0909
  band No.  band energies     occupation 
      1       2.1479      2.00000
      2       3.1359      2.00000
      3       5.5248      2.00000
      4       7.8895      0.00000
      5      13.8024      0.00000
      6      16.1662      0.00000
      7      24.0819      0.00000
      8      24.2395      0.00000
      9      27.9351      0.00000
     10      31.7725      0.00000
     11      35.0561      0.00000
     12      35.1326      0.00000

 k-point    53 :      -0.4545    0.3636    0.1818
  band No.  band energies     occupation 
      1      -0.3996      2.00000
      2       5.5945      2.00000
      3       6.0450      2.00000
      4       8.4008      0.00000
      5      16.6840      0.00000
      6      17.0743      0.00000
      7      19.5932      0.00000
      8      25.0965      0.00000
      9      25.6820      0.00000
     10      30.1323      0.00000
     11      32.4920      0.00000
     12      33.0610      0.00000

 k-point    54 :      -0.3636    0.3636    0.1818
  band No.  band energies     occupation 
      1       1.0601      2.00000
      2       3.7362      2.00000
      3       5.9056      2.00000
      4       7.5980      0.00000
      5      16.8076      0.00000
      6      18.3705      0.00000
      7      20.0603      0.00000
      8      22.9017      0.00000
      9      26.6245      0.00000
     10      30.6028      0.00000
     11      32.6292      0.00000
     12      34.8126      0.00000

 k-point    55 :      -0.3636    0.4545    0.1818
  band No.  band energies     occupation 
      1       1.6403      2.00000
      2       4.1672      2.00000
      3       5.5620      2.00000
      4       6.5020      0.09014
      5      16.4163      0.00000
      6      16.6238      0.00000
      7      21.3290      0.00000
      8      23.5026      0.00000
      9      28.2073      0.00000
     10      33.2941      0.00000
     11      33.7814      0.00000
     12      34.2168      0.00000

 k-point    56 :      -0.2727    0.4545    0.1818
  band No.  band energies     occupation 
      1       2.2283      2.00000
      2       4.1124      2.00000
      3       4.4646      2.00000
      4       6.6101      0.00127
      5      16.8662      0.00000
      6      19.0391      0.00000
      7      20.3083      0.00000
      8      21.4284      0.00000
      9      28.1208      0.00000
     10      32.3822      0.00000
     11      34.3581      0.00000
     12      35.0138      0.00000


--------------------------------------------------------------------------------------------------------


 soft charge-density along one line, spin component           1
         0         1         2         3         4         5         6         7         8         9
 total charge-density along one line
 
 pseudopotential strength for first ion, spin component:           1
 18.404  25.678  -0.000  -0.000  -0.000  -0.000  -0.000  -0.000
 25.678  35.831  -0.000  -0.000  -0.000  -0.000  -0.000  -0.000
 -0.000  -0.000   4.157  -0.000  -0.000   7.747  -0.000  -0.000
 -0.000  -0.000  -0.000   4.157  -0.000  -0.000   7.747  -0.000
 -0.000  -0.000  -0.000  -0.000   4.157  -0.000  -0.000   7.747
 -0.000  -0.000   7.747  -0.000  -0.000  14.449  -0.000  -0.000
 -0.000  -0.000  -0.000   7.747  -0.000  -0.000  14.449  -0.000
 -0.000  -0.000  -0.000  -0.000   7.747  -0.000  -0.000  14.449
 total augmentation occupancy for first ion, spin component:           1
  3.396  -1.071   0.000   0.000   0.000   0.000   0.000   0.000
 -1.071   0.763   0.000   0.000   0.000   0.000   0.000   0.000
  0.000   0.000   1.748   0.000   0.000  -0.377   0.000  -0.000
  0.000   0.000   0.000   1.748  -0.000  -0.000  -0.377  -0.000
  0.000   0.000   0.000  -0.000   1.748   0.000   0.000  -0.377
  0.000   0.000  -0.377   0.000   0.000   0.088  -0.000   0.000
  0.000   0.000  -0.000  -0.377  -0.000   0.000   0.088   0.000
  0.000   0.000  -0.000   0.000  -0.377   0.000  -0.000   0.088


------------------------ aborting loop because EDIFF is reached ----------------------------------------


    CHARGE:  cpu time    0.0016: real time    0.0016
    FORLOC:  cpu time    0.0000: real time    0.0000
    FORNL :  cpu time    0.0013: real time    0.0013
    STRESS:  cpu time    0.0268: real time    0.0269
    FORCOR:  cpu time    0.0009: real time    0.0009
    FORHAR:  cpu time    0.0003: real time    0.0003
    MIXING:  cpu time    0.0002: real time    0.0002
    OFIELD:  cpu time    0.0000: real time    0.0000

  FORCE on cell =-STRESS in cart. coord.  units (eV):
  Direction    XX          YY          ZZ          XY          YZ          ZX
  --------------------------------------------------------------------------------------
  Alpha Z     1.69359     1.69359     1.69359
  Ewald     -40.94328   -40.94328   -40.94328     0.00000     0.00000     0.00000
  Hartree     0.42827     0.42827     0.42827     0.00000     0.00000     0.00000
  E(xc)     -11.86176   -11.86176   -11.86176    -0.00036    -0.00036    -0.00036
  Local      -8.10189    -8.10189    -8.10189     0.00068     0.00068     0.00068
  n-local    38.70108    38.39096    39.06279     0.35476    -0.05081    -0.27854
  augment    -6.60905    -6.60905    -6.60905    -0.00027    -0.00027    -0.00027
  Kinetic    18.92538    33.27313    22.65380     8.25835    -6.70473   -12.23727
  Fock        0.00000     0.00000     0.00000     0.00000     0.00000     0.00000
  -------------------------------------------------------------------------------------
  Total      -1.72508    -1.72508    -1.72508     0.00000    -0.00000     0.00000
  in kB    -139.05104  -139.05104  -139.05104     0.00000    -0.00000     0.00000
  external pressure =     -139.05 kB  Pullay stress =        0.00 kB


 VOLUME and BASIS-vectors are now :
 -----------------------------------------------------------------------------
  energy-cutoff  :      240.00
  volume of cell :       19.88
      direct lattice vectors                 reciprocal lattice vectors
     2.150000000  2.150000000  0.000000000     0.232558140  0.232558140 -0.232558140
     0.000000000  2.150000000  2.150000000    -0.232558140  0.232558140  0.232558140
     2.150000000  0.000000000  2.150000000     0.232558140 -0.232558140  0.232558140

  length of vectors
     3.040559159  3.040559159  3.040559159     0.402802513  0.402802513  0.402802513


 FORCES acting on ions
    electron-ion (+dipol)            ewald-force                    non-local-force                 convergence-correction
 -----------------------------------------------------------------------------------------------
   0.000E+00 0.000E+00 0.000E+00   -.137E-15 -.114E-15 -.230E-16   -.258E-25 -.258E-25 -.258E-25   0.000E+00 0.000E+00 0.000E+00
 -----------------------------------------------------------------------------------------------
   0.000E+00 0.000E+00 0.000E+00   -.137E-15 -.114E-15 -.230E-16   -.258E-25 -.258E-25 -.258E-25   0.000E+00 0.000E+00 0.000E+00
 
 
 POSITION                                       TOTAL-FORCE (eV/Angst)
 -----------------------------------------------------------------------------------
      0.00000      0.00000      0.00000         0.000000     -0.000000      0.000000
 -----------------------------------------------------------------------------------
    total drift:                               -0.000000     -0.000000     -0.000000


--------------------------------------------------------------------------------------------------------



  FREE ENERGIE OF THE ION-ELECTRON SYSTEM (eV)
  ---------------------------------------------------
  free  energy   TOTEN  =        -4.58292940 eV

  energy  without entropy=       -4.57906343  energy(sigma->0) =       -4.58099642
 


--------------------------------------------------------------------------------------------------------


    POTLOK:  cpu time    0.0027: real time    0.0027


--------------------------------------------------------------------------------------------------------


 writing wavefunctions
     LOOP+:  cpu time    1.6620: real time    1.7024
    4ORBIT:  cpu time    0.0000: real time    0.0000

 total amount of memory used by VASP MPI-rank0    30938. kBytes
=======================================================================

   base      :      30000. kBytes
   nonl-proj :        648. kBytes
   fftplans  :         23. kBytes
   grid      :         92. kBytes
   one-center:          3. kBytes
   wavefun   :        172. kBytes
 
  
  
 General timing and accounting informations for this job:
 ========================================================
  
                  Total CPU time used (sec):        3.106
                            User time (sec):        2.515
                          System time (sec):        0.591
                         Elapsed time (sec):        4.131
  
                   Maximum memory used (kb):       53096.
                   Average memory used (kb):           0.
  
                          Minor page faults:        14757
                          Major page faults:           25
                 Voluntary context switches:         1170
