<?xml version="1.0" encoding="ISO-8859-1"?>
<modeling>
 <generator>
  <i name="program" type="string">vasp </i>
  <i name="version" type="string">5.4.4.18Apr17-6-g9f103f2a35  </i>
  <i name="subversion" type="string">(build Mar 30 2023 15:39:25) complex            parallel </i>
  <i name="platform" type="string">LinuxIFC </i>
  <i name="date" type="string">2023 04 28 </i>
  <i name="time" type="string">16:14:28 </i>
 </generator>
 <incar>
  <i type="string" name="SYSTEM"> fcc So</i>
  <i type="int" name="ISTART">     0</i>
  <i type="string" name="PREC">low</i>
  <i type="int" name="ICHARG">     2</i>
  <i name="EDIFF">      0.00000100</i>
  <i name="EDIFFG">     -0.00000100</i>
  <i name="ENCUT">    240.00000000</i>
  <i type="int" name="ISMEAR">     0</i>
  <i name="SIGMA">      0.10000000</i>
  <v type="int" name="KPOINT_BSE">    -1     0     0     0</v>
 </incar>
 <structure name="primitive_cell" >
  <crystal>
   <varray name="basis" >
    <v>       2.15000000       2.15000000       0.00000000 </v>
    <v>       0.00000000       2.15000000       2.15000000 </v>
    <v>       2.15000000       0.00000000       2.15000000 </v>
   </varray>
   <i name="volume">     19.87675000 </i>
   <varray name="rec_basis" >
    <v>       0.23255814       0.23255814      -0.23255814 </v>
    <v>      -0.23255814       0.23255814       0.23255814 </v>
    <v>       0.23255814      -0.23255814       0.23255814 </v>
   </varray>
  </crystal>
  <varray name="positions" >
   <v>       0.00000000       0.00000000       0.00000000 </v>
  </varray>
 </structure>
 <varray name="primitive_index" >
  <v type="int" >        1 </v>
 </varray>
 <kpoints>
  <generation param="Monkhorst-Pack">
   <v type="int" name="divisions">      11       11       11 </v>
   <v name="usershift">      0.00000000       0.00000000       0.00000000 </v>
   <v name="genvec1">      0.09090909       0.00000000       0.00000000 </v>
   <v name="genvec2">      0.00000000       0.09090909       0.00000000 </v>
   <v name="genvec3">      0.00000000       0.00000000       0.09090909 </v>
   <v name="shift">      0.00000000       0.00000000       0.00000000 </v>
  </generation>
  <varray name="kpointlist" >
   <v>       0.00000000       0.00000000       0.00000000 </v>
   <v>       0.09090909       0.00000000       0.00000000 </v>
   <v>       0.18181818       0.00000000       0.00000000 </v>
   <v>       0.27272727       0.00000000       0.00000000 </v>
   <v>       0.36363636       0.00000000       0.00000000 </v>
   <v>       0.45454545       0.00000000       0.00000000 </v>
   <v>       0.09090909       0.09090909       0.00000000 </v>
   <v>       0.18181818       0.09090909       0.00000000 </v>
   <v>       0.27272727       0.09090909       0.00000000 </v>
   <v>       0.36363636       0.09090909       0.00000000 </v>
   <v>       0.45454545       0.09090909       0.00000000 </v>
   <v>      -0.45454545       0.09090909       0.00000000 </v>
   <v>      -0.36363636       0.09090909       0.00000000 </v>
   <v>      -0.27272727       0.09090909       0.00000000 </v>
   <v>      -0.18181818       0.09090909       0.00000000 </v>
   <v>      -0.09090909       0.09090909       0.00000000 </v>
   <v>       0.18181818       0.18181818       0.00000000 </v>
   <v>       0.27272727       0.18181818       0.00000000 </v>
   <v>       0.36363636       0.18181818       0.00000000 </v>
   <v>       0.45454545       0.18181818       0.00000000 </v>
   <v>      -0.45454545       0.18181818       0.00000000 </v>
   <v>      -0.36363636       0.18181818       0.00000000 </v>
   <v>      -0.27272727       0.18181818       0.00000000 </v>
   <v>      -0.18181818       0.18181818       0.00000000 </v>
   <v>       0.27272727       0.27272727       0.00000000 </v>
   <v>       0.36363636       0.27272727       0.00000000 </v>
   <v>       0.45454545       0.27272727       0.00000000 </v>
   <v>      -0.45454545       0.27272727       0.00000000 </v>
   <v>      -0.36363636       0.27272727       0.00000000 </v>
   <v>      -0.27272727       0.27272727       0.00000000 </v>
   <v>       0.36363636       0.36363636       0.00000000 </v>
   <v>       0.45454545       0.36363636       0.00000000 </v>
   <v>      -0.45454545       0.36363636       0.00000000 </v>
   <v>      -0.36363636       0.36363636       0.00000000 </v>
   <v>       0.45454545       0.45454545       0.00000000 </v>
   <v>      -0.45454545       0.45454545       0.00000000 </v>
   <v>       0.27272727       0.18181818       0.09090909 </v>
   <v>       0.36363636       0.18181818       0.09090909 </v>
   <v>       0.45454545       0.18181818       0.09090909 </v>
   <v>      -0.45454545       0.18181818       0.09090909 </v>
   <v>       0.36363636       0.27272727       0.09090909 </v>
   <v>       0.45454545       0.27272727       0.09090909 </v>
   <v>      -0.45454545       0.27272727       0.09090909 </v>
   <v>      -0.36363636       0.27272727       0.09090909 </v>
   <v>      -0.27272727       0.27272727       0.09090909 </v>
   <v>      -0.18181818       0.27272727       0.09090909 </v>
   <v>       0.45454545       0.36363636       0.09090909 </v>
   <v>      -0.45454545       0.36363636       0.09090909 </v>
   <v>      -0.36363636       0.36363636       0.09090909 </v>
   <v>      -0.27272727       0.36363636       0.09090909 </v>
   <v>      -0.45454545       0.45454545       0.09090909 </v>
   <v>      -0.36363636       0.45454545       0.09090909 </v>
   <v>      -0.45454545       0.36363636       0.18181818 </v>
   <v>      -0.36363636       0.36363636       0.18181818 </v>
   <v>      -0.36363636       0.45454545       0.18181818 </v>
   <v>      -0.27272727       0.45454545       0.18181818 </v>
  </varray>
  <varray name="weights" >
   <v>       0.00075131 </v>
   <v>       0.00601052 </v>
   <v>       0.00601052 </v>
   <v>       0.00601052 </v>
   <v>       0.00601052 </v>
   <v>       0.00601052 </v>
   <v>       0.00450789 </v>
   <v>       0.01803156 </v>
   <v>       0.01803156 </v>
   <v>       0.01803156 </v>
   <v>       0.01803156 </v>
   <v>       0.01803156 </v>
   <v>       0.01803156 </v>
   <v>       0.01803156 </v>
   <v>       0.01803156 </v>
   <v>       0.00901578 </v>
   <v>       0.00450789 </v>
   <v>       0.01803156 </v>
   <v>       0.01803156 </v>
   <v>       0.01803156 </v>
   <v>       0.01803156 </v>
   <v>       0.01803156 </v>
   <v>       0.01803156 </v>
   <v>       0.00901578 </v>
   <v>       0.00450789 </v>
   <v>       0.01803156 </v>
   <v>       0.01803156 </v>
   <v>       0.01803156 </v>
   <v>       0.01803156 </v>
   <v>       0.00901578 </v>
   <v>       0.00450789 </v>
   <v>       0.01803156 </v>
   <v>       0.01803156 </v>
   <v>       0.00901578 </v>
   <v>       0.00450789 </v>
   <v>       0.00901578 </v>
   <v>       0.01803156 </v>
   <v>       0.03606311 </v>
   <v>       0.03606311 </v>
   <v>       0.03606311 </v>
   <v>       0.01803156 </v>
   <v>       0.03606311 </v>
   <v>       0.03606311 </v>
   <v>       0.03606311 </v>
   <v>       0.03606311 </v>
   <v>       0.01803156 </v>
   <v>       0.01803156 </v>
   <v>       0.03606311 </v>
   <v>       0.03606311 </v>
   <v>       0.01803156 </v>
   <v>       0.01803156 </v>
   <v>       0.01803156 </v>
   <v>       0.01803156 </v>
   <v>       0.03606311 </v>
   <v>       0.01803156 </v>
   <v>       0.01803156 </v>
  </varray>
 </kpoints>
 <parameters>
  <separator name="general" >
   <i type="string" name="SYSTEM">fcc So</i>
   <i type="logical" name="LCOMPAT"> F  </i>
  </separator>
  <separator name="electronic" >
   <i type="string" name="PREC">low</i>
   <i name="ENMAX">    240.00000000</i>
   <i name="ENAUG">    322.06900000</i>
   <i name="EDIFF">      0.00000100</i>
   <i type="int" name="IALGO">    38</i>
   <i type="int" name="IWAVPR">    10</i>
   <i type="int" name="NBANDS">    12</i>
   <i name="NELECT">      4.00000000</i>
   <i type="int" name="TURBO">     0</i>
   <i type="int" name="IRESTART">     0</i>
   <i type="int" name="NREBOOT">     0</i>
   <i type="int" name="NMIN">     0</i>
   <i name="EREF">      0.00000000</i>
   <separator name="electronic smearing" >
    <i type="int" name="ISMEAR">     0</i>
    <i name="SIGMA">      0.10000000</i>
    <i name="KSPACING">      0.50000000</i>
    <i type="logical" name="KGAMMA"> T  </i>
   </separator>
   <separator name="electronic projectors" >
    <i type="logical" name="LREAL"> F  </i>
    <v name="ROPT">      0.00000000</v>
    <i type="int" name="LMAXPAW">  -100</i>
    <i type="int" name="LMAXMIX">     2</i>
    <i type="logical" name="NLSPLINE"> F  </i>
   </separator>
   <separator name="electronic startup" >
    <i type="int" name="ISTART">     0</i>
    <i type="int" name="ICHARG">     2</i>
    <i type="int" name="INIWAV">     1</i>
   </separator>
   <separator name="electronic spin" >
    <i type="int" name="ISPIN">     1</i>
    <i type="logical" name="LNONCOLLINEAR"> F  </i>
    <v name="MAGMOM">      1.00000000</v>
    <i name="NUPDOWN">     -1.00000000</i>
    <i type="logical" name="LSORBIT"> F  </i>
    <v name="SAXIS">      0.00000000      0.00000000      1.00000000</v>
    <i type="logical" name="LSPIRAL"> F  </i>
    <v name="QSPIRAL">      0.00000000      0.00000000      0.00000000</v>
    <i type="logical" name="LZEROZ"> F  </i>
   </separator>
   <separator name="electronic exchange-correlation" >
    <i type="logical" name="LASPH"> F  </i>
    <i type="logical" name="LMETAGGA"> F  </i>
   </separator>
   <separator name="electronic convergence" >
    <i type="int" name="NELM">    60</i>
    <i type="int" name="NELMDL">    -5</i>
    <i type="int" name="NELMIN">     2</i>
    <i name="ENINI">    240.00000000</i>
    <separator name="electronic convergence detail" >
     <i type="logical" name="LDIAG"> T  </i>
     <i type="logical" name="LSUBROT"> F  </i>
     <i name="WEIMIN">      0.00000000</i>
     <i name="EBREAK">      0.00000000</i>
     <i name="DEPER">      0.30000000</i>
     <i type="int" name="NRMM">     4</i>
     <i name="TIME">      0.40000000</i>
    </separator>
   </separator>
   <separator name="electronic mixer" >
    <i name="AMIX">      0.40000000</i>
    <i name="BMIX">      1.00000000</i>
    <i name="AMIN">      0.10000000</i>
    <i name="AMIX_MAG">      1.60000000</i>
    <i name="BMIX_MAG">      1.00000000</i>
    <separator name="electronic mixer details" >
     <i type="int" name="IMIX">     4</i>
     <i type="logical" name="MIXFIRST"> F  </i>
     <i type="int" name="MAXMIX">   -45</i>
     <i name="WC">    100.00000000</i>
     <i type="int" name="INIMIX">     1</i>
     <i type="int" name="MIXPRE">     1</i>
     <i type="int" name="MREMOVE">     5</i>
    </separator>
   </separator>
   <separator name="electronic dipolcorrection" >
    <i type="logical" name="LDIPOL"> F  </i>
    <i type="logical" name="LMONO"> F  </i>
    <i type="int" name="IDIPOL">     0</i>
    <i name="EPSILON">      1.00000000</i>
    <v name="DIPOL">   -100.00000000   -100.00000000   -100.00000000</v>
    <i name="EFIELD">      0.00000000</i>
   </separator>
  </separator>
  <separator name="grids" >
   <i type="int" name="NGX">    12</i>
   <i type="int" name="NGY">    12</i>
   <i type="int" name="NGZ">    12</i>
   <i type="int" name="NGXF">    14</i>
   <i type="int" name="NGYF">    14</i>
   <i type="int" name="NGZF">    14</i>
   <i type="logical" name="ADDGRID"> F  </i>
  </separator>
  <separator name="ionic" >
   <i type="int" name="NSW">     0</i>
   <i type="int" name="IBRION">    -1</i>
   <i type="int" name="MDALGO">     0</i>
   <i type="int" name="ISIF">     2</i>
   <i name="PSTRESS">      0.00000000</i>
   <i name="EDIFFG">     -0.00000100</i>
   <i type="int" name="NFREE">     0</i>
   <i name="POTIM">      0.50000000</i>
   <i name="SMASS">     -3.00000000</i>
   <i name="SCALEE">      1.00000000</i>
  </separator>
  <separator name="ionic md" >
   <i name="TEBEG">      0.00010000</i>
   <i name="TEEND">      0.00010000</i>
   <i type="int" name="NBLOCK">     1</i>
   <i type="int" name="KBLOCK">     1</i>
   <i type="int" name="NPACO">   256</i>
   <i name="APACO">     16.00000000</i>
  </separator>
  <separator name="symmetry" >
   <i type="int" name="ISYM">     2</i>
   <i name="SYMPREC">      0.00001000</i>
  </separator>
  <separator name="dos" >
   <i type="int" name="LORBIT">     0</i>
   <v name="RWIGS">     -1.00000000</v>
   <i type="int" name="NEDOS">   301</i>
   <i name="EMIN">     10.00000000</i>
   <i name="EMAX">    -10.00000000</i>
   <i name="EFERMI">      0.00000000</i>
  </separator>
  <separator name="writing" >
   <i type="int" name="NWRITE">     2</i>
   <i type="logical" name="LWAVE"> T  </i>
   <i type="logical" name="LDOWNSAMPLE"> F  </i>
   <i type="logical" name="LCHARG"> T  </i>
   <i type="logical" name="LPARD"> F  </i>
   <i type="logical" name="LVTOT"> F  </i>
   <i type="logical" name="LVHAR"> F  </i>
   <i type="logical" name="LELF"> F  </i>
   <i type="logical" name="LOPTICS"> F  </i>
   <v name="STM">      0.00000000      0.00000000      0.00000000      0.00000000      0.00000000      0.00000000      0.00000000</v>
  </separator>
  <separator name="performance" >
   <i type="int" name="NPAR">    12</i>
   <i type="int" name="NSIM">     4</i>
   <i type="int" name="NBLK">    -1</i>
   <i type="logical" name="LPLANE"> T  </i>
   <i type="logical" name="LSCALAPACK"> T  </i>
   <i type="logical" name="LSCAAWARE"> F  </i>
   <i type="logical" name="LSCALU"> F  </i>
   <i type="logical" name="LASYNC"> F  </i>
   <i type="logical" name="LORBITALREAL"> F  </i>
  </separator>
  <separator name="miscellaneous" >
   <i type="int" name="IDIOT">     3</i>
   <i type="int" name="ISPECIAL">     0</i>
   <i type="logical" name="LMUSIC"> F  </i>
   <v name="POMASS">     28.08500000</v>
   <v name="DARWINR">      0.00000000</v>
   <v name="DARWINV">      1.00000000</v>
   <i type="logical" name="LCORR"> T  </i>
  </separator>
  <i type="logical" name="GGA_COMPAT"> T  </i>
  <i type="logical" name="LBERRY"> F  </i>
  <i type="int" name="ICORELEVEL">     0</i>
  <i type="logical" name="LDAU"> F  </i>
  <i type="int" name="I_CONSTRAINED_M">     0</i>
  <separator name="electronic exchange-correlation" >
   <i type="string" name="GGA">--</i>
   <i type="int" name="VOSKOWN">     0</i>
   <i type="logical" name="LHFCALC"> F  </i>
   <i type="string" name="PRECFOCK"></i>
   <i type="logical" name="LSYMGRAD"> F  </i>
   <i type="logical" name="LHFONE"> F  </i>
   <i type="logical" name="LRHFCALC"> F  </i>
   <i type="logical" name="LTHOMAS"> F  </i>
   <i type="logical" name="LMODELHF"> F  </i>
   <i name="ENCUT4O">     -1.00000000</i>
   <i type="int" name="EXXOEP">     0</i>
   <i type="int" name="FOURORBIT">     0</i>
   <i name="AEXX">      0.00000000</i>
   <i name="HFALPHA">      0.00000000</i>
   <i name="MCALPHA">      0.00000000</i>
   <i name="ALDAX">      1.00000000</i>
   <i name="AGGAX">      1.00000000</i>
   <i name="ALDAC">      1.00000000</i>
   <i name="AGGAC">      1.00000000</i>
   <i type="int" name="NKREDX">     1</i>
   <i type="int" name="NKREDY">     1</i>
   <i type="int" name="NKREDZ">     1</i>
   <i type="logical" name="SHIFTRED"> F  </i>
   <i type="logical" name="ODDONLY"> F  </i>
   <i type="logical" name="EVENONLY"> F  </i>
   <i type="int" name="LMAXFOCK">     0</i>
   <i type="int" name="NMAXFOCKAE">     0</i>
   <i type="logical" name="LFOCKAEDFT"> F  </i>
   <i name="HFSCREEN">      0.00000000</i>
   <i name="HFSCREENC">      0.00000000</i>
   <i type="int" name="NBANDSGWLOW">     0</i>
  </separator>
  <separator name="vdW DFT" >
   <i type="logical" name="LUSE_VDW"> F  </i>
   <i name="Zab_VDW">     -0.84910000</i>
   <i name="PARAM1">      0.12340000</i>
   <i name="PARAM2">      1.00000000</i>
   <i name="PARAM3">      0.00000000</i>
  </separator>
  <separator name="model GW" >
   <i type="int" name="MODEL_GW">     0</i>
   <i name="MODEL_EPS0">     11.92605000</i>
   <i name="MODEL_ALPHA">      1.00000000</i>
  </separator>
  <separator name="linear response parameters" >
   <i type="logical" name="LEPSILON"> F  </i>
   <i type="logical" name="LRPA"> F  </i>
   <i type="logical" name="LNABLA"> F  </i>
   <i type="logical" name="LVEL"> F  </i>
   <i type="int" name="KINTER">     0</i>
   <i name="CSHIFT">      0.10000000</i>
   <i name="OMEGAMAX">     -1.00000000</i>
   <i name="DEG_THRESHOLD">      0.00200000</i>
   <i name="RTIME">     -0.10000000</i>
   <i name="WPLASMAI">      0.00000000</i>
   <v name="DFIELD">      0.00000000      0.00000000      0.00000000</v>
   <v name="WPLASMA">      0.00000000      0.00000000      0.00000000      0.00000000      0.00000000      0.00000000      0.00000000      0.00000000      0.00000000</v>
  </separator>
  <separator name="orbital magnetization" >
   <i type="logical" name="NUCIND"> F  </i>
   <v name="MAGPOS">      0.00000000      0.00000000      0.00000000</v>
   <i type="logical" name="LNICSALL"> T  </i>
   <i type="logical" name="ORBITALMAG"> F  </i>
   <i type="logical" name="LMAGBLOCH"> F  </i>
   <i type="logical" name="LCHIMAG"> F  </i>
   <i type="logical" name="LGAUGE"> T  </i>
   <i type="int" name="MAGATOM">     0</i>
   <v name="MAGDIPOL">      0.00000000      0.00000000      0.00000000</v>
   <v name="AVECCONST">      0.00000000      0.00000000      0.00000000</v>
  </separator>
  <separator name="response functions" >
   <i type="logical" name="LADDER"> F  </i>
   <i type="logical" name="LRPAFORCE"> F  </i>
   <i type="logical" name="LFXC"> F  </i>
   <i type="logical" name="LHARTREE"> T  </i>
   <i type="int" name="IBSE">     0</i>
   <v type="int" name="KPOINT">    -1     0     0     0</v>
   <i type="logical" name="LTCTE"> F  </i>
   <i type="logical" name="LTETE"> F  </i>
   <i type="logical" name="LTRIPLET"> F  </i>
   <i type="logical" name="LFXCEPS"> F  </i>
   <i type="logical" name="LFXHEG"> F  </i>
   <i type="int" name="NATURALO">     2</i>
   <i type="logical" name="L2ORDER"> F  </i>
   <i type="logical" name="LMP2LT"> F  </i>
   <i type="logical" name="LUSEW"> F  </i>
   <i name="ENCUTGW">     -2.00000000</i>
   <i name="ENCUTGWSOFT">     -2.00000000</i>
   <i name="ENCUTLF">     -1.00000000</i>
   <i type="int" name="LMAXMP2">    -1</i>
   <i name="SCISSOR">      0.00000000</i>
   <i type="int" name="NOMEGA">     0</i>
   <i type="int" name="NOMEGAR">     0</i>
   <i type="int" name="NBANDSGW">    -1</i>
   <i type="int" name="NBANDSO">    -1</i>
   <i type="int" name="NBANDSV">    -1</i>
   <i type="int" name="NELM">     1</i>
   <i type="int" name="NELMHF">     1</i>
   <i type="int" name="DIM">     3</i>
   <i type="int" name="ANTIRES">     0</i>
   <i name="OMEGAMAX">    -30.00000000</i>
   <i name="OMEGAMIN">    -30.00000000</i>
   <i name="OMEGATL">   -200.00000000</i>
   <i type="int" name="OMEGAGRID">   140</i>
   <i name="CSHIFT">     -0.10000000</i>
   <i type="logical" name="SELFENERGY"> F  </i>
   <i type="logical" name="LSPECTRAL"> F  </i>
   <i type="logical" name="LSPECTRALGW"> F  </i>
   <i type="logical" name="LSINGLES"> F  </i>
   <i type="logical" name="LFERMIGW"> F  </i>
   <i type="logical" name="ODDONLYGW"> F  </i>
   <i type="logical" name="EVENONLYGW"> F  </i>
   <i type="int" name="NKREDLFX">     1</i>
   <i type="int" name="NKREDLFY">     1</i>
   <i type="int" name="NKREDLFZ">     1</i>
   <i type="int" name="MAXMEM">  2800</i>
   <i type="int" name="TELESCOPE">     0</i>
   <i type="int" name="TAUPAR">     1</i>
   <i type="int" name="OMEGAPAR">    -1</i>
   <i name="LAMBDA">      1.00000000</i>
  </separator>
  <separator name="External order field" >
   <i name="OFIELD_KAPPA">      0.00000000</i>
   <v name="OFIELD_K">      0.00000000      0.00000000      0.00000000</v>
   <i name="OFIELD_Q6_NEAR">      0.00000000</i>
   <i name="OFIELD_Q6_FAR">      0.00000000</i>
   <i name="OFIELD_A">      0.00000000</i>
  </separator>
 </parameters>
 <atominfo>
  <atoms>       1 </atoms>
  <types>       1 </types>
  <array name="atoms" >
   <dimension dim="1">ion</dimension>
   <field type="string">element</field>
   <field type="int">atomtype</field>
   <set>
    <rc><c>Si</c><c>   1</c></rc>
   </set>
  </array>
  <array name="atomtypes" >
   <dimension dim="1">type</dimension>
   <field type="int">atomspertype</field>
   <field type="string">element</field>
   <field>mass</field>
   <field>valence</field>
   <field type="string">pseudopotential</field>
   <set>
    <rc><c>   1</c><c>Si</c><c>     28.08500000</c><c>      4.00000000</c><c>  PAW_PBE Si 05Jan2001                  </c></rc>
   </set>
  </array>
 </atominfo>
 <structure name="initialpos" >
  <crystal>
   <varray name="basis" >
    <v>       2.15000000       2.15000000       0.00000000 </v>
    <v>       0.00000000       2.15000000       2.15000000 </v>
    <v>       2.15000000       0.00000000       2.15000000 </v>
   </varray>
   <i name="volume">     19.87675000 </i>
   <varray name="rec_basis" >
    <v>       0.23255814       0.23255814      -0.23255814 </v>
    <v>      -0.23255814       0.23255814       0.23255814 </v>
    <v>       0.23255814      -0.23255814       0.23255814 </v>
   </varray>
  </crystal>
  <varray name="positions" >
   <v>       0.00000000       0.00000000       0.00000000 </v>
  </varray>
 </structure>
 <calculation>
  <scstep>
   <time name="dav">    0.20    0.20</time>
   <time name="total">    0.21    0.21</time>
   <energy>
    <i name="alphaZ">      1.69359331 </i>
    <i name="ewald">   -122.82983823 </i>
    <i name="hartreedc">     -1.63218439 </i>
    <i name="XCdc">     -9.56153104 </i>
    <i name="pawpsdc">     88.12379961 </i>
    <i name="pawaedc">    -70.53051779 </i>
    <i name="eentropy">     -0.00961813 </i>
    <i name="bandstr">      7.70860017 </i>
    <i name="atom">    103.06077658 </i>
    <i name="e_fr_energy">     -3.97691990 </i>
    <i name="e_wo_entrp">     -3.96730177 </i>
    <i name="e_0_energy">     -3.97211083 </i>
   </energy>
  </scstep>
  <scstep>
   <time name="dav">    0.25    0.25</time>
   <time name="total">    0.25    0.25</time>
   <energy>
    <i name="e_fr_energy">     -4.59573113 </i>
    <i name="e_wo_entrp">     -4.59190824 </i>
    <i name="e_0_energy">     -4.59381969 </i>
   </energy>
  </scstep>
  <scstep>
   <time name="dav">    0.14    0.14</time>
   <time name="total">    0.14    0.14</time>
   <energy>
    <i name="e_fr_energy">     -4.59682697 </i>
    <i name="e_wo_entrp">     -4.59300265 </i>
    <i name="e_0_energy">     -4.59491481 </i>
   </energy>
  </scstep>
  <scstep>
   <time name="dav">    0.21    0.21</time>
   <time name="total">    0.21    0.21</time>
   <energy>
    <i name="e_fr_energy">     -4.59682733 </i>
    <i name="e_wo_entrp">     -4.59300300 </i>
    <i name="e_0_energy">     -4.59491517 </i>
   </energy>
  </scstep>
  <scstep>
   <time name="dav">    0.13    0.13</time>
   <time name="total">    0.13    0.13</time>
   <energy>
    <i name="e_fr_energy">     -4.59682733 </i>
    <i name="e_wo_entrp">     -4.59300300 </i>
    <i name="e_0_energy">     -4.59491516 </i>
   </energy>
  </scstep>
  <scstep>
   <time name="dav">    0.11    0.11</time>
   <time name="total">    0.11    0.11</time>
   <energy>
    <i name="e_fr_energy">     -4.58758574 </i>
    <i name="e_wo_entrp">     -4.58374634 </i>
    <i name="e_0_energy">     -4.58566604 </i>
   </energy>
  </scstep>
  <scstep>
   <time name="dav">    0.12    0.12</time>
   <time name="total">    0.12    0.12</time>
   <energy>
    <i name="e_fr_energy">     -4.58292413 </i>
    <i name="e_wo_entrp">     -4.57905664 </i>
    <i name="e_0_energy">     -4.58099038 </i>
   </energy>
  </scstep>
  <scstep>
   <time name="dav">    0.13    0.13</time>
   <time name="total">    0.13    0.13</time>
   <energy>
    <i name="e_fr_energy">     -4.58292794 </i>
    <i name="e_wo_entrp">     -4.57906171 </i>
    <i name="e_0_energy">     -4.58099482 </i>
   </energy>
  </scstep>
  <scstep>
   <time name="dav">    0.19    0.19</time>
   <time name="total">    0.19    0.19</time>
   <energy>
    <i name="e_fr_energy">     -4.58292959 </i>
    <i name="e_wo_entrp">     -4.57906356 </i>
    <i name="e_0_energy">     -4.58099658 </i>
   </energy>
  </scstep>
  <scstep>
   <time name="dav">    0.11    0.11</time>
   <time name="total">    0.11    0.11</time>
   <energy>
    <i name="alphaZ">      1.69359331 </i>
    <i name="ewald">   -122.82983823 </i>
    <i name="hartreedc">     -1.28476994 </i>
    <i name="XCdc">     -9.57649715 </i>
    <i name="pawpsdc">    194.95210307 </i>
    <i name="pawaedc">   -177.33191469 </i>
    <i name="eentropy">     -0.00386596 </i>
    <i name="bandstr">      6.73748362 </i>
    <i name="atom">    103.06077658 </i>
    <i name="e_fr_energy">     -4.58292940 </i>
    <i name="e_wo_entrp">     -4.57906343 </i>
    <i name="e_0_energy">     -4.58099642 </i>
   </energy>
  </scstep>
  <structure>
   <crystal>
    <varray name="basis" >
     <v>       2.15000000       2.15000000       0.00000000 </v>
     <v>       0.00000000       2.15000000       2.15000000 </v>
     <v>       2.15000000       0.00000000       2.15000000 </v>
    </varray>
    <i name="volume">     19.87675000 </i>
    <varray name="rec_basis" >
     <v>       0.23255814       0.23255814      -0.23255814 </v>
     <v>      -0.23255814       0.23255814       0.23255814 </v>
     <v>       0.23255814      -0.23255814       0.23255814 </v>
    </varray>
   </crystal>
   <varray name="positions" >
    <v>       0.00000000       0.00000000       0.00000000 </v>
   </varray>
  </structure>
  <varray name="forces" >
   <v>       0.00000000      -0.00000000       0.00000000 </v>
  </varray>
  <varray name="stress" >
   <v>    -139.05103536       0.00000000       0.00000000 </v>
   <v>       0.00000000    -139.05103536      -0.00000000 </v>
   <v>       0.00000000      -0.00000000    -139.05103536 </v>
  </varray>
  <energy>
   <i name="e_fr_energy">     -4.58292940 </i>
   <i name="e_wo_entrp">     -4.58099642 </i>
   <i name="e_0_energy">     -0.00386596 </i>
  </energy>
  <time name="totalsc">    1.66    1.70</time>
  <eigenvalues>
   <array>
    <dimension dim="1">band</dimension>
    <dimension dim="2">kpoint</dimension>
    <dimension dim="3">spin</dimension>
    <field>eigene</field>
    <field>occ</field>
    <set>
     <set comment="spin 1">
      <set comment="kpoint 1">
       <r>   -5.3695    1.0000 </r>
       <r>   14.2508    0.0000 </r>
       <r>   14.2509    0.0000 </r>
       <r>   14.2509    0.0000 </r>
       <r>   17.3363    0.0000 </r>
       <r>   17.3364    0.0000 </r>
       <r>   17.3364    0.0000 </r>
       <r>   21.9054    0.0000 </r>
       <r>   22.6676    0.0000 </r>
       <r>   22.6676    0.0000 </r>
       <r>   23.2905    0.0000 </r>
       <r>   28.0553    0.0000 </r>
      </set>
      <set comment="kpoint 2">
       <r>   -5.1781    1.0000 </r>
       <r>   12.5689    0.0000 </r>
       <r>   13.9243    0.0000 </r>
       <r>   13.9243    0.0000 </r>
       <r>   17.4939    0.0000 </r>
       <r>   17.8551    0.0000 </r>
       <r>   17.8552    0.0000 </r>
       <r>   21.9391    0.0000 </r>
       <r>   21.9392    0.0000 </r>
       <r>   23.2374    0.0000 </r>
       <r>   23.6549    0.0000 </r>
       <r>   27.4187    0.0000 </r>
      </set>
      <set comment="kpoint 3">
       <r>   -4.6058    1.0000 </r>
       <r>    9.6636    0.0000 </r>
       <r>   13.3557    0.0000 </r>
       <r>   13.3557    0.0000 </r>
       <r>   17.3066    0.0000 </r>
       <r>   18.5124    0.0000 </r>
       <r>   18.5127    0.0000 </r>
       <r>   21.2756    0.0000 </r>
       <r>   21.2759    0.0000 </r>
       <r>   23.5465    0.0000 </r>
       <r>   25.3183    0.0000 </r>
       <r>   28.5946    0.0000 </r>
      </set>
      <set comment="kpoint 4">
       <r>   -3.6605    1.0000 </r>
       <r>    6.7479    0.0000 </r>
       <r>   12.9002    0.0000 </r>
       <r>   12.9002    0.0000 </r>
       <r>   17.0314    0.0000 </r>
       <r>   17.9372    0.0000 </r>
       <r>   17.9376    0.0000 </r>
       <r>   22.3838    0.0000 </r>
       <r>   22.4772    0.0000 </r>
       <r>   22.4776    0.0000 </r>
       <r>   27.2210    0.0000 </r>
       <r>   32.3795    0.0000 </r>
      </set>
      <set comment="kpoint 5">
       <r>   -2.3658    1.0000 </r>
       <r>    4.0821    1.0000 </r>
       <r>   12.6285    0.0000 </r>
       <r>   12.6285    0.0000 </r>
       <r>   16.8617    0.0000 </r>
       <r>   17.0848    0.0000 </r>
       <r>   17.0851    0.0000 </r>
       <r>   21.3092    0.0000 </r>
       <r>   24.5860    0.0000 </r>
       <r>   24.5867    0.0000 </r>
       <r>   29.2815    0.0000 </r>
       <r>   35.7595    0.0000 </r>
      </set>
      <set comment="kpoint 6">
       <r>   -0.8611    1.0000 </r>
       <r>    1.8823    1.0000 </r>
       <r>   12.5138    0.0000 </r>
       <r>   12.5138    0.0000 </r>
       <r>   16.5739    0.0000 </r>
       <r>   16.5742    0.0000 </r>
       <r>   16.8084    0.0000 </r>
       <r>   20.6983    0.0000 </r>
       <r>   26.5585    0.0000 </r>
       <r>   26.5597    0.0000 </r>
       <r>   30.9848    0.0000 </r>
       <r>   33.2122    0.0000 </r>
      </set>
      <set comment="kpoint 7">
       <r>   -5.1143    1.0000 </r>
       <r>   13.1417    0.0000 </r>
       <r>   13.1417    0.0000 </r>
       <r>   13.5503    0.0000 </r>
       <r>   16.1777    0.0000 </r>
       <r>   18.7506    0.0000 </r>
       <r>   18.7506    0.0000 </r>
       <r>   20.4274    0.0000 </r>
       <r>   22.8980    0.0000 </r>
       <r>   23.5853    0.0000 </r>
       <r>   24.1923    0.0000 </r>
       <r>   28.4670    0.0000 </r>
      </set>
      <set comment="kpoint 8">
       <r>   -4.6687    1.0000 </r>
       <r>   10.7519    0.0000 </r>
       <r>   12.4044    0.0000 </r>
       <r>   13.2945    0.0000 </r>
       <r>   16.1949    0.0000 </r>
       <r>   18.8501    0.0000 </r>
       <r>   19.4211    0.0000 </r>
       <r>   19.7590    0.0000 </r>
       <r>   22.6930    0.0000 </r>
       <r>   24.9502    0.0000 </r>
       <r>   25.5514    0.0000 </r>
       <r>   28.2089    0.0000 </r>
      </set>
      <set comment="kpoint 9">
       <r>   -3.8472    1.0000 </r>
       <r>    7.8375    0.0000 </r>
       <r>   11.9019    0.0000 </r>
       <r>   12.6813    0.0000 </r>
       <r>   16.2673    0.0000 </r>
       <r>   18.2950    0.0000 </r>
       <r>   19.5827    0.0000 </r>
       <r>   20.0141    0.0000 </r>
       <r>   23.4654    0.0000 </r>
       <r>   24.2031    0.0000 </r>
       <r>   27.4485    0.0000 </r>
       <r>   31.1148    0.0000 </r>
      </set>
      <set comment="kpoint 10">
       <r>   -2.6655    1.0000 </r>
       <r>    5.0857    1.0000 </r>
       <r>   11.6824    0.0000 </r>
       <r>   12.0403    0.0000 </r>
       <r>   15.7134    0.0000 </r>
       <r>   18.2194    0.0000 </r>
       <r>   18.6299    0.0000 </r>
       <r>   21.6536    0.0000 </r>
       <r>   23.1799    0.0000 </r>
       <r>   25.3432    0.0000 </r>
       <r>   29.5007    0.0000 </r>
       <r>   35.1966    0.0000 </r>
      </set>
      <set comment="kpoint 11">
       <r>   -1.1907    1.0000 </r>
       <r>    2.6916    1.0000 </r>
       <r>   11.4564    0.0000 </r>
       <r>   11.7461    0.0000 </r>
       <r>   15.4784    0.0000 </r>
       <r>   17.7708    0.0000 </r>
       <r>   18.1028    0.0000 </r>
       <r>   22.2971    0.0000 </r>
       <r>   24.1026    0.0000 </r>
       <r>   26.9464    0.0000 </r>
       <r>   31.4079    0.0000 </r>
       <r>   33.2288    0.0000 </r>
      </set>
      <set comment="kpoint 12">
       <r>   -0.3277    1.0000 </r>
       <r>    1.5976    1.0000 </r>
       <r>   11.0043    0.0000 </r>
       <r>   12.0684    0.0000 </r>
       <r>   15.7357    0.0000 </r>
       <r>   17.2594    0.0000 </r>
       <r>   17.9861    0.0000 </r>
       <r>   22.2145    0.0000 </r>
       <r>   25.9224    0.0000 </r>
       <r>   26.3279    0.0000 </r>
       <r>   31.6775    0.0000 </r>
       <r>   32.8554    0.0000 </r>
      </set>
      <set comment="kpoint 13">
       <r>   -1.7037    1.0000 </r>
       <r>    3.4365    1.0000 </r>
       <r>   10.7691    0.0000 </r>
       <r>   12.5901    0.0000 </r>
       <r>   16.4321    0.0000 </r>
       <r>   17.1640    0.0000 </r>
       <r>   17.9150    0.0000 </r>
       <r>   22.5972    0.0000 </r>
       <r>   24.0205    0.0000 </r>
       <r>   25.5201    0.0000 </r>
       <r>   31.1293    0.0000 </r>
       <r>   33.0475    0.0000 </r>
      </set>
      <set comment="kpoint 14">
       <r>   -3.0980    1.0000 </r>
       <r>    5.9764    1.0000 </r>
       <r>   10.8062    0.0000 </r>
       <r>   13.2249    0.0000 </r>
       <r>   17.4530    0.0000 </r>
       <r>   17.5427    0.0000 </r>
       <r>   17.9557    0.0000 </r>
       <r>   21.7016    0.0000 </r>
       <r>   22.7480    0.0000 </r>
       <r>   24.4364    0.0000 </r>
       <r>   29.1056    0.0000 </r>
       <r>   33.3143    0.0000 </r>
      </set>
      <set comment="kpoint 15">
       <r>   -4.1624    1.0000 </r>
       <r>    8.8086    0.0000 </r>
       <r>   11.1418    0.0000 </r>
       <r>   13.8548    0.0000 </r>
       <r>   17.9330    0.0000 </r>
       <r>   18.1544    0.0000 </r>
       <r>   18.6553    0.0000 </r>
       <r>   20.0348    0.0000 </r>
       <r>   21.5632    0.0000 </r>
       <r>   25.0954    0.0000 </r>
       <r>   27.0004    0.0000 </r>
       <r>   29.7407    0.0000 </r>
      </set>
      <set comment="kpoint 16">
       <r>   -4.8597    1.0000 </r>
       <r>   11.5825    0.0000 </r>
       <r>   11.9087    0.0000 </r>
       <r>   14.2356    0.0000 </r>
       <r>   17.7138    0.0000 </r>
       <r>   17.8348    0.0000 </r>
       <r>   18.8913    0.0000 </r>
       <r>   20.4474    0.0000 </r>
       <r>   21.5041    0.0000 </r>
       <r>   24.7987    0.0000 </r>
       <r>   24.9124    0.0000 </r>
       <r>   27.9545    0.0000 </r>
      </set>
      <set comment="kpoint 17">
       <r>   -4.3507    1.0000 </r>
       <r>   11.5457    0.0000 </r>
       <r>   11.5457    0.0000 </r>
       <r>   11.8420    0.0000 </r>
       <r>   14.4044    0.0000 </r>
       <r>   16.9388    0.0000 </r>
       <r>   21.1933    0.0000 </r>
       <r>   21.1934    0.0000 </r>
       <r>   23.5665    0.0000 </r>
       <r>   26.5320    0.0000 </r>
       <r>   26.9201    0.0000 </r>
       <r>   29.7469    0.0000 </r>
      </set>
      <set comment="kpoint 18">
       <r>   -3.6553    1.0000 </r>
       <r>    9.1284    0.0000 </r>
       <r>   10.9467    0.0000 </r>
       <r>   11.3170    0.0000 </r>
       <r>   14.4440    0.0000 </r>
       <r>   16.0852    0.0000 </r>
       <r>   21.7028    0.0000 </r>
       <r>   21.8327    0.0000 </r>
       <r>   24.3412    0.0000 </r>
       <r>   27.0918    0.0000 </r>
       <r>   28.7153    0.0000 </r>
       <r>   30.4590    0.0000 </r>
      </set>
      <set comment="kpoint 19">
       <r>   -2.5937    1.0000 </r>
       <r>    6.3931    0.4386 </r>
       <r>   10.3347    0.0000 </r>
       <r>   10.6518    0.0000 </r>
       <r>   14.1466    0.0000 </r>
       <r>   17.4213    0.0000 </r>
       <r>   20.8750    0.0000 </r>
       <r>   21.8355    0.0000 </r>
       <r>   26.1134    0.0000 </r>
       <r>   26.1741    0.0000 </r>
       <r>   30.5906    0.0000 </r>
       <r>   33.8948    0.0000 </r>
      </set>
      <set comment="kpoint 20">
       <r>   -1.2041    1.0000 </r>
       <r>    3.8940    1.0000 </r>
       <r>    9.3938    0.0000 </r>
       <r>   10.6752    0.0000 </r>
       <r>   13.9959    0.0000 </r>
       <r>   19.2182    0.0000 </r>
       <r>   19.9368    0.0000 </r>
       <r>   22.0355    0.0000 </r>
       <r>   25.5140    0.0000 </r>
       <r>   27.4395    0.0000 </r>
       <r>   32.3525    0.0000 </r>
       <r>   33.7238    0.0000 </r>
      </set>
      <set comment="kpoint 21">
       <r>    0.1633    1.0000 </r>
       <r>    2.0755    1.0000 </r>
       <r>    8.6601    0.0000 </r>
       <r>   11.0073    0.0000 </r>
       <r>   14.2833    0.0000 </r>
       <r>   19.2105    0.0000 </r>
       <r>   19.9489    0.0000 </r>
       <r>   23.3276    0.0000 </r>
       <r>   25.3463    0.0000 </r>
       <r>   26.2858    0.0000 </r>
       <r>   31.3579    0.0000 </r>
       <r>   34.4055    0.0000 </r>
      </set>
      <set comment="kpoint 22">
       <r>   -0.7008    1.0000 </r>
       <r>    3.1731    1.0000 </r>
       <r>    8.2109    0.0000 </r>
       <r>   11.6266    0.0000 </r>
       <r>   14.9859    0.0000 </r>
       <r>   18.8200    0.0000 </r>
       <r>   19.8882    0.0000 </r>
       <r>   23.7768    0.0000 </r>
       <r>   24.2001    0.0000 </r>
       <r>   25.8414    0.0000 </r>
       <r>   30.5610    0.0000 </r>
       <r>   34.4207    0.0000 </r>
      </set>
      <set comment="kpoint 23">
       <r>   -2.1681    1.0000 </r>
       <r>    5.5516    1.0000 </r>
       <r>    8.0847    0.0000 </r>
       <r>   12.4690    0.0000 </r>
       <r>   16.0555    0.0000 </r>
       <r>   18.8007    0.0000 </r>
       <r>   19.6424    0.0000 </r>
       <r>   21.2976    0.0000 </r>
       <r>   23.1352    0.0000 </r>
       <r>   26.8471    0.0000 </r>
       <r>   30.9346    0.0000 </r>
       <r>   33.3549    0.0000 </r>
      </set>
      <set comment="kpoint 24">
       <r>   -3.3447    1.0000 </r>
       <r>    8.1431    0.0000 </r>
       <r>    8.4202    0.0000 </r>
       <r>   13.3714    0.0000 </r>
       <r>   17.3891    0.0000 </r>
       <r>   19.0457    0.0000 </r>
       <r>   19.1395    0.0000 </r>
       <r>   19.3077    0.0000 </r>
       <r>   21.9207    0.0000 </r>
       <r>   27.3461    0.0000 </r>
       <r>   28.6159    0.0000 </r>
       <r>   31.0744    0.0000 </r>
      </set>
      <set comment="kpoint 25">
       <r>   -3.0868    1.0000 </r>
       <r>    9.4041    0.0000 </r>
       <r>   10.2442    0.0000 </r>
       <r>   10.2442    0.0000 </r>
       <r>   12.9417    0.0000 </r>
       <r>   14.2503    0.0000 </r>
       <r>   23.7696    0.0000 </r>
       <r>   23.7696    0.0000 </r>
       <r>   24.6394    0.0000 </r>
       <r>   29.5732    0.0000 </r>
       <r>   30.9909    0.0000 </r>
       <r>   31.0458    0.0000 </r>
      </set>
      <set comment="kpoint 26">
       <r>   -2.1497    1.0000 </r>
       <r>    7.5537    0.0000 </r>
       <r>    8.9053    0.0000 </r>
       <r>    9.8493    0.0000 </r>
       <r>   12.9415    0.0000 </r>
       <r>   14.4545    0.0000 </r>
       <r>   23.4533    0.0000 </r>
       <r>   24.3352    0.0000 </r>
       <r>   26.4562    0.0000 </r>
       <r>   29.8513    0.0000 </r>
       <r>   31.7910    0.0000 </r>
       <r>   33.3860    0.0000 </r>
      </set>
      <set comment="kpoint 27">
       <r>   -0.8688    1.0000 </r>
       <r>    5.2986    1.0000 </r>
       <r>    7.4700    0.0000 </r>
       <r>    9.7803    0.0000 </r>
       <r>   12.8388    0.0000 </r>
       <r>   16.5678    0.0000 </r>
       <r>   22.5051    0.0000 </r>
       <r>   24.0308    0.0000 </r>
       <r>   27.7939    0.0000 </r>
       <r>   29.2093    0.0000 </r>
       <r>   33.2129    0.0000 </r>
       <r>   34.4347    0.0000 </r>
      </set>
      <set comment="kpoint 28">
       <r>    0.6109    1.0000 </r>
       <r>    3.2510    1.0000 </r>
       <r>    6.4435    0.1930 </r>
       <r>   10.0368    0.0000 </r>
       <r>   13.0797    0.0000 </r>
       <r>   19.0821    0.0000 </r>
       <r>   21.6741    0.0000 </r>
       <r>   23.4362    0.0000 </r>
       <r>   26.4629    0.0000 </r>
       <r>   28.6973    0.0000 </r>
       <r>   31.9048    0.0000 </r>
       <r>   35.2091    0.0000 </r>
      </set>
      <set comment="kpoint 29">
       <r>    0.5763    1.0000 </r>
       <r>    3.3261    1.0000 </r>
       <r>    5.7870    1.0000 </r>
       <r>   10.6078    0.0000 </r>
       <r>   13.7188    0.0000 </r>
       <r>   21.0774    0.0000 </r>
       <r>   21.3499    0.0000 </r>
       <r>   22.8089    0.0000 </r>
       <r>   23.9186    0.0000 </r>
       <r>   27.9623    0.0000 </r>
       <r>   31.1932    0.0000 </r>
       <r>   35.1543    0.0000 </r>
      </set>
      <set comment="kpoint 30">
       <r>   -0.8974    1.0000 </r>
       <r>    5.4129    1.0000 </r>
       <r>    5.5710    1.0000 </r>
       <r>   11.4567    0.0000 </r>
       <r>   14.7329    0.0000 </r>
       <r>   20.4691    0.0000 </r>
       <r>   21.2759    0.0000 </r>
       <r>   21.7043    0.0000 </r>
       <r>   23.0051    0.0000 </r>
       <r>   28.0391    0.0000 </r>
       <r>   31.5433    0.0000 </r>
       <r>   32.0489    0.0000 </r>
      </set>
      <set comment="kpoint 31">
       <r>   -1.3388    1.0000 </r>
       <r>    6.4716    0.1031 </r>
       <r>    9.3504    0.0000 </r>
       <r>    9.3505    0.0000 </r>
       <r>   11.9349    0.0000 </r>
       <r>   12.7117    0.0000 </r>
       <r>   25.9533    0.0000 </r>
       <r>   26.1868    0.0000 </r>
       <r>   26.1869    0.0000 </r>
       <r>   32.2238    0.0000 </r>
       <r>   32.9887    0.0000 </r>
       <r>   34.3565    0.0000 </r>
      </set>
      <set comment="kpoint 32">
       <r>   -0.1794    1.0000 </r>
       <r>    5.0348    1.0000 </r>
       <r>    7.6927    0.0000 </r>
       <r>    9.1779    0.0000 </r>
       <r>   12.0547    0.0000 </r>
       <r>   13.6248    0.0000 </r>
       <r>   25.2410    0.0000 </r>
       <r>   26.5142    0.0000 </r>
       <r>   27.9744    0.0000 </r>
       <r>   32.6413    0.0000 </r>
       <r>   33.3979    0.0000 </r>
       <r>   34.2781    0.0000 </r>
      </set>
      <set comment="kpoint 33">
       <r>    1.2416    1.0000 </r>
       <r>    3.8174    1.0000 </r>
       <r>    5.5996    1.0000 </r>
       <r>    9.3365    0.0000 </r>
       <r>   12.2385    0.0000 </r>
       <r>   16.1202    0.0000 </r>
       <r>   24.3353    0.0000 </r>
       <r>   25.7194    0.0000 </r>
       <r>   26.9485    0.0000 </r>
       <r>   30.9313    0.0000 </r>
       <r>   34.1442    0.0000 </r>
       <r>   35.3681    0.0000 </r>
      </set>
      <set comment="kpoint 34">
       <r>    1.8139    1.0000 </r>
       <r>    3.6258    1.0000 </r>
       <r>    4.2352    1.0000 </r>
       <r>    9.8209    0.0000 </r>
       <r>   12.7924    0.0000 </r>
       <r>   18.9567    0.0000 </r>
       <r>   23.2108    0.0000 </r>
       <r>   24.3028    0.0000 </r>
       <r>   24.8367    0.0000 </r>
       <r>   29.2228    0.0000 </r>
       <r>   34.2337    0.0000 </r>
       <r>   34.9066    0.0000 </r>
      </set>
      <set comment="kpoint 35">
       <r>    0.8461    1.0000 </r>
       <r>    3.5742    1.0000 </r>
       <r>    8.8987    0.0000 </r>
       <r>    8.8987    0.0000 </r>
       <r>   11.4296    0.0000 </r>
       <r>   12.0389    0.0000 </r>
       <r>   27.1612    0.0000 </r>
       <r>   28.2194    0.0000 </r>
       <r>   28.2195    0.0000 </r>
       <r>   33.1977    0.0000 </r>
       <r>   33.4411    0.0000 </r>
       <r>   33.4412    0.0000 </r>
      </set>
      <set comment="kpoint 36">
       <r>    1.8854    1.0000 </r>
       <r>    2.6450    1.0000 </r>
       <r>    7.3935    0.0000 </r>
       <r>    8.9518    0.0000 </r>
       <r>   11.7629    0.0000 </r>
       <r>   13.3566    0.0000 </r>
       <r>   26.4437    0.0000 </r>
       <r>   27.6761    0.0000 </r>
       <r>   27.8778    0.0000 </r>
       <r>   32.2855    0.0000 </r>
       <r>   34.0257    0.0000 </r>
       <r>   34.2276    0.0000 </r>
      </set>
      <set comment="kpoint 37">
       <r>   -4.0982    1.0000 </r>
       <r>    9.8616    0.0000 </r>
       <r>   10.2019    0.0000 </r>
       <r>   13.1227    0.0000 </r>
       <r>   16.1724    0.0000 </r>
       <r>   17.6081    0.0000 </r>
       <r>   19.9630    0.0000 </r>
       <r>   20.5073    0.0000 </r>
       <r>   22.7375    0.0000 </r>
       <r>   26.5182    0.0000 </r>
       <r>   27.4511    0.0000 </r>
       <r>   29.2046    0.0000 </r>
      </set>
      <set comment="kpoint 38">
       <r>   -3.1564    1.0000 </r>
       <r>    7.1771    0.0000 </r>
       <r>    9.6012    0.0000 </r>
       <r>   12.3469    0.0000 </r>
       <r>   16.2269    0.0000 </r>
       <r>   17.8653    0.0000 </r>
       <r>   19.3824    0.0000 </r>
       <r>   20.9957    0.0000 </r>
       <r>   23.7199    0.0000 </r>
       <r>   26.2977    0.0000 </r>
       <r>   29.5729    0.0000 </r>
       <r>   31.7710    0.0000 </r>
      </set>
      <set comment="kpoint 39">
       <r>   -1.8663    1.0000 </r>
       <r>    4.5478    1.0000 </r>
       <r>    9.4439    0.0000 </r>
       <r>   11.4581    0.0000 </r>
       <r>   15.9154    0.0000 </r>
       <r>   17.7417    0.0000 </r>
       <r>   19.8551    0.0000 </r>
       <r>   21.7505    0.0000 </r>
       <r>   24.8114    0.0000 </r>
       <r>   26.0052    0.0000 </r>
       <r>   31.6779    0.0000 </r>
       <r>   33.1604    0.0000 </r>
      </set>
      <set comment="kpoint 40">
       <r>   -0.3677    1.0000 </r>
       <r>    2.3624    1.0000 </r>
       <r>    9.4923    0.0000 </r>
       <r>   10.8392    0.0000 </r>
       <r>   15.8597    0.0000 </r>
       <r>   17.1744    0.0000 </r>
       <r>   20.1398    0.0000 </r>
       <r>   23.5407    0.0000 </r>
       <r>   24.5900    0.0000 </r>
       <r>   26.2251    0.0000 </r>
       <r>   31.7933    0.0000 </r>
       <r>   33.1425    0.0000 </r>
      </set>
      <set comment="kpoint 41">
       <r>   -2.8391    1.0000 </r>
       <r>    8.3087    0.0000 </r>
       <r>    8.8265    0.0000 </r>
       <r>   10.6893    0.0000 </r>
       <r>   14.8095    0.0000 </r>
       <r>   15.4251    0.0000 </r>
       <r>   21.3482    0.0000 </r>
       <r>   23.3969    0.0000 </r>
       <r>   25.0765    0.0000 </r>
       <r>   28.5539    0.0000 </r>
       <r>   30.2882    0.0000 </r>
       <r>   31.3993    0.0000 </r>
      </set>
      <set comment="kpoint 42">
       <r>   -1.6660    1.0000 </r>
       <r>    5.9300    1.0000 </r>
       <r>    8.2058    0.0000 </r>
       <r>    9.6858    0.0000 </r>
       <r>   14.8315    0.0000 </r>
       <r>   17.0130    0.0000 </r>
       <r>   20.4351    0.0000 </r>
       <r>   23.7305    0.0000 </r>
       <r>   26.2940    0.0000 </r>
       <r>   28.2982    0.0000 </r>
       <r>   32.3475    0.0000 </r>
       <r>   33.6161    0.0000 </r>
      </set>
      <set comment="kpoint 43">
       <r>   -0.2044    1.0000 </r>
       <r>    3.6132    1.0000 </r>
       <r>    7.7380    0.0000 </r>
       <r>    9.2546    0.0000 </r>
       <r>   14.9233    0.0000 </r>
       <r>   18.7264    0.0000 </r>
       <r>   20.2125    0.0000 </r>
       <r>   23.3880    0.0000 </r>
       <r>   26.4808    0.0000 </r>
       <r>   27.7911    0.0000 </r>
       <r>   32.5754    0.0000 </r>
       <r>   33.5505    0.0000 </r>
      </set>
      <set comment="kpoint 44">
       <r>    0.6394    1.0000 </r>
       <r>    2.5565    1.0000 </r>
       <r>    7.2094    0.0000 </r>
       <r>    9.5379    0.0000 </r>
       <r>   15.3511    0.0000 </r>
       <r>   18.5585    0.0000 </r>
       <r>   21.9014    0.0000 </r>
       <r>   22.4970    0.0000 </r>
       <r>   25.2384    0.0000 </r>
       <r>   27.6356    0.0000 </r>
       <r>   31.4891    0.0000 </r>
       <r>   34.5058    0.0000 </r>
      </set>
      <set comment="kpoint 45">
       <r>   -0.7217    1.0000 </r>
       <r>    4.3737    1.0000 </r>
       <r>    6.8882    0.0000 </r>
       <r>   10.2761    0.0000 </r>
       <r>   16.0630    0.0000 </r>
       <r>   18.3239    0.0000 </r>
       <r>   20.4127    0.0000 </r>
       <r>   22.9465    0.0000 </r>
       <r>   24.7320    0.0000 </r>
       <r>   27.8645    0.0000 </r>
       <r>   31.0005    0.0000 </r>
       <r>   33.8726    0.0000 </r>
      </set>
      <set comment="kpoint 46">
       <r>   -2.1014    1.0000 </r>
       <r>    6.7295    0.0000 </r>
       <r>    7.0057    0.0000 </r>
       <r>   11.3105    0.0000 </r>
       <r>   16.8512    0.0000 </r>
       <r>   17.9513    0.0000 </r>
       <r>   18.8945    0.0000 </r>
       <r>   22.4807    0.0000 </r>
       <r>   23.9221    0.0000 </r>
       <r>   28.3861    0.0000 </r>
       <r>   30.4138    0.0000 </r>
       <r>   33.4464    0.0000 </r>
      </set>
      <set comment="kpoint 47">
       <r>   -1.1006    1.0000 </r>
       <r>    6.3812    0.5055 </r>
       <r>    7.8865    0.0000 </r>
       <r>    8.5576    0.0000 </r>
       <r>   13.8595    0.0000 </r>
       <r>   14.2098    0.0000 </r>
       <r>   23.0222    0.0000 </r>
       <r>   26.0685    0.0000 </r>
       <r>   26.8253    0.0000 </r>
       <r>   31.2816    0.0000 </r>
       <r>   33.4879    0.0000 </r>
       <r>   33.5317    0.0000 </r>
      </set>
      <set comment="kpoint 48">
       <r>    0.2666    1.0000 </r>
       <r>    4.8209    1.0000 </r>
       <r>    6.2845    0.9165 </r>
       <r>    8.2127    0.0000 </r>
       <r>   14.0574    0.0000 </r>
       <r>   16.3867    0.0000 </r>
       <r>   22.1418    0.0000 </r>
       <r>   25.5114    0.0000 </r>
       <r>   27.1420    0.0000 </r>
       <r>   31.2428    0.0000 </r>
       <r>   33.4506    0.0000 </r>
       <r>   34.2245    0.0000 </r>
      </set>
      <set comment="kpoint 49">
       <r>    1.5641    1.0000 </r>
       <r>    3.3938    1.0000 </r>
       <r>    5.1778    1.0000 </r>
       <r>    8.5317    0.0000 </r>
       <r>   14.4352    0.0000 </r>
       <r>   18.9978    0.0000 </r>
       <r>   21.4855    0.0000 </r>
       <r>   23.3886    0.0000 </r>
       <r>   26.3870    0.0000 </r>
       <r>   30.2363    0.0000 </r>
       <r>   32.9740    0.0000 </r>
       <r>   35.4420    0.0000 </r>
      </set>
      <set comment="kpoint 50">
       <r>    0.6928    1.0000 </r>
       <r>    4.5555    1.0000 </r>
       <r>    4.6008    1.0000 </r>
       <r>    9.2430    0.0000 </r>
       <r>   15.1462    0.0000 </r>
       <r>   20.4066    0.0000 </r>
       <r>   20.7156    0.0000 </r>
       <r>   22.4126    0.0000 </r>
       <r>   25.1241    0.0000 </r>
       <r>   28.9809    0.0000 </r>
       <r>   32.9115    0.0000 </r>
       <r>   33.5752    0.0000 </r>
      </set>
      <set comment="kpoint 51">
       <r>    1.0589    1.0000 </r>
       <r>    3.7560    1.0000 </r>
       <r>    7.4123    0.0000 </r>
       <r>    7.7641    0.0000 </r>
       <r>   13.3799    0.0000 </r>
       <r>   13.6551    0.0000 </r>
       <r>   24.9192    0.0000 </r>
       <r>   26.6970    0.0000 </r>
       <r>   28.1896    0.0000 </r>
       <r>   33.0818    0.0000 </r>
       <r>   33.6348    0.0000 </r>
       <r>   34.3606    0.0000 </r>
      </set>
      <set comment="kpoint 52">
       <r>    2.1479    1.0000 </r>
       <r>    3.1359    1.0000 </r>
       <r>    5.5248    1.0000 </r>
       <r>    7.8895    0.0000 </r>
       <r>   13.8024    0.0000 </r>
       <r>   16.1662    0.0000 </r>
       <r>   24.0819    0.0000 </r>
       <r>   24.2395    0.0000 </r>
       <r>   27.9351    0.0000 </r>
       <r>   31.7725    0.0000 </r>
       <r>   35.0561    0.0000 </r>
       <r>   35.1326    0.0000 </r>
      </set>
      <set comment="kpoint 53">
       <r>   -0.3996    1.0000 </r>
       <r>    5.5945    1.0000 </r>
       <r>    6.0450    1.0000 </r>
       <r>    8.4008    0.0000 </r>
       <r>   16.6840    0.0000 </r>
       <r>   17.0743    0.0000 </r>
       <r>   19.5932    0.0000 </r>
       <r>   25.0965    0.0000 </r>
       <r>   25.6820    0.0000 </r>
       <r>   30.1323    0.0000 </r>
       <r>   32.4920    0.0000 </r>
       <r>   33.0610    0.0000 </r>
      </set>
      <set comment="kpoint 54">
       <r>    1.0601    1.0000 </r>
       <r>    3.7362    1.0000 </r>
       <r>    5.9056    1.0000 </r>
       <r>    7.5980    0.0000 </r>
       <r>   16.8076    0.0000 </r>
       <r>   18.3705    0.0000 </r>
       <r>   20.0603    0.0000 </r>
       <r>   22.9017    0.0000 </r>
       <r>   26.6245    0.0000 </r>
       <r>   30.6028    0.0000 </r>
       <r>   32.6292    0.0000 </r>
       <r>   34.8126    0.0000 </r>
      </set>
      <set comment="kpoint 55">
       <r>    1.6403    1.0000 </r>
       <r>    4.1672    1.0000 </r>
       <r>    5.5620    1.0000 </r>
       <r>    6.5020    0.0451 </r>
       <r>   16.4163    0.0000 </r>
       <r>   16.6238    0.0000 </r>
       <r>   21.3290    0.0000 </r>
       <r>   23.5026    0.0000 </r>
       <r>   28.2073    0.0000 </r>
       <r>   33.2941    0.0000 </r>
       <r>   33.7814    0.0000 </r>
       <r>   34.2168    0.0000 </r>
      </set>
      <set comment="kpoint 56">
       <r>    2.2283    1.0000 </r>
       <r>    4.1124    1.0000 </r>
       <r>    4.4646    1.0000 </r>
       <r>    6.6101    0.0006 </r>
       <r>   16.8662    0.0000 </r>
       <r>   19.0391    0.0000 </r>
       <r>   20.3083    0.0000 </r>
       <r>   21.4284    0.0000 </r>
       <r>   28.1208    0.0000 </r>
       <r>   32.3822    0.0000 </r>
       <r>   34.3581    0.0000 </r>
       <r>   35.0138    0.0000 </r>
      </set>
     </set>
    </set>
   </array>
  </eigenvalues>
  <separator name="orbital magnetization" >
   <v name="MAGDIPOLOUT">      0.00000000      0.00000000      0.00000000</v>
  </separator>
  <dos>
   <i name="efermi">      6.38218690 </i>
   <total>
    <array>
     <dimension dim="1">gridpoints</dimension>
     <dimension dim="2">spin</dimension>
     <field>energy</field>
     <field>total</field>
     <field>integrated</field>
     <set>
      <set comment="spin 1">
       <r>    -7.4260     0.0000     0.0000 </r>
       <r>    -7.2752     0.0000     0.0000 </r>
       <r>    -7.1244     0.0000     0.0000 </r>
       <r>    -6.9736     0.0000     0.0000 </r>
       <r>    -6.8228     0.0000     0.0000 </r>
       <r>    -6.6720     0.0000     0.0000 </r>
       <r>    -6.5211     0.0000     0.0000 </r>
       <r>    -6.3703     0.0000     0.0000 </r>
       <r>    -6.2195     0.0000     0.0000 </r>
       <r>    -6.0687     0.0000     0.0000 </r>
       <r>    -5.9179     0.0000     0.0000 </r>
       <r>    -5.7671     0.0000     0.0000 </r>
       <r>    -5.6163     0.0000     0.0000 </r>
       <r>    -5.4655     0.0009     0.0001 </r>
       <r>    -5.3147     0.0092     0.0015 </r>
       <r>    -5.1639     0.0605     0.0106 </r>
       <r>    -5.0131     0.0753     0.0220 </r>
       <r>    -4.8623     0.0623     0.0314 </r>
       <r>    -4.7115     0.1292     0.0509 </r>
       <r>    -4.5607     0.2145     0.0832 </r>
       <r>    -4.4099     0.0477     0.0904 </r>
       <r>    -4.2591     0.0654     0.1003 </r>
       <r>    -4.1082     0.2747     0.1417 </r>
       <r>    -3.9574     0.1943     0.1710 </r>
       <r>    -3.8066     0.1686     0.1965 </r>
       <r>    -3.6558     0.2223     0.2300 </r>
       <r>    -3.5050     0.1552     0.2534 </r>
       <r>    -3.3542     0.0584     0.2622 </r>
       <r>    -3.2034     0.2024     0.2927 </r>
       <r>    -3.0526     0.5249     0.3719 </r>
       <r>    -2.9018     0.1588     0.3958 </r>
       <r>    -2.7510     0.1999     0.4260 </r>
       <r>    -2.6002     0.3026     0.4716 </r>
       <r>    -2.4494     0.1751     0.4980 </r>
       <r>    -2.2986     0.0744     0.5092 </r>
       <r>    -2.1478     0.3309     0.5592 </r>
       <r>    -1.9970     0.3807     0.6166 </r>
       <r>    -1.8461     0.3075     0.6629 </r>
       <r>    -1.6953     0.4667     0.7333 </r>
       <r>    -1.5445     0.4049     0.7944 </r>
       <r>    -1.3937     0.0378     0.8001 </r>
       <r>    -1.2429     0.1701     0.8257 </r>
       <r>    -1.0921     0.4520     0.8939 </r>
       <r>    -0.9413     0.2169     0.9266 </r>
       <r>    -0.7905     0.4131     0.9889 </r>
       <r>    -0.6397     0.5611     1.0735 </r>
       <r>    -0.4889     0.1529     1.0966 </r>
       <r>    -0.3381     0.5849     1.1848 </r>
       <r>    -0.1873     0.7095     1.2918 </r>
       <r>    -0.0365     0.3232     1.3405 </r>
       <r>     0.1143     0.0747     1.3518 </r>
       <r>     0.2651     0.3905     1.4107 </r>
       <r>     0.4159     0.2566     1.4494 </r>
       <r>     0.5668     0.2566     1.4881 </r>
       <r>     0.7176     0.7733     1.6047 </r>
       <r>     0.8684     0.2080     1.6361 </r>
       <r>     1.0192     0.2248     1.6700 </r>
       <r>     1.1700     0.5090     1.7467 </r>
       <r>     1.3208     0.2133     1.7789 </r>
       <r>     1.4716     0.0878     1.7921 </r>
       <r>     1.6224     0.5723     1.8784 </r>
       <r>     1.7732     0.3637     1.9333 </r>
       <r>     1.9240     0.2227     1.9669 </r>
       <r>     2.0748     0.2179     1.9997 </r>
       <r>     2.2256     0.4128     2.0620 </r>
       <r>     2.3764     0.4219     2.1256 </r>
       <r>     2.5272     0.3693     2.1813 </r>
       <r>     2.6780     0.4746     2.2529 </r>
       <r>     2.8288     0.1897     2.2815 </r>
       <r>     2.9797     0.0108     2.2831 </r>
       <r>     3.1305     0.1849     2.3110 </r>
       <r>     3.2813     0.5216     2.3896 </r>
       <r>     3.4321     0.6841     2.4928 </r>
       <r>     3.5829     0.5070     2.5693 </r>
       <r>     3.7337     0.7539     2.6830 </r>
       <r>     3.8845     0.6819     2.7858 </r>
       <r>     4.0353     0.2450     2.8227 </r>
       <r>     4.1861     0.3983     2.8828 </r>
       <r>     4.3369     0.3667     2.9381 </r>
       <r>     4.4877     0.6084     3.0298 </r>
       <r>     4.6385     0.7762     3.1469 </r>
       <r>     4.7893     0.3025     3.1925 </r>
       <r>     4.9401     0.3272     3.2419 </r>
       <r>     5.0909     0.3629     3.2966 </r>
       <r>     5.2418     0.5492     3.3794 </r>
       <r>     5.3926     0.3165     3.4271 </r>
       <r>     5.5434     0.5743     3.5138 </r>
       <r>     5.6942     0.7864     3.6324 </r>
       <r>     5.8450     0.3829     3.6901 </r>
       <r>     5.9958     0.9200     3.8288 </r>
       <r>     6.1466     0.3994     3.8891 </r>
       <r>     6.2974     0.3368     3.9399 </r>
       <r>     6.4482     0.7340     4.0505 </r>
       <r>     6.5990     0.5194     4.1289 </r>
       <r>     6.7498     0.3454     4.1810 </r>
       <r>     6.9006     0.4112     4.2430 </r>
       <r>     7.0514     0.3887     4.3016 </r>
       <r>     7.2022     0.5684     4.3873 </r>
       <r>     7.3530     0.5121     4.4645 </r>
       <r>     7.5038     0.5130     4.5419 </r>
       <r>     7.6547     0.7442     4.6541 </r>
       <r>     7.8055     0.9072     4.7909 </r>
       <r>     7.9563     0.6602     4.8905 </r>
       <r>     8.1071     0.3574     4.9444 </r>
       <r>     8.2579     1.0394     5.1011 </r>
       <r>     8.4087     0.6644     5.2013 </r>
       <r>     8.5595     0.6213     5.2950 </r>
       <r>     8.7103     0.4789     5.3673 </r>
       <r>     8.8611     0.4901     5.4412 </r>
       <r>     9.0119     0.4641     5.5112 </r>
       <r>     9.1627     0.3756     5.5678 </r>
       <r>     9.3135     0.8911     5.7022 </r>
       <r>     9.4643     1.0975     5.8677 </r>
       <r>     9.6151     1.2423     6.0550 </r>
       <r>     9.7659     0.8545     6.1839 </r>
       <r>     9.9168     0.6342     6.2796 </r>
       <r>    10.0676     0.2666     6.3198 </r>
       <r>    10.2184     0.3658     6.3749 </r>
       <r>    10.3692     0.6556     6.4738 </r>
       <r>    10.5200     0.1639     6.4985 </r>
       <r>    10.6708     0.5709     6.5846 </r>
       <r>    10.8216     1.0624     6.7448 </r>
       <r>    10.9724     0.7719     6.8612 </r>
       <r>    11.1232     0.4988     6.9364 </r>
       <r>    11.2740     0.3022     6.9820 </r>
       <r>    11.4248     0.6211     7.0757 </r>
       <r>    11.5756     0.7872     7.1944 </r>
       <r>    11.7264     0.5983     7.2846 </r>
       <r>    11.8772     0.4803     7.3571 </r>
       <r>    12.0280     0.5694     7.4429 </r>
       <r>    12.1788     0.5365     7.5238 </r>
       <r>    12.3297     0.4290     7.5885 </r>
       <r>    12.4805     0.6708     7.6897 </r>
       <r>    12.6313     0.6095     7.7816 </r>
       <r>    12.7821     0.4852     7.8548 </r>
       <r>    12.9329     0.4992     7.9301 </r>
       <r>    13.0837     0.4522     7.9982 </r>
       <r>    13.2345     0.5517     8.0814 </r>
       <r>    13.3853     0.6611     8.1811 </r>
       <r>    13.5361     0.3399     8.2324 </r>
       <r>    13.6869     0.4506     8.3003 </r>
       <r>    13.8377     0.6314     8.3956 </r>
       <r>    13.9885     0.6624     8.4955 </r>
       <r>    14.1393     0.6750     8.5972 </r>
       <r>    14.2901     0.6428     8.6942 </r>
       <r>    14.4409     0.6891     8.7981 </r>
       <r>    14.5918     0.4927     8.8724 </r>
       <r>    14.7426     0.1740     8.8986 </r>
       <r>    14.8934     0.7399     9.0102 </r>
       <r>    15.0442     0.6018     9.1010 </r>
       <r>    15.1950     0.2396     9.1371 </r>
       <r>    15.3458     0.3152     9.1846 </r>
       <r>    15.4966     0.5520     9.2679 </r>
       <r>    15.6474     0.2074     9.2992 </r>
       <r>    15.7982     0.4554     9.3678 </r>
       <r>    15.9490     0.7626     9.4828 </r>
       <r>    16.0998     1.0174     9.6363 </r>
       <r>    16.2506     1.3892     9.8458 </r>
       <r>    16.4014     0.8853     9.9793 </r>
       <r>    16.5522     0.6882    10.0831 </r>
       <r>    16.7030     0.6037    10.1741 </r>
       <r>    16.8538     0.7795    10.2917 </r>
       <r>    17.0047     0.7747    10.4085 </r>
       <r>    17.1555     0.9150    10.5465 </r>
       <r>    17.3063     0.7110    10.6537 </r>
       <r>    17.4571     0.5513    10.7368 </r>
       <r>    17.6079     0.5671    10.8224 </r>
       <r>    17.7587     0.6876    10.9261 </r>
       <r>    17.9095     1.2803    11.1191 </r>
       <r>    18.0603     1.1302    11.2896 </r>
       <r>    18.2111     0.5791    11.3769 </r>
       <r>    18.3619     0.8855    11.5104 </r>
       <r>    18.5127     0.6547    11.6092 </r>
       <r>    18.6635     0.8009    11.7300 </r>
       <r>    18.8143     1.0029    11.8812 </r>
       <r>    18.9651     0.9850    12.0297 </r>
       <r>    19.1159     0.9202    12.1685 </r>
       <r>    19.2668     0.6120    12.2608 </r>
       <r>    19.4176     0.6146    12.3535 </r>
       <r>    19.5684     0.4932    12.4279 </r>
       <r>    19.7192     0.5362    12.5087 </r>
       <r>    19.8700     0.6682    12.6095 </r>
       <r>    20.0208     1.2345    12.7957 </r>
       <r>    20.1716     1.1178    12.9643 </r>
       <r>    20.3224     0.7529    13.0778 </r>
       <r>    20.4732     1.1931    13.2577 </r>
       <r>    20.6240     0.5757    13.3445 </r>
       <r>    20.7748     0.2608    13.3839 </r>
       <r>    20.9256     0.3030    13.4296 </r>
       <r>    21.0764     0.5186    13.5078 </r>
       <r>    21.2272     0.4081    13.5693 </r>
       <r>    21.3780     1.0087    13.7214 </r>
       <r>    21.5288     0.9293    13.8616 </r>
       <r>    21.6797     0.9126    13.9992 </r>
       <r>    21.8305     1.2229    14.1836 </r>
       <r>    21.9813     0.9231    14.3228 </r>
       <r>    22.1321     0.5434    14.4048 </r>
       <r>    22.2829     0.5600    14.4892 </r>
       <r>    22.4337     0.6068    14.5807 </r>
       <r>    22.5845     1.0154    14.7339 </r>
       <r>    22.7353     0.6694    14.8348 </r>
       <r>    22.8861     0.8176    14.9581 </r>
       <r>    23.0369     0.9136    15.0959 </r>
       <r>    23.1877     0.5605    15.1804 </r>
       <r>    23.3385     0.7451    15.2928 </r>
       <r>    23.4893     1.6415    15.5403 </r>
       <r>    23.6401     1.0623    15.7005 </r>
       <r>    23.7909     1.0167    15.8539 </r>
       <r>    23.9417     0.6583    15.9531 </r>
       <r>    24.0926     0.7927    16.0727 </r>
       <r>    24.2434     0.8835    16.2059 </r>
       <r>    24.3942     0.9156    16.3440 </r>
       <r>    24.5450     0.5006    16.4195 </r>
       <r>    24.6958     0.6633    16.5195 </r>
       <r>    24.8466     0.8872    16.6533 </r>
       <r>    24.9974     0.7489    16.7663 </r>
       <r>    25.1482     0.8243    16.8906 </r>
       <r>    25.2990     0.8908    17.0249 </r>
       <r>    25.4498     0.7027    17.1309 </r>
       <r>    25.6006     0.9168    17.2691 </r>
       <r>    25.7514     0.5104    17.3461 </r>
       <r>    25.9022     0.4266    17.4104 </r>
       <r>    26.0530     0.7128    17.5179 </r>
       <r>    26.2038     0.9608    17.6628 </r>
       <r>    26.3547     1.6456    17.9110 </r>
       <r>    26.5055     1.6102    18.1538 </r>
       <r>    26.6563     1.1140    18.3218 </r>
       <r>    26.8071     0.5191    18.4001 </r>
       <r>    26.9579     0.6788    18.5025 </r>
       <r>    27.1087     0.7065    18.6090 </r>
       <r>    27.2595     0.5285    18.6887 </r>
       <r>    27.4103     0.3894    18.7475 </r>
       <r>    27.5611     0.6003    18.8380 </r>
       <r>    27.7119     0.5584    18.9222 </r>
       <r>    27.8627     0.9710    19.0686 </r>
       <r>    28.0135     1.0545    19.2277 </r>
       <r>    28.1643     0.6813    19.3304 </r>
       <r>    28.3151     0.9255    19.4700 </r>
       <r>    28.4659     0.4703    19.5409 </r>
       <r>    28.6167     0.3883    19.5995 </r>
       <r>    28.7676     0.4676    19.6700 </r>
       <r>    28.9184     0.1411    19.6913 </r>
       <r>    29.0692     0.2552    19.7298 </r>
       <r>    29.2200     0.5123    19.8070 </r>
       <r>    29.3708     0.3367    19.8578 </r>
       <r>    29.5216     0.2797    19.9000 </r>
       <r>    29.6724     0.5091    19.9768 </r>
       <r>    29.8232     0.3387    20.0278 </r>
       <r>    29.9740     0.1871    20.0560 </r>
       <r>    30.1248     0.1464    20.0781 </r>
       <r>    30.2756     0.5446    20.1603 </r>
       <r>    30.4264     0.4906    20.2342 </r>
       <r>    30.5772     0.6609    20.3339 </r>
       <r>    30.7280     0.5300    20.4138 </r>
       <r>    30.8788     0.1622    20.4383 </r>
       <r>    31.0297     0.8230    20.5624 </r>
       <r>    31.1805     0.8960    20.6975 </r>
       <r>    31.3313     0.9041    20.8339 </r>
       <r>    31.4821     0.8392    20.9604 </r>
       <r>    31.6329     0.6192    21.0538 </r>
       <r>    31.7837     1.2180    21.2375 </r>
       <r>    31.9345     0.8830    21.3706 </r>
       <r>    32.0853     0.1819    21.3981 </r>
       <r>    32.2361     0.1440    21.4198 </r>
       <r>    32.3869     0.7533    21.5334 </r>
       <r>    32.5377     0.7301    21.6435 </r>
       <r>    32.6885     0.8778    21.7759 </r>
       <r>    32.8393     0.3296    21.8256 </r>
       <r>    32.9901     0.7264    21.9351 </r>
       <r>    33.1409     1.2676    22.1263 </r>
       <r>    33.2917     1.3498    22.3298 </r>
       <r>    33.4426     1.3802    22.5380 </r>
       <r>    33.5934     1.6122    22.7811 </r>
       <r>    33.7442     0.9725    22.9278 </r>
       <r>    33.8950     0.6822    23.0306 </r>
       <r>    34.0458     0.4011    23.0911 </r>
       <r>    34.1966     0.5817    23.1789 </r>
       <r>    34.3474     1.1536    23.3528 </r>
       <r>    34.4982     1.0890    23.5171 </r>
       <r>    34.6490     0.3668    23.5724 </r>
       <r>    34.7998     0.2189    23.6054 </r>
       <r>    34.9506     0.4031    23.6662 </r>
       <r>    35.1014     0.5413    23.7478 </r>
       <r>    35.2522     0.7412    23.8596 </r>
       <r>    35.4030     0.4366    23.9254 </r>
       <r>    35.5538     0.3867    23.9837 </r>
       <r>    35.7047     0.0455    23.9906 </r>
       <r>    35.8555     0.0553    23.9989 </r>
       <r>    36.0063     0.0069    24.0000 </r>
       <r>    36.1571     0.0000    24.0000 </r>
       <r>    36.3079     0.0000    24.0000 </r>
       <r>    36.4587     0.0000    24.0000 </r>
       <r>    36.6095     0.0000    24.0000 </r>
       <r>    36.7603     0.0000    24.0000 </r>
       <r>    36.9111     0.0000    24.0000 </r>
       <r>    37.0619     0.0000    24.0000 </r>
       <r>    37.2127     0.0000    24.0000 </r>
       <r>    37.3635     0.0000    24.0000 </r>
       <r>    37.5143     0.0000    24.0000 </r>
       <r>    37.6651     0.0000    24.0000 </r>
       <r>    37.8159     0.0000    24.0000 </r>
      </set>
     </set>
    </array>
   </total>
  </dos>
 </calculation>
 <structure name="finalpos" >
  <crystal>
   <varray name="basis" >
    <v>       2.15000000       2.15000000       0.00000000 </v>
    <v>       0.00000000       2.15000000       2.15000000 </v>
    <v>       2.15000000       0.00000000       2.15000000 </v>
   </varray>
   <i name="volume">     19.87675000 </i>
   <varray name="rec_basis" >
    <v>       0.23255814       0.23255814      -0.23255814 </v>
    <v>      -0.23255814       0.23255814       0.23255814 </v>
    <v>       0.23255814      -0.23255814       0.23255814 </v>
   </varray>
  </crystal>
  <varray name="positions" >
   <v>       0.00000000       0.00000000       0.00000000 </v>
  </varray>
 </structure>
</modeling>
