<?xml version="1.0" encoding="ISO-8859-1"?>
<modeling>
 <generator>
  <i name="program" type="string">vasp </i>
  <i name="version" type="string">5.4.4.18Apr17-6-g9f103f2a35  </i>
  <i name="subversion" type="string">(build Mar 30 2023 15:39:25) complex            parallel </i>
  <i name="platform" type="string">LinuxIFC </i>
  <i name="date" type="string">2023 04 22 </i>
  <i name="time" type="string">20:20:18 </i>
 </generator>
 <incar>
  <i type="string" name="SYSTEM"> BC3 Practice</i>
  <i type="int" name="ISTART">     0</i>
  <i type="string" name="PREC">low</i>
  <i type="string" name="ALGO">  Normal</i>
  <i type="int" name="ICHARG">     2</i>
  <i type="int" name="NELM">   200</i>
  <i type="int" name="IBRION">     2</i>
  <i name="EDIFF">      0.00100000</i>
  <i name="EDIFFG">     -0.00100000</i>
  <i type="int" name="NSW">    40</i>
  <i type="int" name="ISIF">     3</i>
  <i name="ENCUT">    400.00000000</i>
  <i type="int" name="ISMEAR">     0</i>
  <i name="SIGMA">      0.10000000</i>
  <v type="int" name="KPOINT_BSE">    -1     0     0     0</v>
  <i type="int" name="NELM">   200</i>
 </incar>
 <structure name="primitive_cell" >
  <crystal>
   <varray name="basis" >
    <v>      26.62444400       0.00000000       0.00000000 </v>
    <v>      13.31222200      23.05674800       0.00000000 </v>
    <v>       0.00000000       0.00000000      82.01600000 </v>
   </varray>
   <i name="volume">  50347.41583728 </i>
   <varray name="rec_basis" >
    <v>       0.03755947      -0.02168563       0.00000000 </v>
    <v>       0.00000000       0.04337125       0.00000000 </v>
    <v>       0.00000000       0.00000000       0.01219274 </v>
   </varray>
  </crystal>
  <varray name="positions" >
   <v>       0.33337039       0.33325923       0.00000000 </v>
   <v>       0.15824301       0.15829257       0.00000000 </v>
   <v>      -0.31653558       0.15829257       0.00000000 </v>
   <v>       0.15829257      -0.31658515       0.00000000 </v>
   <v>      -0.15824301      -0.15829257       0.00000000 </v>
   <v>       0.31653558      -0.15829257       0.00000000 </v>
   <v>      -0.15829257       0.31658515       0.00000000 </v>
   <v>      -0.33337039      -0.33325923       0.00000000 </v>
  </varray>
 </structure>
 <varray name="primitive_index" >
  <v type="int" >        1 </v>
  <v type="int" >        3 </v>
  <v type="int" >        4 </v>
  <v type="int" >        5 </v>
  <v type="int" >        6 </v>
  <v type="int" >        7 </v>
  <v type="int" >        8 </v>
  <v type="int" >        2 </v>
 </varray>
 <kpoints>
  <generation param="Gamma">
   <v type="int" name="divisions">       4        4        1 </v>
   <v name="usershift">      0.00000000       0.00000000       0.00000000 </v>
   <v name="genvec1">      0.25000000      -0.00000000       0.00000000 </v>
   <v name="genvec2">      0.00000000       0.25000000       0.00000000 </v>
   <v name="genvec3">      0.00000000       0.00000000       1.00000000 </v>
   <v name="shift">      0.00000000       0.00000000       0.00000000 </v>
  </generation>
  <varray name="kpointlist" >
   <v>       0.00000000       0.00000000       0.00000000 </v>
   <v>       0.25000000       0.00000000       0.00000000 </v>
   <v>       0.50000000       0.00000000       0.00000000 </v>
   <v>       0.00000000       0.25000000       0.00000000 </v>
   <v>       0.50000000       0.25000000       0.00000000 </v>
   <v>      -0.25000000       0.25000000       0.00000000 </v>
   <v>       0.00000000       0.50000000       0.00000000 </v>
  </varray>
  <varray name="weights" >
   <v>       0.06250000 </v>
   <v>       0.25000000 </v>
   <v>       0.12500000 </v>
   <v>       0.12500000 </v>
   <v>       0.12500000 </v>
   <v>       0.25000000 </v>
   <v>       0.06250000 </v>
  </varray>
 </kpoints>
 <parameters>
  <separator name="general" >
   <i type="string" name="SYSTEM">BC3 Practice</i>
   <i type="logical" name="LCOMPAT"> F  </i>
  </separator>
  <separator name="electronic" >
   <i type="string" name="PREC">low</i>
   <i name="ENMAX">    400.00000000</i>
   <i name="ENAUG">    644.87300000</i>
   <i name="EDIFF">      0.00100000</i>
   <i type="int" name="IALGO">    38</i>
   <i type="int" name="IWAVPR">    11</i>
   <i type="int" name="NBANDS">    21</i>
   <i name="NELECT">     30.00000000</i>
   <i type="int" name="TURBO">     0</i>
   <i type="int" name="IRESTART">     0</i>
   <i type="int" name="NREBOOT">     0</i>
   <i type="int" name="NMIN">     0</i>
   <i name="EREF">      0.00000000</i>
   <separator name="electronic smearing" >
    <i type="int" name="ISMEAR">     0</i>
    <i name="SIGMA">      0.10000000</i>
    <i name="KSPACING">      0.50000000</i>
    <i type="logical" name="KGAMMA"> T  </i>
   </separator>
   <separator name="electronic projectors" >
    <i type="logical" name="LREAL"> F  </i>
    <v name="ROPT">      0.00000000      0.00000000</v>
    <i type="int" name="LMAXPAW">  -100</i>
    <i type="int" name="LMAXMIX">     2</i>
    <i type="logical" name="NLSPLINE"> F  </i>
   </separator>
   <separator name="electronic startup" >
    <i type="int" name="ISTART">     0</i>
    <i type="int" name="ICHARG">     2</i>
    <i type="int" name="INIWAV">     1</i>
   </separator>
   <separator name="electronic spin" >
    <i type="int" name="ISPIN">     1</i>
    <i type="logical" name="LNONCOLLINEAR"> F  </i>
    <v name="MAGMOM">      1.00000000      1.00000000      1.00000000      1.00000000      1.00000000      1.00000000      1.00000000      1.00000000</v>
    <i name="NUPDOWN">     -1.00000000</i>
    <i type="logical" name="LSORBIT"> F  </i>
    <v name="SAXIS">      0.00000000      0.00000000      1.00000000</v>
    <i type="logical" name="LSPIRAL"> F  </i>
    <v name="QSPIRAL">      0.00000000      0.00000000      0.00000000</v>
    <i type="logical" name="LZEROZ"> F  </i>
   </separator>
   <separator name="electronic exchange-correlation" >
    <i type="logical" name="LASPH"> F  </i>
    <i type="logical" name="LMETAGGA"> F  </i>
   </separator>
   <separator name="electronic convergence" >
    <i type="int" name="NELM">   200</i>
    <i type="int" name="NELMDL">    -5</i>
    <i type="int" name="NELMIN">     2</i>
    <i name="ENINI">    400.00000000</i>
    <separator name="electronic convergence detail" >
     <i type="logical" name="LDIAG"> T  </i>
     <i type="logical" name="LSUBROT"> F  </i>
     <i name="WEIMIN">      0.00100000</i>
     <i name="EBREAK">      0.00000119</i>
     <i name="DEPER">      0.30000000</i>
     <i type="int" name="NRMM">     4</i>
     <i name="TIME">      0.40000000</i>
    </separator>
   </separator>
   <separator name="electronic mixer" >
    <i name="AMIX">      0.40000000</i>
    <i name="BMIX">      1.00000000</i>
    <i name="AMIN">      0.10000000</i>
    <i name="AMIX_MAG">      1.60000000</i>
    <i name="BMIX_MAG">      1.00000000</i>
    <separator name="electronic mixer details" >
     <i type="int" name="IMIX">     4</i>
     <i type="logical" name="MIXFIRST"> F  </i>
     <i type="int" name="MAXMIX">   -45</i>
     <i name="WC">    100.00000000</i>
     <i type="int" name="INIMIX">     1</i>
     <i type="int" name="MIXPRE">     1</i>
     <i type="int" name="MREMOVE">     5</i>
    </separator>
   </separator>
   <separator name="electronic dipolcorrection" >
    <i type="logical" name="LDIPOL"> F  </i>
    <i type="logical" name="LMONO"> F  </i>
    <i type="int" name="IDIPOL">     0</i>
    <i name="EPSILON">      1.00000000</i>
    <v name="DIPOL">   -100.00000000   -100.00000000   -100.00000000</v>
    <i name="EFIELD">      0.00000000</i>
   </separator>
  </separator>
  <separator name="grids" >
   <i type="int" name="NGX">   140</i>
   <i type="int" name="NGY">   140</i>
   <i type="int" name="NGZ">   420</i>
   <i type="int" name="NGXF">   168</i>
   <i type="int" name="NGYF">   168</i>
   <i type="int" name="NGZF">   512</i>
   <i type="logical" name="ADDGRID"> F  </i>
  </separator>
  <separator name="ionic" >
   <i type="int" name="NSW">    40</i>
   <i type="int" name="IBRION">     2</i>
   <i type="int" name="MDALGO">     0</i>
   <i type="int" name="ISIF">     3</i>
   <i name="PSTRESS">      0.00000000</i>
   <i name="EDIFFG">     -0.00100000</i>
   <i type="int" name="NFREE">     1</i>
   <i name="POTIM">      0.50000000</i>
   <i name="SMASS">     -3.00000000</i>
   <i name="SCALEE">      1.00000000</i>
  </separator>
  <separator name="ionic md" >
   <i name="TEBEG">      0.00010000</i>
   <i name="TEEND">      0.00010000</i>
   <i type="int" name="NBLOCK">     1</i>
   <i type="int" name="KBLOCK">    40</i>
   <i type="int" name="NPACO">   256</i>
   <i name="APACO">     16.00000000</i>
  </separator>
  <separator name="symmetry" >
   <i type="int" name="ISYM">     2</i>
   <i name="SYMPREC">      0.00001000</i>
  </separator>
  <separator name="dos" >
   <i type="int" name="LORBIT">     0</i>
   <v name="RWIGS">     -1.00000000     -1.00000000</v>
   <i type="int" name="NEDOS">   301</i>
   <i name="EMIN">     10.00000000</i>
   <i name="EMAX">    -10.00000000</i>
   <i name="EFERMI">      0.00000000</i>
  </separator>
  <separator name="writing" >
   <i type="int" name="NWRITE">     2</i>
   <i type="logical" name="LWAVE"> T  </i>
   <i type="logical" name="LDOWNSAMPLE"> F  </i>
   <i type="logical" name="LCHARG"> T  </i>
   <i type="logical" name="LPARD"> F  </i>
   <i type="logical" name="LVTOT"> F  </i>
   <i type="logical" name="LVHAR"> F  </i>
   <i type="logical" name="LELF"> F  </i>
   <i type="logical" name="LOPTICS"> F  </i>
   <v name="STM">      0.00000000      0.00000000      0.00000000      0.00000000      0.00000000      0.00000000      0.00000000</v>
  </separator>
  <separator name="performance" >
   <i type="int" name="NPAR">     3</i>
   <i type="int" name="NSIM">     4</i>
   <i type="int" name="NBLK">    -1</i>
   <i type="logical" name="LPLANE"> T  </i>
   <i type="logical" name="LSCALAPACK"> T  </i>
   <i type="logical" name="LSCAAWARE"> F  </i>
   <i type="logical" name="LSCALU"> F  </i>
   <i type="logical" name="LASYNC"> F  </i>
   <i type="logical" name="LORBITALREAL"> F  </i>
  </separator>
  <separator name="miscellaneous" >
   <i type="int" name="IDIOT">     3</i>
   <i type="int" name="ISPECIAL">     0</i>
   <i type="logical" name="LMUSIC"> F  </i>
   <v name="POMASS">     10.81100000     12.01100000</v>
   <v name="DARWINR">      0.00000000      0.00000000</v>
   <v name="DARWINV">      1.00000000      1.00000000</v>
   <i type="logical" name="LCORR"> T  </i>
  </separator>
  <i type="logical" name="GGA_COMPAT"> T  </i>
  <i type="logical" name="LBERRY"> F  </i>
  <i type="int" name="ICORELEVEL">     0</i>
  <i type="logical" name="LDAU"> F  </i>
  <i type="int" name="I_CONSTRAINED_M">     0</i>
  <separator name="electronic exchange-correlation" >
   <i type="string" name="GGA">--</i>
   <i type="int" name="VOSKOWN">     0</i>
   <i type="logical" name="LHFCALC"> F  </i>
   <i type="string" name="PRECFOCK"></i>
   <i type="logical" name="LSYMGRAD"> F  </i>
   <i type="logical" name="LHFONE"> F  </i>
   <i type="logical" name="LRHFCALC"> F  </i>
   <i type="logical" name="LTHOMAS"> F  </i>
   <i type="logical" name="LMODELHF"> F  </i>
   <i name="ENCUT4O">     -1.00000000</i>
   <i type="int" name="EXXOEP">     0</i>
   <i type="int" name="FOURORBIT">     0</i>
   <i name="AEXX">      0.00000000</i>
   <i name="HFALPHA">      0.00000000</i>
   <i name="MCALPHA">      0.00000000</i>
   <i name="ALDAX">      1.00000000</i>
   <i name="AGGAX">      1.00000000</i>
   <i name="ALDAC">      1.00000000</i>
   <i name="AGGAC">      1.00000000</i>
   <i type="int" name="NKREDX">     1</i>
   <i type="int" name="NKREDY">     1</i>
   <i type="int" name="NKREDZ">     1</i>
   <i type="logical" name="SHIFTRED"> F  </i>
   <i type="logical" name="ODDONLY"> F  </i>
   <i type="logical" name="EVENONLY"> F  </i>
   <i type="int" name="LMAXFOCK">     0</i>
   <i type="int" name="NMAXFOCKAE">     0</i>
   <i type="logical" name="LFOCKAEDFT"> F  </i>
   <i name="HFSCREEN">      0.00000000</i>
   <i name="HFSCREENC">      0.00000000</i>
   <i type="int" name="NBANDSGWLOW">     0</i>
  </separator>
  <separator name="vdW DFT" >
   <i type="logical" name="LUSE_VDW"> F  </i>
   <i name="Zab_VDW">     -0.84910000</i>
   <i name="PARAM1">      0.12340000</i>
   <i name="PARAM2">      1.00000000</i>
   <i name="PARAM3">      0.00000000</i>
  </separator>
  <separator name="model GW" >
   <i type="int" name="MODEL_GW">     0</i>
   <i name="MODEL_EPS0">   3776.05618780</i>
   <i name="MODEL_ALPHA">      1.00000000</i>
  </separator>
  <separator name="linear response parameters" >
   <i type="logical" name="LEPSILON"> F  </i>
   <i type="logical" name="LRPA"> F  </i>
   <i type="logical" name="LNABLA"> F  </i>
   <i type="logical" name="LVEL"> F  </i>
   <i type="int" name="KINTER">     0</i>
   <i name="CSHIFT">      0.10000000</i>
   <i name="OMEGAMAX">     -1.00000000</i>
   <i name="DEG_THRESHOLD">      0.00200000</i>
   <i name="RTIME">     -0.10000000</i>
   <i name="WPLASMAI">      0.00000000</i>
   <v name="DFIELD">      0.00000000      0.00000000      0.00000000</v>
   <v name="WPLASMA">      0.00000000      0.00000000      0.00000000      0.00000000      0.00000000      0.00000000      0.00000000      0.00000000      0.00000000</v>
  </separator>
  <separator name="orbital magnetization" >
   <i type="logical" name="NUCIND"> F  </i>
   <v name="MAGPOS">      0.00000000      0.00000000      0.00000000</v>
   <i type="logical" name="LNICSALL"> T  </i>
   <i type="logical" name="ORBITALMAG"> F  </i>
   <i type="logical" name="LMAGBLOCH"> F  </i>
   <i type="logical" name="LCHIMAG"> F  </i>
   <i type="logical" name="LGAUGE"> T  </i>
   <i type="int" name="MAGATOM">     0</i>
   <v name="MAGDIPOL">      0.00000000      0.00000000      0.00000000</v>
   <v name="AVECCONST">      0.00000000      0.00000000      0.00000000</v>
  </separator>
  <separator name="response functions" >
   <i type="logical" name="LADDER"> F  </i>
   <i type="logical" name="LRPAFORCE"> F  </i>
   <i type="logical" name="LFXC"> F  </i>
   <i type="logical" name="LHARTREE"> T  </i>
   <i type="int" name="IBSE">     0</i>
   <v type="int" name="KPOINT">    -1     0     0     0</v>
   <i type="logical" name="LTCTE"> F  </i>
   <i type="logical" name="LTETE"> F  </i>
   <i type="logical" name="LTRIPLET"> F  </i>
   <i type="logical" name="LFXCEPS"> F  </i>
   <i type="logical" name="LFXHEG"> F  </i>
   <i type="int" name="NATURALO">     2</i>
   <i type="logical" name="L2ORDER"> F  </i>
   <i type="logical" name="LMP2LT"> F  </i>
   <i type="logical" name="LUSEW"> F  </i>
   <i name="ENCUTGW">     -2.00000000</i>
   <i name="ENCUTGWSOFT">     -2.00000000</i>
   <i name="ENCUTLF">     -1.00000000</i>
   <i type="int" name="LMAXMP2">    -1</i>
   <i name="SCISSOR">      0.00000000</i>
   <i type="int" name="NOMEGA">     0</i>
   <i type="int" name="NOMEGAR">     0</i>
   <i type="int" name="NBANDSGW">    -1</i>
   <i type="int" name="NBANDSO">    -1</i>
   <i type="int" name="NBANDSV">    -1</i>
   <i type="int" name="NELM">   200</i>
   <i type="int" name="NELMHF">     1</i>
   <i type="int" name="DIM">     3</i>
   <i type="int" name="ANTIRES">     0</i>
   <i name="OMEGAMAX">    -30.00000000</i>
   <i name="OMEGAMIN">    -30.00000000</i>
   <i name="OMEGATL">   -200.00000000</i>
   <i type="int" name="OMEGAGRID">   140</i>
   <i name="CSHIFT">     -0.10000000</i>
   <i type="logical" name="SELFENERGY"> F  </i>
   <i type="logical" name="LSPECTRAL"> F  </i>
   <i type="logical" name="LSPECTRALGW"> F  </i>
   <i type="logical" name="LSINGLES"> F  </i>
   <i type="logical" name="LFERMIGW"> F  </i>
   <i type="logical" name="ODDONLYGW"> F  </i>
   <i type="logical" name="EVENONLYGW"> F  </i>
   <i type="int" name="NKREDLFX">     1</i>
   <i type="int" name="NKREDLFY">     1</i>
   <i type="int" name="NKREDLFZ">     1</i>
   <i type="int" name="MAXMEM">  2800</i>
   <i type="int" name="TELESCOPE">     0</i>
   <i type="int" name="TAUPAR">     1</i>
   <i type="int" name="OMEGAPAR">    -1</i>
   <i name="LAMBDA">      1.00000000</i>
  </separator>
  <separator name="External order field" >
   <i name="OFIELD_KAPPA">      0.00000000</i>
   <v name="OFIELD_K">      0.00000000      0.00000000      0.00000000</v>
   <i name="OFIELD_Q6_NEAR">      0.00000000</i>
   <i name="OFIELD_Q6_FAR">      0.00000000</i>
   <i name="OFIELD_A">      0.00000000</i>
  </separator>
 </parameters>
 <atominfo>
  <atoms>       8 </atoms>
  <types>       2 </types>
  <array name="atoms" >
   <dimension dim="1">ion</dimension>
   <field type="string">element</field>
   <field type="int">atomtype</field>
   <set>
    <rc><c>B </c><c>   1</c></rc>
    <rc><c>B </c><c>   1</c></rc>
    <rc><c>C </c><c>   2</c></rc>
    <rc><c>C </c><c>   2</c></rc>
    <rc><c>C </c><c>   2</c></rc>
    <rc><c>C </c><c>   2</c></rc>
    <rc><c>C </c><c>   2</c></rc>
    <rc><c>C </c><c>   2</c></rc>
   </set>
  </array>
  <array name="atomtypes" >
   <dimension dim="1">type</dimension>
   <field type="int">atomspertype</field>
   <field type="string">element</field>
   <field>mass</field>
   <field>valence</field>
   <field type="string">pseudopotential</field>
   <set>
    <rc><c>   2</c><c>B </c><c>     10.81100000</c><c>      3.00000000</c><c>  PAW_PBE B 06Sep2000                   </c></rc>
    <rc><c>   6</c><c>C </c><c>     12.01100000</c><c>      4.00000000</c><c>  PAW_PBE C 08Apr2002                   </c></rc>
   </set>
  </array>
 </atominfo>
 <structure name="initialpos" >
  <crystal>
   <varray name="basis" >
    <v>      26.62444400       0.00000000       0.00000000 </v>
    <v>      13.31222200      23.05674800       0.00000000 </v>
    <v>       0.00000000       0.00000000      82.01600000 </v>
   </varray>
   <i name="volume">  50347.41583728 </i>
   <varray name="rec_basis" >
    <v>       0.03755947      -0.02168563       0.00000000 </v>
    <v>       0.00000000       0.04337125       0.00000000 </v>
    <v>       0.00000000       0.00000000       0.01219274 </v>
   </varray>
  </crystal>
  <varray name="positions" >
   <v>       0.33337039       0.33325923       0.00000000 </v>
   <v>       0.66662961       0.66674077       0.00000000 </v>
   <v>       0.15824301       0.15829257       0.00000000 </v>
   <v>       0.68346442       0.15829257       0.00000000 </v>
   <v>       0.15829257       0.68341485       0.00000000 </v>
   <v>       0.84175699       0.84170743       0.00000000 </v>
   <v>       0.31653558       0.84170743       0.00000000 </v>
   <v>       0.84170743       0.31658515       0.00000000 </v>
  </varray>
 </structure>
 <calculation>
  <scstep>
   <time name="dav">  193.93  194.30</time>
   <time name="total">  195.88  196.26</time>
   <energy>
    <i name="alphaZ">      0.10075004 </i>
    <i name="ewald">    558.30175961 </i>
    <i name="hartreedc">  -1382.33775543 </i>
    <i name="XCdc">     73.24055123 </i>
    <i name="pawpsdc">    738.13200929 </i>
    <i name="pawaedc">   -739.83780425 </i>
    <i name="eentropy">     -0.16143789 </i>
    <i name="bandstr">   -141.92660026 </i>
    <i name="atom">   1025.09994095 </i>
    <i name="e_fr_energy">    130.61141328 </i>
    <i name="e_wo_entrp">    130.77285117 </i>
    <i name="e_0_energy">    130.69213222 </i>
   </energy>
  </scstep>
  <scstep>
   <time name="dav">  220.72  220.98</time>
   <time name="total">  220.72  220.98</time>
   <energy>
    <i name="e_fr_energy">     54.64222764 </i>
    <i name="e_wo_entrp">     54.74822974 </i>
    <i name="e_0_energy">     54.69522869 </i>
   </energy>
  </scstep>
  <scstep>
   <time name="dav">  181.61  181.70</time>
   <time name="total">  181.61  181.70</time>
   <energy>
    <i name="e_fr_energy">     13.68944207 </i>
    <i name="e_wo_entrp">     13.77805924 </i>
    <i name="e_0_energy">     13.73375065 </i>
   </energy>
  </scstep>
  <scstep>
   <time name="dav">  132.55  132.63</time>
   <time name="total">  132.55  132.63</time>
   <energy>
    <i name="e_fr_energy">     -2.52970417 </i>
    <i name="e_wo_entrp">     -2.51250151 </i>
    <i name="e_0_energy">     -2.52110284 </i>
   </energy>
  </scstep>
  <scstep>
   <time name="dav">  208.96  209.07</time>
   <time name="total">  220.92  221.04</time>
   <energy>
    <i name="e_fr_energy">     -3.75652532 </i>
    <i name="e_wo_entrp">     -3.19276891 </i>
    <i name="e_0_energy">     -3.47464712 </i>
   </energy>
  </scstep>
  <scstep>
   <time name="dav">  155.51  155.59</time>
   <time name="total">  169.30  169.39</time>
   <energy>
    <i name="e_fr_energy">     -0.30250460 </i>
    <i name="e_wo_entrp">      0.38423371 </i>
    <i name="e_0_energy">      0.04086456 </i>
   </energy>
  </scstep>
  <scstep>
   <time name="dav">  233.12  233.25</time>
   <time name="total">  244.80  244.93</time>
   <energy>
    <i name="e_fr_energy">     -6.97110715 </i>
    <i name="e_wo_entrp">     -6.92469188 </i>
    <i name="e_0_energy">     -6.94789952 </i>
   </energy>
  </scstep>
  <scstep>
   <time name="dav">  205.01  205.12</time>
   <time name="total">  218.81  218.94</time>
   <energy>
    <i name="e_fr_energy">    -19.91298832 </i>
    <i name="e_wo_entrp">    -19.69581899 </i>
    <i name="e_0_energy">    -19.80440365 </i>
   </energy>
  </scstep>
  <scstep>
   <time name="dav">  167.24  167.34</time>
   <time name="total">  181.11  181.22</time>
   <energy>
    <i name="e_fr_energy">     -1.00747221 </i>
    <i name="e_wo_entrp">     -0.99131167 </i>
    <i name="e_0_energy">     -0.99939194 </i>
   </energy>
  </scstep>
  <scstep>
   <time name="dav">  200.94  201.07</time>
   <time name="total">  214.82  214.95</time>
   <energy>
    <i name="e_fr_energy">     -0.76627479 </i>
    <i name="e_wo_entrp">     -0.59749671 </i>
    <i name="e_0_energy">     -0.68188575 </i>
   </energy>
  </scstep>
  <scstep>
   <time name="dav">  184.55  184.64</time>
   <time name="total">  198.45  198.54</time>
   <energy>
    <i name="e_fr_energy">     -1.21400441 </i>
    <i name="e_wo_entrp">     -0.94585598 </i>
    <i name="e_0_energy">     -1.07993020 </i>
   </energy>
  </scstep>
  <scstep>
   <time name="dav">  199.93  200.04</time>
   <time name="total">  213.88  214.00</time>
   <energy>
    <i name="e_fr_energy">     -1.54836367 </i>
    <i name="e_wo_entrp">     -1.25178756 </i>
    <i name="e_0_energy">     -1.40007561 </i>
   </energy>
  </scstep>
  <scstep>
   <time name="dav">  203.43  203.55</time>
   <time name="total">  217.41  217.53</time>
   <energy>
    <i name="e_fr_energy">     -1.95850302 </i>
    <i name="e_wo_entrp">     -1.71154627 </i>
    <i name="e_0_energy">     -1.83502465 </i>
   </energy>
  </scstep>
  <scstep>
   <time name="dav">  181.36  181.45</time>
   <time name="total">  195.36  195.46</time>
   <energy>
    <i name="e_fr_energy">     -3.49234933 </i>
    <i name="e_wo_entrp">     -3.27259793 </i>
    <i name="e_0_energy">     -3.38247363 </i>
   </energy>
  </scstep>
  <scstep>
   <time name="dav">  205.66  205.75</time>
   <time name="total">  219.73  219.85</time>
   <energy>
    <i name="e_fr_energy">     -4.35470453 </i>
    <i name="e_wo_entrp">     -4.05467996 </i>
    <i name="e_0_energy">     -4.20469225 </i>
   </energy>
  </scstep>
  <scstep>
   <time name="dav">  203.39  203.50</time>
   <time name="total">  217.53  217.64</time>
   <energy>
    <i name="e_fr_energy">     -4.43232921 </i>
    <i name="e_wo_entrp">     -4.01897998 </i>
    <i name="e_0_energy">     -4.22565459 </i>
   </energy>
  </scstep>
  <scstep>
   <time name="dav">  198.96  199.04</time>
   <time name="total">  213.17  213.26</time>
   <energy>
    <i name="e_fr_energy">     -3.01052026 </i>
    <i name="e_wo_entrp">     -2.54286728 </i>
    <i name="e_0_energy">     -2.77669377 </i>
   </energy>
  </scstep>
  <scstep>
   <time name="dav">  223.64  223.76</time>
   <time name="total">  237.88  238.01</time>
   <energy>
    <i name="e_fr_energy">     -2.73118090 </i>
    <i name="e_wo_entrp">     -2.24301390 </i>
    <i name="e_0_energy">     -2.48709740 </i>
   </energy>
  </scstep>
  <scstep>
   <time name="dav">  223.78  223.87</time>
   <time name="total">  238.09  238.18</time>
   <energy>
    <i name="e_fr_energy">     -3.09711514 </i>
    <i name="e_wo_entrp">     -2.55345667 </i>
    <i name="e_0_energy">     -2.82528590 </i>
   </energy>
  </scstep>
  <scstep>
   <time name="dav">  221.53  221.63</time>
   <time name="total">  235.91  236.01</time>
   <energy>
    <i name="e_fr_energy">     -3.65742924 </i>
    <i name="e_wo_entrp">     -3.07710063 </i>
    <i name="e_0_energy">     -3.36726494 </i>
   </energy>
  </scstep>
  <scstep>
   <time name="dav">  181.42  181.49</time>
   <time name="total">  195.89  195.97</time>
   <energy>
    <i name="e_fr_energy">     -2.45323913 </i>
    <i name="e_wo_entrp">     -1.85926310 </i>
    <i name="e_0_energy">     -2.15625111 </i>
   </energy>
  </scstep>
  <scstep>
   <time name="dav">  163.48  163.54</time>
   <time name="total">  178.04  178.11</time>
   <energy>
    <i name="e_fr_energy">     -1.41627565 </i>
    <i name="e_wo_entrp">     -0.71380794 </i>
    <i name="e_0_energy">     -1.06504179 </i>
   </energy>
  </scstep>
  <scstep>
   <time name="dav">  217.60  217.73</time>
   <time name="total">  232.26  232.39</time>
   <energy>
    <i name="e_fr_energy">     -1.40019546 </i>
    <i name="e_wo_entrp">     -0.69574540 </i>
    <i name="e_0_energy">     -1.04797043 </i>
   </energy>
  </scstep>
  <scstep>
   <time name="dav">  188.69  188.76</time>
   <time name="total">  203.38  203.46</time>
   <energy>
    <i name="e_fr_energy">     -1.47219797 </i>
    <i name="e_wo_entrp">     -0.76253457 </i>
    <i name="e_0_energy">     -1.11736627 </i>
   </energy>
  </scstep>
  <scstep>
   <time name="dav">  180.34  180.41</time>
   <time name="total">  195.14  195.21</time>
   <energy>
    <i name="e_fr_energy">     -1.02149987 </i>
    <i name="e_wo_entrp">     -0.34392881 </i>
    <i name="e_0_energy">     -0.68271434 </i>
   </energy>
  </scstep>
  <scstep>
   <time name="dav">  179.95  180.05</time>
   <time name="total">  194.84  194.94</time>
   <energy>
    <i name="e_fr_energy">     -1.32034439 </i>
    <i name="e_wo_entrp">     -0.60222051 </i>
    <i name="e_0_energy">     -0.96128245 </i>
   </energy>
  </scstep>
  <scstep>
   <time name="dav">  182.52  182.59</time>
   <time name="total">  197.48  197.56</time>
   <energy>
    <i name="e_fr_energy">     -0.83448918 </i>
    <i name="e_wo_entrp">     -0.23804121 </i>
    <i name="e_0_energy">     -0.53626520 </i>
   </energy>
  </scstep>
  <scstep>
   <time name="dav">  173.85  173.92</time>
   <time name="total">  188.95  189.02</time>
   <energy>
    <i name="e_fr_energy">     -1.02634067 </i>
    <i name="e_wo_entrp">     -0.35684809 </i>
    <i name="e_0_energy">     -0.69159438 </i>
   </energy>
  </scstep>
  <scstep>
   <time name="dav">  213.72  213.82</time>
   <time name="total">  228.94  229.04</time>
   <energy>
    <i name="e_fr_energy">     -0.98056488 </i>
    <i name="e_wo_entrp">     -0.35484901 </i>
    <i name="e_0_energy">     -0.66770694 </i>
   </energy>
  </scstep>
  <scstep>
   <time name="dav">  200.35  200.44</time>
   <time name="total">  215.65  215.75</time>
   <energy>
    <i name="e_fr_energy">     -1.01447589 </i>
    <i name="e_wo_entrp">     -0.42350036 </i>
    <i name="e_0_energy">     -0.71898813 </i>
   </energy>
  </scstep>
  <scstep>
   <time name="dav">  174.89  174.96</time>
   <time name="total">  190.33  190.40</time>
   <energy>
    <i name="e_fr_energy">     -2.15474674 </i>
    <i name="e_wo_entrp">     -1.46252973 </i>
    <i name="e_0_energy">     -1.80863823 </i>
   </energy>
  </scstep>
  <scstep>
   <time name="dav">  182.27  182.39</time>
   <time name="total">  197.81  198.02</time>
   <energy>
    <i name="e_fr_energy">     -2.69444441 </i>
    <i name="e_wo_entrp">     -2.23297964 </i>
    <i name="e_0_energy">     -2.46371203 </i>
   </energy>
  </scstep>
  <scstep>
   <time name="dav">  182.79  182.85</time>
   <time name="total">  198.46  198.52</time>
   <energy>
    <i name="e_fr_energy">     -3.55912395 </i>
    <i name="e_wo_entrp">     -3.22840897 </i>
    <i name="e_0_energy">     -3.39376646 </i>
   </energy>
  </scstep>
  <scstep>
   <time name="dav">  184.86  184.95</time>
   <time name="total">  200.62  200.72</time>
   <energy>
    <i name="e_fr_energy">     -4.75283454 </i>
    <i name="e_wo_entrp">     -4.44972169 </i>
    <i name="e_0_energy">     -4.60127812 </i>
   </energy>
  </scstep>
  <scstep>
   <time name="dav">  169.08  169.15</time>
   <time name="total">  184.96  185.03</time>
   <energy>
    <i name="e_fr_energy">     -5.06308081 </i>
    <i name="e_wo_entrp">     -4.92136633 </i>
    <i name="e_0_energy">     -4.99222357 </i>
   </energy>
  </scstep>
  <scstep>
   <time name="dav">  168.42  168.49</time>
   <time name="total">  184.37  184.44</time>
   <energy>
    <i name="e_fr_energy">     -4.07789816 </i>
    <i name="e_wo_entrp">     -3.79507649 </i>
    <i name="e_0_energy">     -3.93648732 </i>
   </energy>
  </scstep>
  <scstep>
   <time name="dav">  158.21  158.26</time>
   <time name="total">  174.32  174.38</time>
   <energy>
    <i name="e_fr_energy">     -1.38906408 </i>
    <i name="e_wo_entrp">     -0.74613860 </i>
    <i name="e_0_energy">     -1.06760134 </i>
   </energy>
  </scstep>
  <scstep>
   <time name="dav">  220.25  220.33</time>
   <time name="total">  236.44  236.54</time>
   <energy>
    <i name="e_fr_energy">     -3.03178498 </i>
    <i name="e_wo_entrp">     -2.78161321 </i>
    <i name="e_0_energy">     -2.90669910 </i>
   </energy>
  </scstep>
  <scstep>
   <time name="dav">  180.04  180.13</time>
   <time name="total">  196.41  196.50</time>
   <energy>
    <i name="e_fr_energy">     -1.51023687 </i>
    <i name="e_wo_entrp">     -1.25366715 </i>
    <i name="e_0_energy">     -1.38195201 </i>
   </energy>
  </scstep>
  <scstep>
   <time name="dav">  220.12  220.21</time>
   <time name="total">  236.54  236.63</time>
   <energy>
    <i name="e_fr_energy">     -4.18935855 </i>
    <i name="e_wo_entrp">     -4.14158136 </i>
    <i name="e_0_energy">     -4.16546996 </i>
   </energy>
  </scstep>
  <scstep>
   <time name="dav">  182.69  182.81</time>
   <time name="total">  199.32  199.44</time>
   <energy>
    <i name="e_fr_energy">     -6.10707644 </i>
    <i name="e_wo_entrp">     -5.82967416 </i>
    <i name="e_0_energy">     -5.96837530 </i>
   </energy>
  </scstep>
  <scstep>
   <time name="dav">  205.33  205.42</time>
   <time name="total">  221.03  221.13</time>
   <energy>
    <i name="e_fr_energy">     -8.22665400 </i>
    <i name="e_wo_entrp">     -7.90638948 </i>
    <i name="e_0_energy">     -8.06652174 </i>
   </energy>
  </scstep>
  <scstep>
   <time name="dav">  205.49  205.57</time>
   <time name="total">  221.91  222.00</time>
   <energy>
    <i name="e_fr_energy">     -8.97166733 </i>
    <i name="e_wo_entrp">     -8.64290933 </i>
    <i name="e_0_energy">     -8.80728833 </i>
   </energy>
  </scstep>
  <scstep>
   <time name="dav">  198.45  198.54</time>
   <time name="total">  214.96  215.06</time>
   <energy>
    <i name="e_fr_energy">     -7.01648556 </i>
    <i name="e_wo_entrp">     -6.65883531 </i>
    <i name="e_0_energy">     -6.83766043 </i>
   </energy>
  </scstep>
  <scstep>
   <time name="dav">  223.21  223.31</time>
   <time name="total">  240.39  240.49</time>
   <energy>
    <i name="e_fr_energy">     -6.19541088 </i>
    <i name="e_wo_entrp">     -5.68743398 </i>
    <i name="e_0_energy">     -5.94142243 </i>
   </energy>
  </scstep>
  <scstep>
   <time name="dav">  209.29  209.39</time>
   <time name="total">  226.47  226.57</time>
   <energy>
    <i name="e_fr_energy">     -7.05317666 </i>
    <i name="e_wo_entrp">     -6.53070263 </i>
    <i name="e_0_energy">     -6.79193964 </i>
   </energy>
  </scstep>
  <scstep>
   <time name="dav">  223.71  223.83</time>
   <time name="total">  241.06  241.18</time>
   <energy>
    <i name="e_fr_energy">     -9.03430964 </i>
    <i name="e_wo_entrp">     -8.76388326 </i>
    <i name="e_0_energy">     -8.89909645 </i>
   </energy>
  </scstep>
  <scstep>
   <time name="dav">  207.95  208.05</time>
   <time name="total">  225.40  225.51</time>
   <energy>
    <i name="e_fr_energy">     -9.10157761 </i>
    <i name="e_wo_entrp">     -8.84670073 </i>
    <i name="e_0_energy">     -8.97413917 </i>
   </energy>
  </scstep>
  <scstep>
   <time name="dav">  190.21  190.30</time>
   <time name="total">  208.00  208.10</time>
   <energy>
    <i name="e_fr_energy">     -7.76724730 </i>
    <i name="e_wo_entrp">     -7.28753386 </i>
    <i name="e_0_energy">     -7.52739058 </i>
   </energy>
  </scstep>
  <scstep>
   <time name="dav">  175.81  175.90</time>
   <time name="total">  193.29  193.40</time>
   <energy>
    <i name="e_fr_energy">     -8.56014239 </i>
    <i name="e_wo_entrp">     -8.13241707 </i>
    <i name="e_0_energy">     -8.34627973 </i>
   </energy>
  </scstep>
  <scstep>
   <time name="dav">  153.34  153.41</time>
   <time name="total">  170.67  170.76</time>
   <energy>
    <i name="e_fr_energy">     -6.63193615 </i>
    <i name="e_wo_entrp">     -5.99404355 </i>
    <i name="e_0_energy">     -6.31298985 </i>
   </energy>
  </scstep>
  <scstep>
   <time name="dav">  186.79  186.89</time>
   <time name="total">  204.19  204.30</time>
   <energy>
    <i name="e_fr_energy">     -6.80185153 </i>
    <i name="e_wo_entrp">     -6.17722987 </i>
    <i name="e_0_energy">     -6.48954070 </i>
   </energy>
  </scstep>
  <scstep>
   <time name="dav">  175.69  175.79</time>
   <time name="total">  193.33  193.43</time>
   <energy>
    <i name="e_fr_energy">     -6.99761229 </i>
    <i name="e_wo_entrp">     -6.39123315 </i>
    <i name="e_0_energy">     -6.69442272 </i>
   </energy>
  </scstep>
  <scstep>
   <time name="dav">  133.54  133.60</time>
   <time name="total">  151.23  151.29</time>
   <energy>
    <i name="e_fr_energy">     -6.94025679 </i>
    <i name="e_wo_entrp">     -6.33334268 </i>
    <i name="e_0_energy">     -6.63679974 </i>
   </energy>
  </scstep>
  <scstep>
   <time name="dav">  145.63  145.70</time>
   <time name="total">  163.28  163.35</time>
   <energy>
    <i name="e_fr_energy">     -3.69745159 </i>
    <i name="e_wo_entrp">     -3.08628460 </i>
    <i name="e_0_energy">     -3.39186809 </i>
   </energy>
  </scstep>
  <scstep>
   <time name="dav">  140.83  140.91</time>
   <time name="total">  158.19  158.28</time>
   <energy>
    <i name="e_fr_energy">     -2.50641203 </i>
    <i name="e_wo_entrp">     -2.30312553 </i>
    <i name="e_0_energy">     -2.40476878 </i>
   </energy>
  </scstep>
  <scstep>
   <time name="dav">  177.32  177.41</time>
   <time name="total">  194.84  194.94</time>
   <energy>
    <i name="e_fr_energy">     -2.49000614 </i>
    <i name="e_wo_entrp">     -2.25140904 </i>
    <i name="e_0_energy">     -2.37070759 </i>
   </energy>
  </scstep>
  <scstep>
   <time name="dav">  168.32  168.39</time>
   <time name="total">  185.93  186.02</time>
   <energy>
    <i name="e_fr_energy">     -2.42833773 </i>
    <i name="e_wo_entrp">     -2.21418187 </i>
    <i name="e_0_energy">     -2.32125980 </i>
   </energy>
  </scstep>
  <scstep>
   <time name="dav">  180.30  180.37</time>
   <time name="total">  198.11  198.19</time>
   <energy>
    <i name="e_fr_energy">     -1.96548686 </i>
    <i name="e_wo_entrp">     -1.69311518 </i>
    <i name="e_0_energy">     -1.82930102 </i>
   </energy>
  </scstep>
  <scstep>
   <time name="dav">  146.38  146.43</time>
   <time name="total">  163.94  163.99</time>
   <energy>
    <i name="e_fr_energy">     -0.52931497 </i>
    <i name="e_wo_entrp">     -0.45400241 </i>
    <i name="e_0_energy">     -0.49165869 </i>
   </energy>
  </scstep>
  <scstep>
   <time name="dav">  152.45  152.50</time>
   <time name="total">  169.80  169.85</time>
   <energy>
    <i name="e_fr_energy">      0.99559049 </i>
    <i name="e_wo_entrp">      1.03637513 </i>
    <i name="e_0_energy">      1.01598281 </i>
   </energy>
  </scstep>
  <scstep>
   <time name="dav">  189.67  189.74</time>
   <time name="total">  207.12  207.21</time>
   <energy>
    <i name="e_fr_energy">      0.64120503 </i>
    <i name="e_wo_entrp">      0.76900032 </i>
    <i name="e_0_energy">      0.70510267 </i>
   </energy>
  </scstep>
  <scstep>
   <time name="dav">  192.22  192.30</time>
   <time name="total">  208.65  208.73</time>
   <energy>
    <i name="e_fr_energy">     -2.43856058 </i>
    <i name="e_wo_entrp">     -2.23677613 </i>
    <i name="e_0_energy">     -2.33766836 </i>
   </energy>
  </scstep>
  <scstep>
   <time name="dav">  158.01  158.06</time>
   <time name="total">  175.84  175.90</time>
   <energy>
    <i name="e_fr_energy">     -1.84050656 </i>
    <i name="e_wo_entrp">     -1.43692808 </i>
    <i name="e_0_energy">     -1.63871732 </i>
   </energy>
  </scstep>
  <scstep>
   <time name="dav">  166.27  166.35</time>
   <time name="total">  183.94  184.02</time>
   <energy>
    <i name="e_fr_energy">     -1.60057342 </i>
    <i name="e_wo_entrp">     -1.10760818 </i>
    <i name="e_0_energy">     -1.35409080 </i>
   </energy>
  </scstep>
  <scstep>
   <time name="dav">  185.41  185.50</time>
   <time name="total">  201.49  201.58</time>
   <energy>
    <i name="e_fr_energy">     -2.46706440 </i>
    <i name="e_wo_entrp">     -2.29026762 </i>
    <i name="e_0_energy">     -2.37866601 </i>
   </energy>
  </scstep>
  <scstep>
   <time name="dav">  184.92  185.06</time>
   <time name="total">  201.51  201.67</time>
   <energy>
    <i name="e_fr_energy">     -2.62837103 </i>
    <i name="e_wo_entrp">     -2.43540854 </i>
    <i name="e_0_energy">     -2.53188979 </i>
   </energy>
  </scstep>
  <scstep>
   <time name="dav">  176.38  176.46</time>
   <time name="total">  193.32  193.41</time>
   <energy>
    <i name="e_fr_energy">     -3.04942004 </i>
    <i name="e_wo_entrp">     -2.51140800 </i>
    <i name="e_0_energy">     -2.78041402 </i>
   </energy>
  </scstep>
  <scstep>
   <time name="dav">  154.90  154.96</time>
   <time name="total">  172.30  172.37</time>
   <energy>
    <i name="e_fr_energy">     -4.85707925 </i>
    <i name="e_wo_entrp">     -4.62972819 </i>
    <i name="e_0_energy">     -4.74340372 </i>
   </energy>
  </scstep>
  <scstep>
   <time name="dav">  174.90  174.96</time>
   <time name="total">  192.12  192.19</time>
   <energy>
    <i name="e_fr_energy">     -6.92689423 </i>
    <i name="e_wo_entrp">     -6.76484974 </i>
    <i name="e_0_energy">     -6.84587199 </i>
   </energy>
  </scstep>
  <scstep>
   <time name="dav">  181.58  181.66</time>
   <time name="total">  198.83  198.92</time>
   <energy>
    <i name="e_fr_energy">     -8.93876026 </i>
    <i name="e_wo_entrp">     -8.74165875 </i>
    <i name="e_0_energy">     -8.84020951 </i>
   </energy>
  </scstep>
  <scstep>
   <time name="dav">  169.20  169.27</time>
   <time name="total">  186.55  186.64</time>
   <energy>
    <i name="e_fr_energy">     -7.44336230 </i>
    <i name="e_wo_entrp">     -6.94160144 </i>
    <i name="e_0_energy">     -7.19248187 </i>
   </energy>
  </scstep>
  <scstep>
   <time name="dav">  191.58  191.68</time>
   <time name="total">  209.19  209.29</time>
   <energy>
    <i name="e_fr_energy">     -7.76646213 </i>
    <i name="e_wo_entrp">     -7.43868939 </i>
    <i name="e_0_energy">     -7.60257576 </i>
   </energy>
  </scstep>
  <scstep>
   <time name="dav">  171.79  171.88</time>
   <time name="total">  189.50  189.59</time>
   <energy>
    <i name="e_fr_energy">     -7.95341687 </i>
    <i name="e_wo_entrp">     -7.63433497 </i>
    <i name="e_0_energy">     -7.79387592 </i>
   </energy>
  </scstep>
  <scstep>
   <time name="dav">  187.10  187.18</time>
   <time name="total">  204.71  204.81</time>
   <energy>
    <i name="e_fr_energy">     -8.28102815 </i>
    <i name="e_wo_entrp">     -8.02968131 </i>
    <i name="e_0_energy">     -8.15535473 </i>
   </energy>
  </scstep>
  <scstep>
   <time name="dav">  167.53  167.62</time>
   <time name="total">  184.73  184.87</time>
   <energy>
    <i name="e_fr_energy">     -8.66097749 </i>
    <i name="e_wo_entrp">     -8.40147467 </i>
    <i name="e_0_energy">     -8.53122608 </i>
   </energy>
  </scstep>
  <scstep>
   <time name="dav">  187.37  187.47</time>
   <time name="total">  204.85  204.96</time>
   <energy>
    <i name="e_fr_energy">     -8.27480333 </i>
    <i name="e_wo_entrp">     -7.77877289 </i>
    <i name="e_0_energy">     -8.02678811 </i>
   </energy>
  </scstep>
  <scstep>
   <time name="dav">  184.15  184.28</time>
   <time name="total">  201.70  201.84</time>
   <energy>
    <i name="e_fr_energy">     -7.52090337 </i>
    <i name="e_wo_entrp">     -7.18187144 </i>
    <i name="e_0_energy">     -7.35138740 </i>
   </energy>
  </scstep>
  <scstep>
   <time name="dav">  176.33  176.51</time>
   <time name="total">  194.12  194.32</time>
   <energy>
    <i name="e_fr_energy">     -5.81219960 </i>
    <i name="e_wo_entrp">     -5.28905923 </i>
    <i name="e_0_energy">     -5.55062942 </i>
   </energy>
  </scstep>
  <scstep>
   <time name="dav">  183.47  183.62</time>
   <time name="total">  200.97  201.13</time>
   <energy>
    <i name="e_fr_energy">     -7.08385750 </i>
    <i name="e_wo_entrp">     -6.80007344 </i>
    <i name="e_0_energy">     -6.94196547 </i>
   </energy>
  </scstep>
  <scstep>
   <time name="dav">  176.11  176.23</time>
   <time name="total">  193.43  193.57</time>
   <energy>
    <i name="e_fr_energy">     -5.11986856 </i>
    <i name="e_wo_entrp">     -4.76193196 </i>
    <i name="e_0_energy">     -4.94090026 </i>
   </energy>
  </scstep>
  <scstep>
   <time name="dav">  225.11  225.28</time>
   <time name="total">  242.53  242.72</time>
   <energy>
    <i name="e_fr_energy">     -5.05001738 </i>
    <i name="e_wo_entrp">     -4.67658992 </i>
    <i name="e_0_energy">     -4.86330365 </i>
   </energy>
  </scstep>
  <scstep>
   <time name="dav">  197.51  197.66</time>
   <time name="total">  215.14  215.31</time>
   <energy>
    <i name="e_fr_energy">     -5.52293287 </i>
    <i name="e_wo_entrp">     -5.16922726 </i>
    <i name="e_0_energy">     -5.34608007 </i>
   </energy>
  </scstep>
  <scstep>
   <time name="dav">  213.92  214.12</time>
   <time name="total">  231.70  231.91</time>
   <energy>
    <i name="e_fr_energy">     -5.26371852 </i>
    <i name="e_wo_entrp">     -4.90858674 </i>
    <i name="e_0_energy">     -5.08615263 </i>
   </energy>
  </scstep>
  <scstep>
   <time name="dav">  187.13  187.26</time>
   <time name="total">  204.71  204.85</time>
   <energy>
    <i name="e_fr_energy">     -4.95207870 </i>
    <i name="e_wo_entrp">     -4.51028781 </i>
    <i name="e_0_energy">     -4.73118325 </i>
   </energy>
  </scstep>
  <scstep>
   <time name="dav">  202.81  202.96</time>
   <time name="total">  220.06  220.25</time>
   <energy>
    <i name="e_fr_energy">     -4.96955566 </i>
    <i name="e_wo_entrp">     -4.53032576 </i>
    <i name="e_0_energy">     -4.74994071 </i>
   </energy>
  </scstep>
  <scstep>
   <time name="dav">  191.79  191.91</time>
   <time name="total">  209.27  209.41</time>
   <energy>
    <i name="e_fr_energy">     -4.71078435 </i>
    <i name="e_wo_entrp">     -4.24267082 </i>
    <i name="e_0_energy">     -4.47672759 </i>
   </energy>
  </scstep>
  <scstep>
   <time name="dav">  194.22  194.35</time>
   <time name="total">  211.80  211.94</time>
   <energy>
    <i name="e_fr_energy">     -4.15371481 </i>
    <i name="e_wo_entrp">     -3.67728647 </i>
    <i name="e_0_energy">     -3.91550064 </i>
   </energy>
  </scstep>
  <scstep>
   <time name="dav">  162.76  162.87</time>
   <time name="total">  180.59  180.73</time>
   <energy>
    <i name="e_fr_energy">     -2.57510422 </i>
    <i name="e_wo_entrp">     -1.97572371 </i>
    <i name="e_0_energy">     -2.27541397 </i>
   </energy>
  </scstep>
  <scstep>
   <time name="dav">  188.19  188.33</time>
   <time name="total">  205.79  205.95</time>
   <energy>
    <i name="e_fr_energy">     -1.81387147 </i>
    <i name="e_wo_entrp">     -1.22828082 </i>
    <i name="e_0_energy">     -1.52107615 </i>
   </energy>
  </scstep>
  <scstep>
   <time name="dav">  192.75  192.90</time>
   <time name="total">  210.21  210.36</time>
   <energy>
    <i name="e_fr_energy">     -2.57045053 </i>
    <i name="e_wo_entrp">     -2.16571401 </i>
    <i name="e_0_energy">     -2.36808227 </i>
   </energy>
  </scstep>
  <scstep>
   <time name="dav">  166.14  166.30</time>
   <time name="total">  183.67  183.85</time>
   <energy>
    <i name="e_fr_energy">     -1.96771032 </i>
    <i name="e_wo_entrp">     -1.51255215 </i>
    <i name="e_0_energy">     -1.74013123 </i>
   </energy>
  </scstep>
  <scstep>
   <time name="dav">  184.53  184.67</time>
   <time name="total">  202.27  202.42</time>
   <energy>
    <i name="e_fr_energy">     -1.03340722 </i>
    <i name="e_wo_entrp">     -0.56148177 </i>
    <i name="e_0_energy">     -0.79744449 </i>
   </energy>
  </scstep>
  <scstep>
   <time name="dav">  193.31  193.43</time>
   <time name="total">  211.09  211.22</time>
   <energy>
    <i name="e_fr_energy">     -2.56297996 </i>
    <i name="e_wo_entrp">     -2.11745033 </i>
    <i name="e_0_energy">     -2.34021515 </i>
   </energy>
  </scstep>
  <scstep>
   <time name="dav">  175.85  175.99</time>
   <time name="total">  193.48  193.63</time>
   <energy>
    <i name="e_fr_energy">     -2.54634980 </i>
    <i name="e_wo_entrp">     -1.97793341 </i>
    <i name="e_0_energy">     -2.26214161 </i>
   </energy>
  </scstep>
  <scstep>
   <time name="dav">  212.78  212.93</time>
   <time name="total">  230.05  230.20</time>
   <energy>
    <i name="e_fr_energy">     -4.09984905 </i>
    <i name="e_wo_entrp">     -3.73806146 </i>
    <i name="e_0_energy">     -3.91895525 </i>
   </energy>
  </scstep>
  <scstep>
   <time name="dav">  202.67  202.76</time>
   <time name="total">  220.16  220.25</time>
   <energy>
    <i name="e_fr_energy">     -5.48283523 </i>
    <i name="e_wo_entrp">     -5.27620964 </i>
    <i name="e_0_energy">     -5.37952244 </i>
   </energy>
  </scstep>
  <scstep>
   <time name="dav">  212.58  212.67</time>
   <time name="total">  230.16  230.26</time>
   <energy>
    <i name="e_fr_energy">     -5.79906282 </i>
    <i name="e_wo_entrp">     -5.63825953 </i>
    <i name="e_0_energy">     -5.71866117 </i>
   </energy>
  </scstep>
  <scstep>
   <time name="dav">  175.63  175.71</time>
   <time name="total">  193.45  193.53</time>
   <energy>
    <i name="e_fr_energy">     -5.83848765 </i>
    <i name="e_wo_entrp">     -5.53349880 </i>
    <i name="e_0_energy">     -5.68599322 </i>
   </energy>
  </scstep>
  <scstep>
   <time name="dav">  198.65  198.76</time>
   <time name="total">  216.14  216.25</time>
   <energy>
    <i name="e_fr_energy">     -5.01703868 </i>
    <i name="e_wo_entrp">     -4.77113517 </i>
    <i name="e_0_energy">     -4.89408693 </i>
   </energy>
  </scstep>
  <scstep>
   <time name="dav">  187.16  187.25</time>
   <time name="total">  204.49  204.58</time>
   <energy>
    <i name="e_fr_energy">     -2.29824229 </i>
    <i name="e_wo_entrp">     -1.84515307 </i>
    <i name="e_0_energy">     -2.07169768 </i>
   </energy>
  </scstep>
  <scstep>
   <time name="dav">  198.06  198.15</time>
   <time name="total">  215.48  215.58</time>
   <energy>
    <i name="e_fr_energy">     -0.98595785 </i>
    <i name="e_wo_entrp">     -0.73027713 </i>
    <i name="e_0_energy">     -0.85811749 </i>
   </energy>
  </scstep>
  <scstep>
   <time name="dav">  206.99  207.09</time>
   <time name="total">  224.68  224.79</time>
   <energy>
    <i name="e_fr_energy">     -1.40982498 </i>
    <i name="e_wo_entrp">     -1.10464637 </i>
    <i name="e_0_energy">     -1.25723568 </i>
   </energy>
  </scstep>
  <scstep>
   <time name="dav">  210.02  210.36</time>
   <time name="total">  227.78  228.13</time>
   <energy>
    <i name="e_fr_energy">     -1.57294201 </i>
    <i name="e_wo_entrp">     -1.25441658 </i>
    <i name="e_0_energy">     -1.41367930 </i>
   </energy>
  </scstep>
  <scstep>
   <time name="dav">  197.24  197.29</time>
   <time name="total">  214.09  214.15</time>
   <energy>
    <i name="e_fr_energy">     -2.28426739 </i>
    <i name="e_wo_entrp">     -1.91500956 </i>
    <i name="e_0_energy">     -2.09963847 </i>
   </energy>
  </scstep>
  <scstep>
   <time name="dav">  203.59  203.65</time>
   <time name="total">  220.38  220.44</time>
   <energy>
    <i name="e_fr_energy">     -2.53708074 </i>
    <i name="e_wo_entrp">     -1.99347698 </i>
    <i name="e_0_energy">     -2.26527886 </i>
   </energy>
  </scstep>
  <scstep>
   <time name="dav">  203.08  203.13</time>
   <time name="total">  220.48  220.54</time>
   <energy>
    <i name="e_fr_energy">     -2.74785691 </i>
    <i name="e_wo_entrp">     -2.21369038 </i>
    <i name="e_0_energy">     -2.48077365 </i>
   </energy>
  </scstep>
  <scstep>
   <time name="dav">  200.96  201.01</time>
   <time name="total">  218.51  218.57</time>
   <energy>
    <i name="e_fr_energy">     -2.58345780 </i>
    <i name="e_wo_entrp">     -1.92743013 </i>
    <i name="e_0_energy">     -2.25544396 </i>
   </energy>
  </scstep>
  <scstep>
   <time name="dav">  208.08  208.16</time>
   <time name="total">  225.87  225.95</time>
   <energy>
    <i name="e_fr_energy">     -2.41729858 </i>
    <i name="e_wo_entrp">     -1.76297309 </i>
    <i name="e_0_energy">     -2.09013584 </i>
   </energy>
  </scstep>
  <scstep>
   <time name="dav">  189.62  189.68</time>
   <time name="total">  207.11  207.18</time>
   <energy>
    <i name="e_fr_energy">     -2.20046860 </i>
    <i name="e_wo_entrp">     -1.50640489 </i>
    <i name="e_0_energy">     -1.85343674 </i>
   </energy>
  </scstep>
  <scstep>
   <time name="dav">  214.08  214.15</time>
   <time name="total">  231.42  231.49</time>
   <energy>
    <i name="e_fr_energy">     -2.15174239 </i>
    <i name="e_wo_entrp">     -1.54823743 </i>
    <i name="e_0_energy">     -1.84998991 </i>
   </energy>
  </scstep>
  <scstep>
   <time name="dav">  173.33  173.41</time>
   <time name="total">  190.78  190.86</time>
   <energy>
    <i name="e_fr_energy">     -1.68453934 </i>
    <i name="e_wo_entrp">     -1.04720769 </i>
    <i name="e_0_energy">     -1.36587352 </i>
   </energy>
  </scstep>
  <scstep>
   <time name="dav">  215.10  215.17</time>
   <time name="total">  232.77  232.85</time>
   <energy>
    <i name="e_fr_energy">     -1.69067439 </i>
    <i name="e_wo_entrp">     -1.05417713 </i>
    <i name="e_0_energy">     -1.37242576 </i>
   </energy>
  </scstep>
  <scstep>
   <time name="dav">  184.08  184.14</time>
   <time name="total">  201.80  201.87</time>
   <energy>
    <i name="e_fr_energy">     -1.64740127 </i>
    <i name="e_wo_entrp">     -1.04986707 </i>
    <i name="e_0_energy">     -1.34863417 </i>
   </energy>
  </scstep>
  <scstep>
   <time name="dav">  202.87  202.94</time>
   <time name="total">  220.44  220.51</time>
   <energy>
    <i name="e_fr_energy">     -1.66821376 </i>
    <i name="e_wo_entrp">     -1.07147374 </i>
    <i name="e_0_energy">     -1.36984375 </i>
   </energy>
  </scstep>
  <scstep>
   <time name="dav">  174.83  174.88</time>
   <time name="total">  192.10  192.16</time>
   <energy>
    <i name="e_fr_energy">     -1.52943169 </i>
    <i name="e_wo_entrp">     -0.88612879 </i>
    <i name="e_0_energy">     -1.20778024 </i>
   </energy>
  </scstep>
  <scstep>
   <time name="dav">  196.24  196.30</time>
   <time name="total">  213.74  213.81</time>
   <energy>
    <i name="e_fr_energy">     -1.73054081 </i>
    <i name="e_wo_entrp">     -1.05466037 </i>
    <i name="e_0_energy">     -1.39260059 </i>
   </energy>
  </scstep>
  <scstep>
   <time name="dav">  194.51  194.63</time>
   <time name="total">  212.11  212.23</time>
   <energy>
    <i name="e_fr_energy">     -2.18787028 </i>
    <i name="e_wo_entrp">     -1.52735171 </i>
    <i name="e_0_energy">     -1.85761099 </i>
   </energy>
  </scstep>
  <scstep>
   <time name="dav">  196.46  196.55</time>
   <time name="total">  214.32  214.41</time>
   <energy>
    <i name="e_fr_energy">     -2.42280403 </i>
    <i name="e_wo_entrp">     -1.73166147 </i>
    <i name="e_0_energy">     -2.07723275 </i>
   </energy>
  </scstep>
  <scstep>
   <time name="dav">  194.46  194.56</time>
   <time name="total">  211.99  212.10</time>
   <energy>
    <i name="e_fr_energy">     -2.60111206 </i>
    <i name="e_wo_entrp">     -1.91731249 </i>
    <i name="e_0_energy">     -2.25921228 </i>
   </energy>
  </scstep>
  <scstep>
   <time name="dav">  191.99  192.10</time>
   <time name="total">  209.36  209.47</time>
   <energy>
    <i name="e_fr_energy">     -2.52066413 </i>
    <i name="e_wo_entrp">     -1.86002025 </i>
    <i name="e_0_energy">     -2.19034219 </i>
   </energy>
  </scstep>
  <scstep>
   <time name="dav">  184.34  184.41</time>
   <time name="total">  201.82  201.89</time>
   <energy>
    <i name="e_fr_energy">     -2.51485473 </i>
    <i name="e_wo_entrp">     -1.86235795 </i>
    <i name="e_0_energy">     -2.18860634 </i>
   </energy>
  </scstep>
  <scstep>
   <time name="dav">  175.06  175.15</time>
   <time name="total">  192.77  192.86</time>
   <energy>
    <i name="e_fr_energy">     -2.52561186 </i>
    <i name="e_wo_entrp">     -1.87266348 </i>
    <i name="e_0_energy">     -2.19913767 </i>
   </energy>
  </scstep>
  <scstep>
   <time name="dav">  178.41  178.47</time>
   <time name="total">  196.19  196.25</time>
   <energy>
    <i name="e_fr_energy">     -2.51089307 </i>
    <i name="e_wo_entrp">     -1.84956216 </i>
    <i name="e_0_energy">     -2.18022761 </i>
   </energy>
  </scstep>
  <scstep>
   <time name="dav">  191.64  191.70</time>
   <time name="total">  209.25  209.31</time>
   <energy>
    <i name="e_fr_energy">     -2.39077288 </i>
    <i name="e_wo_entrp">     -1.72418366 </i>
    <i name="e_0_energy">     -2.05747827 </i>
   </energy>
  </scstep>
  <scstep>
   <time name="dav">  196.36  196.43</time>
   <time name="total">  213.64  213.72</time>
   <energy>
    <i name="e_fr_energy">     -2.39339068 </i>
    <i name="e_wo_entrp">     -1.72647715 </i>
    <i name="e_0_energy">     -2.05993392 </i>
   </energy>
  </scstep>
  <scstep>
   <time name="dav">  191.63  191.71</time>
   <time name="total">  209.15  209.23</time>
   <energy>
    <i name="e_fr_energy">     -2.31385691 </i>
    <i name="e_wo_entrp">     -1.64251400 </i>
    <i name="e_0_energy">     -1.97818545 </i>
   </energy>
  </scstep>
  <scstep>
   <time name="dav">  193.43  193.51</time>
   <time name="total">  211.04  211.14</time>
   <energy>
    <i name="e_fr_energy">     -2.39289413 </i>
    <i name="e_wo_entrp">     -1.72088312 </i>
    <i name="e_0_energy">     -2.05688862 </i>
   </energy>
  </scstep>
  <scstep>
   <time name="dav">  190.35  190.42</time>
   <time name="total">  208.18  208.26</time>
   <energy>
    <i name="e_fr_energy">     -2.29746915 </i>
    <i name="e_wo_entrp">     -1.59967977 </i>
    <i name="e_0_energy">     -1.94857446 </i>
   </energy>
  </scstep>
  <scstep>
   <time name="dav">  193.43  193.61</time>
   <time name="total">  210.73  211.15</time>
   <energy>
    <i name="e_fr_energy">     -2.39085138 </i>
    <i name="e_wo_entrp">     -1.67831073 </i>
    <i name="e_0_energy">     -2.03458106 </i>
   </energy>
  </scstep>
  <scstep>
   <time name="dav">  196.86  197.01</time>
   <time name="total">  214.25  214.40</time>
   <energy>
    <i name="e_fr_energy">     -2.32912917 </i>
    <i name="e_wo_entrp">     -1.63891437 </i>
    <i name="e_0_energy">     -1.98402177 </i>
   </energy>
  </scstep>
  <scstep>
   <time name="dav">  196.56  196.63</time>
   <time name="total">  214.01  214.08</time>
   <energy>
    <i name="e_fr_energy">     -2.41380344 </i>
    <i name="e_wo_entrp">     -1.74148254 </i>
    <i name="e_0_energy">     -2.07764299 </i>
   </energy>
  </scstep>
  <scstep>
   <time name="dav">  165.96  166.01</time>
   <time name="total">  183.63  183.69</time>
   <energy>
    <i name="e_fr_energy">     -2.40632959 </i>
    <i name="e_wo_entrp">     -1.73135165 </i>
    <i name="e_0_energy">     -2.06884062 </i>
   </energy>
  </scstep>
  <scstep>
   <time name="dav">  193.66  193.72</time>
   <time name="total">  211.43  211.49</time>
   <energy>
    <i name="e_fr_energy">     -2.49195866 </i>
    <i name="e_wo_entrp">     -1.83229057 </i>
    <i name="e_0_energy">     -2.16212461 </i>
   </energy>
  </scstep>
  <scstep>
   <time name="dav">  187.09  187.18</time>
   <time name="total">  204.70  204.78</time>
   <energy>
    <i name="e_fr_energy">     -2.47424900 </i>
    <i name="e_wo_entrp">     -1.83436027 </i>
    <i name="e_0_energy">     -2.15430464 </i>
   </energy>
  </scstep>
  <scstep>
   <time name="dav">  181.75  181.81</time>
   <time name="total">  199.05  199.11</time>
   <energy>
    <i name="e_fr_energy">     -1.73722747 </i>
    <i name="e_wo_entrp">     -1.01723192 </i>
    <i name="e_0_energy">     -1.37722969 </i>
   </energy>
  </scstep>
  <scstep>
   <time name="dav">  180.31  180.39</time>
   <time name="total">  197.81  197.89</time>
   <energy>
    <i name="e_fr_energy">     -1.07089073 </i>
    <i name="e_wo_entrp">     -0.35095679 </i>
    <i name="e_0_energy">     -0.71092376 </i>
   </energy>
  </scstep>
  <scstep>
   <time name="dav">  161.06  161.12</time>
   <time name="total">  178.66  178.72</time>
   <energy>
    <i name="e_fr_energy">     -0.26183691 </i>
    <i name="e_wo_entrp">      0.46399824 </i>
    <i name="e_0_energy">      0.10108067 </i>
   </energy>
  </scstep>
  <scstep>
   <time name="dav">  217.03  217.09</time>
   <time name="total">  234.88  234.95</time>
   <energy>
    <i name="e_fr_energy">     -2.02608505 </i>
    <i name="e_wo_entrp">     -1.51006131 </i>
    <i name="e_0_energy">     -1.76807318 </i>
   </energy>
  </scstep>
  <scstep>
   <time name="dav">  169.84  169.92</time>
   <time name="total">  187.36  187.45</time>
   <energy>
    <i name="e_fr_energy">     -1.22986614 </i>
    <i name="e_wo_entrp">     -0.66145104 </i>
    <i name="e_0_energy">     -0.94565859 </i>
   </energy>
  </scstep>
  <scstep>
   <time name="dav">  223.50  223.58</time>
   <time name="total">  240.84  240.93</time>
   <energy>
    <i name="e_fr_energy">     -3.19849597 </i>
    <i name="e_wo_entrp">     -2.96079917 </i>
    <i name="e_0_energy">     -3.07964757 </i>
   </energy>
  </scstep>
  <scstep>
   <time name="dav">  214.39  214.47</time>
   <time name="total">  231.83  231.91</time>
   <energy>
    <i name="e_fr_energy">     -3.05358150 </i>
    <i name="e_wo_entrp">     -2.82608859 </i>
    <i name="e_0_energy">     -2.93983505 </i>
   </energy>
  </scstep>
  <scstep>
   <time name="dav">  221.60  221.68</time>
   <time name="total">  239.27  239.35</time>
   <energy>
    <i name="e_fr_energy">     -3.34162686 </i>
    <i name="e_wo_entrp">     -2.93458382 </i>
    <i name="e_0_energy">     -3.13810534 </i>
   </energy>
  </scstep>
  <scstep>
   <time name="dav">  230.42  230.51</time>
   <time name="total">  248.17  248.26</time>
   <energy>
    <i name="e_fr_energy">     -3.49772465 </i>
    <i name="e_wo_entrp">     -3.08530873 </i>
    <i name="e_0_energy">     -3.29151669 </i>
   </energy>
  </scstep>
  <scstep>
   <time name="dav">  230.27  230.37</time>
   <time name="total">  247.89  247.99</time>
   <energy>
    <i name="e_fr_energy">     -3.54358171 </i>
    <i name="e_wo_entrp">     -3.12070213 </i>
    <i name="e_0_energy">     -3.33214192 </i>
   </energy>
  </scstep>
  <scstep>
   <time name="dav">  177.68  177.72</time>
   <time name="total">  194.95  195.00</time>
   <energy>
    <i name="e_fr_energy">    -12.10964289 </i>
    <i name="e_wo_entrp">    -11.82783624 </i>
    <i name="e_0_energy">    -11.96873957 </i>
   </energy>
  </scstep>
  <scstep>
   <time name="dav">  156.09  156.15</time>
   <time name="total">  173.59  173.65</time>
   <energy>
    <i name="e_fr_energy">     -3.17168179 </i>
    <i name="e_wo_entrp">     -2.83722936 </i>
    <i name="e_0_energy">     -3.00445557 </i>
   </energy>
  </scstep>
  <scstep>
   <time name="dav">  161.82  161.86</time>
   <time name="total">  179.41  179.46</time>
   <energy>
    <i name="e_fr_energy">     -1.76137331 </i>
    <i name="e_wo_entrp">     -1.47474259 </i>
    <i name="e_0_energy">     -1.61805795 </i>
   </energy>
  </scstep>
  <scstep>
   <time name="dav">  162.22  162.26</time>
   <time name="total">  180.05  180.10</time>
   <energy>
    <i name="e_fr_energy">     -0.79679297 </i>
    <i name="e_wo_entrp">     -0.29881462 </i>
    <i name="e_0_energy">     -0.54780379 </i>
   </energy>
  </scstep>
  <scstep>
   <time name="dav">  226.66  226.73</time>
   <time name="total">  244.17  244.25</time>
   <energy>
    <i name="e_fr_energy">     -0.82548712 </i>
    <i name="e_wo_entrp">     -0.17996147 </i>
    <i name="e_0_energy">     -0.50272429 </i>
   </energy>
  </scstep>
  <scstep>
   <time name="dav">  194.37  194.42</time>
   <time name="total">  211.70  211.76</time>
   <energy>
    <i name="e_fr_energy">     -0.80233550 </i>
    <i name="e_wo_entrp">     -0.25487883 </i>
    <i name="e_0_energy">     -0.52860717 </i>
   </energy>
  </scstep>
  <scstep>
   <time name="dav">  158.83  158.90</time>
   <time name="total">  176.26  176.32</time>
   <energy>
    <i name="e_fr_energy">     -2.13058735 </i>
    <i name="e_wo_entrp">     -1.74118663 </i>
    <i name="e_0_energy">     -1.93588699 </i>
   </energy>
  </scstep>
  <scstep>
   <time name="dav">  172.38  172.44</time>
   <time name="total">  190.03  190.10</time>
   <energy>
    <i name="e_fr_energy">     -1.29946742 </i>
    <i name="e_wo_entrp">     -0.81447717 </i>
    <i name="e_0_energy">     -1.05697230 </i>
   </energy>
  </scstep>
  <scstep>
   <time name="dav">  194.12  194.31</time>
   <time name="total">  211.86  212.06</time>
   <energy>
    <i name="e_fr_energy">     -0.82383361 </i>
    <i name="e_wo_entrp">     -0.16715164 </i>
    <i name="e_0_energy">     -0.49549263 </i>
   </energy>
  </scstep>
  <scstep>
   <time name="dav">  207.28  207.35</time>
   <time name="total">  224.87  224.95</time>
   <energy>
    <i name="e_fr_energy">     -1.27724790 </i>
    <i name="e_wo_entrp">     -0.74301980 </i>
    <i name="e_0_energy">     -1.01013385 </i>
   </energy>
  </scstep>
  <scstep>
   <time name="dav">  162.22  162.27</time>
   <time name="total">  179.49  179.55</time>
   <energy>
    <i name="e_fr_energy">     -1.75342534 </i>
    <i name="e_wo_entrp">     -1.27953065 </i>
    <i name="e_0_energy">     -1.51647800 </i>
   </energy>
  </scstep>
  <scstep>
   <time name="dav">  150.77  150.81</time>
   <time name="total">  168.25  168.29</time>
   <energy>
    <i name="e_fr_energy">     -0.88379507 </i>
    <i name="e_wo_entrp">     -0.49514044 </i>
    <i name="e_0_energy">     -0.68946775 </i>
   </energy>
  </scstep>
  <scstep>
   <time name="dav">  139.64  139.70</time>
   <time name="total">  157.19  157.25</time>
   <energy>
    <i name="e_fr_energy">     -2.00926103 </i>
    <i name="e_wo_entrp">     -1.54991778 </i>
    <i name="e_0_energy">     -1.77958941 </i>
   </energy>
  </scstep>
  <scstep>
   <time name="dav">  160.52  160.58</time>
   <time name="total">  178.30  178.37</time>
   <energy>
    <i name="e_fr_energy">     -0.91752172 </i>
    <i name="e_wo_entrp">     -0.29104186 </i>
    <i name="e_0_energy">     -0.60428179 </i>
   </energy>
  </scstep>
  <scstep>
   <time name="dav">  161.21  161.27</time>
   <time name="total">  178.74  178.80</time>
   <energy>
    <i name="e_fr_energy">     -1.42772446 </i>
    <i name="e_wo_entrp">     -0.79395368 </i>
    <i name="e_0_energy">     -1.11083907 </i>
   </energy>
  </scstep>
  <scstep>
   <time name="dav">  160.77  160.93</time>
   <time name="total">  178.12  178.29</time>
   <energy>
    <i name="e_fr_energy">     -0.97663473 </i>
    <i name="e_wo_entrp">     -0.57310570 </i>
    <i name="e_0_energy">     -0.77487021 </i>
   </energy>
  </scstep>
  <scstep>
   <time name="dav">  161.44  161.63</time>
   <time name="total">  178.84  179.06</time>
   <energy>
    <i name="e_fr_energy">     -1.40796019 </i>
    <i name="e_wo_entrp">     -0.77971940 </i>
    <i name="e_0_energy">     -1.09383980 </i>
   </energy>
  </scstep>
  <scstep>
   <time name="dav">  160.90  161.11</time>
   <time name="total">  178.55  178.78</time>
   <energy>
    <i name="e_fr_energy">     -1.01393983 </i>
    <i name="e_wo_entrp">     -0.63709728 </i>
    <i name="e_0_energy">     -0.82551856 </i>
   </energy>
  </scstep>
  <scstep>
   <time name="dav">  169.37  169.57</time>
   <time name="total">  187.07  187.28</time>
   <energy>
    <i name="e_fr_energy">     -0.91354014 </i>
    <i name="e_wo_entrp">     -0.39694985 </i>
    <i name="e_0_energy">     -0.65524499 </i>
   </energy>
  </scstep>
  <scstep>
   <time name="dav">  185.49  185.58</time>
   <time name="total">  203.04  203.14</time>
   <energy>
    <i name="e_fr_energy">     -0.95598377 </i>
    <i name="e_wo_entrp">     -0.48544070 </i>
    <i name="e_0_energy">     -0.72071224 </i>
   </energy>
  </scstep>
  <scstep>
   <time name="dav">  172.36  172.43</time>
   <time name="total">  189.60  189.67</time>
   <energy>
    <i name="e_fr_energy">     -1.29701148 </i>
    <i name="e_wo_entrp">     -0.86327189 </i>
    <i name="e_0_energy">     -1.08014169 </i>
   </energy>
  </scstep>
  <scstep>
   <time name="dav">  204.09  204.16</time>
   <time name="total">  221.59  221.66</time>
   <energy>
    <i name="e_fr_energy">     -1.39366498 </i>
    <i name="e_wo_entrp">     -0.91762174 </i>
    <i name="e_0_energy">     -1.15564336 </i>
   </energy>
  </scstep>
  <scstep>
   <time name="dav">  167.64  167.70</time>
   <time name="total">  185.20  185.26</time>
   <energy>
    <i name="e_fr_energy">     -1.53743714 </i>
    <i name="e_wo_entrp">     -0.97221613 </i>
    <i name="e_0_energy">     -1.25482663 </i>
   </energy>
  </scstep>
  <scstep>
   <time name="dav">  197.92  197.98</time>
   <time name="total">  215.70  215.77</time>
   <energy>
    <i name="e_fr_energy">     -2.13880393 </i>
    <i name="e_wo_entrp">     -1.59409336 </i>
    <i name="e_0_energy">     -1.86644865 </i>
   </energy>
  </scstep>
  <scstep>
   <time name="dav">  196.82  196.88</time>
   <time name="total">  214.29  214.36</time>
   <energy>
    <i name="e_fr_energy">     -2.29923366 </i>
    <i name="e_wo_entrp">     -1.72647306 </i>
    <i name="e_0_energy">     -2.01285336 </i>
   </energy>
  </scstep>
  <scstep>
   <time name="dav">  204.48  204.56</time>
   <time name="total">  221.76  221.84</time>
   <energy>
    <i name="e_fr_energy">     -2.25745887 </i>
    <i name="e_wo_entrp">     -1.65342420 </i>
    <i name="e_0_energy">     -1.95544154 </i>
   </energy>
  </scstep>
  <scstep>
   <time name="dav">  175.64  175.70</time>
   <time name="total">  193.02  193.08</time>
   <energy>
    <i name="e_fr_energy">     -2.27471386 </i>
    <i name="e_wo_entrp">     -1.64692618 </i>
    <i name="e_0_energy">     -1.96082002 </i>
   </energy>
  </scstep>
  <scstep>
   <time name="dav">  228.80  228.89</time>
   <time name="total">  246.44  246.53</time>
   <energy>
    <i name="e_fr_energy">     -2.23912864 </i>
    <i name="e_wo_entrp">     -1.61066390 </i>
    <i name="e_0_energy">     -1.92489627 </i>
   </energy>
  </scstep>
  <scstep>
   <time name="dav">  186.56  186.96</time>
   <time name="total">  204.28  204.68</time>
   <energy>
    <i name="e_fr_energy">     -2.13204016 </i>
    <i name="e_wo_entrp">     -1.50156096 </i>
    <i name="e_0_energy">     -1.81680056 </i>
   </energy>
  </scstep>
  <scstep>
   <time name="dav">  198.12  198.18</time>
   <time name="total">  215.67  215.73</time>
   <energy>
    <i name="e_fr_energy">     -2.74221407 </i>
    <i name="e_wo_entrp">     -2.10350180 </i>
    <i name="e_0_energy">     -2.42285794 </i>
   </energy>
  </scstep>
  <scstep>
   <time name="dav">  197.93  197.99</time>
   <time name="total">  215.18  215.24</time>
   <energy>
    <i name="e_fr_energy">     -2.73036783 </i>
    <i name="e_wo_entrp">     -2.11592858 </i>
    <i name="e_0_energy">     -2.42314821 </i>
   </energy>
  </scstep>
  <scstep>
   <time name="dav">  192.32  192.37</time>
   <time name="total">  209.84  209.90</time>
   <energy>
    <i name="e_fr_energy">     -2.97600513 </i>
    <i name="e_wo_entrp">     -2.34548947 </i>
    <i name="e_0_energy">     -2.66074730 </i>
   </energy>
  </scstep>
  <scstep>
   <time name="dav">  191.09  191.14</time>
   <time name="total">  208.68  208.73</time>
   <energy>
    <i name="e_fr_energy">     -3.11891499 </i>
    <i name="e_wo_entrp">     -2.49691005 </i>
    <i name="e_0_energy">     -2.80791252 </i>
   </energy>
  </scstep>
  <scstep>
   <time name="dav">  183.70  183.77</time>
   <time name="total">  201.53  201.60</time>
   <energy>
    <i name="e_fr_energy">     -3.99003949 </i>
    <i name="e_wo_entrp">     -3.38385782 </i>
    <i name="e_0_energy">     -3.68694865 </i>
   </energy>
  </scstep>
  <scstep>
   <time name="dav">  198.29  198.37</time>
   <time name="total">  215.82  215.91</time>
   <energy>
    <i name="e_fr_energy">     -4.60824446 </i>
    <i name="e_wo_entrp">     -4.02848086 </i>
    <i name="e_0_energy">     -4.31836266 </i>
   </energy>
  </scstep>
  <scstep>
   <time name="dav">  164.05  164.10</time>
   <time name="total">  181.40  181.45</time>
   <energy>
    <i name="e_fr_energy">     -7.13194694 </i>
    <i name="e_wo_entrp">     -6.67646606 </i>
    <i name="e_0_energy">     -6.90420650 </i>
   </energy>
  </scstep>
  <scstep>
   <time name="dav">  198.43  198.51</time>
   <time name="total">  215.88  215.95</time>
   <energy>
    <i name="e_fr_energy">     -7.64179109 </i>
    <i name="e_wo_entrp">     -7.21451466 </i>
    <i name="e_0_energy">     -7.42815287 </i>
   </energy>
  </scstep>
  <scstep>
   <time name="dav">  177.13  177.20</time>
   <time name="total">  194.75  194.85</time>
   <energy>
    <i name="e_fr_energy">     -8.04154034 </i>
    <i name="e_wo_entrp">     -7.64269214 </i>
    <i name="e_0_energy">     -7.84211624 </i>
   </energy>
  </scstep>
  <scstep>
   <time name="dav">  228.88  229.18</time>
   <time name="total">  246.59  246.90</time>
   <energy>
    <i name="e_fr_energy">     -7.97541883 </i>
    <i name="e_wo_entrp">     -7.55866826 </i>
    <i name="e_0_energy">     -7.76704354 </i>
   </energy>
  </scstep>
  <scstep>
   <time name="dav">  195.29  195.52</time>
   <time name="total">  212.83  213.08</time>
   <energy>
    <i name="e_fr_energy">     -8.15853656 </i>
    <i name="e_wo_entrp">     -7.75735070 </i>
    <i name="e_0_energy">     -7.95794363 </i>
   </energy>
  </scstep>
  <scstep>
   <time name="dav">  198.29  198.52</time>
   <time name="total">  215.52  215.77</time>
   <energy>
    <i name="e_fr_energy">     -8.17749109 </i>
    <i name="e_wo_entrp">     -7.72532527 </i>
    <i name="e_0_energy">     -7.95140818 </i>
   </energy>
  </scstep>
  <scstep>
   <time name="dav">  183.03  183.25</time>
   <time name="total">  200.48  200.72</time>
   <energy>
    <i name="e_fr_energy">     -6.99343211 </i>
    <i name="e_wo_entrp">     -6.50958697 </i>
    <i name="e_0_energy">     -6.75150954 </i>
   </energy>
  </scstep>
  <scstep>
   <time name="dav">  187.96  188.18</time>
   <time name="total">  205.49  205.75</time>
   <energy>
    <i name="e_fr_energy">     -6.28113590 </i>
    <i name="e_wo_entrp">     -5.79031156 </i>
    <i name="e_0_energy">     -6.03572373 </i>
   </energy>
  </scstep>
  <scstep>
   <time name="dav">  172.54  172.75</time>
   <time name="total">  190.33  190.55</time>
   <energy>
    <i name="e_fr_energy">     -4.81241541 </i>
    <i name="e_wo_entrp">     -4.30867931 </i>
    <i name="e_0_energy">     -4.56054736 </i>
   </energy>
  </scstep>
  <scstep>
   <time name="dav">  140.82  140.97</time>
   <time name="total">  158.31  158.48</time>
   <energy>
    <i name="e_fr_energy">     -1.02709147 </i>
    <i name="e_wo_entrp">     -0.47108467 </i>
    <i name="e_0_energy">     -0.74908807 </i>
   </energy>
  </scstep>
  <scstep>
   <time name="dav">  139.78  139.94</time>
   <time name="total">  157.05  157.24</time>
   <energy>
    <i name="e_fr_energy">      4.38181277 </i>
    <i name="e_wo_entrp">      5.08817756 </i>
    <i name="e_0_energy">      4.73499517 </i>
   </energy>
  </scstep>
  <scstep>
   <time name="dav">  195.95  196.17</time>
   <time name="total">  213.33  213.57</time>
   <energy>
    <i name="e_fr_energy">    -14.56534080 </i>
    <i name="e_wo_entrp">    -14.01623189 </i>
    <i name="e_0_energy">    -14.29078634 </i>
   </energy>
  </scstep>
  <scstep>
   <time name="dav">  196.76  196.97</time>
   <time name="total">  214.37  214.61</time>
   <energy>
    <i name="e_fr_energy">    -62.22076991 </i>
    <i name="e_wo_entrp">    -62.01267698 </i>
    <i name="e_0_energy">    -62.11672345 </i>
   </energy>
  </scstep>
  <scstep>
   <time name="dav">  143.27  143.46</time>
   <time name="total">  160.97  161.18</time>
   <energy>
    <i name="e_fr_energy">    -36.91406889 </i>
    <i name="e_wo_entrp">    -36.69619334 </i>
    <i name="e_0_energy">    -36.80513111 </i>
   </energy>
  </scstep>
  <scstep>
   <time name="dav">  202.68  202.93</time>
   <time name="total">  220.26  220.52</time>
   <energy>
    <i name="e_fr_energy">    -25.74921439 </i>
    <i name="e_wo_entrp">    -25.53512353 </i>
    <i name="e_0_energy">    -25.64216896 </i>
   </energy>
  </scstep>
  <scstep>
   <time name="dav">  156.44  156.62</time>
   <time name="total">  173.72  173.92</time>
   <energy>
    <i name="e_fr_energy">    -18.01190673 </i>
    <i name="e_wo_entrp">    -17.80257351 </i>
    <i name="e_0_energy">    -17.90724012 </i>
   </energy>
  </scstep>
  <scstep>
   <time name="dav">  139.41  139.47</time>
   <time name="total">  156.90  156.98</time>
   <energy>
    <i name="e_fr_energy">     -0.72201149 </i>
    <i name="e_wo_entrp">     -0.66310725 </i>
    <i name="e_0_energy">     -0.69255937 </i>
   </energy>
  </scstep>
  <scstep>
   <time name="dav">  139.48  139.54</time>
   <time name="total">  157.08  157.15</time>
   <energy>
    <i name="e_fr_energy">    -48.52894656 </i>
    <i name="e_wo_entrp">    -48.37874999 </i>
    <i name="e_0_energy">    -48.45384828 </i>
   </energy>
  </scstep>
  <scstep>
   <time name="dav">  147.88  147.95</time>
   <time name="total">  165.66  165.73</time>
   <energy>
    <i name="e_fr_energy">    -18.92326434 </i>
    <i name="e_wo_entrp">    -18.77872869 </i>
    <i name="e_0_energy">    -18.85099652 </i>
   </energy>
  </scstep>
  <scstep>
   <time name="dav">  154.69  154.77</time>
   <time name="total">  156.47  156.56</time>
   <energy>
    <i name="alphaZ">      0.10075004 </i>
    <i name="ewald">    558.30175961 </i>
    <i name="hartreedc">  -1390.08844938 </i>
    <i name="XCdc">     73.53108406 </i>
    <i name="pawpsdc">    757.16650771 </i>
    <i name="pawaedc">   -758.80699879 </i>
    <i name="eentropy">     -0.15425283 </i>
    <i name="bandstr">   -272.74500807 </i>
    <i name="atom">   1025.09994095 </i>
    <i name="e_fr_energy">     -7.59466672 </i>
    <i name="e_wo_entrp">     -7.44041389 </i>
    <i name="e_0_energy">     -7.51754031 </i>
   </energy>
  </scstep>
  <structure>
   <crystal>
    <varray name="basis" >
     <v>      26.62444400       0.00000000       0.00000000 </v>
     <v>      13.31222200      23.05674800       0.00000000 </v>
     <v>       0.00000000       0.00000000      82.01600000 </v>
    </varray>
    <i name="volume">  50347.41583728 </i>
    <varray name="rec_basis" >
     <v>       0.03755947      -0.02168563       0.00000000 </v>
     <v>       0.00000000       0.04337125       0.00000000 </v>
     <v>       0.00000000       0.00000000       0.01219274 </v>
    </varray>
   </crystal>
   <varray name="positions" >
    <v>       0.33337039       0.33325923       0.00000000 </v>
    <v>       0.66662961       0.66674077       0.00000000 </v>
    <v>       0.15824301       0.15829257       0.00000000 </v>
    <v>       0.68346442       0.15829257       0.00000000 </v>
    <v>       0.15829257       0.68341485       0.00000000 </v>
    <v>       0.84175699       0.84170743       0.00000000 </v>
    <v>       0.31653558       0.84170743       0.00000000 </v>
    <v>       0.84170743       0.31658515       0.00000000 </v>
   </varray>
  </structure>
  <varray name="forces" >
   <v>      -0.00000000       0.04400611       0.00000000 </v>
   <v>       0.00000000      -0.04400611       0.00000000 </v>
   <v>      -0.03017811      -0.01757002       0.00000000 </v>
   <v>       0.03017811      -0.01757002      -0.00000000 </v>
   <v>       0.00000000       0.05986293       0.00000000 </v>
   <v>       0.03017811       0.01757002      -0.00000000 </v>
   <v>      -0.03017811       0.01757002       0.00000000 </v>
   <v>       0.00000000      -0.05986293       0.00000000 </v>
  </varray>
  <varray name="stress" >
   <v>       2.26573592       0.00000000       0.00000000 </v>
   <v>       0.00000000       2.24747458       0.00000000 </v>
   <v>       0.00000000       0.00000000       3.25765641 </v>
  </varray>
  <energy>
   <i name="e_fr_energy">     -7.59466672 </i>
   <i name="e_wo_entrp">     -7.51754031 </i>
   <i name="e_0_energy">     -0.15425283 </i>
  </energy>
  <time name="totalsc">40750.2240774.43</time>
 </calculation>
 <calculation>
  <scstep>
   <time name="dav">  174.35  174.84</time>
   <time name="total">  186.56  187.07</time>
   <energy>
    <i name="alphaZ">      0.03056472 </i>
    <i name="ewald">    475.47268514 </i>
    <i name="hartreedc">  -1032.82917026 </i>
    <i name="XCdc">     50.06472247 </i>
    <i name="pawpsdc">    758.00924396 </i>
    <i name="pawaedc">   -759.65419622 </i>
    <i name="eentropy">     -0.00000000 </i>
    <i name="bandstr">   -569.17673094 </i>
    <i name="atom">   1025.09994095 </i>
    <i name="e_fr_energy">    -52.98294019 </i>
    <i name="e_wo_entrp">    -52.98294019 </i>
    <i name="e_0_energy">    -52.98294019 </i>
   </energy>
  </scstep>
  <scstep>
   <time name="dav">  175.88  176.21</time>
   <time name="total">  189.51  189.85</time>
   <energy>
    <i name="e_fr_energy">    -36.92875755 </i>
    <i name="e_wo_entrp">    -36.70184354 </i>
    <i name="e_0_energy">    -36.81530054 </i>
   </energy>
  </scstep>
  <scstep>
   <time name="dav">  126.38  126.63</time>
   <time name="total">  140.11  140.39</time>
   <energy>
    <i name="e_fr_energy">     -0.49079072 </i>
    <i name="e_wo_entrp">     -0.17325579 </i>
    <i name="e_0_energy">     -0.33202325 </i>
   </energy>
  </scstep>
  <scstep>
   <time name="dav">  148.45  148.72</time>
   <time name="total">  159.96  160.25</time>
   <energy>
    <i name="e_fr_energy">      4.19176722 </i>
    <i name="e_wo_entrp">      4.42390057 </i>
    <i name="e_0_energy">      4.30783390 </i>
   </energy>
  </scstep>
  <scstep>
   <time name="dav">  180.00  180.35</time>
   <time name="total">  192.42  192.78</time>
   <energy>
    <i name="e_fr_energy">    -34.98505520 </i>
    <i name="e_wo_entrp">    -34.85126868 </i>
    <i name="e_0_energy">    -34.91816194 </i>
   </energy>
  </scstep>
  <scstep>
   <time name="dav">  150.35  150.68</time>
   <time name="total">  162.80  163.15</time>
   <energy>
    <i name="e_fr_energy">    -13.21665087 </i>
    <i name="e_wo_entrp">    -13.09857982 </i>
    <i name="e_0_energy">    -13.15761535 </i>
   </energy>
  </scstep>
  <scstep>
   <time name="dav">  136.86  137.21</time>
   <time name="total">  150.73  151.12</time>
   <energy>
    <i name="e_fr_energy">     10.23716000 </i>
    <i name="e_wo_entrp">     10.55757966 </i>
    <i name="e_0_energy">     10.39736983 </i>
   </energy>
  </scstep>
  <scstep>
[...]
   <time name="dav">  217.13  217.23</time>
   <time name="total">  234.66  234.76</time>
   <energy>
    <i name="e_fr_energy">     -1.96783702 </i>
    <i name="e_wo_entrp">     -1.68821990 </i>
    <i name="e_0_energy">     -1.82802846 </i>
   </energy>
  </scstep>
  <scstep>
   <time name="dav">  186.61  186.65</time>
   <time name="total">  201.93  201.99</time>
   <energy>
    <i name="e_fr_energy">     -0.75777144 </i>
    <i name="e_wo_entrp">     -0.54574735 </i>
    <i name="e_0_energy">     -0.65175939 </i>
   </energy>
  </scstep>
  <scstep>
   <time name="dav">  230.18  230.24</time>
   <time name="total">  246.68  246.74</time>
   <energy>
    <i name="e_fr_energy">    -26.07492766 </i>
    <i name="e_wo_entrp">    -25.68360933 </i>
    <i name="e_0_energy">    -25.87926850 </i>
   </energy>
  </scstep>
  <scstep>
   <time name="dav">  169.43  169.49</time>
   <time name="total">  186.99  187.05</time>
   <energy>
    <i name="e_fr_energy">    -50.57811402 </i>
    <i name="e_wo_entrp">    -50.31100053 </i>
    <i name="e_0_energy">    -50.44455728 </i>
   </energy>
  </scstep>
  <scstep>
   <time name="dav">  170.53  170.57</time>
   <time name="total">  188.28  188.32</time>
   <energy>
    <i name="e_fr_energy">    -37.29090849 </i>
    <i name="e_wo_entrp">    -37.05866800 </i>
    <i name="e_0_energy">    -37.17478825 </i>
   </energy>
  </scstep>
  <scstep>
   <time name="dav">  181.47  181.53</time>
   <time name="total">  199.08  199.14</time>
   <energy>
    <i name="e_fr_energy">    -25.56155603 </i>
    <i name="e_wo_entrp">    -25.34553817 </i>
    <i name="e_0_energy">    -25.45354710 </i>
   </energy>
  </scstep>
  <scstep>
   <time name="dav">  186.18  186.22</time>
   <time name="total">  203.46  203.53</time>
   <energy>
    <i name="e_fr_energy">    -14.08860279 </i>
    <i name="e_wo_entrp">    -13.87181702 </i>
    <i name="e_0_energy">    -13.98020991 </i>
   </energy>
  </scstep>
  <scstep>
   <time name="dav">  184.67  184.73</time>
   <time name="total">  202.20  202.26</time>
   <energy>
    <i name="e_fr_energy">     -9.70965554 </i>
    <i name="e_wo_entrp">     -9.49167870 </i>
    <i name="e_0_energy">     -9.60066712 </i>
   </energy>
  </scstep>
  <scstep>
   <time name="dav">  179.29  179.37</time>
   <time name="total">  196.89  196.97</time>
   <energy>
    <i name="e_fr_energy">     -6.00595413 </i>
    <i name="e_wo_entrp">     -5.78693188 </i>
    <i name="e_0_energy">     -5.89644300 </i>
   </energy>
  </scstep>
  <scstep>
   <time name="dav">  235.33  235.40</time>
   <time name="total">  253.18  253.25</time>
   <energy>
    <i name="e_fr_energy">     -5.88431696 </i>
    <i name="e_wo_entrp">     -5.66537490 </i>
    <i name="e_0_energy">     -5.77484593 </i>
   </energy>
  </scstep>
  <scstep>
   <time name="dav">  164.67  164.70</time>
   <time name="total">  182.25  182.29</time>
   <energy>
    <i name="e_fr_energy">    -10.60578620 </i>
    <i name="e_wo_entrp">    -10.38603991 </i>
    <i name="e_0_energy">    -10.49591306 </i>
   </energy>
  </scstep>
  <scstep>
   <time name="dav">  157.31  157.38</time>
   <time name="total">  174.66  174.74</time>
   <energy>
    <i name="e_fr_energy">      8.65122678 </i>
    <i name="e_wo_entrp">      8.65385541 </i>
    <i name="e_0_energy">      8.65254110 </i>
   </energy>
  </scstep>
  <scstep>
   <time name="dav">  170.56  170.61</time>
   <time name="total">  185.40  185.45</time>
   <energy>
    <i name="e_fr_energy">     11.25001558 </i>
    <i name="e_wo_entrp">     11.39540490 </i>
    <i name="e_0_energy">     11.32271024 </i>
   </energy>
  </scstep>
  <scstep>
   <time name="dav">  208.48  208.53</time>
   <time name="total">  224.66  224.71</time>
   <energy>
    <i name="e_fr_energy">     -8.59057677 </i>
    <i name="e_wo_entrp">     -8.29898551 </i>
    <i name="e_0_energy">     -8.44478114 </i>
   </energy>
  </scstep>
  <scstep>
   <time name="dav">  164.11  164.18</time>
   <time name="total">  165.92  165.99</time>
   <energy>
    <i name="alphaZ">      0.04248598 </i>
    <i name="ewald">    502.54202138 </i>
    <i name="hartreedc">  -1315.47943255 </i>
    <i name="XCdc">     72.35657574 </i>
    <i name="pawpsdc">    609.05426816 </i>
    <i name="pawaedc">   -609.82790650 </i>
    <i name="eentropy">     -0.10720952 </i>
    <i name="bandstr">   -282.42866676 </i>
    <i name="atom">   1025.09994095 </i>
    <i name="e_fr_energy">      1.25207687 </i>
    <i name="e_wo_entrp">      1.35928639 </i>
    <i name="e_0_energy">      1.30568163 </i>
   </energy>
  </scstep>
  <structure>
   <crystal>
    <varray name="basis" >
     <v>      34.42346008       0.00000000       0.00000000 </v>
     <v>      17.21173004      29.75625459       0.00000000 </v>
     <v>       0.00000000       0.00000000     116.55850580 </v>
    </varray>
    <i name="volume"> 119392.42094936 </i>
    <varray name="rec_basis" >
     <v>       0.02904996      -0.01680319       0.00000000 </v>
     <v>      -0.00000000       0.03360638       0.00000000 </v>
     <v>       0.00000000       0.00000000       0.00857938 </v>
    </varray>
   </crystal>
   <varray name="positions" >
    <v>       0.33333486       0.33333028       0.00000000 </v>
    <v>       0.66666514       0.66666972       0.00000000 </v>
    <v>       0.15821497       0.15826421       0.00000000 </v>
    <v>       0.68352082       0.15826421      -0.00000000 </v>
    <v>       0.15824425       0.68351150       0.00000000 </v>
    <v>       0.84178503       0.84173579      -0.00000000 </v>
    <v>       0.31647918       0.84173579       0.00000000 </v>
    <v>       0.84175575       0.31648850       0.00000000 </v>
   </varray>
  </structure>
  <varray name="forces" >
   <v>       0.00000000      -0.03027047       0.00000000 </v>
   <v>      -0.00000000       0.03027047      -0.00000000 </v>
   <v>      -0.02558931      -0.04228341       0.00000000 </v>
   <v>       0.02558931      -0.04228341       0.00000000 </v>
   <v>       0.00000000      -0.01678706       0.00000000 </v>
   <v>       0.02558931       0.04228341      -0.00000000 </v>
   <v>      -0.02558931       0.04228341       0.00000000 </v>
   <v>       0.00000000       0.01678706      -0.00000000 </v>
  </varray>
  <varray name="stress" >
   <v>       0.43655832      -0.00000000       0.00000000 </v>
   <v>       0.00000000       0.56336022       0.00000000 </v>
   <v>       0.00000000       0.00000000       0.60566132 </v>
  </varray>
  <energy>
   <i name="e_fr_energy">      1.25207687 </i>
   <i name="e_wo_entrp">      1.30568163 </i>
   <i name="e_0_energy">     -0.10720952 </i>
  </energy>
  <time name="totalsc">39942.7339960.97</time>
 </calculation>
 <calculation>
  <scstep>
   <time name="dav">  185.15  185.41</time>
   <time name="total">  197.87  198.13</time>
   <energy>
    <i name="alphaZ">      0.03819773 </i>
    <i name="ewald">    494.01857944 </i>
    <i name="hartreedc">  -1283.89339074 </i>
    <i name="XCdc">     70.18022474 </i>
    <i name="pawpsdc">    616.41509654 </i>
    <i name="pawaedc">   -617.18287420 </i>
    <i name="eentropy">     -0.30112208 </i>
    <i name="bandstr">   -314.48001269 </i>
    <i name="atom">   1025.09994095 </i>
    <i name="e_fr_energy">    -10.10536031 </i>
    <i name="e_wo_entrp">     -9.80423823 </i>
    <i name="e_0_energy">     -9.95479927 </i>
   </energy>
  </scstep>
  <scstep>
   <time name="dav">  145.09  145.13</time>
   <time name="total">  157.61  157.65</time>
   <energy>
    <i name="e_fr_energy">     -3.95567705 </i>
    <i name="e_wo_entrp">     -3.57669599 </i>
    <i name="e_0_energy">     -3.76618652 </i>
   </energy>
  </scstep>
  <scstep>
   <time name="dav">  147.95  148.01</time>
   <time name="total">  160.60  160.67</time>
   <energy>
    <i name="e_fr_energy">     -0.49673699 </i>
    <i name="e_wo_entrp">     -0.12884408 </i>
    <i name="e_0_energy">     -0.31279053 </i>
   </energy>
  </scstep>
  <scstep>
   <time name="dav">  144.34  144.40</time>
   <time name="total">  157.01  157.08</time>
   <energy>
    <i name="e_fr_energy">      3.81407494 </i>
    <i name="e_wo_entrp">      4.18844539 </i>
    <i name="e_0_energy">      4.00126017 </i>
   </energy>
  </scstep>
  <scstep>
   <time name="dav">  145.93  145.98</time>
   <time name="total">  158.36  158.41</time>
   <energy>
    <i name="e_fr_energy">     -8.07448940 </i>
    <i name="e_wo_entrp">     -8.03344445 </i>
    <i name="e_0_energy">     -8.05396692 </i>
   </energy>
  </scstep>
  <scstep>
   <time name="dav">  153.44  153.51</time>
   <time name="total">  166.79  166.87</time>
   <energy>
    <i name="e_fr_energy">     -7.44507151 </i>
    <i name="e_wo_entrp">     -7.04747357 </i>
    <i name="e_0_energy">     -7.24627254 </i>
   </energy>
  </scstep>
  <scstep>
   <time name="dav">  148.40  148.81</time>
   <time name="total">  161.95  162.37</time>
   <energy>
    <i name="e_fr_energy">     -3.27750890 </i>
    <i name="e_wo_entrp">     -3.01004803 </i>
    <i name="e_0_energy">     -3.14377847 </i>
   </energy>
  </scstep>
  <scstep>
   <time name="dav">  137.96  138.02</time>
   <time name="total">  151.53  151.59</time>
   <energy>
    <i name="e_fr_energy">      3.52094333 </i>
    <i name="e_wo_entrp">      4.09965950 </i>
    <i name="e_0_energy">      3.81030142 </i>
   </energy>
  </scstep>
  <scstep>
   <time name="dav">  156.03  156.08</time>
   <time name="total">  170.03  170.08</time>
   <energy>
    <i name="e_fr_energy">      4.97638363 </i>
    <i name="e_wo_entrp">      5.55807076 </i>
    <i name="e_0_energy">      5.26722719 </i>
   </energy>
  </scstep>
  <scstep>
   <time name="dav">  178.68  178.76</time>
   <time name="total">  192.72  192.80</time>
   <energy>
    <i name="e_fr_energy">      5.75194101 </i>
    <i name="e_wo_entrp">      6.34954623 </i>
    <i name="e_0_energy">      6.05074362 </i>
   </energy>
  </scstep>
  <scstep>
   <time name="dav">  157.46  157.51</time>
   <time name="total">  171.54  171.60</time>
   <energy>
    <i name="e_fr_energy">      6.64240535 </i>
    <i name="e_wo_entrp">      7.22653675 </i>
    <i name="e_0_energy">      6.93447105 </i>
   </energy>
  </scstep>
  <scstep>
   <time name="dav">  180.13  180.20</time>
   <time name="total">  194.25  194.33</time>
   <energy>
    <i name="e_fr_energy">      5.81986782 </i>
    <i name="e_wo_entrp">      6.27176001 </i>
    <i name="e_0_energy">      6.04581392 </i>
   </energy>
  </scstep>
  <scstep>
   <time name="dav">  191.11  191.21</time>
   <time name="total">  205.30  205.40</time>
   <energy>
    <i name="e_fr_energy">      4.21158769 </i>
    <i name="e_wo_entrp">      4.62033686 </i>
    <i name="e_0_energy">      4.41596228 </i>
   </energy>
  </scstep>
  <scstep>
   <time name="dav">  171.79  171.86</time>
   <time name="total">  186.03  186.12</time>
   <energy>
    <i name="e_fr_energy">      4.30210013 </i>
    <i name="e_wo_entrp">      4.72866388 </i>
    <i name="e_0_energy">      4.51538200 </i>
   </energy>
  </scstep>
  <scstep>
   <time name="dav">  145.43  145.48</time>
   <time name="total">  159.75  159.80</time>
   <energy>
    <i name="e_fr_energy">      5.90256333 </i>
    <i name="e_wo_entrp">      6.31603795 </i>
    <i name="e_0_energy">      6.10930064 </i>
   </energy>
  </scstep>
  <scstep>
   <time name="dav">  182.31  182.36</time>
   <time name="total">  196.69  196.75</time>
   <energy>
    <i name="e_fr_energy">      3.89885278 </i>
    <i name="e_wo_entrp">      4.28375406 </i>
    <i name="e_0_energy">      4.09130342 </i>
   </energy>
  </scstep>
  <scstep>
   <time name="dav">  170.86  170.94</time>
   <time name="total">  185.33  185.41</time>
   <energy>
    <i name="e_fr_energy">     -0.48851750 </i>
    <i name="e_wo_entrp">     -0.20760334 </i>
    <i name="e_0_energy">     -0.34806042 </i>
   </energy>
  </scstep>
  <scstep>
   <time name="dav">  203.54  203.62</time>
   <time name="total">  218.10  218.18</time>
   <energy>
    <i name="e_fr_energy">     -2.30730652 </i>
    <i name="e_wo_entrp">     -2.04974403 </i>
    <i name="e_0_energy">     -2.17852527 </i>
   </energy>
  </scstep>
  <scstep>
   <time name="dav">  189.08  189.15</time>
   <time name="total">  203.69  203.77</time>
   <energy>
    <i name="e_fr_energy">     -3.92557353 </i>
    <i name="e_wo_entrp">     -3.72925822 </i>
    <i name="e_0_energy">     -3.82741587 </i>
   </energy>
  </scstep>
  <scstep>
   <time name="dav">  147.01  147.08</time>
   <time name="total">  161.69  161.77</time>
   <energy>
    <i name="e_fr_energy">     -1.02217866 </i>
    <i name="e_wo_entrp">     -0.81955003 </i>
    <i name="e_0_energy">     -0.92086434 </i>
   </energy>
  </scstep>
  <scstep>
   <time name="dav">  146.21  146.25</time>
   <time name="total">  160.99  161.05</time>
   <energy>
    <i name="e_fr_energy">      5.78343796 </i>
    <i name="e_wo_entrp">      6.21307422 </i>
    <i name="e_0_energy">      5.99825609 </i>
   </energy>
  </scstep>
  <scstep>
   <time name="dav">  189.17  189.22</time>
   <time name="total">  204.02  204.08</time>
   <energy>
    <i name="e_fr_energy">      6.41899652 </i>
    <i name="e_wo_entrp">      6.79536178 </i>
    <i name="e_0_energy">      6.60717915 </i>
   </energy>
  </scstep>
  <scstep>
   <time name="dav">  158.57  158.65</time>
   <time name="total">  173.55  173.64</time>
   <energy>
    <i name="e_fr_energy">      3.84523958 </i>
    <i name="e_wo_entrp">      4.08262978 </i>
    <i name="e_0_energy">      3.96393468 </i>
   </energy>
  </scstep>
  <scstep>
   <time name="dav">  140.40  140.44</time>
   <time name="total">  155.45  155.49</time>
   <energy>
    <i name="e_fr_energy">      5.87549595 </i>
    <i name="e_wo_entrp">      6.12596712 </i>
    <i name="e_0_energy">      6.00073154 </i>
   </energy>
  </scstep>
  <scstep>
   <time name="dav">  160.82  160.90</time>
   <time name="total">  175.99  176.06</time>
   <energy>
    <i name="e_fr_energy">      6.17748349 </i>
    <i name="e_wo_entrp">      6.65813747 </i>
    <i name="e_0_energy">      6.41781048 </i>
   </energy>
  </scstep>
  <scstep>
   <time name="dav">  165.53  165.59</time>
   <time name="total">  180.80  180.86</time>
   <energy>
    <i name="e_fr_energy">      5.87630190 </i>
    <i name="e_wo_entrp">      6.06883005 </i>
    <i name="e_0_energy">      5.97256597 </i>
   </energy>
  </scstep>
  <scstep>
   <time name="dav">  152.63  152.68</time>
   <time name="total">  168.04  168.09</time>
   <energy>
    <i name="e_fr_energy">      6.31944705 </i>
    <i name="e_wo_entrp">      6.75221654 </i>
    <i name="e_0_energy">      6.53583180 </i>
   </energy>
  </scstep>
  <scstep>
   <time name="dav">  160.96  161.04</time>
   <time name="total">  176.45  176.55</time>
   <energy>
    <i name="e_fr_energy">      6.37795250 </i>
    <i name="e_wo_entrp">      7.04391999 </i>
    <i name="e_0_energy">      6.71093625 </i>
   </energy>
  </scstep>
  <scstep>
   <time name="dav">  170.51  170.57</time>
   <time name="total">  186.14  186.21</time>
   <energy>
    <i name="e_fr_energy">      6.10532859 </i>
    <i name="e_wo_entrp">      6.76160793 </i>
    <i name="e_0_energy">      6.43346826 </i>
   </energy>
  </scstep>
  <scstep>
   <time name="dav">  170.46  170.54</time>
   <time name="total">  186.15  186.24</time>
   <energy>
    <i name="e_fr_energy">      5.08345560 </i>
    <i name="e_wo_entrp">      5.38883452 </i>
    <i name="e_0_energy">      5.23614506 </i>
   </energy>
  </scstep>
  <scstep>
   <time name="dav">  160.99  161.03</time>
   <time name="total">  176.83  176.88</time>
   <energy>
    <i name="e_fr_energy">      4.40192224 </i>
    <i name="e_wo_entrp">      4.71733994 </i>
    <i name="e_0_energy">      4.55963109 </i>
   </energy>
  </scstep>
  <scstep>
   <time name="dav">  200.02  200.07</time>
   <time name="total">  215.94  216.00</time>
   <energy>
    <i name="e_fr_energy">      4.62703955 </i>
    <i name="e_wo_entrp">      4.96728892 </i>
    <i name="e_0_energy">      4.79716424 </i>
   </energy>
  </scstep>
  <scstep>
   <time name="dav">  204.01  204.08</time>
   <time name="total">  220.10  220.18</time>
   <energy>
    <i name="e_fr_energy">      4.57933349 </i>
    <i name="e_wo_entrp">      4.98385330 </i>
    <i name="e_0_energy">      4.78159339 </i>
   </energy>
  </scstep>
  <scstep>
   <time name="dav">  192.15  192.22</time>
   <time name="total">  208.33  208.41</time>
   <energy>
    <i name="e_fr_energy">      4.84130891 </i>
    <i name="e_wo_entrp">      5.34007685 </i>
    <i name="e_0_energy">      5.09069288 </i>
   </energy>
  </scstep>
  <scstep>
   <time name="dav">  165.50  165.54</time>
   <time name="total">  181.85  181.90</time>
   <energy>
    <i name="e_fr_energy">      5.01781310 </i>
    <i name="e_wo_entrp">      5.53915648 </i>
    <i name="e_0_energy">      5.27848479 </i>
   </energy>
  </scstep>
  <scstep>
   <time name="dav">  187.70  188.09</time>
   <time name="total">  204.11  204.51</time>
   <energy>
    <i name="e_fr_energy">      5.00144097 </i>
    <i name="e_wo_entrp">      5.58306454 </i>
    <i name="e_0_energy">      5.29225275 </i>
   </energy>
  </scstep>
  <scstep>
   <time name="dav">  194.31  194.36</time>
   <time name="total">  210.91  210.95</time>
   <energy>
    <i name="e_fr_energy">      4.87928217 </i>
    <i name="e_wo_entrp">      5.48299575 </i>
    <i name="e_0_energy">      5.18113896 </i>
   </energy>
  </scstep>
  <scstep>
   <time name="dav">  213.54  213.58</time>
   <time name="total">  230.24  230.29</time>
   <energy>
    <i name="e_fr_energy">      4.64573077 </i>
    <i name="e_wo_entrp">      5.26851373 </i>
    <i name="e_0_energy">      4.95712225 </i>
   </energy>
  </scstep>
  <scstep>
   <time name="dav">  200.47  200.55</time>
   <time name="total">  217.38  217.46</time>
   <energy>
    <i name="e_fr_energy">      5.39929074 </i>
    <i name="e_wo_entrp">      6.01523247 </i>
    <i name="e_0_energy">      5.70726160 </i>
   </energy>
  </scstep>
  <scstep>
   <time name="dav">  190.20  190.28</time>
   <time name="total">  207.20  207.29</time>
   <energy>
    <i name="e_fr_energy">      6.05837987 </i>
    <i name="e_wo_entrp">      6.71307587 </i>
    <i name="e_0_energy">      6.38572787 </i>
   </energy>
  </scstep>
  <scstep>
   <time name="dav">  216.19  216.27</time>
   <time name="total">  233.40  233.48</time>
   <energy>
    <i name="e_fr_energy">      6.21825298 </i>
    <i name="e_wo_entrp">      6.87298828 </i>
    <i name="e_0_energy">      6.54562063 </i>
   </energy>
  </scstep>
  <scstep>
   <time name="dav">  200.93  201.01</time>
   <time name="total">  218.23  218.31</time>
   <energy>
    <i name="e_fr_energy">      6.08986395 </i>
    <i name="e_wo_entrp">      6.76399273 </i>
    <i name="e_0_energy">      6.42692834 </i>
   </energy>
  </scstep>
  <scstep>
   <time name="dav">  213.43  213.49</time>
   <time name="total">  230.95  231.01</time>
   <energy>
    <i name="e_fr_energy">      5.95601764 </i>
    <i name="e_wo_entrp">      6.62390970 </i>
    <i name="e_0_energy">      6.28996367 </i>
   </energy>
  </scstep>
  <scstep>
   <time name="dav">  202.25  202.33</time>
   <time name="total">  219.87  219.96</time>
   <energy>
    <i name="e_fr_energy">      5.96011717 </i>
    <i name="e_wo_entrp">      6.64210952 </i>
    <i name="e_0_energy">      6.30111334 </i>
   </energy>
  </scstep>
  <scstep>
   <time name="dav">  196.62  196.71</time>
   <time name="total">  214.46  214.56</time>
   <energy>
    <i name="e_fr_energy">      5.91374430 </i>
    <i name="e_wo_entrp">      6.59574030 </i>
    <i name="e_0_energy">      6.25474230 </i>
   </energy>
  </scstep>
  <scstep>
   <time name="dav">  224.05  224.13</time>
   <time name="total">  241.60  241.69</time>
   <energy>
    <i name="e_fr_energy">      5.91379663 </i>
    <i name="e_wo_entrp">      6.59620297 </i>
    <i name="e_0_energy">      6.25499980 </i>
   </energy>
  </scstep>
  <scstep>
