fcc Ni                                  
   4.00000000000000     
     0.500000    0.500000    0.000000
     0.000000    0.500000    0.500000
     0.500000    0.000000    0.500000
   Ni
     1
Direct
  0.000000  0.000000  0.000000
 
   32   32   32
  223.98      216.63      195.90      165.38      129.92      94.482      63.147      38.520      21.551      11.648    
  7.0332      5.2856      4.2615      3.5272      3.0684      2.8274      2.7534      2.8274      3.0684      3.5272    
  4.2615      5.2856      7.0332      11.648      21.551      38.520      63.147      94.482      129.92      165.38    
  195.90      216.63      216.63      202.60      177.02      144.17      108.98      75.983      48.492      28.246    
  15.377      8.6454      5.8989      4.7021      3.8299      3.2478      2.9108      2.7604      2.7603      2.9108    
  3.2478      3.8299      4.7021      5.8989      8.6454      15.377      28.246      48.492      75.983      108.98    
  144.17      177.02      202.60      216.63      195.90      177.02      149.22      116.96      84.776      56.426    
  34.295      19.215      10.571      6.6402      5.1152      4.1341      3.4382      3.0062      2.7800      2.7106    
  2.7800      3.0062      3.4382      4.1341      5.1152      6.6402      10.571      19.215      34.295      56.426    
  84.776      116.96      149.22      177.02      195.90      202.60      165.38      144.17      116.96      87.906    
  60.827      38.513      22.383      12.434      7.4592      5.4742      4.4144      3.6251      3.1064      2.8088    
  2.6764      2.6764      2.8087      3.1064      3.6251      4.4144      5.4742      7.4592      12.434      22.383    
  38.513      60.827      87.906      116.96      144.16      165.38      177.02      177.02      129.92      108.98    
  84.776      60.827      40.027      24.176      13.789      8.1818      5.7820      4.6468      3.7919      3.2021    
  2.8416      2.6543      2.5970      2.6542      2.8416      3.2021      3.7919      4.6469      5.7821      8.1818    
  13.789      24.176      40.027      60.827      84.776      108.98      129.92      144.16      149.22      144.17    
  94.482      75.983      56.426      38.513      24.176      14.285      8.6078      6.0034      4.8122      3.9232    
  3.2838      2.8733      2.6404      2.5374      2.5374      2.6404      2.8733      3.2838      3.9232      4.8122    
  6.0035      8.6079      14.285      24.176      38.513      56.426      75.983      94.482      108.98      116.96    
  116.96      108.98      63.147      48.492      34.295      22.383      13.789      8.6078      6.0852      4.8979    
  4.0071      3.3433      2.8992      2.6317      2.4936      2.4515      2.4936      2.6317      2.8992      3.3433    
  4.0071      4.8979      6.0853      8.6079      13.789      22.383      34.295      48.492      63.147      75.983    
  84.776      87.906      84.776      75.983      38.520      28.246      19.215      12.434      8.1818      6.0034    
  4.8979      4.0359      3.3746      2.9160      2.6265      2.4632      2.3910      2.3910      2.4631      2.6265    
  2.9160      3.3746      4.0359      4.8979      6.0035      8.1818      12.434      19.215      28.246      38.520    
  48.492      56.426      60.827      60.827      56.426      48.492      21.551      15.377      10.571      7.4592    
  5.7820      4.8122      4.0071      3.3746      2.9219      2.6240      2.4449      2.3520      2.3235      2.3520    
  2.4449      2.6240      2.9219      3.3746      4.0071      4.8122      5.7820      7.4592      10.571      15.377    
  21.551      28.246      34.295      38.513      40.027      38.513      34.295      28.246      11.648      8.6454    
  6.6402      5.4742      4.6468      3.9232      3.3433      2.9160      2.6240      2.4388      2.3328      2.2852    
  2.2852      2.3327      2.4388      2.6240      2.9160      3.3433      3.9232      4.6469      5.4742      6.6402    
  8.6454      11.648      15.377      19.215      22.383      24.176      24.176      22.383      19.215      15.377    
  7.0332      5.8989      5.1152      4.4144      3.7919      3.2838      2.8992      2.6265      2.4449      2.3328    
  2.2727      2.2539      2.2727      2.3327      2.4449      2.6265      2.8992      3.2839      3.7919      4.4144    
  5.1152      5.8988      7.0332      8.6454      10.571      12.434      13.789      14.285      13.789      12.434    
  10.571      8.6454      5.2856      4.7021      4.1341      3.6251      3.2021      2.8733      2.6317      2.4632    
  2.3520      2.2852      2.2539      2.2539      2.2852      2.3520      2.4632      2.6317      2.8733      3.2021    
  3.6251      4.1341      4.7021      5.2856      5.8988      6.6402      7.4592      8.1818      8.6079      8.6079    
  8.1818      7.4592      6.6402      5.8989      4.2615      3.8299      3.4382      3.1064      2.8416      2.6404    
  2.4936      2.3910      2.3235      2.2852      2.2727      2.2852      2.3235      2.3910      2.4936      2.6404    
  2.8416      3.1064      3.4382      3.8299      4.2615      4.7021      5.1152      5.4742      5.7820      6.0035    
  6.0853      6.0035      5.7821      5.4742      5.1152      4.7021      3.5272      3.2478      3.0062      2.8088    
  2.6543      2.5374      2.4515      2.3910      2.3520      2.3327      2.3327      2.3520      2.3910      2.4515    
  2.5374      2.6543      2.8088      3.0062      3.2478      3.5272      3.8299      4.1341      4.4144      4.6469    
  4.8122      4.8979      4.8979      4.8122      4.6469      4.4144      4.1341      3.8299      3.0684      2.9108    
  2.7800      2.6764      2.5970      2.5374      2.4936      2.4631      2.4449      2.4388      2.4449      2.4632    
  2.4936      2.5374      2.5970      2.6764      2.7800      2.9108      3.0684      3.2478      3.4382      3.6251    
  3.7919      3.9232      4.0071      4.0359      4.0071      3.9232      3.7919      3.6251      3.4382      3.2478    
  2.8274      2.7604      2.7106      2.6764      2.6542      2.6404      2.6317      2.6265      2.6240      2.6240    
  2.6265      2.6317      2.6404      2.6543      2.6764      2.7106      2.7603      2.8274      2.9108      3.0062    
  3.1064      3.2021      3.2839      3.3433      3.3746      3.3746      3.3433      3.2838      3.2021      3.1064    
  3.0062      2.9108      2.7534      2.7603      2.7800      2.8087      2.8416      2.8733      2.8992      2.9160    
  2.9219      2.9160      2.8992      2.8733      2.8416      2.8088      2.7800      2.7603      2.7534      2.7603    
  2.7800      2.8088      2.8416      2.8733      2.8992      2.9160      2.9219      2.9160      2.8992      2.8733    
  2.8416      2.8087      2.7800      2.7603      2.8274      2.9108      3.0062      3.1064      3.2021      3.2838    
  3.3433      3.3746      3.3746      3.3433      3.2839      3.2021      3.1064      3.0062      2.9108      2.8274    
  2.7603      2.7106      2.6764      2.6543      2.6404      2.6317      2.6265      2.6240      2.6240      2.6265    
  2.6317      2.6404      2.6542      2.6764      2.7106      2.7604      3.0684      3.2478      3.4382      3.6251    
  3.7919      3.9232      4.0071      4.0359      4.0071      3.9232      3.7919      3.6251      3.4382      3.2478    
  3.0684      2.9108      2.7800      2.6764      2.5970      2.5374      2.4936      2.4632      2.4449      2.4388    
  2.4449      2.4631      2.4936      2.5374      2.5970      2.6764      2.7800      2.9108      3.5272      3.8299    
  4.1341      4.4144      4.6469      4.8122      4.8979      4.8979      4.8122      4.6469      4.4144      4.1341    
  3.8299      3.5272      3.2478      3.0062      2.8088      2.6543      2.5374      2.4515      2.3910      2.3520    
  2.3327      2.3327      2.3520      2.3910      2.4515      2.5374      2.6543      2.8088      3.0062      3.2478    
  4.2615      4.7021      5.1152      5.4742      5.7821      6.0035      6.0853      6.0035      5.7820      5.4742    
  5.1152      4.7021      4.2615      3.8299      3.4382      3.1064      2.8416      2.6404      2.4936      2.3910    
  2.3235      2.2852      2.2727      2.2852      2.3235      2.3910      2.4936      2.6404      2.8416      3.1064    
  3.4382      3.8299      5.2856      5.8989      6.6402      7.4592      8.1818      8.6079      8.6079      8.1818    
  7.4592      6.6402      5.8988      5.2856      4.7021      4.1341      3.6251      3.2021      2.8733      2.6317    
  2.4632      2.3520      2.2852      2.2539      2.2539      2.2852      2.3520      2.4632      2.6317      2.8733    
  3.2021      3.6251      4.1341      4.7021      7.0332      8.6454      10.571      12.434      13.789      14.285    
  13.789      12.434      10.571      8.6454      7.0332      5.8988      5.1152      4.4144      3.7919      3.2839    
  2.8992      2.6265      2.4449      2.3327      2.2727      2.2539      2.2727      2.3328      2.4449      2.6265    
  2.8992      3.2838      3.7919      4.4144      5.1152      5.8989      11.648      15.377      19.215      22.383    
  24.176      24.176      22.383      19.215      15.377      11.648      8.6454      6.6402      5.4742      4.6469    
  3.9232      3.3433      2.9160      2.6240      2.4388      2.3327      2.2852      2.2852      2.3328      2.4388    
  2.6240      2.9160      3.3433      3.9232      4.6468      5.4742      6.6402      8.6454      21.551      28.246    
  34.295      38.513      40.027      38.513      34.295      28.246      21.551      15.377      10.571      7.4592    
  5.7820      4.8122      4.0071      3.3746      2.9219      2.6240      2.4449      2.3520      2.3235      2.3520    
  2.4449      2.6240      2.9219      3.3746      4.0071      4.8122      5.7820      7.4592      10.571      15.377    
  38.520      48.492      56.426      60.827      60.827      56.426      48.492      38.520      28.246      19.215    
  12.434      8.1818      6.0035      4.8979      4.0359      3.3746      2.9160      2.6265      2.4631      2.3910    
  2.3910      2.4632      2.6265      2.9160      3.3746      4.0359      4.8979      6.0034      8.1818      12.434    
  19.215      28.246      63.147      75.983      84.776      87.906      84.776      75.983      63.147      48.492    
  34.295      22.383      13.789      8.6079      6.0853      4.8979      4.0071      3.3433      2.8992      2.6317    
  2.4936      2.4515      2.4936      2.6317      2.8992      3.3433      4.0071      4.8979      6.0852      8.6078    
  13.789      22.383      34.295      48.492      94.482      108.98      116.96      116.96      108.98      94.482    
  75.983      56.426      38.513      24.176      14.285      8.6079      6.0035      4.8122      3.9232      3.2838    
  2.8733      2.6404      2.5374      2.5374      2.6404      2.8733      3.2838      3.9232      4.8122      6.0034    
  8.6078      14.285      24.176      38.513      56.426      75.983      129.92      144.17      149.22      144.16    
  129.92      108.98      84.776      60.827      40.027      24.176      13.789      8.1818      5.7821      4.6469    
  3.7919      3.2021      2.8416      2.6542      2.5970      2.6543      2.8416      3.2021      3.7919      4.6468    
  5.7820      8.1818      13.789      24.176      40.027      60.827      84.776      108.98      165.38      177.02    
  177.02      165.38      144.16      116.96      87.906      60.827      38.513      22.383      12.434      7.4592    
  5.4742      4.4144      3.6251      3.1064      2.8087      2.6764      2.6764      2.8088      3.1064      3.6251    
  4.4144      5.4742      7.4592      12.434      22.383      38.513      60.827      87.906      116.96      144.17    
  195.90      202.60      195.90      177.02      149.22      116.96      84.776      56.426      34.295      19.215    
  10.571      6.6402      5.1152      4.1341      3.4382      3.0062      2.7800      2.7106      2.7800      3.0062    
  3.4382      4.1341      5.1152      6.6402      10.571      19.215      34.295      56.426      84.776      116.96    
  149.22      177.02      216.63      216.63      202.60      177.02      144.17      108.98      75.983      48.492    
  28.246      15.377      8.6454      5.8989      4.7021      3.8299      3.2478      2.9108      2.7603      2.7604    
  2.9108      3.2478      3.8299      4.7021      5.8989      8.6454      15.377      28.246      48.492      75.983    
  108.98      144.17      177.02      202.60      216.63      202.60      177.02      144.17      108.98      75.983    
  48.492      28.246      15.377      8.6454      5.8989      4.7021      3.8299      3.2478      2.9108      2.7604    
  2.7603      2.9108      3.2478      3.8299      4.7021      5.8989      8.6454      15.377      28.246      48.492    
  75.983      108.98      144.17      177.02      202.60      216.63      202.60      183.03      154.25      120.89    
  87.646      58.377      35.511      19.889      10.884      6.7555      5.1689      4.1763      3.4693      3.0294    
  2.7987      2.7279      2.7987      3.0294      3.4693      4.1763      5.1689      6.7555      10.884      19.889    
  35.511      58.377      87.646      120.89      154.25      183.03      202.60      209.54      177.02      154.25    
  125.10      94.048      65.141      41.307      24.012      13.249      7.7866      5.5970      4.5063      3.6936    
  3.1566      2.8473      2.7096      2.7096      2.8473      3.1566      3.6936      4.5063      5.5970      7.7866    
  13.249      24.012      41.307      65.141      94.048      125.10      154.25      177.02      189.54      189.54    
  144.17      120.89      94.048      67.545      44.524      26.903      15.231      8.8069      6.0095      4.7921    
  3.9021      3.2822      2.9011      2.7025      2.6417      2.7025      2.9011      3.2821      3.9021      4.7921    
  6.0095      8.8069      15.231      26.903      44.524      67.545      94.048      120.89      144.16      160.05    
  165.69      160.05      108.98      87.646      65.141      44.524      27.943      16.362      9.5618      6.3619    
  5.0110      4.0763      3.3947      2.9537      2.7025      2.5913      2.5913      2.7025      2.9537      3.3947    
  4.0763      5.0110      6.3619      9.5618      16.362      27.943      44.524      65.141      87.646      108.98    
  125.74      134.99      134.99      125.74      75.983      58.377      41.307      26.903      16.362      9.8404    
  6.5692      5.1477      4.2011      3.4836      2.9990      2.7059      2.5543      2.5080      2.5543      2.7059    
  2.9990      3.4836      4.2011      5.1477      6.5692      9.8403      16.362      26.903      41.307      58.377    
  75.983      91.426      102.03      105.81      102.03      91.426      48.492      35.511      24.012      15.231    
  9.5618      6.5692      5.1943      4.2661      3.5405      3.0321      2.7098      2.5278      2.4474      2.4474    
  2.5278      2.7098      3.0321      3.5405      4.2661      5.1943      6.5692      9.5618      15.231      24.012    
  35.511      48.492      61.061      71.064      76.617      76.617      71.064      61.061      28.246      19.889    
  13.249      8.8069      6.3619      5.1477      4.2661      3.5600      3.0495      2.7125      2.5103      2.4057    
  2.3737      2.4057      2.5103      2.7125      3.0495      3.5600      4.2661      5.1477      6.3619      8.8069    
  13.249      19.889      28.246      37.210      45.269      50.881      52.894      50.881      45.269      37.210    
  15.377      10.884      7.7866      6.0095      5.0110      4.2011      3.5405      3.0495      2.7135      2.5015    
  2.3810      2.3274      2.3274      2.3810      2.5015      2.7135      3.0495      3.5405      4.2011      5.0110    
  6.0095      7.7866      10.884      15.377      20.817      26.333      30.850      33.396      33.396      30.850    
  26.333      20.817      8.6454      6.7555      5.5970      4.7921      4.0763      3.4836      3.0321      2.7125    
  2.5015      2.3728      2.3049      2.2838      2.3049      2.3728      2.5015      2.7125      3.0321      3.4836    
  4.0763      4.7921      5.5970      6.7555      8.6454      11.301      14.392      17.325      19.434      20.203    
  19.434      17.325      14.392      11.301      5.8989      5.1689      4.5063      3.9021      3.3947      2.9990    
  2.7098      2.5103      2.3810      2.3049      2.2699      2.2699      2.3049      2.3810      2.5103      2.7098    
  2.9990      3.3947      3.9021      4.5063      5.1689      5.8988      6.9039      8.2357      9.7086      10.990    
  11.737      11.737      10.990      9.7087      8.2357      6.9039      4.7021      4.1763      3.6936      3.2822    
  2.9537      2.7059      2.5278      2.4057      2.3274      2.2838      2.2699      2.2838      2.3273      2.4057    
  2.5278      2.7059      2.9537      3.2822      3.6936      4.1763      4.7021      5.2303      5.7536      6.3260    
  6.8938      7.3225      7.4829      7.3226      6.8938      6.3260      5.7536      5.2304      3.8299      3.4693    
  3.1566      2.9011      2.7025      2.5543      2.4474      2.3737      2.3274      2.3049      2.3049      2.3273    
  2.3737      2.4474      2.5542      2.7025      2.9011      3.1566      3.4693      3.8299      4.2178      4.6040    
  4.9565      5.2460      5.4572      5.5734      5.5734      5.4572      5.2460      4.9565      4.6040      4.2178    
  3.2478      3.0294      2.8473      2.7025      2.5913      2.5080      2.4474      2.4057      2.3810      2.3728    
  2.3810      2.4057      2.4474      2.5080      2.5913      2.7025      2.8473      3.0294      3.2478      3.4948    
  3.7558      4.0107      4.2371      4.4147      4.5278      4.5666      4.5278      4.4147      4.2371      4.0107    
  3.7559      3.4948      2.9108      2.7987      2.7096      2.6417      2.5913      2.5543      2.5278      2.5103    
  2.5015      2.5015      2.5103      2.5278      2.5542      2.5913      2.6417      2.7096      2.7987      2.9108    
  3.0444      3.1935      3.3478      3.4941      3.6187      3.7093      3.7570      3.7570      3.7093      3.6187    
  3.4941      3.3478      3.1935      3.0444      2.7604      2.7279      2.7096      2.7025      2.7025      2.7059    
  2.7098      2.7125      2.7135      2.7125      2.7098      2.7059      2.7025      2.7025      2.7096      2.7279    
  2.7603      2.8080      2.8691      2.9390      3.0109      3.0772      3.1305      3.1649      3.1768      3.1649    
  3.1304      3.0772      3.0109      2.9390      2.8691      2.8080      2.7603      2.7987      2.8473      2.9011    
  2.9537      2.9990      3.0321      3.0495      3.0495      3.0321      2.9990      2.9537      2.9011      2.8473    
  2.7987      2.7603      2.7355      2.7246      2.7257      2.7351      2.7486      2.7621      2.7726      2.7782    
  2.7782      2.7725      2.7620      2.7486      2.7351      2.7257      2.7246      2.7355      2.9108      3.0294    
  3.1566      3.2821      3.3947      3.4836      3.5405      3.5600      3.5405      3.4836      3.3947      3.2822    
  3.1566      3.0294      2.9108      2.8080      2.7246      2.6604      2.6129      2.5785      2.5539      2.5371    
  2.5270      2.5237      2.5270      2.5371      2.5539      2.5785      2.6129      2.6604      2.7246      2.8080    
  3.2478      3.4693      3.6936      3.9021      4.0763      4.2011      4.2661      4.2661      4.2011      4.0763    
  3.9021      3.6936      3.4693      3.2478      3.0444      2.8691      2.7257      2.6129      2.5266      2.4621    
  2.4156      2.3850      2.3697      2.3697      2.3850      2.4155      2.4620      2.5266      2.6129      2.7257    
  2.8691      3.0444      3.8299      4.1763      4.5063      4.7921      5.0110      5.1477      5.1943      5.1477    
  5.0110      4.7921      4.5063      4.1763      3.8299      3.4948      3.1935      2.9390      2.7351      2.5785    
  2.4621      2.3785      2.3220      2.2892      2.2783      2.2892      2.3220      2.3785      2.4621      2.5785    
  2.7352      2.9390      3.1935      3.4948      4.7021      5.1689      5.5970      6.0095      6.3619      6.5692    
  6.5692      6.3619      6.0095      5.5970      5.1689      4.7021      4.2178      3.7558      3.3478      3.0109    
  2.7486      2.5539      2.4156      2.3220      2.2643      2.2368      2.2368      2.2643      2.3220      2.4156    
  2.5539      2.7486      3.0109      3.3478      3.7559      4.2178      5.8989      6.7555      7.7866      8.8069    
  9.5618      9.8403      9.5618      8.8069      7.7866      6.7555      5.8988      5.2303      4.6040      4.0107    
  3.4941      3.0772      2.7621      2.5371      2.3850      2.2892      2.2368      2.2202      2.2368      2.2892    
  2.3850      2.5371      2.7621      3.0772      3.4941      4.0107      4.6040      5.2304      8.6454      10.884    
  13.249      15.231      16.362      16.362      15.231      13.249      10.884      8.6454      6.9039      5.7536    
  4.9565      4.2371      3.6187      3.1305      2.7726      2.5270      2.3697      2.2783      2.2368      2.2368    
  2.2784      2.3697      2.5271      2.7726      3.1305      3.6187      4.2371      4.9565      5.7536      6.9039    
  15.377      19.889      24.012      26.903      27.943      26.903      24.012      19.889      15.377      11.301    
  8.2357      6.3260      5.2460      4.4147      3.7093      3.1649      2.7782      2.5237      2.3697      2.2892    
  2.2643      2.2892      2.3697      2.5237      2.7782      3.1649      3.7093      4.4147      5.2460      6.3260    
  8.2357      11.301      28.246      35.511      41.307      44.524      44.524      41.307      35.511      28.246    
  20.817      14.392      9.7086      6.8938      5.4572      4.5278      3.7570      3.1768      2.7782      2.5270    
  2.3850      2.3220      2.3220      2.3850      2.5271      2.7782      3.1768      3.7569      4.5277      5.4571    
  6.8937      9.7086      14.392      20.817      48.492      58.377      65.141      67.545      65.141      58.377    
  48.492      37.210      26.333      17.325      10.990      7.3225      5.5734      4.5666      3.7570      3.1649    
  2.7725      2.5371      2.4155      2.3785      2.4156      2.5371      2.7726      3.1649      3.7569      4.5665    
  5.5733      7.3225      10.990      17.325      26.333      37.210      75.983      87.646      94.048      94.048    
  87.646      75.983      61.061      45.269      30.850      19.434      11.737      7.4829      5.5734      4.5278    
  3.7093      3.1304      2.7620      2.5539      2.4620      2.4621      2.5539      2.7621      3.1305      3.7093    
  4.5277      5.5733      7.4828      11.737      19.434      30.850      45.269      61.061      108.98      120.89    
  125.10      120.89      108.98      91.426      71.064      50.881      33.396      20.203      11.737      7.3226    
  5.4572      4.4147      3.6187      3.0772      2.7486      2.5785      2.5266      2.5785      2.7486      3.0772    
  3.6187      4.4147      5.4571      7.3225      11.737      20.202      33.396      50.881      71.064      91.426    
  144.17      154.25      154.25      144.16      125.74      102.03      76.617      52.894      33.396      19.434    
  10.990      6.8938      5.2460      4.2371      3.4941      3.0109      2.7351      2.6129      2.6129      2.7352    
  3.0109      3.4941      4.2371      5.2460      6.8937      10.990      19.434      33.396      52.894      76.617    
  102.03      125.74      177.02      183.03      177.02      160.05      134.99      105.81      76.617      50.881    
  30.850      17.325      9.7087      6.3260      4.9565      4.0107      3.3478      2.9390      2.7257      2.6604    
  2.7257      2.9390      3.3478      4.0107      4.9565      6.3260      9.7086      17.325      30.850      50.881    
  76.617      105.81      134.99      160.05      202.60      202.60      189.54      165.69      134.99      102.03    
  71.064      45.269      26.333      14.392      8.2357      5.7536      4.6040      3.7559      3.1935      2.8691    
  2.7246      2.7246      2.8691      3.1935      3.7559      4.6040      5.7536      8.2357      14.392      26.333    
  45.269      71.064      102.03      134.99      165.69      189.54      216.63      209.54      189.54      160.05    
  125.74      91.426      61.061      37.210      20.817      11.301      6.9039      5.2304      4.2178      3.4948    
  3.0444      2.8080      2.7355      2.8080      3.0444      3.4948      4.2178      5.2304      6.9039      11.301    
  20.817      37.210      61.061      91.426      125.74      160.05      189.54      209.54      195.90      177.02    
  149.22      116.96      84.776      56.426      34.295      19.215      10.571      6.6402      5.1152      4.1341    
  3.4382      3.0062      2.7800      2.7106      2.7800      3.0062      3.4382      4.1341      5.1152      6.6402    
  10.571      19.215      34.295      56.426      84.776      116.96      149.22      177.02      195.90      202.60    
  177.02      154.25      125.10      94.048      65.141      41.307      24.012      13.249      7.7866      5.5970    
  4.5063      3.6936      3.1566      2.8473      2.7096      2.7096      2.8473      3.1566      3.6936      4.5063    
  5.5970      7.7866      13.249      24.012      41.307      65.141      94.048      125.10      154.25      177.02    
  189.54      189.54      149.22      125.10      97.325      69.917      46.113      27.872      15.750      9.0354    
  6.0922      4.8414      3.9399      3.3097      2.9216      2.7191      2.6571      2.7191      2.9215      3.3097    
  3.9399      4.8414      6.0922      9.0354      15.750      27.872      46.113      69.917      97.324      125.10    
  149.22      165.69      171.54      165.69      116.96      94.048      69.917      47.821      30.022      17.525    
  10.108      6.5691      5.1127      4.1560      3.4529      2.9959      2.7350      2.6194      2.6194      2.7350    
  2.9959      3.4529      4.1560      5.1127      6.5691      10.108      17.525      30.022      47.821      69.917    
  94.048      116.96      134.99      144.94      144.94      134.99      84.776      65.141      46.113      30.022    
  18.166      10.729      6.9240      5.3035      4.3236      3.5732      3.0630      2.7532      2.5927      2.5438    
  2.5927      2.7532      3.0630      3.5732      4.3235      5.3035      6.9240      10.729      18.166      30.022    
  46.113      65.141      84.776      102.03      113.89      118.12      113.89      102.03      56.426      41.307    
  27.872      17.525      10.729      7.0559      5.4050      4.4293      3.6599      3.1161      2.7698      2.5740    
  2.4875      2.4875      2.5740      2.7698      3.1161      3.6599      4.4292      5.4050      7.0559      10.729    
  17.525      27.872      41.307      56.426      71.064      82.727      89.208      89.208      82.727      71.064    
  34.295      24.012      15.750      10.108      6.9240      5.4050      4.4653      3.7051      3.1500      2.7821    
  2.5611      2.4469      2.4121      2.4469      2.5611      2.7821      3.1500      3.7051      4.4653      5.4050    
  6.9240      10.108      15.750      24.012      34.295      45.269      55.121      61.982      64.443      61.982    
  55.121      45.269      19.215      13.249      9.0354      6.5691      5.3035      4.4293      3.7051      3.1617    
  2.7885      2.5533      2.4202      2.3611      2.3611      2.4202      2.5533      2.7886      3.1617      3.7051    
  4.4293      5.3035      6.5691      9.0354      13.249      19.215      26.333      33.494      39.336      42.626    
  42.626      39.336      33.494      26.333      10.571      7.7866      6.0922      5.1127      4.3236      3.6599    
  3.1500      2.7885      2.5507      2.4068      2.3315      2.3083      2.3315      2.4068      2.5507      2.7886    
  3.1500      3.6599      4.3236      5.1127      6.0922      7.7866      10.571      14.392      18.755      22.848    
  25.773      26.836      25.773      22.848      18.755      14.392      6.6402      5.5970      4.8414      4.1560    
  3.5732      3.1161      2.7821      2.5533      2.4068      2.3217      2.2830      2.2830      2.3217      2.4068    
  2.5533      2.7821      3.1161      3.5733      4.1560      4.8414      5.5970      6.6402      8.2357      10.344    
  12.635      14.599      15.735      15.735      14.599      12.635      10.344      8.2357      5.1152      4.5063    
  3.9399      3.4529      3.0630      2.7698      2.5611      2.4202      2.3315      2.2830      2.2677      2.2830    
  2.3315      2.4202      2.5611      2.7698      3.0630      3.4529      3.9399      4.5063      5.1152      5.7536    
  6.5519      7.5245      8.5067      9.2458      9.5211      9.2458      8.5067      7.5245      6.5519      5.7536    
  4.1341      3.6936      3.3097      2.9959      2.7532      2.5740      2.4469      2.3611      2.3083      2.2830    
  2.2830      2.3082      2.3611      2.4469      2.5740      2.7532      2.9959      3.3097      3.6936      4.1341    
  4.6040      5.0672      5.4925      5.8922      6.2327      6.4339      6.4339      6.2328      5.8922      5.4925    
  5.0673      4.6040      3.4382      3.1566      2.9216      2.7350      2.5927      2.4875      2.4121      2.3611    
  2.3315      2.3217      2.3315      2.3611      2.4121      2.4874      2.5927      2.7350      2.9216      3.1566    