fcc Ni                                  
   4.00000000000000     
     0.500000    0.500000    0.000000
     0.000000    0.500000    0.500000
     0.500000    0.000000    0.500000
   Ni
     1
Direct
  0.000000  0.000000  0.000000
 
   32   32   32
 0.22398297408E+03 0.21663158713E+03 0.19590102177E+03 0.16537590810E+03 0.12991685478E+03
 0.94482073288E+02 0.63147227552E+02 0.38520454187E+02 0.21551112104E+02 0.11647654839E+02
 0.70332359515E+01 0.52856135170E+01 0.42615332136E+01 0.35271776487E+01 0.30684279246E+01
 0.28273744041E+01 0.27533584379E+01 0.28273744041E+01 0.30684279246E+01 0.35271776487E+01
 0.42615332136E+01 0.52856135170E+01 0.70332359515E+01 0.11647654839E+02 0.21551112104E+02
 0.38520454187E+02 0.63147227552E+02 0.94482073288E+02 0.12991685478E+03 0.16537590810E+03
 0.19590102177E+03 0.21663158713E+03 0.21663158713E+03 0.20259739284E+03 0.17701834129E+03
 0.14416504108E+03 0.10897983127E+03 0.75982781911E+02 0.48491976233E+02 0.28246279363E+02
 0.15376557205E+02 0.86454232785E+01 0.58988620968E+01 0.47020786124E+01 0.38298855982E+01
 0.32477642648E+01 0.29107779858E+01 0.27603503552E+01 0.27603466507E+01 0.29107685811E+01
 0.32477536597E+01 0.38298794213E+01 0.47020815037E+01 0.58988758789E+01 0.86454460678E+01
 0.15376583799E+02 0.28246302807E+02 0.48491990049E+02 0.75982782263E+02 0.10897981832E+03
 0.14416501906E+03 0.17701831726E+03 0.20259737446E+03 0.21663158028E+03 0.19590102177E+03
 0.17701834129E+03 0.14922109673E+03 0.11695689129E+03 0.84776249148E+02 0.56426282065E+02
 0.34294538104E+02 0.19214831113E+02 0.10571268830E+02 0.66401748691E+01 0.51151936054E+01
 0.41340597415E+01 0.34382214031E+01 0.30062499030E+01 0.27800160370E+01 0.27106458930E+01
 0.27800037355E+01 0.30062310834E+01 0.34382055021E+01 0.41340563326E+01 0.51152087261E+01
 0.66402084909E+01 0.10571314390E+02 0.19214877323E+02 0.34294572485E+02 0.56426295034E+02
 0.84776237283E+02 0.11695685867E+03 0.14922105384E+03 0.17701830182E+03 0.19590099829E+03
 0.20259737446E+03 0.16537590810E+03 0.14416504108E+03 0.11695689129E+03 0.87905649010E+02
 0.60826672963E+02 0.38513359024E+02 0.22383261655E+02 0.12434025349E+02 0.74591883030E+01
 0.54741958800E+01 0.44144096676E+01 0.36250739530E+01 0.31064457339E+01 0.28087634753E+01
 0.26764367583E+01 0.26764286378E+01 0.28087429002E+01 0.31064226696E+01 0.36250608494E+01
 0.44144167551E+01 0.54742271111E+01 0.74592393890E+01 0.12434084638E+02 0.22383313627E+02
 0.38513389272E+02 0.60826673007E+02 0.87905619310E+02 0.11695684140E+03 0.14416498683E+03
 0.16537586668E+03 0.17701830182E+03 0.17701831726E+03 0.12991685478E+03 0.10897983127E+03
 0.84776249148E+02 0.60826672963E+02 0.40027162768E+02 0.24176027090E+02 0.13788955452E+02
 0.81817532677E+01 0.57820075940E+01 0.46468495049E+01 0.37918682102E+01 0.32021438861E+01
 0.28416068878E+01 0.26542655459E+01 0.25970123843E+01 0.26542491672E+01 0.28415818259E+01
 0.32021226877E+01 0.37918635787E+01 0.46468694022E+01 0.57820518755E+01 0.81818130762E+01
 0.13789015662E+02 0.24176071045E+02 0.40027177756E+02 0.60826654586E+02 0.84776203089E+02
 0.10897977180E+03 0.12991680042E+03 0.14416498683E+03 0.14922105384E+03 0.14416501906E+03
 0.94482073288E+02 0.75982781911E+02 0.56426282065E+02 0.38513359024E+02 0.24176027090E+02
 0.14284836471E+02 0.86078084108E+01 0.60034394541E+01 0.48122084819E+01 0.39232238347E+01
 0.32838478414E+01 0.28732808487E+01 0.26403754349E+01 0.25374031697E+01 0.25373942487E+01
 0.26403526990E+01 0.28732548943E+01 0.32838318999E+01 0.39232287660E+01 0.48122384616E+01
 0.60034898996E+01 0.86078669402E+01 0.14284886647E+02 0.24176053750E+02 0.38513353405E+02
 0.56426245005E+02 0.75982723979E+02 0.94482011735E+02 0.10897977180E+03 0.11695684140E+03
 0.11695685867E+03 0.10897981832E+03 0.63147227552E+02 0.48491976233E+02 0.34294538104E+02
 0.22383261655E+02 0.13788955452E+02 0.86078084108E+01 0.60852228103E+01 0.48979029805E+01
 0.40070632391E+01 0.33433034937E+01 0.28992049802E+01 0.26317410917E+01 0.24936450162E+01
 0.24515340467E+01 0.24936275108E+01 0.26317136451E+01 0.28991799317E+01 0.33432933558E+01
 0.40070758993E+01 0.48979384133E+01 0.60852724976E+01 0.86078577589E+01 0.13788988450E+02
 0.22383266250E+02 0.34294510473E+02 0.48491922483E+02 0.63147162211E+02 0.75982723979E+02
 0.84776203089E+02 0.87905619310E+02 0.84776237283E+02 0.75982782263E+02 0.38520454187E+02
 0.28246279363E+02 0.19214831113E+02 0.12434025349E+02 0.81817532677E+01 0.60034394541E+01
 0.48979029805E+01 0.40358553462E+01 0.33745676987E+01 0.29160473553E+01 0.26265407849E+01
 0.24631731230E+01 0.23909664668E+01 0.23909567342E+01 0.24631478375E+01 0.26265102500E+01
 0.29160244633E+01 0.33745630966E+01 0.40358732740E+01 0.48979392807E+01 0.60034825094E+01
 0.81817876346E+01 0.12434036906E+02 0.19214812010E+02 0.28246231081E+02 0.38520387614E+02
 0.48491922483E+02 0.56426245005E+02 0.60826654586E+02 0.60826673007E+02 0.56426295034E+02
 0.48491990049E+02 0.21551112104E+02 0.15376557205E+02 0.10571268830E+02 0.74591883030E+01
 0.57820075940E+01 0.48122084819E+01 0.40070632391E+01 0.33745676987E+01 0.29218698209E+01
 0.26240243975E+01 0.24449378068E+01 0.23519763955E+01 0.23234849507E+01 0.23519576015E+01
 0.24449073394E+01 0.26239938883E+01 0.29218511072E+01 0.33745683415E+01 0.40070834555E+01
 0.48122406242E+01 0.57820384250E+01 0.74592033723E+01 0.10571257501E+02 0.15376516630E+02
 0.21551048777E+02 0.28246231081E+02 0.34294510473E+02 0.38513353405E+02 0.40027177756E+02
 0.38513389272E+02 0.34294572485E+02 0.28246302807E+02 0.11647654839E+02 0.86454232785E+01
 0.66401748691E+01 0.54741958800E+01 0.46468495049E+01 0.39232238347E+01 0.33433034937E+01
 0.29160473553E+01 0.26240243975E+01 0.24388329662E+01 0.23327707366E+01 0.22851647125E+01
 0.22851555881E+01 0.23327466296E+01 0.24388024790E+01 0.26239983084E+01 0.29160345975E+01
 0.33433077094E+01 0.39232417380E+01 0.46468716972E+01 0.54742099013E+01 0.66401695019E+01
 0.86453926685E+01 0.11647601002E+02 0.15376516630E+02 0.19214812010E+02 0.22383266250E+02
 0.24176053750E+02 0.24176071045E+02 0.22383313627E+02 0.19214877323E+02 0.15376583799E+02
 0.70332359515E+01 0.58988620968E+01 0.51151936054E+01 0.44144096676E+01 0.37918682102E+01
 0.32838478414E+01 0.28992049802E+01 0.26265407849E+01 0.24449378068E+01 0.23327707366E+01
 0.22727250074E+01 0.22539321412E+01 0.22727111397E+01 0.23327476612E+01 0.24449131333E+01
 0.26265222548E+01 0.28991975405E+01 0.32838516606E+01 0.37918783732E+01 0.44144177099E+01
 0.51151904247E+01 0.58988412592E+01 0.70331962958E+01 0.86453926685E+01 0.10571257501E+02
 0.12434036906E+02 0.13788988450E+02 0.14284886647E+02 0.13789015662E+02 0.12434084638E+02
 0.10571314390E+02 0.86454460678E+01 0.52856135170E+01 0.47020786124E+01 0.41340597415E+01
 0.36250739530E+01 0.32021438861E+01 0.28732808487E+01 0.26317410917E+01 0.24631731230E+01
 0.23519763955E+01 0.22851647125E+01 0.22539321412E+01 0.22539276180E+01 0.22851525363E+01
 0.23519602323E+01 0.24631575531E+01 0.26317298909E+01 0.28732755253E+01 0.32021430133E+01
 0.36250735662E+01 0.41340546958E+01 0.47020644741E+01 0.52855883413E+01 0.58988412592E+01
 0.66401695019E+01 0.74592033723E+01 0.81817876346E+01 0.86078577589E+01 0.86078669402E+01
 0.81818130762E+01 0.74592393890E+01 0.66402084909E+01 0.58988758789E+01 0.42615332136E+01
 0.38298855982E+01 0.34382214031E+01 0.31064457339E+01 0.28416068878E+01 0.26403754349E+01
 0.24936450162E+01 0.23909664668E+01 0.23234849507E+01 0.22851555881E+01 0.22727111397E+01
 0.22851525363E+01 0.23234795160E+01 0.23909597301E+01 0.24936380502E+01 0.26403688787E+01
 0.28416006781E+01 0.31064391025E+01 0.34382131634E+01 0.38298746290E+01 0.42615189872E+01
 0.47020644741E+01 0.51151904247E+01 0.54742099013E+01 0.57820384250E+01 0.60034825094E+01
 0.60852724976E+01 0.60034898996E+01 0.57820518755E+01 0.54742271111E+01 0.51152087261E+01
 0.47020815037E+01 0.35271776487E+01 0.32477642648E+01 0.30062499030E+01 0.28087634753E+01
 0.26542655459E+01 0.25374031697E+01 0.24515340467E+01 0.23909567342E+01 0.23519576015E+01
 0.23327466296E+01 0.23327476612E+01 0.23519602323E+01 0.23909597301E+01 0.24515358286E+01
 0.25374023600E+01 0.26542614538E+01 0.28087563591E+01 0.30062409167E+01 0.32477551141E+01
 0.35271700645E+01 0.38298746290E+01 0.41340546958E+01 0.44144177099E+01 0.46468716972E+01
 0.48122406242E+01 0.48979392807E+01 0.48979384133E+01 0.48122384616E+01 0.46468694022E+01
 0.44144167551E+01 0.41340563326E+01 0.38298794213E+01 0.30684279246E+01 0.29107779858E+01
 0.27800160370E+01 0.26764367583E+01 0.25970123843E+01 0.25373942487E+01 0.24936275108E+01
 0.24631478375E+01 0.24449073394E+01 0.24388024790E+01 0.24449131333E+01 0.24631575531E+01
 0.24936380502E+01 0.25374023600E+01 0.25970157908E+01 0.26764349563E+01 0.27800104868E+01
 0.29107716197E+01 0.30684241364E+01 0.32477551141E+01 0.34382131634E+01 0.36250735662E+01
 0.37918783732E+01 0.39232417380E+01 0.40070834555E+01 0.40358732740E+01 0.40070758993E+01
 0.39232287660E+01 0.37918635787E+01 0.36250608494E+01 0.34382055021E+01 0.32477536597E+01
 0.28273744041E+01 0.27603503552E+01 0.27106458930E+01 0.26764286378E+01 0.26542491672E+01
 0.26403526990E+01 0.26317136451E+01 0.26265102500E+01 0.26239938883E+01 0.26239983084E+01
 0.26265222548E+01 0.26317298909E+01 0.26403688787E+01 0.26542614538E+01 0.26764349563E+01
 0.27106465827E+01 0.27603479987E+01 0.28273728727E+01 0.29107716197E+01 0.30062409167E+01
 0.31064391025E+01 0.32021430133E+01 0.32838516606E+01 0.33433077094E+01 0.33745683415E+01
 0.33745630966E+01 0.33432933558E+01 0.32838318999E+01 0.32021226877E+01 0.31064226696E+01
 0.30062310834E+01 0.29107685811E+01 0.27533584379E+01 0.27603466507E+01 0.27800037355E+01
 0.28087429002E+01 0.28415818259E+01 0.28732548943E+01 0.28991799317E+01 0.29160244633E+01
 0.29218511072E+01 0.29160345975E+01 0.28991975405E+01 0.28732755253E+01 0.28416006781E+01
 0.28087563591E+01 0.27800104868E+01 0.27603479987E+01 0.27533577287E+01 0.27603479987E+01
 0.27800104868E+01 0.28087563591E+01 0.28416006781E+01 0.28732755253E+01 0.28991975405E+01
 0.29160345975E+01 0.29218511072E+01 0.29160244633E+01 0.28991799317E+01 0.28732548943E+01
 0.28415818259E+01 0.28087429002E+01 0.27800037355E+01 0.27603466507E+01 0.28273744041E+01
 0.29107685811E+01 0.30062310834E+01 0.31064226696E+01 0.32021226877E+01 0.32838318999E+01
 0.33432933558E+01 0.33745630966E+01 0.33745683415E+01 0.33433077094E+01 0.32838516606E+01
 0.32021430133E+01 0.31064391025E+01 0.30062409167E+01 0.29107716197E+01 0.28273728727E+01
 0.27603479987E+01 0.27106465827E+01 0.26764349563E+01 0.26542614538E+01 0.26403688787E+01
 0.26317298909E+01 0.26265222548E+01 0.26239983084E+01 0.26239938883E+01 0.26265102500E+01
 0.26317136451E+01 0.26403526990E+01 0.26542491672E+01 0.26764286378E+01 0.27106458930E+01
 0.27603503552E+01 0.30684279246E+01 0.32477536597E+01 0.34382055021E+01 0.36250608494E+01
 0.37918635787E+01 0.39232287660E+01 0.40070758993E+01 0.40358732740E+01 0.40070834555E+01
 0.39232417380E+01 0.37918783732E+01 0.36250735662E+01 0.34382131634E+01 0.32477551141E+01
 0.30684241364E+01 0.29107716197E+01 0.27800104868E+01 0.26764349563E+01 0.25970157908E+01
 0.25374023600E+01 0.24936380502E+01 0.24631575531E+01 0.24449131333E+01 0.24388024790E+01
 0.24449073394E+01 0.24631478375E+01 0.24936275108E+01 0.25373942487E+01 0.25970123843E+01
 0.26764367583E+01 0.27800160370E+01 0.29107779858E+01 0.35271776487E+01 0.38298794213E+01
 0.41340563326E+01 0.44144167551E+01 0.46468694022E+01 0.48122384616E+01 0.48979384133E+01
 0.48979392807E+01 0.48122406242E+01 0.46468716972E+01 0.44144177099E+01 0.41340546958E+01
 0.38298746290E+01 0.35271700645E+01 0.32477551141E+01 0.30062409167E+01 0.28087563591E+01
 0.26542614538E+01 0.25374023600E+01 0.24515358286E+01 0.23909597301E+01 0.23519602323E+01
 0.23327476612E+01 0.23327466296E+01 0.23519576015E+01 0.23909567342E+01 0.24515340467E+01
 0.25374031697E+01 0.26542655459E+01 0.28087634753E+01 0.30062499030E+01 0.32477642648E+01
 0.42615332136E+01 0.47020815037E+01 0.51152087261E+01 0.54742271111E+01 0.57820518755E+01
 0.60034898996E+01 0.60852724976E+01 0.60034825094E+01 0.57820384250E+01 0.54742099013E+01
 0.51151904247E+01 0.47020644741E+01 0.42615189872E+01 0.38298746290E+01 0.34382131634E+01
 0.31064391025E+01 0.28416006781E+01 0.26403688787E+01 0.24936380502E+01 0.23909597301E+01
 0.23234795160E+01 0.22851525363E+01 0.22727111397E+01 0.22851555881E+01 0.23234849507E+01
 0.23909664668E+01 0.24936450162E+01 0.26403754349E+01 0.28416068878E+01 0.31064457339E+01
 0.34382214031E+01 0.38298855982E+01 0.52856135170E+01 0.58988758789E+01 0.66402084909E+01
 0.74592393890E+01 0.81818130762E+01 0.86078669402E+01 0.86078577589E+01 0.81817876346E+01
 0.74592033723E+01 0.66401695019E+01 0.58988412592E+01 0.52855883413E+01 0.47020644741E+01
 0.41340546958E+01 0.36250735662E+01 0.32021430133E+01 0.28732755253E+01 0.26317298909E+01
 0.24631575531E+01 0.23519602323E+01 0.22851525363E+01 0.22539276180E+01 0.22539321412E+01
 0.22851647125E+01 0.23519763955E+01 0.24631731230E+01 0.26317410917E+01 0.28732808487E+01
 0.32021438861E+01 0.36250739530E+01 0.41340597415E+01 0.47020786124E+01 0.70332359515E+01
 0.86454460678E+01 0.10571314390E+02 0.12434084638E+02 0.13789015662E+02 0.14284886647E+02
 0.13788988450E+02 0.12434036906E+02 0.10571257501E+02 0.86453926685E+01 0.70331962958E+01
 0.58988412592E+01 0.51151904247E+01 0.44144177099E+01 0.37918783732E+01 0.32838516606E+01
 0.28991975405E+01 0.26265222548E+01 0.24449131333E+01 0.23327476612E+01 0.22727111397E+01
 0.22539321412E+01 0.22727250074E+01 0.23327707366E+01 0.24449378068E+01 0.26265407849E+01
 0.28992049802E+01 0.32838478414E+01 0.37918682102E+01 0.44144096676E+01 0.51151936054E+01
 0.58988620968E+01 0.11647654839E+02 0.15376583799E+02 0.19214877323E+02 0.22383313627E+02
 0.24176071045E+02 0.24176053750E+02 0.22383266250E+02 0.19214812010E+02 0.15376516630E+02
 0.11647601002E+02 0.86453926685E+01 0.66401695019E+01 0.54742099013E+01 0.46468716972E+01
 0.39232417380E+01 0.33433077094E+01 0.29160345975E+01 0.26239983084E+01 0.24388024790E+01
 0.23327466296E+01 0.22851555881E+01 0.22851647125E+01 0.23327707366E+01 0.24388329662E+01
 0.26240243975E+01 0.29160473553E+01 0.33433034937E+01 0.39232238347E+01 0.46468495049E+01
 0.54741958800E+01 0.66401748691E+01 0.86454232785E+01 0.21551112104E+02 0.28246302807E+02
 0.34294572485E+02 0.38513389272E+02 0.40027177756E+02 0.38513353405E+02 0.34294510473E+02
 0.28246231081E+02 0.21551048777E+02 0.15376516630E+02 0.10571257501E+02 0.74592033723E+01
 0.57820384250E+01 0.48122406242E+01 0.40070834555E+01 0.33745683415E+01 0.29218511072E+01
 0.26239938883E+01 0.24449073394E+01 0.23519576015E+01 0.23234849507E+01 0.23519763955E+01
 0.24449378068E+01 0.26240243975E+01 0.29218698209E+01 0.33745676987E+01 0.40070632391E+01
 0.48122084819E+01 0.57820075940E+01 0.74591883030E+01 0.10571268830E+02 0.15376557205E+02
 0.38520454187E+02 0.48491990049E+02 0.56426295034E+02 0.60826673007E+02 0.60826654586E+02
 0.56426245005E+02 0.48491922483E+02 0.38520387614E+02 0.28246231081E+02 0.19214812010E+02
 0.12434036906E+02 0.81817876346E+01 0.60034825094E+01 0.48979392807E+01 0.40358732740E+01
 0.33745630966E+01 0.29160244633E+01 0.26265102500E+01 0.24631478375E+01 0.23909567342E+01
 0.23909664668E+01 0.24631731230E+01 0.26265407849E+01 0.29160473553E+01 0.33745676987E+01
 0.40358553462E+01 0.48979029805E+01 0.60034394541E+01 0.81817532677E+01 0.12434025349E+02
 0.19214831113E+02 0.28246279363E+02 0.63147227552E+02 0.75982782263E+02 0.84776237283E+02
 0.87905619310E+02 0.84776203089E+02 0.75982723979E+02 0.63147162211E+02 0.48491922483E+02
 0.34294510473E+02 0.22383266250E+02 0.13788988450E+02 0.86078577589E+01 0.60852724976E+01
 0.48979384133E+01 0.40070758993E+01 0.33432933558E+01 0.28991799317E+01 0.26317136451E+01
 0.24936275108E+01 0.24515340467E+01 0.24936450162E+01 0.26317410917E+01 0.28992049802E+01
 0.33433034937E+01 0.40070632391E+01 0.48979029805E+01 0.60852228103E+01 0.86078084108E+01
 0.13788955452E+02 0.22383261655E+02 0.34294538104E+02 0.48491976233E+02 0.94482073288E+02
 0.10897981832E+03 0.11695685867E+03 0.11695684140E+03 0.10897977180E+03 0.94482011735E+02
 0.75982723979E+02 0.56426245005E+02 0.38513353405E+02 0.24176053750E+02 0.14284886647E+02
 0.86078669402E+01 0.60034898996E+01 0.48122384616E+01 0.39232287660E+01 0.32838318999E+01
 0.28732548943E+01 0.26403526990E+01 0.25373942487E+01 0.25374031697E+01 0.26403754349E+01
 0.28732808487E+01 0.32838478414E+01 0.39232238347E+01 0.48122084819E+01 0.60034394541E+01
 0.86078084108E+01 0.14284836471E+02 0.24176027090E+02 0.38513359024E+02 0.56426282065E+02
 0.75982781911E+02 0.12991685478E+03 0.14416501906E+03 0.14922105384E+03 0.14416498683E+03
 0.12991680042E+03 0.10897977180E+03 0.84776203089E+02 0.60826654586E+02 0.40027177756E+02
 0.24176071045E+02 0.13789015662E+02 0.81818130762E+01 0.57820518755E+01 0.46468694022E+01
 0.37918635787E+01 0.32021226877E+01 0.28415818259E+01 0.26542491672E+01 0.25970123843E+01
 0.26542655459E+01 0.28416068878E+01 0.32021438861E+01 0.37918682102E+01 0.46468495049E+01
 0.57820075940E+01 0.81817532677E+01 0.13788955452E+02 0.24176027090E+02 0.40027162768E+02
 0.60826672963E+02 0.84776249148E+02 0.10897983127E+03 0.16537590810E+03 0.17701831726E+03
 0.17701830182E+03 0.16537586668E+03 0.14416498683E+03 0.11695684140E+03 0.87905619310E+02
 0.60826673007E+02 0.38513389272E+02 0.22383313627E+02 0.12434084638E+02 0.74592393890E+01
 0.54742271111E+01 0.44144167551E+01 0.36250608494E+01 0.31064226696E+01 0.28087429002E+01
 0.26764286378E+01 0.26764367583E+01 0.28087634753E+01 0.31064457339E+01 0.36250739530E+01
 0.44144096676E+01 0.54741958800E+01 0.74591883030E+01 0.12434025349E+02 0.22383261655E+02
 0.38513359024E+02 0.60826672963E+02 0.87905649010E+02 0.11695689129E+03 0.14416504108E+03
 0.19590102177E+03 0.20259737446E+03 0.19590099829E+03 0.17701830182E+03 0.14922105384E+03
 0.11695685867E+03 0.84776237283E+02 0.56426295034E+02 0.34294572485E+02 0.19214877323E+02
 0.10571314390E+02 0.66402084909E+01 0.51152087261E+01 0.41340563326E+01 0.34382055021E+01
 0.30062310834E+01 0.27800037355E+01 0.27106458930E+01 0.27800160370E+01 0.30062499030E+01
 0.34382214031E+01 0.41340597415E+01 0.51151936054E+01 0.66401748691E+01 0.10571268830E+02
 0.19214831113E+02 0.34294538104E+02 0.56426282065E+02 0.84776249148E+02 0.11695689129E+03
 0.14922109673E+03 0.17701834129E+03 0.21663158713E+03 0.21663158028E+03 0.20259737446E+03
 0.17701831726E+03 0.14416501906E+03 0.10897981832E+03 0.75982782263E+02 0.48491990049E+02
 0.28246302807E+02 0.15376583799E+02 0.86454460678E+01 0.58988758789E+01 0.47020815037E+01
 0.38298794213E+01 0.32477536597E+01 0.29107685811E+01 0.27603466507E+01 0.27603503552E+01
 0.29107779858E+01 0.32477642648E+01 0.38298855982E+01 0.47020786124E+01 0.58988620968E+01
 0.86454232785E+01 0.15376557205E+02 0.28246279363E+02 0.48491976233E+02 0.75982781911E+02
 0.10897983127E+03 0.14416504108E+03 0.17701834129E+03 0.20259739284E+03 0.21663158713E+03
 0.20259739284E+03 0.17701834129E+03 0.14416504108E+03 0.10897983127E+03 0.75982781911E+02
 0.48491976233E+02 0.28246279363E+02 0.15376557205E+02 0.86454232785E+01 0.58988620968E+01
 0.47020786124E+01 0.38298855982E+01 0.32477642648E+01 0.29107779858E+01 0.27603503552E+01
 0.27603466507E+01 0.29107685811E+01 0.32477536597E+01 0.38298794213E+01 0.47020815037E+01
 0.58988758789E+01 0.86454460678E+01 0.15376583799E+02 0.28246302807E+02 0.48491990049E+02
 0.75982782263E+02 0.10897981832E+03 0.14416501906E+03 0.17701831726E+03 0.20259737446E+03
 0.21663158028E+03 0.20259739284E+03 0.18302770885E+03 0.15424829033E+03 0.12088539841E+03
 0.87645697948E+02 0.58377040392E+02 0.35511234731E+02 0.19888993552E+02 0.10884290423E+02
 0.67555185117E+01 0.51688907905E+01 0.41762984526E+01 0.34693382393E+01 0.30293902313E+01
 0.27986717072E+01 0.27278847919E+01 0.27986606550E+01 0.30293732195E+01 0.34693235423E+01
 0.41762943779E+01 0.51689024078E+01 0.67555454314E+01 0.10884326450E+02 0.19889028401E+02
 0.35511257280E+02 0.58377042408E+02 0.87645677026E+02 0.12088535912E+03 0.15424824309E+03
 0.18302766693E+03 0.20259736831E+03 0.20954127104E+03 0.17701834129E+03 0.15424829033E+03
 0.12510177522E+03 0.94047706448E+02 0.65140664487E+02 0.41307395179E+02 0.24011868299E+02
 0.13248919251E+02 0.77865594456E+01 0.55970050670E+01 0.45062829328E+01 0.36936333687E+01
 0.31565825322E+01 0.28473246812E+01 0.27096266755E+01 0.27096205768E+01 0.28473091238E+01
 0.31565646765E+01 0.36936220094E+01 0.45062849766E+01 0.55970225555E+01 0.77865882304E+01
 0.13248949875E+02 0.24011888872E+02 0.41307395342E+02 0.65140639141E+02 0.94047657965E+02
 0.12510171334E+03 0.15424822964E+03 0.17701829712E+03 0.18953521299E+03 0.18953522914E+03
 0.14416504108E+03 0.12088539841E+03 0.94047706448E+02 0.67545070682E+02 0.44523616847E+02
 0.26903281188E+02 0.15231441500E+02 0.88068844352E+01 0.60094711054E+01 0.47920965790E+01
 0.39020717293E+01 0.32821606296E+01 0.29010860018E+01 0.27025027776E+01 0.26417409003E+01
 0.27024936609E+01 0.29010717778E+01 0.32821476876E+01 0.39020661758E+01 0.47921015273E+01
 0.60094849455E+01 0.88069007889E+01 0.15231450989E+02 0.26903274502E+02 0.44523588115E+02
 0.67545020008E+02 0.94047640689E+02 0.12088532984E+03 0.14416498428E+03 0.16004565622E+03
 0.16568877452E+03 0.16004568837E+03 0.10897983127E+03 0.87645697948E+02 0.65140664487E+02
 0.44523616847E+02 0.27942923725E+02 0.16362132493E+02 0.95617710189E+01 0.63619113294E+01
 0.50110071769E+01 0.40762993514E+01 0.33947288043E+01 0.29536931268E+01 0.27025165413E+01
 0.25912689977E+01 0.25912658881E+01 0.27025084950E+01 0.29536834281E+01 0.33947212603E+01
 0.40762964666E+01 0.50110086933E+01 0.63619137451E+01 0.95617683603E+01 0.16362118178E+02
 0.27942892945E+02 0.44523568684E+02 0.65140603001E+02 0.87645631803E+02 0.10897977190E+03
 0.12574476281E+03 0.13498870790E+03 0.13498872266E+03 0.12574480405E+03 0.75982781911E+02
 0.58377040392E+02 0.41307395179E+02 0.26903281188E+02 0.16362132493E+02 0.98403653554E+01
 0.65691966635E+01 0.51477344915E+01 0.42011080976E+01 0.34836260895E+01 0.29990362325E+01
 0.27058758848E+01 0.25542592853E+01 0.25080097952E+01 0.25542554280E+01 0.27058695656E+01
 0.29990295568E+01 0.34836207732E+01 0.42011043987E+01 0.51477306292E+01 0.65691890243E+01
 0.98403495096E+01 0.16362104745E+02 0.26903240168E+02 0.41307342931E+02 0.58376982527E+02
 0.75982726687E+02 0.91426411030E+02 0.10202831567E+03 0.10580628451E+03 0.10202833964E+03
 0.91426454507E+02 0.48491976233E+02 0.35511234731E+02 0.24011868299E+02 0.15231441500E+02
 0.95617710189E+01 0.65691966635E+01 0.51942895098E+01 0.42660923138E+01 0.35404644024E+01
 0.30321033551E+01 0.27097612323E+01 0.25277630346E+01 0.24473934954E+01 0.24473913730E+01
 0.25277574284E+01 0.27097540774E+01 0.30320968534E+01 0.35404599084E+01 0.42660894624E+01
 0.51942859635E+01 0.65691886472E+01 0.95617545302E+01 0.15231413825E+02 0.24011829337E+02
 0.35511187642E+02 0.48491927136E+02 0.61060735538E+02 0.71064013314E+02 0.76616785555E+02
 0.76616796150E+02 0.71064043048E+02 0.61060778804E+02 0.28246279363E+02 0.19888993552E+02
 0.13248919251E+02 0.88068844352E+01 0.63619113294E+01 0.51477344915E+01 0.42660923138E+01
 0.35600003050E+01 0.30494820204E+01 0.27125429102E+01 0.25102823209E+01 0.24056851166E+01
 0.23737265845E+01 0.24056790488E+01 0.25102725535E+01 0.27125332206E+01 0.30494760293E+01
 0.35599998842E+01 0.42660965727E+01 0.51477397602E+01 0.63619122051E+01 0.88068755972E+01
 0.13248897444E+02 0.19888959075E+02 0.28246236510E+02 0.37210065348E+02 0.45268877298E+02
 0.50880841385E+02 0.52893803964E+02 0.50880861560E+02 0.45268913132E+02 0.37210109094E+02
 0.15376557205E+02 0.10884290423E+02 0.77865594456E+01 0.60094711054E+01 0.50110071769E+01
 0.42011080976E+01 0.35404644024E+01 0.30494820204E+01 0.27135261406E+01 0.25014819654E+01
 0.23810143682E+01 0.23273562646E+01 0.23273517392E+01 0.23810026611E+01 0.25014679685E+01
 0.27135158828E+01 0.30494802821E+01 0.35404726983E+01 0.42011237726E+01 0.50110239961E+01
 0.60094811872E+01 0.77865559357E+01 0.10884270006E+02 0.15376521597E+02 0.20817154601E+02
 0.26333154269E+02 0.30850058214E+02 0.33396397444E+02 0.33396408706E+02 0.30850089106E+02
 0.26333196978E+02 0.20817198728E+02 0.86454232785E+01 0.67555185117E+01 0.55970050670E+01
 0.47920965790E+01 0.40762993514E+01 0.34836260895E+01 0.30321033551E+01 0.27125429102E+01
 0.25014819654E+01 0.23728129864E+01 0.23048837520E+01 0.22838200973E+01 0.23048735183E+01
 0.23727968119E+01 0.25014668167E+01 0.27125357642E+01 0.30321084376E+01 0.34836430184E+01
 0.40763228751E+01 0.47921180743E+01 0.55970153303E+01 0.67555109370E+01 0.86453963474E+01
 0.11301272988E+02 0.14392176372E+02 0.17325013828E+02 0.19434450254E+02 0.20202594765E+02
 0.19434473748E+02 0.17325054505E+02 0.14392223535E+02 0.11301314786E+02 0.58988620968E+01
 0.51688907905E+01 0.45062829328E+01 0.39020717293E+01 0.33947288043E+01 0.29990362325E+01
 0.27097612323E+01 0.25102823209E+01 0.23810143682E+01 0.23048837520E+01 0.22698713386E+01
 0.22698658107E+01 0.23048693858E+01 0.23809969887E+01 0.25102691628E+01 0.27097581583E+01
 0.29990453566E+01 0.33947473954E+01 0.39020928253E+01 0.45062975192E+01 0.51688908461E+01
 0.58988434794E+01 0.69038908778E+01 0.82356704493E+01 0.97086323017E+01 0.10989883155E+02
 0.11737370290E+02 0.11737382327E+02 0.10989916057E+02 0.97086774222E+01 0.82357163302E+01
 0.69039266760E+01 0.47020786124E+01 0.41762984526E+01 0.36936333687E+01 0.32821606296E+01
 0.29536931268E+01 0.27058758848E+01 0.25277630346E+01 0.24056851166E+01 0.23273562646E+01
 0.22838200973E+01 0.22698658107E+01 0.22838105240E+01 0.23273405677E+01 0.24056689136E+01
 0.25277520014E+01 0.27058735687E+01 0.29536994689E+01 0.32821717512E+01 0.36936427432E+01
 0.41762990984E+01 0.47020655980E+01 0.52303318943E+01 0.57535809947E+01 0.63259971593E+01
 0.68937721209E+01 0.73225361219E+01 0.74829397328E+01 0.73225561708E+01 0.68938071744E+01
 0.63260386531E+01 0.57536194018E+01 0.52303594998E+01 0.38298855982E+01 0.34693382393E+01
 0.31565825322E+01 0.29010860018E+01 0.27025165413E+01 0.25542592853E+01 0.24473934954E+01
 0.23737265845E+01 0.23273517392E+01 0.23048735183E+01 0.23048693858E+01 0.23273405677E+01
 0.23737116105E+01 0.24473788021E+01 0.25542483201E+01 0.27025108459E+01 0.29010846071E+01
 0.31565822540E+01 0.34693347993E+01 0.38298751978E+01 0.42177700756E+01 0.46040196859E+01
 0.49564502059E+01 0.52459829692E+01 0.54571836932E+01 0.55733979175E+01 0.55734052123E+01
 0.54572038703E+01 0.52460114208E+01 0.49564807974E+01 0.46040465498E+01 0.42177892497E+01
 0.32477642648E+01 0.30293902313E+01 0.28473246812E+01 0.27025027776E+01 0.25912689977E+01
 0.25080097952E+01 0.24473913730E+01 0.24056790488E+01 0.23810026611E+01 0.23727968119E+01
 0.23809969887E+01 0.24056689136E+01 0.24473788021E+01 0.25079969830E+01 0.25912576176E+01
 0.27024934908E+01 0.28473170095E+01 0.30293828347E+01 0.32477555350E+01 0.34948249113E+01
 0.37558465144E+01 0.40106586627E+01 0.42370871339E+01 0.44147227925E+01 0.45277824614E+01
 0.45665534113E+01 0.45277891916E+01 0.44147348827E+01 0.42371022592E+01 0.40106742395E+01
 0.37558604480E+01 0.34948361522E+01 0.29107779858E+01 0.27986717072E+01 0.27096266755E+01
 0.26417409003E+01 0.25912658881E+01 0.25542554280E+01 0.25277574284E+01 0.25102725535E+01
 0.25014679685E+01 0.25014668167E+01 0.25102691628E+01 0.25277520014E+01 0.25542483201E+01
 0.25912576176E+01 0.26417321298E+01 0.27096181554E+01 0.27986641805E+01 0.29107720662E+01
 0.30443757773E+01 0.31934633925E+01 0.33477525197E+01 0.34941013073E+01 0.36186989393E+01
 0.37093036228E+01 0.37569506648E+01 0.37569502093E+01 0.37093024362E+01 0.36186975159E+01
 0.34941003348E+01 0.33477527102E+01 0.31934653135E+01 0.30443797207E+01 0.27603503552E+01
 0.27278847919E+01 0.27096205768E+01 0.27024936609E+01 0.27025084950E+01 0.27058695656E+01
 0.27097540774E+01 0.27125332206E+01 0.27135158828E+01 0.27125357642E+01 0.27097581583E+01
 0.27058735687E+01 0.27025108459E+01 0.27024934908E+01 0.27096181554E+01 0.27278815526E+01
 0.27603484861E+01 0.28080221899E+01 0.28691137278E+01 0.29389995402E+01 0.30109175543E+01
 0.30771724513E+01 0.31304529641E+01 0.31649058785E+01 0.31768105075E+01 0.31648983811E+01
 0.31304397296E+01 0.30771564884E+01 0.30109022579E+01 0.29389877499E+01 0.28691069951E+01
 0.28080204747E+01 0.27603466507E+01 0.27986606550E+01 0.28473091238E+01 0.29010717778E+01
 0.29536834281E+01 0.29990295568E+01 0.30320968534E+01 0.30494760293E+01 0.30494802821E+01
 0.30321084376E+01 0.29990453566E+01 0.29536994689E+01 0.29010846071E+01 0.28473170095E+01
 0.27986641805E+01 0.27603484861E+01 0.27354960387E+01 0.27246061599E+01 0.27257135156E+01
 0.27351471847E+01 0.27485882033E+01 0.27620585724E+01 0.27725524007E+01 0.27782152719E+01
 0.27782089373E+01 0.27725348884E+01 0.27620339007E+01 0.27485616973E+01 0.27351238907E+01
 0.27256967583E+01 0.27245967068E+01 0.27354921220E+01 0.29107685811E+01 0.30293732195E+01
 0.31565646765E+01 0.32821476876E+01 0.33947212603E+01 0.34836207732E+01 0.35404599084E+01
 0.35599998842E+01 0.35404726983E+01 0.34836430184E+01 0.33947473954E+01 0.32821717512E+01
 0.31565822540E+01 0.30293828347E+01 0.29107720662E+01 0.28080221899E+01 0.27246061599E+01
 0.26604252768E+01 0.26129114656E+01 0.25784969540E+01 0.25539332589E+01 0.25370856588E+01
 0.25270440721E+01 0.25236762020E+01 0.25270295986E+01 0.25370603027E+01 0.25539030588E+01
 0.25784684904E+01 0.26128898227E+01 0.26604125501E+01 0.27246009911E+01 0.28080204747E+01
 0.32477536597E+01 0.34693235423E+01 0.36936220094E+01 0.39020661758E+01 0.40762964666E+01
 0.42011043987E+01 0.42660894624E+01 0.42660965727E+01 0.42011237726E+01 0.40763228751E+01
 0.39020928253E+01 0.36936427432E+01 0.34693347993E+01 0.32477555350E+01 0.30443757773E+01
 0.28691137278E+01 0.27257135156E+01 0.26129114656E+01 0.25266032568E+01 0.24620649343E+01
 0.24155565593E+01 0.23849948821E+01 0.23697153700E+01 0.23697084145E+01 0.23849759490E+01
 0.24155308107E+01 0.24620390639E+01 0.25265833021E+01 0.26129008692E+01 0.27257120814E+01