    8    8    1    1
  0.2469169E+02  0.5174038E-09  0.5174038E-09  0.8520221E-09  0.5000000E-15
  1.000000000000000E-004
  CAR 
 BC3-optical                             
     30     19    132
 
  0.0000000E+00  0.0000000E+00  0.0000000E+00  0.6944444E-02
    1      -18.540330   1.000000
    2      -14.648830   1.000000
    3      -14.648777   1.000000
    4      -12.299229   1.000000
    5      -12.299167   1.000000
    6      -11.230715   1.000000
    7       -9.913547   1.000000
    8       -7.345203   1.000000
    9       -7.124896   1.000000
   10       -4.970975   1.000000
   11       -4.970956   1.000000
   12       -3.149280   1.000000
   13       -3.149244   1.000000
   14       -2.466679   1.000000
   15       -2.466575   1.000000
   16       -0.631464   0.000000
   17        1.101129   0.000000
   18        1.101169   0.000000
   19        1.790598   0.000000
   20        1.921674   0.000000
   21        4.520662   0.000000
   22        5.912961   0.000000
   23        6.315096   0.000000
   24        6.315115   0.000000
   25        7.672551   0.000000
   26        8.079556   0.000000
   27        8.079673   0.000000
   28        8.995488   0.000000
   29        9.141934   0.000000
   30        9.141937   0.000000
   31        9.297564   0.000000
   32        9.297571   0.000000
   33        9.515962   0.000000
   34       10.327330   0.000000
   35       10.683641   0.000000
   36       10.683642   0.000000
   37       11.354047   0.000000
   38       11.354052   0.000000
   39       11.392154   0.000000
   40       11.399470   0.000000
   41       11.984097   0.000000
   42       13.000816   0.000000
   43       13.000817   0.000000
   44       13.028540   0.000000
   45       13.131890   0.000000
   46       13.131908   0.000000
   47       13.182485   0.000000
   48       13.527899   0.000000
   49       15.613508   0.000000
   50       15.800768   0.000000
   51       15.800779   0.000000
   52       16.491310   0.000000
   53       18.292253   0.000000
   54       18.292256   0.000000
   55       18.860150   0.000000
   56       18.860163   0.000000
   57       19.147298   0.000000
   58       19.229015   0.000000
   59       19.533273   0.000000
   60       19.533315   0.000000
   61       19.721663   0.000000
   62       19.988751   0.000000
   63       19.988761   0.000000
   64       20.016688   0.000000
   65       20.454582   0.000000
   66       21.081347   0.000000
   67       21.302664   0.000000
   68       21.302697   0.000000
   69       22.879326   0.000000
   70       23.296805   0.000000
   71       23.296810   0.000000
   72       23.439718   0.000000
   73       23.439726   0.000000
   74       23.573846   0.000000
   75       24.093577   0.000000
   76       24.093579   0.000000
   77       24.412553   0.000000
   78       24.412557   0.000000
   79       24.537175   0.000000
   80       24.637383   0.000000
   81       24.876313   0.000000
   82       25.217383   0.000000
   83       25.217417   0.000000
   84       26.651568   0.000000
   85       26.651616   0.000000
   86       26.753758   0.000000
   87       26.753762   0.000000
   88       26.846263   0.000000
   89       27.034087   0.000000
   90       27.121610   0.000000
   91       27.730780   0.000000
   92       27.730800   0.000000
   93       27.799804   0.000000
   94       27.799810   0.000000
   95       27.840132   0.000000
   96       28.296661   0.000000
   97       28.296686   0.000000
   98       28.793610   0.000000
   99       28.793617   0.000000
  100       28.952424   0.000000
  101       29.648908   0.000000
  102       30.289686   0.000000
  103       31.191995   0.000000
  104       31.191998   0.000000
  105       31.423948   0.000000
  106       31.481643   0.000000
  107       31.481645   0.000000
  108       31.884134   0.000000
  109       32.086519   0.000000
  110       32.086521   0.000000
  111       32.404351   0.000000
  112       32.684378   0.000000
  113       33.298301   0.000000
  114       33.298302   0.000000
  115       33.312672   0.000000
  116       33.312680   0.000000
  117       33.460645   0.000000
  118       34.009881   0.000000
  119       34.981579   0.000000
  120       34.981581   0.000000
  121       35.044186   0.000000
  122       35.044191   0.000000
  123       35.226808   0.000000
  124       35.226835   0.000000
  125       35.833401   0.000000
  126       35.865511   0.000000
  127       35.865523   0.000000
  128       36.045391   0.000000
  129       36.696358   0.000000
  130       36.696365   0.000000
  131       37.054605   0.000000
  132       37.300973   0.000000
 
  0.8333333E-01  0.6938894E-17  0.0000000E+00  0.4166667E-01
    1      -18.513219   1.000000
    2      -14.780927   1.000000
    3      -14.691183   1.000000
    4      -12.338411   1.000000
    5      -12.200768   1.000000
    6      -11.096134   1.000000
    7       -9.753142   1.000000
    8       -7.304002   1.000000
    9       -7.182205   1.000000
   10       -5.094396   1.000000
   11       -4.993439   1.000000
   12       -3.273748   1.000000
   13       -3.169697   1.000000
   14       -2.609233   1.000000
   15       -2.535391   1.000000
   16       -0.836139   0.000000
   17        1.160463   0.000000
   18        1.411559   0.000000
   19        1.915317   0.000000
   20        1.973408   0.000000
   21        4.572778   0.000000
   22        5.969168   0.000000
   23        6.386616   0.000000
   24        6.478100   0.000000
   25        7.662719   0.000000
   26        8.037652   0.000000
   27        8.233585   0.000000
   28        8.235190   0.000000
   29        8.680798   0.000000
   30        8.755488   0.000000
   31        9.848013   0.000000
   32        9.861911   0.000000
   33        9.912362   0.000000
   34       10.375910   0.000000
   35       10.399520   0.000000
   36       10.419300   0.000000
   37       10.907718   0.000000
   38       11.413702   0.000000
   39       11.668726   0.000000
   40       12.044827   0.000000
   41       12.151565   0.000000
   42       12.334546   0.000000
   43       12.560814   0.000000
   44       12.838062   0.000000
   45       13.097162   0.000000
   46       13.627932   0.000000
   47       13.800125   0.000000
   48       14.260285   0.000000
   49       15.562307   0.000000
   50       15.661367   0.000000
   51       15.718135   0.000000
   52       16.279188   0.000000
   53       18.021122   0.000000
   54       18.071613   0.000000
   55       18.645211   0.000000
   56       18.983447   0.000000
   57       18.992847   0.000000
   58       19.396110   0.000000
   59       19.443014   0.000000
   60       19.859374   0.000000
   61       19.922710   0.000000
   62       19.935464   0.000000
   63       20.022165   0.000000
   64       20.069520   0.000000
   65       20.446863   0.000000
   66       20.948038   0.000000
   67       21.130559   0.000000
   68       21.170060   0.000000
   69       22.300551   0.000000
   70       22.512943   0.000000
   71       23.092303   0.000000
   72       23.559179   0.000000
   73       23.574374   0.000000
   74       23.601511   0.000000
   75       23.816537   0.000000
   76       24.024795   0.000000
   77       24.267355   0.000000
   78       24.521674   0.000000
   79       24.830603   0.000000
   80       24.967555   0.000000
   81       25.047522   0.000000
   82       25.552089   0.000000
   83       25.696434   0.000000
   84       25.798048   0.000000
   85       25.918940   0.000000
   86       26.127547   0.000000
   87       26.397264   0.000000
   88       26.909436   0.000000
   89       26.923355   0.000000
   90       27.081497   0.000000
   91       27.084933   0.000000
   92       27.581292   0.000000
   93       27.891767   0.000000
   94       28.106461   0.000000
   95       28.663238   0.000000
   96       28.918359   0.000000
   97       29.046576   0.000000
   98       29.176324   0.000000
   99       29.264645   0.000000
  100       29.636578   0.000000
  101       29.647793   0.000000
  102       30.121338   0.000000
  103       30.181783   0.000000
  104       30.767770   0.000000
  105       31.125852   0.000000
  106       31.874948   0.000000
  107       31.910769   0.000000
  108       32.014758   0.000000
  109       32.088624   0.000000
  110       32.546086   0.000000
  111       32.654204   0.000000
  112       32.944439   0.000000
  113       33.081580   0.000000
  114       33.338415   0.000000
  115       33.464019   0.000000
  116       33.584790   0.000000
  117       33.608722   0.000000
  118       33.844512   0.000000
  119       34.007452   0.000000
  120       34.068620   0.000000
  121       34.128081   0.000000
  122       34.229137   0.000000
  123       35.128148   0.000000
  124       35.914634   0.000000
  125       35.961039   0.000000
  126       35.988158   0.000000
  127       36.233230   0.000000
  128       36.384035   0.000000
  129       36.594218   0.000000
  130       36.759645   0.000000
  131       36.864725   0.000000
  132       37.021949   0.000000
 
  0.1666667E+00  0.0000000E+00  0.0000000E+00  0.4166667E-01
    1      -18.434145   1.000000
    2      -15.105930   1.000000
    3      -14.795418   1.000000
    4      -12.454902   1.000000
    5      -11.931654   1.000000
    6      -10.714920   1.000000
    7       -9.323718   1.000000
    8       -7.364524   1.000000
    9       -7.181602   1.000000
   10       -5.440381   1.000000
   11       -5.029597   1.000000
   12       -3.615707   1.000000
   13       -3.223984   1.000000
   14       -3.016468   1.000000
   15       -2.727161   1.000000
   16       -1.183930   0.000000
   17        1.323802   0.000000
   18        1.888075   0.000000
   19        2.128145   0.000000
   20        2.435798   0.000000
   21        4.729426   0.000000
   22        6.123977   0.000000
   23        6.555115   0.000000
   24        6.943984   0.000000
   25        6.959753   0.000000
   26        7.914594   0.000000
   27        8.172931   0.000000
   28        8.202038   0.000000
   29        8.578981   0.000000
   30        8.743557   0.000000
   31        9.073976   0.000000
   32        9.907715   0.000000
   33        9.915970   0.000000
   34       10.467196   0.000000
   35       10.571619   0.000000
   36       10.578806   0.000000
   37       10.911376   0.000000
   38       11.589393   0.000000
   39       11.880233   0.000000
   40       12.107703   0.000000
   41       12.142364   0.000000
   42       12.341925   0.000000
   43       12.642257   0.000000
   44       13.007456   0.000000
   45       13.477549   0.000000
   46       14.169512   0.000000
   47       14.385826   0.000000
   48       15.154526   0.000000
   49       15.276505   0.000000
   50       15.388927   0.000000
   51       15.799741   0.000000
   52       16.174283   0.000000
   53       17.357407   0.000000
   54       17.594126   0.000000
   55       17.861584   0.000000
   56       19.027340   0.000000
   57       19.083086   0.000000
   58       19.161221   0.000000
   59       19.552235   0.000000
   60       19.834361   0.000000
   61       19.923143   0.000000
   62       20.185900   0.000000
   63       20.200575   0.000000
   64       20.295343   0.000000
   65       20.460973   0.000000
   66       20.685381   0.000000
   67       20.907586   0.000000
   68       20.917741   0.000000
   69       20.965825   0.000000
   70       21.297353   0.000000
   71       23.108352   0.000000
   72       23.741731   0.000000
   73       23.780782   0.000000
   74       23.936752   0.000000
   75       24.047992   0.000000
   76       24.115464   0.000000
   77       24.228806   0.000000
   78       24.247843   0.000000
   79       24.457148   0.000000
   80       24.511396   0.000000
   81       24.693368   0.000000
   82       24.712601   0.000000
   83       25.103866   0.000000
   84       25.171696   0.000000
   85       25.229326   0.000000
   86       26.477561   0.000000
   87       26.605178   0.000000
   88       26.933680   0.000000
   89       27.066341   0.000000
   90       27.556104   0.000000
   91       27.700979   0.000000
   92       28.059487   0.000000
   93       28.103245   0.000000
   94       28.111775   0.000000
   95       28.188472   0.000000
   96       29.120697   0.000000
   97       29.132031   0.000000
   98       29.699831   0.000000
   99       29.733058   0.000000
  100       29.799695   0.000000
  101       30.252497   0.000000
  102       30.351032   0.000000
  103       30.588522   0.000000
  104       30.958187   0.000000
  105       30.970494   0.000000
  106       31.501984   0.000000
  107       31.756693   0.000000
  108       31.939731   0.000000
  109       32.638457   0.000000
  110       32.756928   0.000000
  111       32.816921   0.000000
  112       32.839678   0.000000
  113       32.928288   0.000000
  114       33.086862   0.000000
  115       33.163208   0.000000
  116       33.236123   0.000000
  117       33.748590   0.000000
  118       33.764805   0.000000
  119       33.966018   0.000000
  120       34.018581   0.000000
  121       34.204384   0.000000
  122       34.604656   0.000000
  123       34.949810   0.000000
  124       35.243668   0.000000
  125       35.487362   0.000000
  126       36.230181   0.000000
  127       36.518311   0.000000
  128       36.757300   0.000000
  129       36.877702   0.000000
  130       37.031459   0.000000
  131       37.064596   0.000000
  132       37.434642   0.000000
 
  0.2500000E+00 -0.1387779E-16  0.0000000E+00  0.4166667E-01
    1      -18.311105   1.000000
    2      -15.502488   1.000000
    3      -14.917769   1.000000
    4      -12.602609   1.000000
    5      -11.547116   1.000000
    6      -10.172366   1.000000
    7       -8.713946   1.000000
    8       -7.678214   1.000000
    9       -6.982281   1.000000
   10       -5.947323   1.000000
   11       -5.020743   1.000000
   12       -4.093006   1.000000
   13       -3.634019   1.000000
   14       -3.294118   1.000000
   15       -3.002826   1.000000
   16       -1.470712   0.000000
   17        1.552197   0.000000
   18        2.244516   0.000000
   19        2.384943   0.000000
   20        3.318989   0.000000
   21        4.992674   0.000000
   22        6.021063   0.000000
   23        6.358385   0.000000
   24        6.751076   0.000000
   25        7.602883   0.000000
   26        7.809189   0.000000
   27        7.926582   0.000000
   28        8.164658   0.000000
   29        8.220561   0.000000
   30        8.926421   0.000000
   31        9.317979   0.000000
   32        9.467400   0.000000
   33        9.469779   0.000000
   34       10.139119   0.000000
   35       10.176776   0.000000
   36       11.104367   0.000000
   37       11.340098   0.000000
   38       11.768180   0.000000
   39       11.821449   0.000000
   40       12.337973   0.000000
   41       12.395928   0.000000
   42       12.510353   0.000000
   43       13.233332   0.000000
   44       13.260772   0.000000
   45       14.222541   0.000000
   46       14.478440   0.000000
   47       14.859043   0.000000
   48       15.038013   0.000000
   49       15.304481   0.000000
   50       16.007250   0.000000
   51       16.096398   0.000000
   52       16.260690   0.000000
   53       16.463542   0.000000
   54       17.150851   0.000000
   55       17.203841   0.000000
   56       18.714801   0.000000
   57       18.897330   0.000000
   58       18.996089   0.000000
   59       19.163692   0.000000
   60       19.355991   0.000000
   61       19.634102   0.000000
   62       19.652084   0.000000
   63       19.856710   0.000000
   64       20.179318   0.000000
   65       20.280532   0.000000
   66       20.662384   0.000000
   67       20.705608   0.000000
   68       21.059212   0.000000
   69       21.078037   0.000000
   70       21.498806   0.000000
   71       21.950483   0.000000
   72       22.960522   0.000000
   73       23.235789   0.000000
   74       23.252949   0.000000
   75       23.329132   0.000000
   76       23.551500   0.000000
   77       24.081510   0.000000
   78       24.513459   0.000000
   79       24.543782   0.000000
   80       24.589573   0.000000
   81       24.705422   0.000000
   82       25.058440   0.000000
   83       25.280434   0.000000
   84       25.547037   0.000000
   85       25.647928   0.000000
   86       25.660154   0.000000
   87       26.405721   0.000000
   88       26.761475   0.000000
   89       27.309075   0.000000
   90       28.092546   0.000000
   91       28.152468   0.000000
   92       28.159761   0.000000
   93       28.171461   0.000000
   94       28.319671   0.000000
   95       28.656311   0.000000
   96       28.689167   0.000000
   97       29.192207   0.000000
   98       29.556003   0.000000
   99       29.865030   0.000000
  100       29.960653   0.000000
  101       30.080525   0.000000
  102       30.147295   0.000000
  103       30.655163   0.000000
  104       30.906018   0.000000
  105       31.070184   0.000000
  106       31.727227   0.000000
  107       31.940704   0.000000
  108       31.974424   0.000000
  109       32.255725   0.000000
  110       32.416488   0.000000
  111       32.524065   0.000000
  112       32.554868   0.000000
  113       33.052886   0.000000
  114       33.480182   0.000000
  115       33.583549   0.000000
  116       33.801731   0.000000
  117       33.956072   0.000000
  118       34.108771   0.000000
  119       34.269091   0.000000
  120       34.619594   0.000000
  121       34.973439   0.000000
  122       35.185856   0.000000
  123       35.716629   0.000000
  124       35.797576   0.000000
  125       35.813482   0.000000
  126       36.435836   0.000000
  127       36.728458   0.000000
  128       36.885892   0.000000
  129       37.244574   0.000000
  130       37.288248   0.000000
  131       37.769885   0.000000
  132       37.823768   0.000000
 
  0.3333333E+00 -0.8326673E-16  0.0000000E+00  0.4166667E-01
    1      -18.162538   1.000000
    2      -15.879727   1.000000
    3      -15.023881   1.000000
    4      -12.731580   1.000000
    5      -11.109182   1.000000
    6       -9.549132   1.000000
    7       -8.085195   1.000000
    8       -8.010837   1.000000
    9       -6.717716   1.000000
   10       -6.524720   1.000000
   11       -4.941677   1.000000
   12       -4.610269   1.000000
   13       -4.395431   1.000000
   14       -3.360151   1.000000
   15       -3.307231   1.000000
   16       -1.668930   0.000000
   17        1.788822   0.000000
   18        2.568489   0.000000
   19        2.742962   0.000000
   20        4.290332   0.000000
   21        5.173843   0.000000
   22        5.372268   0.000000
   23        6.629976   0.000000
   24        6.921815   0.000000
   25        7.431653   0.000000
   26        7.574734   0.000000
   27        7.659642   0.000000
   28        8.126083   0.000000
   29        8.582502   0.000000
   30        8.599187   0.000000
   31        9.105573   0.000000
   32        9.146053   0.000000
   33        9.809742   0.000000
   34        9.911697   0.000000
   35       10.394183   0.000000
   36       11.323326   0.000000
   37       11.575990   0.000000
   38       12.049481   0.000000
   39       12.146153   0.000000
   40       12.173074   0.000000
   41       12.280994   0.000000
   42       13.001353   0.000000
   43       13.515452   0.000000
   44       14.202310   0.000000
   45       14.291865   0.000000
   46       14.609789   0.000000
   47       14.923502   0.000000
   48       15.329645   0.000000
   49       15.403356   0.000000
   50       15.751834   0.000000
   51       16.301192   0.000000
   52       16.579553   0.000000
   53       16.624691   0.000000
   54       17.134793   0.000000
   55       17.232345   0.000000
   56       17.684280   0.000000
   57       17.809429   0.000000
   58       18.465929   0.000000
   59       18.625772   0.000000
   60       18.808664   0.000000
   61       19.711340   0.000000
   62       19.924855   0.000000
   63       20.048044   0.000000
   64       20.084221   0.000000
   65       20.259571   0.000000
   66       20.320775   0.000000
   67       20.636098   0.000000
   68       20.906232   0.000000
   69       21.010347   0.000000
   70       21.264192   0.000000
   71       21.692547   0.000000
   72       21.727779   0.000000
   73       22.154671   0.000000
   74       22.404738   0.000000
   75       23.255992   0.000000
   76       23.264915   0.000000
   77       23.837697   0.000000
   78       24.104479   0.000000
   79       24.194312   0.000000
   80       24.845814   0.000000
   81       24.859484   0.000000
   82       24.923619   0.000000
   83       25.778982   0.000000
   84       26.000639   0.000000
   85       26.716586   0.000000
   86       26.767718   0.000000
   87       26.819409   0.000000
   88       26.980733   0.000000
   89       27.267045   0.000000
   90       27.293650   0.000000
   91       27.382601   0.000000
   92       27.697978   0.000000
   93       28.123665   0.000000
   94       28.132889   0.000000
   95       28.529076   0.000000
   96       28.679434   0.000000
   97       29.256841   0.000000
   98       29.499937   0.000000
   99       29.886316   0.000000
  100       30.117774   0.000000
  101       30.274113   0.000000
  102       30.525685   0.000000
  103       30.899241   0.000000
  104       30.963648   0.000000
  105       31.043170   0.000000
  106       31.075017   0.000000
  107       31.741952   0.000000
  108       32.077917   0.000000
  109       32.184646   0.000000
  110       32.294563   0.000000
  111       32.456968   0.000000
  112       32.630457   0.000000
  113       33.040394   0.000000
  114       33.052057   0.000000
  115       33.921829   0.000000
  116       34.789160   0.000000
  117       34.827416   0.000000
  118       35.088022   0.000000
  119       35.238832   0.000000
  120       35.468236   0.000000
  121       35.568369   0.000000
  122       35.678312   0.000000
  123       36.003943   0.000000
  124       36.177325   0.000000
  125       36.786517   0.000000
  126       36.957470   0.000000
  127       37.066091   0.000000
  128       37.121572   0.000000
  129       37.778658   0.000000
  130       37.809864   0.000000
  131       38.041730   0.000000
  132       38.203999   0.000000
 
  0.4166667E+00  0.0000000E+00  0.0000000E+00  0.4166667E-01
    1      -18.027192   1.000000
    2      -16.162896   1.000000
    3      -15.093916   1.000000
    4      -12.816046   1.000000
    5      -10.707974   1.000000
    6       -8.904206   1.000000
    7       -8.481557   1.000000
    8       -7.574502   1.000000
    9       -6.792896   1.000000
   10       -6.425263   1.000000
   11       -5.234280   1.000000
   12       -5.073284   1.000000
   13       -4.825501   1.000000
   14       -3.568533   1.000000
   15       -3.406293   1.000000
   16       -1.784731   0.000000
   17        1.969155   0.000000
   18        2.812034   0.000000
   19        3.201625   0.000000
   20        4.418392   0.000000
   21        5.200687   0.000000
   22        5.893731   0.000000
   23        6.744257   0.000000
   24        6.797488   0.000000
   25        7.199071   0.000000
   26        7.433531   0.000000
   27        7.584015   0.000000
   28        7.733990   0.000000
   29        8.016585   0.000000
   30        8.649965   0.000000
   31        8.857220   0.000000
   32        9.515975   0.000000
   33        9.549467   0.000000
   34       10.644917   0.000000
   35       11.232605   0.000000
   36       11.299192   0.000000
   37       11.697692   0.000000
   38       11.922232   0.000000
   39       12.134036   0.000000
   40       12.160962   0.000000
   41       12.533186   0.000000
   42       13.473882   0.000000
   43       13.822582   0.000000
   44       13.978415   0.000000
   45       14.440191   0.000000
   46       14.515657   0.000000
   47       14.533344   0.000000
   48       14.885872   0.000000
   49       16.073057   0.000000
   50       16.293570   0.000000
   51       16.361425   0.000000
   52       16.470494   0.000000
   53       16.805586   0.000000
   54       17.229903   0.000000
   55       17.494391   0.000000
   56       17.599306   0.000000
   57       17.853501   0.000000
   58       18.081572   0.000000
   59       18.185464   0.000000
   60       18.393077   0.000000
   61       19.231933   0.000000
   62       19.326215   0.000000
   63       19.911693   0.000000
   64       20.081523   0.000000
   65       20.158614   0.000000
   66       20.320824   0.000000
   67       20.360669   0.000000
   68       20.581580   0.000000
   69       20.669123   0.000000
   70       21.235549   0.000000
   71       21.467172   0.000000
   72       21.575180   0.000000
   73       21.675852   0.000000
   74       21.773377   0.000000
   75       22.944143   0.000000
   76       23.644281   0.000000
   77       23.838250   0.000000
   78       23.848131   0.000000
   79       24.030406   0.000000
   80       24.437159   0.000000
   81       24.600847   0.000000
   82       25.291315   0.000000
   83       25.679356   0.000000
   84       26.423639   0.000000
   85       26.426979   0.000000
   86       26.499890   0.000000
   87       27.131170   0.000000
   88       27.348243   0.000000
   89       27.407643   0.000000
   90       27.481950   0.000000
   91       27.646575   0.000000
   92       27.911864   0.000000
   93       28.044417   0.000000
   94       28.052952   0.000000
   95       29.020418   0.000000
   96       29.130524   0.000000
   97       29.558012   0.000000
   98       29.602794   0.000000
   99       29.651816   0.000000
  100       29.821946   0.000000
  101       30.220976   0.000000
  102       30.299957   0.000000
  103       30.329667   0.000000
  104       30.696425   0.000000
  105       31.013757   0.000000
  106       31.206455   0.000000
  107       31.357925   0.000000
  108       31.607282   0.000000
  109       31.710125   0.000000
  110       32.282137   0.000000
  111       32.350795   0.000000
  112       33.615861   0.000000
  113       33.722391   0.000000
  114       34.176522   0.000000
  115       34.386745   0.000000
  116       34.531703   0.000000
  117       34.582481   0.000000
  118       34.612254   0.000000
  119       34.906721   0.000000
  120       35.268216   0.000000
  121       35.543085   0.000000
  122       36.332496   0.000000
  123       37.478011   0.000000
  124       37.508483   0.000000
  125       37.650684   0.000000
  126       37.684669   0.000000
  127       37.742819   0.000000
  128       37.810579   0.000000
  129       37.939540   0.000000
  130       38.467830   0.000000
  131       38.498778   0.000000
  132       38.709853   0.000000
 
  0.5000000E+00 -0.2775558E-16  0.0000000E+00  0.2083333E-01
    1      -17.968695   1.000000
    2      -16.272204   1.000000
    3      -15.118208   1.000000
    4      -12.845190   1.000000
    5      -10.523262   1.000000
    6       -8.667407   1.000000
    7       -8.460265   1.000000
    8       -7.853990   1.000000
    9       -6.257853   1.000000
   10       -6.228449   1.000000
   11       -5.975179   1.000000
   12       -5.300377   1.000000
   13       -4.762939   1.000000
   14       -3.680570   1.000000
   15       -3.422745   1.000000
   16       -1.822851   0.000000
   17        2.036875   0.000000
   18        2.904233   0.000000
   19        3.759136   0.000000
   20        3.761628   0.000000
   21        5.829481   0.000000
   22        6.017788   0.000000
   23        6.683273   0.000000
   24        6.832414   0.000000
   25        7.006977   0.000000
   26        7.384839   0.000000
   27        7.501793   0.000000
   28        7.524384   0.000000
   29        7.861543   0.000000
   30        8.418821   0.000000
   31        8.767889   0.000000
   32        9.453828   0.000000
   33       10.036313   0.000000
   34       11.087483   0.000000
   35       11.296516   0.000000
   36       11.309326   0.000000
   37       11.822996   0.000000
   38       11.867506   0.000000
   39       12.068845   0.000000
   40       12.500470   0.000000
   41       12.706312   0.000000
   42       12.863009   0.000000
   43       13.641303   0.000000
   44       14.052855   0.000000
   45       14.349280   0.000000
   46       14.691510   0.000000
   47       15.059450   0.000000
   48       15.210946   0.000000
   49       15.365108   0.000000
   50       15.366351   0.000000
   51       16.621081   0.000000
   52       16.978927   0.000000
   53       17.161236   0.000000
   54       17.331163   0.000000
   55       17.360620   0.000000
   56       17.740887   0.000000
   57       18.213563   0.000000
   58       18.364257   0.000000
   59       18.583458   0.000000
   60       18.612002   0.000000
   61       18.832406   0.000000
   62       18.976340   0.000000
   63       19.142926   0.000000
   64       19.356612   0.000000
   65       19.907879   0.000000
   66       19.956919   0.000000
   67       20.014254   0.000000
   68       20.181721   0.000000
   69       20.953529   0.000000
   70       21.132599   0.000000
   71       21.640583   0.000000
   72       21.757995   0.000000
   73       22.441158   0.000000
   74       22.545301   0.000000
   75       22.576174   0.000000
   76       22.651170   0.000000
   77       23.618011   0.000000
   78       23.859179   0.000000
   79       23.989614   0.000000
   80       24.050999   0.000000
   81       24.683655   0.000000
   82       25.478538   0.000000
   83       25.808175   0.000000
   84       25.877871   0.000000
   85       26.775823   0.000000
   86       26.804759   0.000000
   87       26.816953   0.000000
   88       27.189361   0.000000
   89       27.424911   0.000000
   90       27.483011   0.000000
   91       27.975569   0.000000
   92       28.041644   0.000000
   93       28.048421   0.000000
   94       28.846766   0.000000
   95       28.985279   0.000000
   96       29.012465   0.000000
   97       29.549192   0.000000