<?xml version="1.0" encoding="ISO-8859-1"?>
<modeling>
 <generator>
  <i name="program" type="string">vasp </i>
  <i name="version" type="string">5.4.4.18Apr17-6-g9f103f2a35  </i>
  <i name="subversion" type="string">(build Mar 30 2023 15:39:25) complex            parallel </i>
  <i name="platform" type="string">LinuxIFC </i>
  <i name="date" type="string">2023 06 19 </i>
  <i name="time" type="string">11:08:25 </i>
 </generator>
 <incar>
  <i type="string" name="SYSTEM"> BC3-optical</i>
  <i type="int" name="ISTART">     1</i>
  <i type="string" name="PREC">accurate</i>
  <i type="string" name="ALGO"> Exact</i>
  <i type="int" name="ICHARG">     2</i>
  <i name="EDIFF">      0.00000001</i>
  <i name="ENCUT">    450.00000000</i>
  <i type="int" name="NBANDS">   128</i>
  <i type="int" name="NEDOS">  2400</i>
  <i type="logical" name="LREAL"> F  </i>
  <i type="int" name="ISMEAR">     0</i>
  <i name="SIGMA">      0.01000000</i>
  <i type="int" name="NWRITE">     3</i>
  <i type="logical" name="LOPTICS"> T  </i>
  <v type="int" name="KPOINT_BSE">    -1     0     0     0</v>
  <i name="CSHIFT">      0.10000000</i>
  <i name="CSHIFT">      0.10000000</i>
 </incar>
 <structure name="primitive_cell" >
  <crystal>
   <varray name="basis" >
    <v>       4.48084843       2.58701885       0.00000000 </v>
    <v>      -4.48084843       2.58701885       0.00000000 </v>
    <v>       0.00000000       0.00000000       8.52022140 </v>
   </varray>
   <i name="volume">    197.53348383 </i>
   <varray name="rec_basis" >
    <v>       0.11158601       0.19327265       0.00000000 </v>
    <v>      -0.11158601       0.19327265       0.00000000 </v>
    <v>       0.00000000       0.00000000       0.11736784 </v>
   </varray>
  </crystal>
  <varray name="positions" >
   <v>       0.33333300      -0.33333400       0.25000000 </v>
   <v>       0.15869124       0.31738348       0.25000000 </v>
   <v>      -0.31738448      -0.15869224       0.25000000 </v>
   <v>       0.15869124      -0.15869224       0.25000000 </v>
   <v>      -0.15869224       0.15869124       0.25000000 </v>
   <v>       0.31738348       0.15869124       0.25000000 </v>
   <v>      -0.15869224      -0.31738448       0.25000000 </v>
   <v>      -0.33333400       0.33333300       0.25000000 </v>
  </varray>
 </structure>
 <varray name="primitive_index" >
  <v type="int" >        1 </v>
  <v type="int" >        3 </v>
  <v type="int" >        7 </v>
  <v type="int" >        5 </v>
  <v type="int" >        6 </v>
  <v type="int" >        4 </v>
  <v type="int" >        8 </v>
  <v type="int" >        2 </v>
 </varray>
 <kpoints>
  <generation param="Gamma">
   <v type="int" name="divisions">      12       12        1 </v>
   <v name="usershift">      0.00000000       0.00000000       0.00000000 </v>
   <v name="genvec1">      0.08333333       0.00000000       0.00000000 </v>
   <v name="genvec2">      0.00000000       0.08333333       0.00000000 </v>
   <v name="genvec3">      0.00000000       0.00000000       1.00000000 </v>
   <v name="shift">      0.00000000       0.00000000       0.00000000 </v>
  </generation>
  <varray name="kpointlist" >
   <v>       0.00000000       0.00000000       0.00000000 </v>
   <v>       0.08333333       0.00000000       0.00000000 </v>
   <v>       0.16666667       0.00000000       0.00000000 </v>
   <v>       0.25000000      -0.00000000       0.00000000 </v>
   <v>       0.33333333      -0.00000000       0.00000000 </v>
   <v>       0.41666667       0.00000000       0.00000000 </v>
   <v>       0.50000000      -0.00000000       0.00000000 </v>
   <v>       0.08333333       0.08333333       0.00000000 </v>
   <v>       0.16666667       0.08333333       0.00000000 </v>
   <v>       0.25000000       0.08333333       0.00000000 </v>
   <v>       0.33333333       0.08333333       0.00000000 </v>
   <v>       0.41666667       0.08333333       0.00000000 </v>
   <v>       0.16666667       0.16666667       0.00000000 </v>
   <v>       0.25000000       0.16666667       0.00000000 </v>
   <v>       0.33333333       0.16666667       0.00000000 </v>
   <v>       0.41666667       0.16666667       0.00000000 </v>
   <v>       0.25000000       0.25000000       0.00000000 </v>
   <v>       0.33333333       0.25000000       0.00000000 </v>
   <v>       0.33333333       0.33333333       0.00000000 </v>
  </varray>
  <varray name="weights" >
   <v>       0.00694444 </v>
   <v>       0.04166667 </v>
   <v>       0.04166667 </v>
   <v>       0.04166667 </v>
   <v>       0.04166667 </v>
   <v>       0.04166667 </v>
   <v>       0.02083333 </v>
   <v>       0.04166667 </v>
   <v>       0.08333333 </v>
   <v>       0.08333333 </v>
   <v>       0.08333333 </v>
   <v>       0.08333333 </v>
   <v>       0.04166667 </v>
   <v>       0.08333333 </v>
   <v>       0.08333333 </v>
   <v>       0.04166667 </v>
   <v>       0.04166667 </v>
   <v>       0.08333333 </v>
   <v>       0.01388889 </v>
  </varray>
 </kpoints>
 <parameters>
  <separator name="general" >
   <i type="string" name="SYSTEM">BC3-optical</i>
   <i type="logical" name="LCOMPAT"> F  </i>
  </separator>
  <separator name="electronic" >
   <i type="string" name="PREC">accura</i>
   <i name="ENMAX">    450.00000000</i>
   <i name="ENAUG">    644.87300000</i>
   <i name="EDIFF">      0.00000001</i>
   <i type="int" name="IALGO">    90</i>
   <i type="int" name="IWAVPR">    10</i>
   <i type="int" name="NBANDS">   132</i>
   <i name="NELECT">     30.00000000</i>
   <i type="int" name="TURBO">     0</i>
   <i type="int" name="IRESTART">     0</i>
   <i type="int" name="NREBOOT">     0</i>
   <i type="int" name="NMIN">     0</i>
   <i name="EREF">      0.00000000</i>
   <separator name="electronic smearing" >
    <i type="int" name="ISMEAR">     0</i>
    <i name="SIGMA">      0.01000000</i>
    <i name="KSPACING">      0.50000000</i>
    <i type="logical" name="KGAMMA"> T  </i>
   </separator>
   <separator name="electronic projectors" >
    <i type="logical" name="LREAL"> F  </i>
    <v name="ROPT">      0.00000000      0.00000000</v>
    <i type="int" name="LMAXPAW">  -100</i>
    <i type="int" name="LMAXMIX">     2</i>
    <i type="logical" name="NLSPLINE"> F  </i>
   </separator>
   <separator name="electronic startup" >
    <i type="int" name="ISTART">     1</i>
    <i type="int" name="ICHARG">     2</i>
    <i type="int" name="INIWAV">     1</i>
   </separator>
   <separator name="electronic spin" >
    <i type="int" name="ISPIN">     1</i>
    <i type="logical" name="LNONCOLLINEAR"> F  </i>
    <v name="MAGMOM">      1.00000000      1.00000000      1.00000000      1.00000000      1.00000000      1.00000000      1.00000000      1.00000000</v>
    <i name="NUPDOWN">     -1.00000000</i>
    <i type="logical" name="LSORBIT"> F  </i>
    <v name="SAXIS">      0.00000000      0.00000000      1.00000000</v>
    <i type="logical" name="LSPIRAL"> F  </i>
    <v name="QSPIRAL">      0.00000000      0.00000000      0.00000000</v>
    <i type="logical" name="LZEROZ"> F  </i>
   </separator>
   <separator name="electronic exchange-correlation" >
    <i type="logical" name="LASPH"> F  </i>
    <i type="logical" name="LMETAGGA"> F  </i>
   </separator>
   <separator name="electronic convergence" >
    <i type="int" name="NELM">    60</i>
    <i type="int" name="NELMDL">     0</i>
    <i type="int" name="NELMIN">     2</i>
    <i name="ENINI">    450.00000000</i>
    <separator name="electronic convergence detail" >
     <i type="logical" name="LDIAG"> T  </i>
     <i type="logical" name="LSUBROT"> F  </i>
     <i name="WEIMIN">      0.00000000</i>
     <i name="EBREAK">      0.00000000</i>
     <i name="DEPER">      0.30000000</i>
     <i type="int" name="NRMM">     4</i>
     <i name="TIME">      0.40000000</i>
    </separator>
   </separator>
   <separator name="electronic mixer" >
    <i name="AMIX">      0.40000000</i>
    <i name="BMIX">      1.00000000</i>
    <i name="AMIN">      0.10000000</i>
    <i name="AMIX_MAG">      1.60000000</i>
    <i name="BMIX_MAG">      1.00000000</i>
    <separator name="electronic mixer details" >
     <i type="int" name="IMIX">     4</i>
     <i type="logical" name="MIXFIRST"> F  </i>
     <i type="int" name="MAXMIX">   -45</i>
     <i name="WC">    100.00000000</i>
     <i type="int" name="INIMIX">     1</i>
     <i type="int" name="MIXPRE">     1</i>
     <i type="int" name="MREMOVE">     5</i>
    </separator>
   </separator>
   <separator name="electronic dipolcorrection" >
    <i type="logical" name="LDIPOL"> F  </i>
    <i type="logical" name="LMONO"> F  </i>
    <i type="int" name="IDIPOL">     0</i>
    <i name="EPSILON">      1.00000000</i>
    <v name="DIPOL">   -100.00000000   -100.00000000   -100.00000000</v>
    <i name="EFIELD">      0.00000000</i>
   </separator>
  </separator>
  <separator name="grids" >
   <i type="int" name="NGX">    36</i>
   <i type="int" name="NGY">    36</i>
   <i type="int" name="NGZ">    60</i>
   <i type="int" name="NGXF">    72</i>
   <i type="int" name="NGYF">    72</i>
   <i type="int" name="NGZF">   120</i>
   <i type="logical" name="ADDGRID"> F  </i>
  </separator>
  <separator name="ionic" >
   <i type="int" name="NSW">     0</i>
   <i type="int" name="IBRION">    -1</i>
   <i type="int" name="MDALGO">     0</i>
   <i type="int" name="ISIF">     2</i>
   <i name="PSTRESS">      0.00000000</i>
   <i name="EDIFFG">      0.00000010</i>
   <i type="int" name="NFREE">     0</i>
   <i name="POTIM">      0.50000000</i>
   <i name="SMASS">     -3.00000000</i>
   <i name="SCALEE">      1.00000000</i>
  </separator>
  <separator name="ionic md" >
   <i name="TEBEG">      0.00010000</i>
   <i name="TEEND">      0.00010000</i>
   <i type="int" name="NBLOCK">     1</i>
   <i type="int" name="KBLOCK">     1</i>
   <i type="int" name="NPACO">   256</i>
   <i name="APACO">     16.00000000</i>
  </separator>
  <separator name="symmetry" >
   <i type="int" name="ISYM">     2</i>
   <i name="SYMPREC">      0.00001000</i>
  </separator>
  <separator name="dos" >
   <i type="int" name="LORBIT">     0</i>
   <v name="RWIGS">     -1.00000000     -1.00000000</v>
   <i type="int" name="NEDOS">  2400</i>
   <i name="EMIN">     10.00000000</i>
   <i name="EMAX">    -10.00000000</i>
   <i name="EFERMI">      0.00000000</i>
  </separator>
  <separator name="writing" >
   <i type="int" name="NWRITE">     3</i>
   <i type="logical" name="LWAVE"> T  </i>
   <i type="logical" name="LDOWNSAMPLE"> F  </i>
   <i type="logical" name="LCHARG"> T  </i>
   <i type="logical" name="LPARD"> F  </i>
   <i type="logical" name="LVTOT"> F  </i>
   <i type="logical" name="LVHAR"> F  </i>
   <i type="logical" name="LELF"> F  </i>
   <i type="logical" name="LOPTICS"> T  </i>
   <v name="STM">      0.00000000      0.00000000      0.00000000      0.00000000      0.00000000      0.00000000      0.00000000</v>
  </separator>
  <separator name="performance" >
   <i type="int" name="NPAR">    12</i>
   <i type="int" name="NSIM">     4</i>
   <i type="int" name="NBLK">    -1</i>
   <i type="logical" name="LPLANE"> T  </i>
   <i type="logical" name="LSCALAPACK"> T  </i>
   <i type="logical" name="LSCAAWARE"> F  </i>
   <i type="logical" name="LSCALU"> F  </i>
   <i type="logical" name="LASYNC"> F  </i>
   <i type="logical" name="LORBITALREAL"> F  </i>
  </separator>
  <separator name="miscellaneous" >
   <i type="int" name="IDIOT">     3</i>
   <i type="int" name="ISPECIAL">     0</i>
   <i type="logical" name="LMUSIC"> F  </i>
   <v name="POMASS">     10.81100000     12.01100000</v>
   <v name="DARWINR">      0.00000000      0.00000000</v>
   <v name="DARWINV">      1.00000000      1.00000000</v>
   <i type="logical" name="LCORR"> T  </i>
  </separator>
  <i type="logical" name="GGA_COMPAT"> T  </i>
  <i type="logical" name="LBERRY"> F  </i>
  <i type="int" name="ICORELEVEL">     0</i>
  <i type="logical" name="LDAU"> F  </i>
  <i type="int" name="I_CONSTRAINED_M">     0</i>
  <separator name="electronic exchange-correlation" >
   <i type="string" name="GGA">--</i>
   <i type="int" name="VOSKOWN">     0</i>
   <i type="logical" name="LHFCALC"> F  </i>
   <i type="string" name="PRECFOCK"></i>
   <i type="logical" name="LSYMGRAD"> F  </i>
   <i type="logical" name="LHFONE"> F  </i>
   <i type="logical" name="LRHFCALC"> F  </i>
   <i type="logical" name="LTHOMAS"> F  </i>
   <i type="logical" name="LMODELHF"> F  </i>
   <i name="ENCUT4O">     -1.00000000</i>
   <i type="int" name="EXXOEP">     0</i>
   <i type="int" name="FOURORBIT">     0</i>
   <i name="AEXX">      0.00000000</i>
   <i name="HFALPHA">      0.00000000</i>
   <i name="MCALPHA">      0.00000000</i>
   <i name="ALDAX">      1.00000000</i>
   <i name="AGGAX">      1.00000000</i>
   <i name="ALDAC">      1.00000000</i>
   <i name="AGGAC">      1.00000000</i>
   <i type="int" name="NKREDX">     1</i>
   <i type="int" name="NKREDY">     1</i>
   <i type="int" name="NKREDZ">     1</i>
   <i type="logical" name="SHIFTRED"> F  </i>
   <i type="logical" name="ODDONLY"> F  </i>
   <i type="logical" name="EVENONLY"> F  </i>
   <i type="int" name="LMAXFOCK">     0</i>
   <i type="int" name="NMAXFOCKAE">     0</i>
   <i type="logical" name="LFOCKAEDFT"> F  </i>
   <i name="HFSCREEN">      0.00000000</i>
   <i name="HFSCREENC">      0.00000000</i>
   <i type="int" name="NBANDSGWLOW">     0</i>
  </separator>
  <separator name="vdW DFT" >
   <i type="logical" name="LUSE_VDW"> F  </i>
   <i name="Zab_VDW">     -0.84910000</i>
   <i name="PARAM1">      0.12340000</i>
   <i name="PARAM2">      1.00000000</i>
   <i name="PARAM3">      0.00000000</i>
  </separator>
  <separator name="model GW" >
   <i type="int" name="MODEL_GW">     0</i>
   <i name="MODEL_EPS0">     14.81501129</i>
   <i name="MODEL_ALPHA">      1.00000000</i>
  </separator>
  <separator name="linear response parameters" >
   <i type="logical" name="LEPSILON"> F  </i>
   <i type="logical" name="LRPA"> F  </i>
   <i type="logical" name="LNABLA"> F  </i>
   <i type="logical" name="LVEL"> F  </i>
   <i type="int" name="KINTER">     0</i>
   <i name="CSHIFT">      0.10000000</i>
   <i name="OMEGAMAX">     -1.00000000</i>
   <i name="DEG_THRESHOLD">      0.00200000</i>
   <i name="RTIME">     -0.10000000</i>
   <i name="WPLASMAI">      0.00000000</i>
   <v name="DFIELD">      0.00000000      0.00000000      0.00000000</v>
   <v name="WPLASMA">      0.00000000      0.00000000      0.00000000      0.00000000      0.00000000      0.00000000      0.00000000      0.00000000      0.00000000</v>
  </separator>
  <separator name="orbital magnetization" >
   <i type="logical" name="NUCIND"> F  </i>
   <v name="MAGPOS">      0.00000000      0.00000000      0.00000000</v>
   <i type="logical" name="LNICSALL"> T  </i>
   <i type="logical" name="ORBITALMAG"> F  </i>
   <i type="logical" name="LMAGBLOCH"> F  </i>
   <i type="logical" name="LCHIMAG"> F  </i>
   <i type="logical" name="LGAUGE"> T  </i>
   <i type="int" name="MAGATOM">     0</i>
   <v name="MAGDIPOL">      0.00000000      0.00000000      0.00000000</v>
   <v name="AVECCONST">      0.00000000      0.00000000      0.00000000</v>
  </separator>
  <separator name="response functions" >
   <i type="logical" name="LADDER"> F  </i>
   <i type="logical" name="LRPAFORCE"> F  </i>
   <i type="logical" name="LFXC"> F  </i>
   <i type="logical" name="LHARTREE"> T  </i>
   <i type="int" name="IBSE">     0</i>
   <v type="int" name="KPOINT">    -1     0     0     0</v>
   <i type="logical" name="LTCTE"> F  </i>
   <i type="logical" name="LTETE"> F  </i>
   <i type="logical" name="LTRIPLET"> F  </i>
   <i type="logical" name="LFXCEPS"> F  </i>
   <i type="logical" name="LFXHEG"> F  </i>
   <i type="int" name="NATURALO">     2</i>
   <i type="logical" name="L2ORDER"> F  </i>
   <i type="logical" name="LMP2LT"> F  </i>
   <i type="logical" name="LUSEW"> F  </i>
   <i name="ENCUTGW">     -2.00000000</i>
   <i name="ENCUTGWSOFT">     -2.00000000</i>
   <i name="ENCUTLF">     -1.00000000</i>
   <i type="int" name="LMAXMP2">    -1</i>
   <i name="SCISSOR">      0.00000000</i>
   <i type="int" name="NOMEGA">     0</i>
   <i type="int" name="NOMEGAR">     0</i>
   <i type="int" name="NBANDSGW">    -1</i>
   <i type="int" name="NBANDSO">    -1</i>
   <i type="int" name="NBANDSV">    -1</i>
   <i type="int" name="NELM">     1</i>
   <i type="int" name="NELMHF">     1</i>
   <i type="int" name="DIM">     3</i>
   <i type="int" name="ANTIRES">     0</i>
   <i name="OMEGAMAX">    -30.00000000</i>
   <i name="OMEGAMIN">    -30.00000000</i>
   <i name="OMEGATL">   -200.00000000</i>
   <i type="int" name="OMEGAGRID">   140</i>
   <i name="CSHIFT">      0.10000000</i>
   <i type="logical" name="SELFENERGY"> F  </i>
   <i type="logical" name="LSPECTRAL"> F  </i>
   <i type="logical" name="LSPECTRALGW"> F  </i>
   <i type="logical" name="LSINGLES"> F  </i>
   <i type="logical" name="LFERMIGW"> F  </i>
   <i type="logical" name="ODDONLYGW"> F  </i>
   <i type="logical" name="EVENONLYGW"> F  </i>
   <i type="int" name="NKREDLFX">     1</i>
   <i type="int" name="NKREDLFY">     1</i>
   <i type="int" name="NKREDLFZ">     1</i>
   <i type="int" name="MAXMEM">  2800</i>
   <i type="int" name="TELESCOPE">     0</i>
   <i type="int" name="TAUPAR">     1</i>
   <i type="int" name="OMEGAPAR">    -1</i>
   <i name="LAMBDA">      1.00000000</i>
  </separator>
  <separator name="External order field" >
   <i name="OFIELD_KAPPA">      0.00000000</i>
   <v name="OFIELD_K">      0.00000000      0.00000000      0.00000000</v>
   <i name="OFIELD_Q6_NEAR">      0.00000000</i>
   <i name="OFIELD_Q6_FAR">      0.00000000</i>
   <i name="OFIELD_A">      0.00000000</i>
  </separator>
 </parameters>
 <atominfo>
  <atoms>       8 </atoms>
  <types>       2 </types>
  <array name="atoms" >
   <dimension dim="1">ion</dimension>
   <field type="string">element</field>
   <field type="int">atomtype</field>
   <set>
    <rc><c>B </c><c>   1</c></rc>
    <rc><c>B </c><c>   1</c></rc>
    <rc><c>C </c><c>   2</c></rc>
    <rc><c>C </c><c>   2</c></rc>
    <rc><c>C </c><c>   2</c></rc>
    <rc><c>C </c><c>   2</c></rc>
    <rc><c>C </c><c>   2</c></rc>
    <rc><c>C </c><c>   2</c></rc>
   </set>
  </array>
  <array name="atomtypes" >
   <dimension dim="1">type</dimension>
   <field type="int">atomspertype</field>
   <field type="string">element</field>
   <field>mass</field>
   <field>valence</field>
   <field type="string">pseudopotential</field>
   <set>
    <rc><c>   2</c><c>B </c><c>     10.81100000</c><c>      3.00000000</c><c>  PAW_PBE B 06Sep2000                   </c></rc>
    <rc><c>   6</c><c>C </c><c>     12.01100000</c><c>      4.00000000</c><c>  PAW_PBE C 08Apr2002                   </c></rc>
   </set>
  </array>
 </atominfo>
 <structure name="initialpos" >
  <crystal>
   <varray name="basis" >
    <v>       4.48084843       2.58701885       0.00000000 </v>
    <v>      -4.48084843       2.58701885       0.00000000 </v>
    <v>       0.00000000       0.00000000       8.52022140 </v>
   </varray>
   <i name="volume">    197.53348383 </i>
   <varray name="rec_basis" >
    <v>       0.11158601       0.19327265       0.00000000 </v>
    <v>      -0.11158601       0.19327265       0.00000000 </v>
    <v>       0.00000000       0.00000000       0.11736784 </v>
   </varray>
  </crystal>
  <varray name="positions" >
   <v>       0.33333300       0.66666600       0.25000000 </v>
   <v>       0.66666600       0.33333300       0.25000000 </v>
   <v>       0.15869124       0.31738348       0.25000000 </v>
   <v>       0.31738348       0.15869124       0.25000000 </v>
   <v>       0.15869124       0.84130776       0.25000000 </v>
   <v>       0.84130776       0.15869124       0.25000000 </v>
   <v>       0.68261552       0.84130776       0.25000000 </v>
   <v>       0.84130776       0.68261552       0.25000000 </v>
  </varray>
 </structure>
 <calculation>
  <scstep>
   <time name="diag">  547.14  547.14</time>
   <time name="total">  547.29  547.29</time>
   <energy>
    <i name="alphaZ">     25.67921176 </i>
    <i name="ewald">    700.27145080 </i>
    <i name="hartreedc">  -1524.76618073 </i>
    <i name="XCdc">     91.14273073 </i>
    <i name="pawpsdc">    738.13200929 </i>
    <i name="pawaedc">   -739.83780425 </i>
    <i name="eentropy">     -0.00000000 </i>
    <i name="bandstr">   -389.26594481 </i>
    <i name="atom">   1025.20389953 </i>
    <i name="e_fr_energy">    -73.44062769 </i>
    <i name="e_wo_entrp">    -73.44062769 </i>
    <i name="e_0_energy">    -73.44062769 </i>
   </energy>
  </scstep>
  <scstep>
   <time name="diag">  569.77  569.77</time>
   <time name="total">  569.93  570.06</time>
   <energy>
    <i name="e_fr_energy">    -68.99901163 </i>
    <i name="e_wo_entrp">    -68.99901163 </i>
    <i name="e_0_energy">    -68.99901163 </i>
   </energy>
  </scstep>
  <scstep>
   <time name="diag">  556.06  556.06</time>
   <time name="total">  556.22  556.26</time>
   <energy>
    <i name="e_fr_energy">    -67.35394036 </i>
    <i name="e_wo_entrp">    -67.35394036 </i>
    <i name="e_0_energy">    -67.35394036 </i>
   </energy>
  </scstep>
  <scstep>
   <time name="diag">  568.43  568.43</time>
   <time name="total">  568.59  568.64</time>
   <energy>
    <i name="e_fr_energy">    -67.24757337 </i>
    <i name="e_wo_entrp">    -67.24757337 </i>
    <i name="e_0_energy">    -67.24757337 </i>
   </energy>
  </scstep>
  <scstep>
   <time name="diag">  584.06  584.06</time>
   <time name="total">  584.22  584.23</time>
   <energy>
    <i name="e_fr_energy">    -67.22049319 </i>
    <i name="e_wo_entrp">    -67.22049319 </i>
    <i name="e_0_energy">    -67.22049319 </i>
   </energy>
  </scstep>
  <scstep>
   <time name="diag">  563.32  563.32</time>
   <time name="total">  563.48  563.47</time>
   <energy>
    <i name="e_fr_energy">    -67.21907962 </i>
    <i name="e_wo_entrp">    -67.21907962 </i>
    <i name="e_0_energy">    -67.21907962 </i>
   </energy>
  </scstep>
  <scstep>
   <time name="diag">  565.49  565.49</time>
   <time name="total">  565.65  565.65</time>
   <energy>
    <i name="e_fr_energy">    -67.22295241 </i>
    <i name="e_wo_entrp">    -67.22295241 </i>
    <i name="e_0_energy">    -67.22295241 </i>
   </energy>
  </scstep>
  <scstep>
   <time name="diag">  566.48  566.47</time>
   <time name="total">  566.63  566.63</time>
   <energy>
    <i name="e_fr_energy">    -67.22702477 </i>
    <i name="e_wo_entrp">    -67.22702477 </i>
    <i name="e_0_energy">    -67.22702477 </i>
   </energy>
  </scstep>
  <scstep>
   <time name="diag">  560.81  560.81</time>
   <time name="total">  560.96  560.96</time>
   <energy>
    <i name="e_fr_energy">    -67.22770203 </i>
    <i name="e_wo_entrp">    -67.22770203 </i>
    <i name="e_0_energy">    -67.22770203 </i>
   </energy>
  </scstep>
  <scstep>
   <time name="diag">  563.95  563.95</time>
   <time name="total">  564.11  564.10</time>
   <energy>
    <i name="e_fr_energy">    -67.22771724 </i>
    <i name="e_wo_entrp">    -67.22771724 </i>
    <i name="e_0_energy">    -67.22771724 </i>
   </energy>
  </scstep>
  <scstep>
   <time name="diag">  563.13  563.13</time>
   <time name="total">  563.28  563.28</time>
   <energy>
    <i name="e_fr_energy">    -67.22773009 </i>
    <i name="e_wo_entrp">    -67.22773009 </i>
    <i name="e_0_energy">    -67.22773009 </i>
   </energy>
  </scstep>
  <scstep>
   <time name="diag">  552.52  552.51</time>
   <time name="total">  552.67  552.67</time>
   <energy>
    <i name="e_fr_energy">    -67.22773016 </i>
    <i name="e_wo_entrp">    -67.22773016 </i>
    <i name="e_0_energy">    -67.22773016 </i>
   </energy>
  </scstep>
  <scstep>
   <time name="diag">  563.42  563.41</time>
   <time name="total">  563.57  563.57</time>
   <energy>
    <i name="e_fr_energy">    -67.22773024 </i>
    <i name="e_wo_entrp">    -67.22773024 </i>
    <i name="e_0_energy">    -67.22773024 </i>
   </energy>
  </scstep>
  <scstep>
   <time name="diag">  563.31  563.31</time>
   <time name="total">  563.41  563.40</time>
   <energy>
    <i name="alphaZ">     25.67921176 </i>
    <i name="ewald">    700.27145080 </i>
    <i name="hartreedc">  -1646.75291200 </i>
    <i name="XCdc">     96.02426133 </i>
    <i name="pawpsdc">   2894.38113021 </i>
    <i name="pawaedc">  -2896.90834130 </i>
    <i name="eentropy">     -0.00000000 </i>
    <i name="bandstr">   -265.12643058 </i>
    <i name="atom">   1025.20389953 </i>
    <i name="e_fr_energy">    -67.22773025 </i>
    <i name="e_wo_entrp">    -67.22773025 </i>
    <i name="e_0_energy">    -67.22773025 </i>
   </energy>
  </scstep>
  <structure>
   <crystal>
    <varray name="basis" >
     <v>       4.48084843       2.58701885       0.00000000 </v>
     <v>      -4.48084843       2.58701885       0.00000000 </v>
     <v>       0.00000000       0.00000000       8.52022140 </v>
    </varray>
    <i name="volume">    197.53348383 </i>
    <varray name="rec_basis" >
     <v>       0.11158601       0.19327265       0.00000000 </v>
     <v>      -0.11158601       0.19327265       0.00000000 </v>
     <v>       0.00000000       0.00000000       0.11736784 </v>
    </varray>
   </crystal>
   <varray name="positions" >
    <v>       0.33333300       0.66666600       0.25000000 </v>
    <v>       0.66666600       0.33333300       0.25000000 </v>
    <v>       0.15869124       0.31738348       0.25000000 </v>
    <v>       0.31738348       0.15869124       0.25000000 </v>
    <v>       0.15869124       0.84130776       0.25000000 </v>
    <v>       0.84130776       0.15869124       0.25000000 </v>
    <v>       0.68261552       0.84130776       0.25000000 </v>
    <v>       0.84130776       0.68261552       0.25000000 </v>
   </varray>
  </structure>
  <varray name="forces" >
   <v>      -0.00000000      -0.00000000       0.00000000 </v>
   <v>      -0.00000000      -0.00000000       0.00000000 </v>
   <v>      -0.00064694       0.00112054      -0.00000000 </v>
   <v>       0.00064694       0.00112054      -0.00000000 </v>
   <v>       0.00129389      -0.00000000       0.00000000 </v>
   <v>      -0.00129389      -0.00000000       0.00000000 </v>
   <v>      -0.00064694      -0.00112054      -0.00000000 </v>
   <v>       0.00064694      -0.00112054       0.00000000 </v>
  </varray>
  <varray name="stress" >
   <v>      -0.53277496       0.00000000       0.00000000 </v>
   <v>       0.00000000      -0.53277488      -0.00000000 </v>
   <v>       0.00000000      -0.00000000      -1.27118549 </v>
  </varray>
  <energy>
   <i name="e_fr_energy">    -67.22773025 </i>
   <i name="e_wo_entrp">    -67.22773025 </i>
   <i name="e_0_energy">     -0.00000000 </i>
  </energy>
  <time name="totalsc"> 7892.86 7893.90</time>
  <eigenvalues>
   <array>
    <dimension dim="1">band</dimension>
    <dimension dim="2">kpoint</dimension>
    <dimension dim="3">spin</dimension>
    <field>eigene</field>
    <field>occ</field>
    <set>
     <set comment="spin 1">
      <set comment="kpoint 1">
       <r>  -18.5403    1.0000 </r>
       <r>  -14.6488    1.0000 </r>
       <r>  -14.6488    1.0000 </r>
       <r>  -12.2992    1.0000 </r>
       <r>  -12.2992    1.0000 </r>
       <r>  -11.2307    1.0000 </r>
       <r>   -9.9135    1.0000 </r>
       <r>   -7.3452    1.0000 </r>
       <r>   -7.1249    1.0000 </r>
       <r>   -4.9710    1.0000 </r>
       <r>   -4.9710    1.0000 </r>
       <r>   -3.1493    1.0000 </r>
       <r>   -3.1492    1.0000 </r>
       <r>   -2.4667    1.0000 </r>
       <r>   -2.4666    1.0000 </r>
       <r>   -0.6315    0.0000 </r>
       <r>    1.1011    0.0000 </r>
       <r>    1.1012    0.0000 </r>
       <r>    1.7906    0.0000 </r>
       <r>    1.9217    0.0000 </r>
       <r>    4.5207    0.0000 </r>
       <r>    5.9130    0.0000 </r>
       <r>    6.3151    0.0000 </r>
       <r>    6.3151    0.0000 </r>
       <r>    7.6726    0.0000 </r>
       <r>    8.0796    0.0000 </r>
       <r>    8.0797    0.0000 </r>
       <r>    8.9955    0.0000 </r>
       <r>    9.1419    0.0000 </r>
       <r>    9.1419    0.0000 </r>
       <r>    9.2976    0.0000 </r>
       <r>    9.2976    0.0000 </r>
       <r>    9.5160    0.0000 </r>
       <r>   10.3273    0.0000 </r>
       <r>   10.6836    0.0000 </r>
       <r>   10.6836    0.0000 </r>
       <r>   11.3540    0.0000 </r>
       <r>   11.3541    0.0000 </r>
       <r>   11.3922    0.0000 </r>
       <r>   11.3995    0.0000 </r>
       <r>   11.9841    0.0000 </r>
       <r>   13.0008    0.0000 </r>
       <r>   13.0008    0.0000 </r>
       <r>   13.0285    0.0000 </r>
       <r>   13.1319    0.0000 </r>
       <r>   13.1319    0.0000 </r>
       <r>   13.1825    0.0000 </r>
       <r>   13.5279    0.0000 </r>
       <r>   15.6135    0.0000 </r>
       <r>   15.8008    0.0000 </r>
       <r>   15.8008    0.0000 </r>
       <r>   16.4913    0.0000 </r>
       <r>   18.2923    0.0000 </r>
       <r>   18.2923    0.0000 </r>
       <r>   18.8601    0.0000 </r>
       <r>   18.8602    0.0000 </r>
       <r>   19.1473    0.0000 </r>
       <r>   19.2290    0.0000 </r>
       <r>   19.5333    0.0000 </r>
       <r>   19.5333    0.0000 </r>
       <r>   19.7217    0.0000 </r>
       <r>   19.9888    0.0000 </r>
       <r>   19.9888    0.0000 </r>
       <r>   20.0167    0.0000 </r>
       <r>   20.4546    0.0000 </r>
       <r>   21.0813    0.0000 </r>
       <r>   21.3027    0.0000 </r>
       <r>   21.3027    0.0000 </r>
       <r>   22.8793    0.0000 </r>
       <r>   23.2968    0.0000 </r>
       <r>   23.2968    0.0000 </r>
       <r>   23.4397    0.0000 </r>
       <r>   23.4397    0.0000 </r>
       <r>   23.5738    0.0000 </r>
       <r>   24.0936    0.0000 </r>
       <r>   24.0936    0.0000 </r>
       <r>   24.4126    0.0000 </r>
       <r>   24.4126    0.0000 </r>
       <r>   24.5372    0.0000 </r>
       <r>   24.6374    0.0000 </r>
       <r>   24.8763    0.0000 </r>
       <r>   25.2174    0.0000 </r>
       <r>   25.2174    0.0000 </r>
       <r>   26.6516    0.0000 </r>
       <r>   26.6516    0.0000 </r>
       <r>   26.7538    0.0000 </r>
       <r>   26.7538    0.0000 </r>
       <r>   26.8463    0.0000 </r>
       <r>   27.0341    0.0000 </r>
       <r>   27.1216    0.0000 </r>
       <r>   27.7308    0.0000 </r>
       <r>   27.7308    0.0000 </r>
       <r>   27.7998    0.0000 </r>
       <r>   27.7998    0.0000 </r>
       <r>   27.8401    0.0000 </r>
       <r>   28.2967    0.0000 </r>
       <r>   28.2967    0.0000 </r>
       <r>   28.7936    0.0000 </r>
       <r>   28.7936    0.0000 </r>
       <r>   28.9524    0.0000 </r>
       <r>   29.6489    0.0000 </r>
       <r>   30.2897    0.0000 </r>
       <r>   31.1920    0.0000 </r>
       <r>   31.1920    0.0000 </r>
       <r>   31.4239    0.0000 </r>
       <r>   31.4816    0.0000 </r>
       <r>   31.4816    0.0000 </r>
       <r>   31.8841    0.0000 </r>
       <r>   32.0865    0.0000 </r>
       <r>   32.0865    0.0000 </r>
       <r>   32.4044    0.0000 </r>
       <r>   32.6844    0.0000 </r>
       <r>   33.2983    0.0000 </r>
       <r>   33.2983    0.0000 </r>
       <r>   33.3127    0.0000 </r>
       <r>   33.3127    0.0000 </r>
       <r>   33.4606    0.0000 </r>
       <r>   34.0099    0.0000 </r>
       <r>   34.9816    0.0000 </r>
       <r>   34.9816    0.0000 </r>
       <r>   35.0442    0.0000 </r>
       <r>   35.0442    0.0000 </r>
       <r>   35.2268    0.0000 </r>
       <r>   35.2268    0.0000 </r>
       <r>   35.8334    0.0000 </r>
       <r>   35.8655    0.0000 </r>
       <r>   35.8655    0.0000 </r>
       <r>   36.0454    0.0000 </r>
       <r>   36.6964    0.0000 </r>
       <r>   36.6964    0.0000 </r>
       <r>   37.0546    0.0000 </r>
       <r>   37.3010    0.0000 </r>
      </set>
      <set comment="kpoint 2">
       <r>  -18.5132    1.0000 </r>
       <r>  -14.7809    1.0000 </r>
       <r>  -14.6912    1.0000 </r>
       <r>  -12.3384    1.0000 </r>
       <r>  -12.2008    1.0000 </r>
       <r>  -11.0961    1.0000 </r>
       <r>   -9.7531    1.0000 </r>
       <r>   -7.3040    1.0000 </r>
       <r>   -7.1822    1.0000 </r>
       <r>   -5.0944    1.0000 </r>
       <r>   -4.9934    1.0000 </r>
       <r>   -3.2737    1.0000 </r>
       <r>   -3.1697    1.0000 </r>
       <r>   -2.6092    1.0000 </r>
       <r>   -2.5354    1.0000 </r>
       <r>   -0.8361    0.0000 </r>
       <r>    1.1605    0.0000 </r>
       <r>    1.4116    0.0000 </r>
       <r>    1.9153    0.0000 </r>
       <r>    1.9734    0.0000 </r>
       <r>    4.5728    0.0000 </r>
       <r>    5.9692    0.0000 </r>
       <r>    6.3866    0.0000 </r>
       <r>    6.4781    0.0000 </r>
       <r>    7.6627    0.0000 </r>
       <r>    8.0377    0.0000 </r>
       <r>    8.2336    0.0000 </r>
       <r>    8.2352    0.0000 </r>
       <r>    8.6808    0.0000 </r>
       <r>    8.7555    0.0000 </r>
       <r>    9.8480    0.0000 </r>
       <r>    9.8619    0.0000 </r>
       <r>    9.9124    0.0000 </r>
       <r>   10.3759    0.0000 </r>
       <r>   10.3995    0.0000 </r>
       <r>   10.4193    0.0000 </r>
       <r>   10.9077    0.0000 </r>
       <r>   11.4137    0.0000 </r>
       <r>   11.6687    0.0000 </r>
       <r>   12.0448    0.0000 </r>
       <r>   12.1516    0.0000 </r>
       <r>   12.3345    0.0000 </r>
       <r>   12.5608    0.0000 </r>
       <r>   12.8381    0.0000 </r>
       <r>   13.0972    0.0000 </r>
       <r>   13.6279    0.0000 </r>
       <r>   13.8001    0.0000 </r>
       <r>   14.2603    0.0000 </r>
       <r>   15.5623    0.0000 </r>
       <r>   15.6614    0.0000 </r>
       <r>   15.7181    0.0000 </r>
       <r>   16.2792    0.0000 </r>
       <r>   18.0211    0.0000 </r>
       <r>   18.0716    0.0000 </r>
       <r>   18.6452    0.0000 </r>
       <r>   18.9834    0.0000 </r>
       <r>   18.9928    0.0000 </r>
       <r>   19.3961    0.0000 </r>
       <r>   19.4430    0.0000 </r>
       <r>   19.8594    0.0000 </r>
       <r>   19.9227    0.0000 </r>
       <r>   19.9355    0.0000 </r>
       <r>   20.0222    0.0000 </r>
       <r>   20.0695    0.0000 </r>
       <r>   20.4469    0.0000 </r>
       <r>   20.9480    0.0000 </r>
       <r>   21.1306    0.0000 </r>
       <r>   21.1701    0.0000 </r>
       <r>   22.3006    0.0000 </r>
       <r>   22.5129    0.0000 </r>
       <r>   23.0923    0.0000 </r>
       <r>   23.5592    0.0000 </r>
       <r>   23.5744    0.0000 </r>
       <r>   23.6015    0.0000 </r>
       <r>   23.8165    0.0000 </r>
       <r>   24.0248    0.0000 </r>
       <r>   24.2674    0.0000 </r>
       <r>   24.5217    0.0000 </r>
       <r>   24.8306    0.0000 </r>
       <r>   24.9676    0.0000 </r>
       <r>   25.0475    0.0000 </r>
       <r>   25.5521    0.0000 </r>
       <r>   25.6964    0.0000 </r>
       <r>   25.7980    0.0000 </r>
       <r>   25.9189    0.0000 </r>
       <r>   26.1275    0.0000 </r>
       <r>   26.3973    0.0000 </r>
       <r>   26.9094    0.0000 </r>
       <r>   26.9234    0.0000 </r>
       <r>   27.0815    0.0000 </r>
       <r>   27.0849    0.0000 </r>
       <r>   27.5813    0.0000 </r>
       <r>   27.8918    0.0000 </r>
       <r>   28.1065    0.0000 </r>
       <r>   28.6632    0.0000 </r>
       <r>   28.9184    0.0000 </r>
       <r>   29.0466    0.0000 </r>
       <r>   29.1763    0.0000 </r>
       <r>   29.2646    0.0000 </r>
       <r>   29.6366    0.0000 </r>
       <r>   29.6478    0.0000 </r>
       <r>   30.1213    0.0000 </r>
       <r>   30.1818    0.0000 </r>
       <r>   30.7678    0.0000 </r>
       <r>   31.1259    0.0000 </r>
       <r>   31.8749    0.0000 </r>
       <r>   31.9108    0.0000 </r>
       <r>   32.0148    0.0000 </r>
       <r>   32.0886    0.0000 </r>
       <r>   32.5461    0.0000 </r>
       <r>   32.6542    0.0000 </r>
       <r>   32.9444    0.0000 </r>
       <r>   33.0816    0.0000 </r>
       <r>   33.3384    0.0000 </r>
       <r>   33.4640    0.0000 </r>
       <r>   33.5848    0.0000 </r>
       <r>   33.6087    0.0000 </r>
       <r>   33.8445    0.0000 </r>
       <r>   34.0075    0.0000 </r>
       <r>   34.0686    0.0000 </r>
       <r>   34.1281    0.0000 </r>
       <r>   34.2291    0.0000 </r>
       <r>   35.1281    0.0000 </r>
       <r>   35.9146    0.0000 </r>
       <r>   35.9610    0.0000 </r>
       <r>   35.9882    0.0000 </r>
       <r>   36.2332    0.0000 </r>
       <r>   36.3840    0.0000 </r>
       <r>   36.5942    0.0000 </r>
       <r>   36.7596    0.0000 </r>
       <r>   36.8647    0.0000 </r>
       <r>   37.0219    0.0000 </r>
      </set>
      <set comment="kpoint 3">
       <r>  -18.4341    1.0000 </r>
       <r>  -15.1059    1.0000 </r>
       <r>  -14.7954    1.0000 </r>
       <r>  -12.4549    1.0000 </r>
       <r>  -11.9317    1.0000 </r>
       <r>  -10.7149    1.0000 </r>
       <r>   -9.3237    1.0000 </r>
       <r>   -7.3645    1.0000 </r>
       <r>   -7.1816    1.0000 </r>
       <r>   -5.4404    1.0000 </r>
       <r>   -5.0296    1.0000 </r>
       <r>   -3.6157    1.0000 </r>
       <r>   -3.2240    1.0000 </r>
       <r>   -3.0165    1.0000 </r>
       <r>   -2.7272    1.0000 </r>
       <r>   -1.1839    0.0000 </r>
       <r>    1.3238    0.0000 </r>
       <r>    1.8881    0.0000 </r>
       <r>    2.1281    0.0000 </r>
       <r>    2.4358    0.0000 </r>
       <r>    4.7294    0.0000 </r>
       <r>    6.1240    0.0000 </r>
       <r>    6.5551    0.0000 </r>
       <r>    6.9440    0.0000 </r>
       <r>    6.9598    0.0000 </r>
       <r>    7.9146    0.0000 </r>
       <r>    8.1729    0.0000 </r>
       <r>    8.2020    0.0000 </r>
       <r>    8.5790    0.0000 </r>
       <r>    8.7436    0.0000 </r>
       <r>    9.0740    0.0000 </r>
       <r>    9.9077    0.0000 </r>
       <r>    9.9160    0.0000 </r>
       <r>   10.4672    0.0000 </r>
       <r>   10.5716    0.0000 </r>
       <r>   10.5788    0.0000 </r>
       <r>   10.9114    0.0000 </r>
       <r>   11.5894    0.0000 </r>
       <r>   11.8802    0.0000 </r>
       <r>   12.1077    0.0000 </r>
       <r>   12.1424    0.0000 </r>
       <r>   12.3419    0.0000 </r>
       <r>   12.6423    0.0000 </r>
       <r>   13.0075    0.0000 </r>
       <r>   13.4775    0.0000 </r>
       <r>   14.1695    0.0000 </r>
       <r>   14.3858    0.0000 </r>
       <r>   15.1545    0.0000 </r>
       <r>   15.2765    0.0000 </r>
       <r>   15.3889    0.0000 </r>
       <r>   15.7997    0.0000 </r>
       <r>   16.1743    0.0000 </r>
       <r>   17.3574    0.0000 </r>
       <r>   17.5941    0.0000 </r>
       <r>   17.8616    0.0000 </r>
       <r>   19.0273    0.0000 </r>
       <r>   19.0831    0.0000 </r>
       <r>   19.1612    0.0000 </r>
       <r>   19.5522    0.0000 </r>
       <r>   19.8344    0.0000 </r>
       <r>   19.9231    0.0000 </r>
       <r>   20.1859    0.0000 </r>
       <r>   20.2006    0.0000 </r>
       <r>   20.2953    0.0000 </r>
       <r>   20.4610    0.0000 </r>
       <r>   20.6854    0.0000 </r>
       <r>   20.9076    0.0000 </r>
       <r>   20.9177    0.0000 </r>
       <r>   20.9658    0.0000 </r>
       <r>   21.2974    0.0000 </r>
       <r>   23.1084    0.0000 </r>
       <r>   23.7417    0.0000 </r>
       <r>   23.7808    0.0000 </r>
       <r>   23.9368    0.0000 </r>
       <r>   24.0480    0.0000 </r>
       <r>   24.1155    0.0000 </r>
       <r>   24.2288    0.0000 </r>
       <r>   24.2478    0.0000 </r>
       <r>   24.4571    0.0000 </r>
       <r>   24.5114    0.0000 </r>
       <r>   24.6934    0.0000 </r>
       <r>   24.7126    0.0000 </r>
       <r>   25.1039    0.0000 </r>
       <r>   25.1717    0.0000 </r>
       <r>   25.2293    0.0000 </r>
       <r>   26.4776    0.0000 </r>
       <r>   26.6052    0.0000 </r>
       <r>   26.9337    0.0000 </r>
       <r>   27.0663    0.0000 </r>
       <r>   27.5561    0.0000 </r>
       <r>   27.7010    0.0000 </r>
       <r>   28.0595    0.0000 </r>
       <r>   28.1032    0.0000 </r>
       <r>   28.1118    0.0000 </r>
       <r>   28.1885    0.0000 </r>
       <r>   29.1207    0.0000 </r>
       <r>   29.1320    0.0000 </r>
       <r>   29.6998    0.0000 </r>
       <r>   29.7331    0.0000 </r>
       <r>   29.7997    0.0000 </r>
       <r>   30.2525    0.0000 </r>
       <r>   30.3510    0.0000 </r>
       <r>   30.5885    0.0000 </r>
       <r>   30.9582    0.0000 </r>
       <r>   30.9705    0.0000 </r>
       <r>   31.5020    0.0000 </r>
       <r>   31.7567    0.0000 </r>
       <r>   31.9397    0.0000 </r>
       <r>   32.6385    0.0000 </r>
       <r>   32.7569    0.0000 </r>
       <r>   32.8169    0.0000 </r>
       <r>   32.8397    0.0000 </r>
       <r>   32.9283    0.0000 </r>
       <r>   33.0869    0.0000 </r>
       <r>   33.1632    0.0000 </r>
       <r>   33.2361    0.0000 </r>
       <r>   33.7486    0.0000 </r>
       <r>   33.7648    0.0000 </r>
       <r>   33.9660    0.0000 </r>
       <r>   34.0186    0.0000 </r>
       <r>   34.2044    0.0000 </r>
       <r>   34.6047    0.0000 </r>
       <r>   34.9498    0.0000 </r>
       <r>   35.2437    0.0000 </r>
       <r>   35.4874    0.0000 </r>
       <r>   36.2302    0.0000 </r>
       <r>   36.5183    0.0000 </r>
       <r>   36.7573    0.0000 </r>
       <r>   36.8777    0.0000 </r>
       <r>   37.0315    0.0000 </r>
       <r>   37.0646    0.0000 </r>
       <r>   37.4346    0.0000 </r>
      </set>
      <set comment="kpoint 4">
       <r>  -18.3111    1.0000 </r>
       <r>  -15.5025    1.0000 </r>
       <r>  -14.9178    1.0000 </r>
       <r>  -12.6026    1.0000 </r>
       <r>  -11.5471    1.0000 </r>
       <r>  -10.1724    1.0000 </r>
       <r>   -8.7139    1.0000 </r>
       <r>   -7.6782    1.0000 </r>
       <r>   -6.9823    1.0000 </r>
       <r>   -5.9473    1.0000 </r>
       <r>   -5.0207    1.0000 </r>
       <r>   -4.0930    1.0000 </r>
       <r>   -3.6340    1.0000 </r>
       <r>   -3.2941    1.0000 </r>
       <r>   -3.0028    1.0000 </r>
       <r>   -1.4707    0.0000 </r>
       <r>    1.5522    0.0000 </r>
       <r>    2.2445    0.0000 </r>
       <r>    2.3849    0.0000 </r>
       <r>    3.3190    0.0000 </r>
       <r>    4.9927    0.0000 </r>
       <r>    6.0211    0.0000 </r>
       <r>    6.3584    0.0000 </r>
       <r>    6.7511    0.0000 </r>
       <r>    7.6029    0.0000 </r>
       <r>    7.8092    0.0000 </r>
       <r>    7.9266    0.0000 </r>
       <r>    8.1647    0.0000 </r>
       <r>    8.2206    0.0000 </r>
       <r>    8.9264    0.0000 </r>
       <r>    9.3180    0.0000 </r>
       <r>    9.4674    0.0000 </r>
       <r>    9.4698    0.0000 </r>
       <r>   10.1391    0.0000 </r>
       <r>   10.1768    0.0000 </r>
       <r>   11.1044    0.0000 </r>
       <r>   11.3401    0.0000 </r>
       <r>   11.7682    0.0000 </r>
       <r>   11.8214    0.0000 </r>
       <r>   12.3380    0.0000 </r>
       <r>   12.3959    0.0000 </r>
       <r>   12.5104    0.0000 </r>
       <r>   13.2333    0.0000 </r>
       <r>   13.2608    0.0000 </r>
       <r>   14.2225    0.0000 </r>
       <r>   14.4784    0.0000 </r>
       <r>   14.8590    0.0000 </r>
       <r>   15.0380    0.0000 </r>
       <r>   15.3045    0.0000 </r>
       <r>   16.0072    0.0000 </r>
       <r>   16.0964    0.0000 </r>
       <r>   16.2607    0.0000 </r>
       <r>   16.4635    0.0000 </r>
       <r>   17.1509    0.0000 </r>
       <r>   17.2038    0.0000 </r>
       <r>   18.7148    0.0000 </r>
       <r>   18.8973    0.0000 </r>
       <r>   18.9961    0.0000 </r>
       <r>   19.1637    0.0000 </r>
       <r>   19.3560    0.0000 </r>
       <r>   19.6341    0.0000 </r>
       <r>   19.6521    0.0000 </r>
       <r>   19.8567    0.0000 </r>
       <r>   20.1793    0.0000 </r>
       <r>   20.2805    0.0000 </r>
       <r>   20.6624    0.0000 </r>
       <r>   20.7056    0.0000 </r>
       <r>   21.0592    0.0000 </r>
       <r>   21.0780    0.0000 </r>
       <r>   21.4988    0.0000 </r>
       <r>   21.9505    0.0000 </r>
       <r>   22.9605    0.0000 </r>
       <r>   23.2358    0.0000 </r>
       <r>   23.2529    0.0000 </r>
       <r>   23.3291    0.0000 </r>
       <r>   23.5515    0.0000 </r>
       <r>   24.0815    0.0000 </r>
       <r>   24.5135    0.0000 </r>
       <r>   24.5438    0.0000 </r>
       <r>   24.5896    0.0000 </r>
       <r>   24.7054    0.0000 </r>
       <r>   25.0584    0.0000 </r>
       <r>   25.2804    0.0000 </r>
       <r>   25.5470    0.0000 </r>
       <r>   25.6479    0.0000 </r>
       <r>   25.6602    0.0000 </r>
       <r>   26.4057    0.0000 </r>
       <r>   26.7615    0.0000 </r>
       <r>   27.3091    0.0000 </r>
       <r>   28.0925    0.0000 </r>
       <r>   28.1525    0.0000 </r>
       <r>   28.1598    0.0000 </r>
       <r>   28.1715    0.0000 </r>
       <r>   28.3197    0.0000 </r>
       <r>   28.6563    0.0000 </r>
       <r>   28.6892    0.0000 </r>
       <r>   29.1922    0.0000 </r>
       <r>   29.5560    0.0000 </r>
       <r>   29.8650    0.0000 </r>
       <r>   29.9607    0.0000 </r>
       <r>   30.0805    0.0000 </r>
       <r>   30.1473    0.0000 </r>
       <r>   30.6552    0.0000 </r>
       <r>   30.9060    0.0000 </r>
       <r>   31.0702    0.0000 </r>
       <r>   31.7272    0.0000 </r>
       <r>   31.9407    0.0000 </r>
       <r>   31.9744    0.0000 </r>
       <r>   32.2557    0.0000 </r>
       <r>   32.4165    0.0000 </r>
       <r>   32.5241    0.0000 </r>
       <r>   32.5549    0.0000 </r>
       <r>   33.0529    0.0000 </r>
       <r>   33.4802    0.0000 </r>
       <r>   33.5835    0.0000 </r>
       <r>   33.8017    0.0000 </r>
       <r>   33.9561    0.0000 </r>
       <r>   34.1088    0.0000 </r>
       <r>   34.2691    0.0000 </r>
       <r>   34.6196    0.0000 </r>
       <r>   34.9734    0.0000 </r>
       <r>   35.1859    0.0000 </r>
       <r>   35.7166    0.0000 </r>
       <r>   35.7976    0.0000 </r>
       <r>   35.8135    0.0000 </r>
       <r>   36.4358    0.0000 </r>
       <r>   36.7285    0.0000 </r>
       <r>   36.8859    0.0000 </r>
       <r>   37.2446    0.0000 </r>
       <r>   37.2882    0.0000 </r>
       <r>   37.7699    0.0000 </r>
       <r>   37.8238    0.0000 </r>
      </set>
      <set comment="kpoint 5">
       <r>  -18.1625    1.0000 </r>
       <r>  -15.8797    1.0000 </r>
       <r>  -15.0239    1.0000 </r>
       <r>  -12.7316    1.0000 </r>
       <r>  -11.1092    1.0000 </r>
       <r>   -9.5491    1.0000 </r>
       <r>   -8.0852    1.0000 </r>
       <r>   -8.0108    1.0000 </r>
       <r>   -6.7177    1.0000 </r>
       <r>   -6.5247    1.0000 </r>
       <r>   -4.9417    1.0000 </r>
       <r>   -4.6103    1.0000 </r>
       <r>   -4.3954    1.0000 </r>
       <r>   -3.3602    1.0000 </r>
       <r>   -3.3072    1.0000 </r>
       <r>   -1.6689    0.0000 </r>
       <r>    1.7888    0.0000 </r>
       <r>    2.5685    0.0000 </r>
       <r>    2.7430    0.0000 </r>
       <r>    4.2903    0.0000 </r>
       <r>    5.1738    0.0000 </r>
       <r>    5.3723    0.0000 </r>
       <r>    6.6300    0.0000 </r>
       <r>    6.9218    0.0000 </r>
       <r>    7.4317    0.0000 </r>
       <r>    7.5747    0.0000 </r>
       <r>    7.6596    0.0000 </r>
       <r>    8.1261    0.0000 </r>
       <r>    8.5825    0.0000 </r>
       <r>    8.5992    0.0000 </r>
       <r>    9.1056    0.0000 </r>
       <r>    9.1461    0.0000 </r>
       <r>    9.8097    0.0000 </r>
       <r>    9.9117    0.0000 </r>
       <r>   10.3942    0.0000 </r>
       <r>   11.3233    0.0000 </r>
       <r>   11.5760    0.0000 </r>
       <r>   12.0495    0.0000 </r>
       <r>   12.1462    0.0000 </r>
       <r>   12.1731    0.0000 </r>
       <r>   12.2810    0.0000 </r>
       <r>   13.0014    0.0000 </r>
       <r>   13.5155    0.0000 </r>
       <r>   14.2023    0.0000 </r>
       <r>   14.2919    0.0000 </r>
       <r>   14.6098    0.0000 </r>
       <r>   14.9235    0.0000 </r>
       <r>   15.3296    0.0000 </r>
       <r>   15.4034    0.0000 </r>
       <r>   15.7518    0.0000 </r>
       <r>   16.3012    0.0000 </r>
       <r>   16.5796    0.0000 </r>
       <r>   16.6247    0.0000 </r>
       <r>   17.1348    0.0000 </r>
       <r>   17.2323    0.0000 </r>
       <r>   17.6843    0.0000 </r>
       <r>   17.8094    0.0000 </r>
       <r>   18.4659    0.0000 </r>
       <r>   18.6258    0.0000 </r>
       <r>   18.8087    0.0000 </r>
       <r>   19.7113    0.0000 </r>
       <r>   19.9249    0.0000 </r>
       <r>   20.0480    0.0000 </r>
       <r>   20.0842    0.0000 </r>
       <r>   20.2596    0.0000 </r>
       <r>   20.3208    0.0000 </r>
       <r>   20.6361    0.0000 </r>
       <r>   20.9062    0.0000 </r>
       <r>   21.0103    0.0000 </r>
       <r>   21.2642    0.0000 </r>
       <r>   21.6925    0.0000 </r>
       <r>   21.7278    0.0000 </r>
       <r>   22.1547    0.0000 </r>
       <r>   22.4047    0.0000 </r>
       <r>   23.2560    0.0000 </r>
       <r>   23.2649    0.0000 </r>
       <r>   23.8377    0.0000 </r>
       <r>   24.1045    0.0000 </r>
       <r>   24.1943    0.0000 </r>
       <r>   24.8458    0.0000 </r>
       <r>   24.8595    0.0000 </r>
       <r>   24.9236    0.0000 </r>
       <r>   25.7790    0.0000 </r>
       <r>   26.0006    0.0000 </r>
       <r>   26.7166    0.0000 </r>
       <r>   26.7677    0.0000 </r>
       <r>   26.8194    0.0000 </r>
       <r>   26.9807    0.0000 </r>
       <r>   27.2670    0.0000 </r>
       <r>   27.2937    0.0000 </r>
       <r>   27.3826    0.0000 </r>
       <r>   27.6980    0.0000 </r>
       <r>   28.1237    0.0000 </r>
       <r>   28.1329    0.0000 </r>
       <r>   28.5291    0.0000 </r>
       <r>   28.6794    0.0000 </r>
       <r>   29.2568    0.0000 </r>
       <r>   29.4999    0.0000 </r>
       <r>   29.8863    0.0000 </r>
       <r>   30.1178    0.0000 </r>
       <r>   30.2741    0.0000 </r>
       <r>   30.5257    0.0000 </r>
       <r>   30.8992    0.0000 </r>
       <r>   30.9636    0.0000 </r>
       <r>   31.0432    0.0000 </r>
       <r>   31.0750    0.0000 </r>
       <r>   31.7420    0.0000 </r>
       <r>   32.0779    0.0000 </r>
       <r>   32.1846    0.0000 </r>
       <r>   32.2946    0.0000 </r>
       <r>   32.4570    0.0000 </r>
       <r>   32.6305    0.0000 </r>
       <r>   33.0404    0.0000 </r>
       <r>   33.0521    0.0000 </r>
       <r>   33.9218    0.0000 </r>
       <r>   34.7892    0.0000 </r>
       <r>   34.8274    0.0000 </r>
       <r>   35.0880    0.0000 </r>
       <r>   35.2388    0.0000 </r>
       <r>   35.4682    0.0000 </r>
       <r>   35.5684    0.0000 </r>
       <r>   35.6783    0.0000 </r>
       <r>   36.0039    0.0000 </r>
       <r>   36.1773    0.0000 </r>
       <r>   36.7865    0.0000 </r>
       <r>   36.9575    0.0000 </r>
       <r>   37.0661    0.0000 </r>
       <r>   37.1216    0.0000 </r>
       <r>   37.7787    0.0000 </r>
       <r>   37.8099    0.0000 </r>
       <r>   38.0417    0.0000 </r>
       <r>   38.2040    0.0000 </r>
      </set>
      <set comment="kpoint 6">
       <r>  -18.0272    1.0000 </r>
       <r>  -16.1629    1.0000 </r>
       <r>  -15.0939    1.0000 </r>
       <r>  -12.8160    1.0000 </r>
       <r>  -10.7080    1.0000 </r>
       <r>   -8.9042    1.0000 </r>
       <r>   -8.4816    1.0000 </r>
       <r>   -7.5745    1.0000 </r>
       <r>   -6.7929    1.0000 </r>
       <r>   -6.4253    1.0000 </r>
       <r>   -5.2343    1.0000 </r>
       <r>   -5.0733    1.0000 </r>
       <r>   -4.8255    1.0000 </r>
       <r>   -3.5685    1.0000 </r>
       <r>   -3.4063    1.0000 </r>
       <r>   -1.7847    0.0000 </r>
       <r>    1.9692    0.0000 </r>
       <r>    2.8120    0.0000 </r>
       <r>    3.2016    0.0000 </r>
       <r>    4.4184    0.0000 </r>
       <r>    5.2007    0.0000 </r>
       <r>    5.8937    0.0000 </r>
       <r>    6.7443    0.0000 </r>
       <r>    6.7975    0.0000 </r>
       <r>    7.1991    0.0000 </r>
       <r>    7.4335    0.0000 </r>
       <r>    7.5840    0.0000 </r>
       <r>    7.7340    0.0000 </r>
       <r>    8.0166    0.0000 </r>
       <r>    8.6500    0.0000 </r>
       <r>    8.8572    0.0000 </r>
       <r>    9.5160    0.0000 </r>
       <r>    9.5495    0.0000 </r>
       <r>   10.6449    0.0000 </r>
       <r>   11.2326    0.0000 </r>
       <r>   11.2992    0.0000 </r>
       <r>   11.6977    0.0000 </r>
       <r>   11.9222    0.0000 </r>
       <r>   12.1340    0.0000 </r>
       <r>   12.1610    0.0000 </r>
       <r>   12.5332    0.0000 </r>
       <r>   13.4739    0.0000 </r>
       <r>   13.8226    0.0000 </r>
       <r>   13.9784    0.0000 </r>
       <r>   14.4402    0.0000 </r>
       <r>   14.5157    0.0000 </r>
       <r>   14.5333    0.0000 </r>
       <r>   14.8859    0.0000 </r>
       <r>   16.0731    0.0000 </r>
       <r>   16.2936    0.0000 </r>
       <r>   16.3614    0.0000 </r>
       <r>   16.4705    0.0000 </r>
       <r>   16.8056    0.0000 </r>
       <r>   17.2299    0.0000 </r>
       <r>   17.4944    0.0000 </r>
       <r>   17.5993    0.0000 </r>
       <r>   17.8535    0.0000 </r>
       <r>   18.0816    0.0000 </r>
       <r>   18.1855    0.0000 </r>
       <r>   18.3931    0.0000 </r>
       <r>   19.2319    0.0000 </r>
       <r>   19.3262    0.0000 </r>
       <r>   19.9117    0.0000 </r>
       <r>   20.0815    0.0000 </r>
       <r>   20.1586    0.0000 </r>
       <r>   20.3208    0.0000 </r>
       <r>   20.3607    0.0000 </r>
       <r>   20.5816    0.0000 </r>
       <r>   20.6691    0.0000 </r>
       <r>   21.2355    0.0000 </r>
       <r>   21.4672    0.0000 </r>
       <r>   21.5752    0.0000 </r>
       <r>   21.6759    0.0000 </r>
       <r>   21.7734    0.0000 </r>
       <r>   22.9441    0.0000 </r>
       <r>   23.6443    0.0000 </r>
       <r>   23.8383    0.0000 </r>
       <r>   23.8481    0.0000 </r>
       <r>   24.0304    0.0000 </r>
       <r>   24.4372    0.0000 </r>
       <r>   24.6008    0.0000 </r>
       <r>   25.2913    0.0000 </r>
       <r>   25.6794    0.0000 </r>
       <r>   26.4236    0.0000 </r>
       <r>   26.4270    0.0000 </r>
       <r>   26.4999    0.0000 </r>
       <r>   27.1312    0.0000 </r>
       <r>   27.3482    0.0000 </r>
       <r>   27.4076    0.0000 </r>
       <r>   27.4819    0.0000 </r>
       <r>   27.6466    0.0000 </r>
       <r>   27.9119    0.0000 </r>
       <r>   28.0444    0.0000 </r>
       <r>   28.0530    0.0000 </r>
       <r>   29.0204    0.0000 </r>
       <r>   29.1305    0.0000 </r>
       <r>   29.5580    0.0000 </r>
       <r>   29.6028    0.0000 </r>
       <r>   29.6518    0.0000 </r>
       <r>   29.8219    0.0000 </r>
       <r>   30.2210    0.0000 </r>
       <r>   30.3000    0.0000 </r>
       <r>   30.3297    0.0000 </r>
       <r>   30.6964    0.0000 </r>
       <r>   31.0138    0.0000 </r>
       <r>   31.2065    0.0000 </r>
       <r>   31.3579    0.0000 </r>
       <r>   31.6073    0.0000 </r>
       <r>   31.7101    0.0000 </r>
       <r>   32.2821    0.0000 </r>
       <r>   32.3508    0.0000 </r>
       <r>   33.6159    0.0000 </r>
       <r>   33.7224    0.0000 </r>
       <r>   34.1765    0.0000 </r>
       <r>   34.3867    0.0000 </r>
       <r>   34.5317    0.0000 </r>
       <r>   34.5825    0.0000 </r>
       <r>   34.6123    0.0000 </r>
       <r>   34.9067    0.0000 </r>
       <r>   35.2682    0.0000 </r>
       <r>   35.5431    0.0000 </r>
       <r>   36.3325    0.0000 </r>
       <r>   37.4780    0.0000 </r>
       <r>   37.5085    0.0000 </r>
       <r>   37.6507    0.0000 </r>
       <r>   37.6847    0.0000 </r>
       <r>   37.7428    0.0000 </r>
       <r>   37.8106    0.0000 </r>
       <r>   37.9395    0.0000 </r>
       <r>   38.4678    0.0000 </r>
       <r>   38.4988    0.0000 </r>
       <r>   38.7099    0.0000 </r>
      </set>
      <set comment="kpoint 7">
       <r>  -17.9687    1.0000 </r>
       <r>  -16.2722    1.0000 </r>
       <r>  -15.1182    1.0000 </r>
       <r>  -12.8452    1.0000 </r>
       <r>  -10.5233    1.0000 </r>
       <r>   -8.6674    1.0000 </r>
       <r>   -8.4603    1.0000 </r>
       <r>   -7.8540    1.0000 </r>
       <r>   -6.2579    1.0000 </r>
       <r>   -6.2284    1.0000 </r>
       <r>   -5.9752    1.0000 </r>
       <r>   -5.3004    1.0000 </r>
       <r>   -4.7629    1.0000 </r>
       <r>   -3.6806    1.0000 </r>
       <r>   -3.4227    1.0000 </r>
       <r>   -1.8229    0.0000 </r>
       <r>    2.0369    0.0000 </r>
       <r>    2.9042    0.0000 </r>
       <r>    3.7591    0.0000 </r>
       <r>    3.7616    0.0000 </r>
       <r>    5.8295    0.0000 </r>
       <r>    6.0178    0.0000 </r>
       <r>    6.6833    0.0000 </r>
       <r>    6.8324    0.0000 </r>
       <r>    7.0070    0.0000 </r>
       <r>    7.3848    0.0000 </r>
       <r>    7.5018    0.0000 </r>
       <r>    7.5244    0.0000 </r>
       <r>    7.8615    0.0000 </r>
       <r>    8.4188    0.0000 </r>
       <r>    8.7679    0.0000 </r>
       <r>    9.4538    0.0000 </r>
       <r>   10.0363    0.0000 </r>
       <r>   11.0875    0.0000 </r>
       <r>   11.2965    0.0000 </r>
       <r>   11.3093    0.0000 </r>
       <r>   11.8230    0.0000 </r>
       <r>   11.8675    0.0000 </r>
       <r>   12.0688    0.0000 </r>
       <r>   12.5005    0.0000 </r>
       <r>   12.7063    0.0000 </r>
       <r>   12.8630    0.0000 </r>
       <r>   13.6413    0.0000 </r>
       <r>   14.0529    0.0000 </r>
       <r>   14.3493    0.0000 </r>
       <r>   14.6915    0.0000 </r>
       <r>   15.0594    0.0000 </r>
       <r>   15.2109    0.0000 </r>
       <r>   15.3651    0.0000 </r>
       <r>   15.3664    0.0000 </r>
       <r>   16.6211    0.0000 </r>
       <r>   16.9789    0.0000 </r>
       <r>   17.1612    0.0000 </r>
       <r>   17.3312    0.0000 </r>
       <r>   17.3606    0.0000 </r>
       <r>   17.7409    0.0000 </r>
       <r>   18.2136    0.0000 </r>
       <r>   18.3643    0.0000 </r>
       <r>   18.5835    0.0000 </r>
       <r>   18.6120    0.0000 </r>
       <r>   18.8324    0.0000 </r>
       <r>   18.9763    0.0000 </r>
       <r>   19.1429    0.0000 </r>
       <r>   19.3566    0.0000 </r>
       <r>   19.9079    0.0000 </r>
       <r>   19.9569    0.0000 </r>
       <r>   20.0143    0.0000 </r>
       <r>   20.1817    0.0000 </r>
       <r>   20.9535    0.0000 </r>
       <r>   21.1326    0.0000 </r>
       <r>   21.6406    0.0000 </r>
       <r>   21.7580    0.0000 </r>
       <r>   22.4412    0.0000 </r>
       <r>   22.5453    0.0000 </r>
       <r>   22.5762    0.0000 </r>
       <r>   22.6512    0.0000 </r>
       <r>   23.6180    0.0000 </r>
       <r>   23.8592    0.0000 </r>
       <r>   23.9896    0.0000 </r>
       <r>   24.0510    0.0000 </r>
       <r>   24.6837    0.0000 </r>
       <r>   25.4785    0.0000 </r>
       <r>   25.8082    0.0000 </r>
       <r>   25.8779    0.0000 </r>
       <r>   26.7758    0.0000 </r>
       <r>   26.8048    0.0000 </r>
       <r>   26.8170    0.0000 </r>
       <r>   27.1894    0.0000 </r>
       <r>   27.4249    0.0000 </r>
       <r>   27.4830    0.0000 </r>
       <r>   27.9756    0.0000 </r>
       <r>   28.0416    0.0000 </r>
       <r>   28.0484    0.0000 </r>
       <r>   28.8468    0.0000 </r>
       <r>   28.9853    0.0000 </r>
       <r>   29.0125    0.0000 </r>
       <r>   29.5492    0.0000 </r>
       <r>   29.6296    0.0000 </r>
       <r>   29.6772    0.0000 </r>
       <r>   29.7181    0.0000 </r>
       <r>   30.3493    0.0000 </r>
       <r>   30.4480    0.0000 </r>
       <r>   30.5398    0.0000 </r>
       <r>   30.6617    0.0000 </r>
       <r>   30.7937    0.0000 </r>
       <r>   30.9544    0.0000 </r>
       <r>   31.3317    0.0000 </r>
       <r>   31.3867    0.0000 </r>
       <r>   32.0574    0.0000 </r>
       <r>   32.1985    0.0000 </r>
       <r>   32.6911    0.0000 </r>
       <r>   32.7768    0.0000 </r>
       <r>   32.9954    0.0000 </r>
       <r>   33.2954    0.0000 </r>
       <r>   34.1025    0.0000 </r>
       <r>   34.3971    0.0000 </r>
       <r>   35.2177    0.0000 </r>
       <r>   35.3890    0.0000 </r>
       <r>   36.0993    0.0000 </r>
       <r>   36.2766    0.0000 </r>
       <r>   36.2958    0.0000 </r>
       <r>   36.4642    0.0000 </r>
       <r>   36.7282    0.0000 </r>
       <r>   37.0847    0.0000 </r>
       <r>   37.5441    0.0000 </r>
       <r>   37.6053    0.0000 </r>
       <r>   37.8529    0.0000 </r>
       <r>   38.1464    0.0000 </r>
       <r>   38.1501    0.0000 </r>
       <r>   38.7016    0.0000 </r>
       <r>   38.7568    0.0000 </r>
       <r>   39.0227    0.0000 </r>
      </set>
      <set comment="kpoint 8">
       <r>  -18.4601    1.0000 </r>
       <r>  -14.9943    1.0000 </r>
       <r>  -14.7809    1.0000 </r>
       <r>  -12.3670    1.0000 </r>
       <r>  -12.0744    1.0000 </r>
       <r>  -10.8255    1.0000 </r>
       <r>   -9.4616    1.0000 </r>
       <r>   -7.3045    1.0000 </r>
       <r>   -7.2222    1.0000 </r>
       <r>   -5.3045    1.0000 </r>
       <r>   -5.0454    1.0000 </r>
       <r>   -3.4865    1.0000 </r>
       <r>   -3.2340    1.0000 </r>
       <r>   -2.8750    1.0000 </r>
       <r>   -2.6748    1.0000 </r>
       <r>   -1.0765    0.0000 </r>
       <r>    1.1928    0.0000 </r>
       <r>    1.9201    0.0000 </r>
       <r>    2.0766    0.0000 </r>
       <r>    2.1721    0.0000 </r>
       <r>    4.6771    0.0000 </r>
       <r>    6.0776    0.0000 </r>
       <r>    6.5380    0.0000 </r>
       <r>    6.7516    0.0000 </r>
       <r>    7.3986    0.0000 </r>
       <r>    7.5582    0.0000 </r>
       <r>    8.0759    0.0000 </r>
       <r>    8.3552    0.0000 </r>
       <r>    8.5474    0.0000 </r>
       <r>    9.2291    0.0000 </r>
       <r>    9.4118    0.0000 </r>
       <r>    9.5260    0.0000 </r>
       <r>    9.6858    0.0000 </r>
       <r>   10.2460    0.0000 </r>
       <r>   10.7998    0.0000 </r>
       <r>   10.8126    0.0000 </r>
       <r>   11.1324    0.0000 </r>
       <r>   11.4092    0.0000 </r>
       <r>   11.5924    0.0000 </r>
       <r>   11.7043    0.0000 </r>
       <r>   12.1663    0.0000 </r>
       <r>   12.7034    0.0000 </r>
       <r>   12.7084    0.0000 </r>
       <r>   13.2664    0.0000 </r>
       <r>   13.2707    0.0000 </r>
       <r>   13.3116    0.0000 </r>
       <r>   14.6751    0.0000 </r>
       <r>   14.8541    0.0000 </r>
       <r>   15.0942    0.0000 </r>
       <r>   15.7535    0.0000 </r>
       <r>   15.7542    0.0000 </r>
       <r>   16.0620    0.0000 </r>
       <r>   17.5711    0.0000 </r>
       <r>   17.7323    0.0000 </r>
       <r>   18.0866    0.0000 </r>
       <r>   18.7975    0.0000 </r>
       <r>   19.2809    0.0000 </r>
       <r>   19.3447    0.0000 </r>
       <r>   19.6799    0.0000 </r>
       <r>   19.7002    0.0000 </r>
       <r>   19.7886    0.0000 </r>
       <r>   19.9487    0.0000 </r>
       <r>   20.3937    0.0000 </r>
       <r>   20.4966    0.0000 </r>
       <r>   20.5031    0.0000 </r>
       <r>   20.6163    0.0000 </r>
       <r>   20.7882    0.0000 </r>
       <r>   20.9393    0.0000 </r>
       <r>   21.1718    0.0000 </r>
       <r>   22.5187    0.0000 </r>
       <r>   22.5238    0.0000 </r>
       <r>   23.2618    0.0000 </r>
       <r>   23.6610    0.0000 </r>
       <r>   23.8736    0.0000 </r>
       <r>   23.9585    0.0000 </r>
       <r>   24.0196    0.0000 </r>
       <r>   24.1366    0.0000 </r>
       <r>   24.4987    0.0000 </r>
       <r>   24.5861    0.0000 </r>
       <r>   24.5924    0.0000 </r>
       <r>   24.9850    0.0000 </r>
       <r>   24.9984    0.0000 </r>
       <r>   25.7623    0.0000 </r>
       <r>   25.8278    0.0000 </r>
       <r>   25.9447    0.0000 </r>
       <r>   26.0228    0.0000 </r>
       <r>   26.2519    0.0000 </r>
       <r>   26.4644    0.0000 </r>
       <r>   26.6504    0.0000 </r>
       <r>   27.2927    0.0000 </r>
       <r>   27.3911    0.0000 </r>
       <r>   28.0323    0.0000 </r>
       <r>   28.0424    0.0000 </r>
       <r>   28.1296    0.0000 </r>
       <r>   28.3527    0.0000 </r>
       <r>   28.9976    0.0000 </r>
       <r>   29.1798    0.0000 </r>
       <r>   29.5464    0.0000 </r>
       <r>   29.6700    0.0000 </r>
       <r>   29.8667    0.0000 </r>
       <r>   30.1911    0.0000 </r>
       <r>   30.4004    0.0000 </r>
       <r>   31.0275    0.0000 </r>
       <r>   31.2333    0.0000 </r>
       <r>   31.4941    0.0000 </r>
       <r>   31.6245    0.0000 </r>
       <r>   31.6318    0.0000 </r>
       <r>   31.8743    0.0000 </r>
       <r>   32.0655    0.0000 </r>
       <r>   32.2723    0.0000 </r>
       <r>   32.4690    0.0000 </r>
       <r>   32.5777    0.0000 </r>
       <r>   32.7464    0.0000 </r>
       <r>   32.7535    0.0000 </r>
       <r>   32.7708    0.0000 </r>
       <r>   33.4091    0.0000 </r>
       <r>   33.6079    0.0000 </r>
       <r>   33.9290    0.0000 </r>
       <r>   34.0033    0.0000 </r>
       <r>   34.8529    0.0000 </r>
       <r>   35.0592    0.0000 </r>
       <r>   35.1432    0.0000 </r>
       <r>   35.3567    0.0000 </r>
       <r>   35.4891    0.0000 </r>
       <r>   35.5772    0.0000 </r>
       <r>   35.6795    0.0000 </r>
       <r>   35.7196    0.0000 </r>
       <r>   36.2098    0.0000 </r>
       <r>   36.4418    0.0000 </r>
       <r>   36.4684    0.0000 </r>
       <r>   36.8738    0.0000 </r>
       <r>   37.0586    0.0000 </r>
      </set>
      <set comment="kpoint 9">
       <r>  -18.3587    1.0000 </r>
       <r>  -15.3297    1.0000 </r>
       <r>  -14.9244    1.0000 </r>
       <r>  -12.4374    1.0000 </r>
       <r>  -11.8221    1.0000 </r>
       <r>  -10.3336    1.0000 </r>
       <r>   -8.9537    1.0000 </r>
       <r>   -7.5669    1.0000 </r>
       <r>   -7.0611    1.0000 </r>
       <r>   -5.6745    1.0000 </r>
       <r>   -5.1027    1.0000 </r>
       <r>   -3.8636    1.0000 </r>
       <r>   -3.3655    1.0000 </r>
       <r>   -3.3565    1.0000 </r>
       <r>   -2.9300    1.0000 </r>
       <r>   -1.3035    0.0000 </r>
       <r>    1.2600    0.0000 </r>
       <r>    2.2825    0.0000 </r>
       <r>    2.4279    0.0000 </r>
       <r>    2.8510    0.0000 </r>
       <r>    4.8861    0.0000 </r>
       <r>    6.2808    0.0000 </r>
       <r>    6.5078    0.0000 </r>
       <r>    6.7723    0.0000 </r>
       <r>    7.1502    0.0000 </r>
       <r>    7.2481    0.0000 </r>
       <r>    8.2401    0.0000 </r>
       <r>    8.6339    0.0000 </r>
       <r>    8.6392    0.0000 </r>
       <r>    9.0266    0.0000 </r>
       <r>    9.0745    0.0000 </r>
       <r>    9.1530    0.0000 </r>
       <r>    9.7711    0.0000 </r>
       <r>   10.1428    0.0000 </r>
       <r>   10.4882    0.0000 </r>
       <r>   10.5456    0.0000 </r>
       <r>   11.0698    0.0000 </r>
       <r>   11.7230    0.0000 </r>
       <r>   11.9531    0.0000 </r>
       <r>   12.1359    0.0000 </r>
       <r>   12.5589    0.0000 </r>
       <r>   12.9163    0.0000 </r>
       <r>   13.0498    0.0000 </r>
       <r>   13.1819    0.0000 </r>
       <r>   13.7879    0.0000 </r>
       <r>   13.8784    0.0000 </r>
       <r>   14.6673    0.0000 </r>
       <r>   15.0635    0.0000 </r>
       <r>   15.6424    0.0000 </r>
       <r>   15.7272    0.0000 </r>
       <r>   15.9300    0.0000 </r>
       <r>   16.1285    0.0000 </r>
       <r>   16.9985    0.0000 </r>
       <r>   17.2342    0.0000 </r>
       <r>   17.4622    0.0000 </r>
       <r>   18.5950    0.0000 </r>
       <r>   18.8063    0.0000 </r>
       <r>   19.1417    0.0000 </r>
       <r>   19.3697    0.0000 </r>
       <r>   19.5440    0.0000 </r>
       <r>   19.7248    0.0000 </r>
       <r>   19.8257    0.0000 </r>
       <r>   20.1113    0.0000 </r>
       <r>   20.3707    0.0000 </r>
       <r>   20.4668    0.0000 </r>
       <r>   20.6286    0.0000 </r>
       <r>   20.9226    0.0000 </r>
       <r>   21.0740    0.0000 </r>
       <r>   21.1664    0.0000 </r>
       <r>   21.4502    0.0000 </r>
       <r>   22.1496    0.0000 </r>
       <r>   22.6793    0.0000 </r>
       <r>   23.1242    0.0000 </r>
       <r>   23.2068    0.0000 </r>
       <r>   23.8068    0.0000 </r>
       <r>   24.0762    0.0000 </r>
       <r>   24.0992    0.0000 </r>
       <r>   24.3011    0.0000 </r>
       <r>   24.5136    0.0000 </r>
       <r>   25.0531    0.0000 </r>
       <r>   25.1449    0.0000 </r>
       <r>   25.1929    0.0000 </r>
       <r>   25.2353    0.0000 </r>
       <r>   25.3105    0.0000 </r>
       <r>   25.8855    0.0000 </r>
       <r>   26.0007    0.0000 </r>
       <r>   26.1849    0.0000 </r>
       <r>   26.2052    0.0000 </r>
       <r>   26.9497    0.0000 </r>
       <r>   27.0710    0.0000 </r>
       <r>   27.4627    0.0000 </r>
       <r>   28.0074    0.0000 </r>
       <r>   28.0409    0.0000 </r>
       <r>   28.2909    0.0000 </r>
       <r>   29.2070    0.0000 </r>
       <r>   29.4427    0.0000 </r>
       <r>   29.8030    0.0000 </r>
       <r>   29.8838    0.0000 </r>
       <r>   29.9485    0.0000 </r>
       <r>   30.0936    0.0000 </r>
       <r>   30.3367    0.0000 </r>
       <r>   30.5370    0.0000 </r>
       <r>   30.5824    0.0000 </r>
       <r>   30.7176    0.0000 </r>
       <r>   31.1731    0.0000 </r>
       <r>   31.3766    0.0000 </r>
       <r>   31.4251    0.0000 </r>
       <r>   31.5442    0.0000 </r>
       <r>   31.8706    0.0000 </r>
       <r>   32.0762    0.0000 </r>
       <r>   32.6805    0.0000 </r>
       <r>   32.9547    0.0000 </r>
       <r>   33.2241    0.0000 </r>
       <r>   33.3846    0.0000 </r>
       <r>   33.6857    0.0000 </r>
       <r>   33.6994    0.0000 </r>
       <r>   34.0043    0.0000 </r>
       <r>   34.1939    0.0000 </r>
       <r>   34.1999    0.0000 </r>
       <r>   34.4796    0.0000 </r>
       <r>   34.6263    0.0000 </r>
       <r>   34.7628    0.0000 </r>
       <r>   35.4214    0.0000 </r>
       <r>   35.5938    0.0000 </r>
       <r>   35.9987    0.0000 </r>
       <r>   36.4370    0.0000 </r>
       <r>   36.4707    0.0000 </r>
       <r>   36.8241    0.0000 </r>
       <r>   37.0181    0.0000 </r>
       <r>   37.0840    0.0000 </r>
       <r>   37.0854    0.0000 </r>
       <r>   37.3142    0.0000 </r>
      </set>
      <set comment="kpoint 10">
       <r>  -18.2216    1.0000 </r>
       <r>  -15.7004    1.0000 </r>
       <r>  -15.0616    1.0000 </r>
       <r>  -12.5469    1.0000 </r>
       <r>  -11.4382    1.0000 </r>
       <r>   -9.7295    1.0000 </r>
       <r>   -8.3073    1.0000 </r>
       <r>   -7.9559    1.0000 </r>
       <r>   -6.8281    1.0000 </r>
       <r>   -6.1688    1.0000 </r>
       <r>   -5.0887    1.0000 </r>
       <r>   -4.3446    1.0000 </r>
       <r>   -4.0291    1.0000 </r>
       <r>   -3.4802    1.0000 </r>
       <r>   -3.2435    1.0000 </r>
       <r>   -1.4533    0.0000 </r>
       <r>    1.3910    0.0000 </r>
       <r>    2.5899    0.0000 </r>
       <r>    2.8067    0.0000 </r>
       <r>    3.7951    0.0000 </r>
       <r>    5.2029    0.0000 </r>
       <r>    5.6251    0.0000 </r>
       <r>    6.5571    0.0000 </r>
       <r>    6.7674    0.0000 </r>
       <r>    7.0737    0.0000 </r>
       <r>    7.8279    0.0000 </r>
       <r>    7.9147    0.0000 </r>
       <r>    8.3378    0.0000 </r>
       <r>    8.6659    0.0000 </r>
       <r>    8.6990    0.0000 </r>
       <r>    9.1704    0.0000 </r>
       <r>    9.2839    0.0000 </r>
       <r>    9.7390    0.0000 </r>
       <r>    9.9807    0.0000 </r>
       <r>   10.0715    0.0000 </r>
       <r>   10.8298    0.0000 </r>
       <r>   11.0001    0.0000 </r>
       <r>   12.0982    0.0000 </r>
       <r>   12.1244    0.0000 </r>
       <r>   12.5786    0.0000 </r>
       <r>   12.8305    0.0000 </r>
       <r>   12.9172    0.0000 </r>
       <r>   13.4026    0.0000 </r>
       <r>   13.7595    0.0000 </r>
       <r>   14.2720    0.0000 </r>
       <r>   14.3241    0.0000 </r>
       <r>   14.7098    0.0000 </r>
       <r>   14.9550    0.0000 </r>
       <r>   15.6340    0.0000 </r>
       <r>   15.9762    0.0000 </r>
       <r>   16.1911    0.0000 </r>
       <r>   16.4212    0.0000 </r>
       <r>   16.6714    0.0000 </r>
       <r>   17.0105    0.0000 </r>
       <r>   17.3281    0.0000 </r>
       <r>   17.5761    0.0000 </r>
       <r>   18.4350    0.0000 </r>
       <r>   18.8089    0.0000 </r>
       <r>   19.0964    0.0000 </r>
       <r>   19.1508    0.0000 </r>
       <r>   19.2617    0.0000 </r>
       <r>   19.6154    0.0000 </r>
       <r>   19.8877    0.0000 </r>
       <r>   20.0871    0.0000 </r>
       <r>   20.3315    0.0000 </r>
       <r>   20.5944    0.0000 </r>
       <r>   20.7302    0.0000 </r>
       <r>   21.0003    0.0000 </r>
       <r>   21.4442    0.0000 </r>
       <r>   21.4587    0.0000 </r>
       <r>   21.6178    0.0000 </r>
       <r>   21.9149    0.0000 </r>
       <r>   22.9283    0.0000 </r>
       <r>   23.0030    0.0000 </r>
       <r>   23.0617    0.0000 </r>
       <r>   23.2729    0.0000 </r>
       <r>   23.8341    0.0000 </r>
       <r>   23.9858    0.0000 </r>
       <r>   24.2188    0.0000 </r>
       <r>   24.8136    0.0000 </r>
       <r>   24.9996    0.0000 </r>
       <r>   25.3471    0.0000 </r>
       <r>   25.4475    0.0000 </r>
       <r>   25.9645    0.0000 </r>
       <r>   26.0706    0.0000 </r>
       <r>   26.2873    0.0000 </r>
       <r>   26.3950    0.0000 </r>
       <r>   26.5087    0.0000 </r>
       <r>   26.7823    0.0000 </r>
       <r>   27.4708    0.0000 </r>
       <r>   27.6919    0.0000 </r>
       <r>   27.7768    0.0000 </r>
       <r>   27.9579    0.0000 </r>
       <r>   28.0357    0.0000 </r>
       <r>   29.0971    0.0000 </r>
       <r>   29.3464    0.0000 </r>
       <r>   29.5750    0.0000 </r>
       <r>   29.6012    0.0000 </r>
       <r>   30.0640    0.0000 </r>
       <r>   30.2050    0.0000 </r>
       <r>   30.4179    0.0000 </r>
       <r>   30.5462    0.0000 </r>
       <r>   30.6772    0.0000 </r>
       <r>   30.6903    0.0000 </r>
       <r>   30.7367    0.0000 </r>
       <r>   31.1040    0.0000 </r>
       <r>   31.5558    0.0000 </r>
       <r>   31.8641    0.0000 </r>
       <r>   32.3833    0.0000 </r>
       <r>   32.4309    0.0000 </r>
       <r>   32.5010    0.0000 </r>
       <r>   33.4663    0.0000 </r>
       <r>   33.6059    0.0000 </r>
       <r>   33.8069    0.0000 </r>
       <r>   33.8413    0.0000 </r>
       <r>   34.0284    0.0000 </r>
       <r>   34.1086    0.0000 </r>
       <r>   34.5738    0.0000 </r>
       <r>   34.7737    0.0000 </r>
       <r>   34.9160    0.0000 </r>
       <r>   35.2013    0.0000 </r>
       <r>   35.8392    0.0000 </r>
       <r>   35.8492    0.0000 </r>
       <r>   36.3831    0.0000 </r>
       <r>   36.4473    0.0000 </r>
       <r>   36.6841    0.0000 </r>
       <r>   36.7962    0.0000 </r>
       <r>   36.8911    0.0000 </r>
       <r>   37.1270    0.0000 </r>
       <r>   37.5534    0.0000 </r>
       <r>   37.6417    0.0000 </r>
       <r>   37.6694    0.0000 </r>
      </set>
      <set comment="kpoint 11">
       <r>  -18.0756    1.0000 </r>
       <r>  -16.0252    1.0000 </r>
       <r>  -15.1634    1.0000 </r>
       <r>  -12.6404    1.0000 </r>
       <r>  -11.0116    1.0000 </r>
       <r>   -9.0961    1.0000 </r>
       <r>   -8.3956    1.0000 </r>
       <r>   -7.6307    1.0000 </r>
       <r>   -6.6685    1.0000 </r>
       <r>   -6.5435    1.0000 </r>
       <r>   -5.0399    1.0000 </r>
       <r>   -4.8339    1.0000 </r>
       <r>   -4.7659    1.0000 </r>
       <r>   -3.5742    1.0000 </r>
       <r>   -3.5495    1.0000 </r>
       <r>   -1.5440    0.0000 </r>
       <r>    1.5375    0.0000 </r>
       <r>    2.9983    0.0000 </r>
       <r>    3.1243    0.0000 </r>
       <r>    4.7554    0.0000 </r>
       <r>    4.8227    0.0000 </r>
       <r>    5.6422    0.0000 </r>
       <r>    6.5803    0.0000 </r>
       <r>    6.9203    0.0000 </r>
       <r>    7.0832    0.0000 </r>
       <r>    7.1993    0.0000 </r>
       <r>    8.0687    0.0000 </r>
       <r>    8.1881    0.0000 </r>
       <r>    8.4265    0.0000 </r>
       <r>    8.7179    0.0000 </r>
       <r>    8.8474    0.0000 </r>
       <r>    9.0897    0.0000 </r>
       <r>    9.7103    0.0000 </r>
       <r>   10.2321    0.0000 </r>
       <r>   10.6019    0.0000 </r>
       <r>   11.0090    0.0000 </r>
       <r>   11.6887    0.0000 </r>
       <r>   12.0284    0.0000 </r>
       <r>   12.1822    0.0000 </r>
       <r>   12.5784    0.0000 </r>
       <r>   12.6707    0.0000 </r>
       <r>   13.2500    0.0000 </r>
       <r>   13.6798    0.0000 </r>
       <r>   14.0947    0.0000 </r>
       <r>   14.3039    0.0000 </r>
       <r>   14.4920    0.0000 </r>
       <r>   14.8849    0.0000 </r>
       <r>   15.2102    0.0000 </r>
       <r>   15.2365    0.0000 </r>
       <r>   16.1354    0.0000 </r>
       <r>   16.5526    0.0000 </r>
       <r>   16.5876    0.0000 </r>
       <r>   16.8810    0.0000 </r>
       <r>   17.0073    0.0000 </r>
       <r>   17.0822    0.0000 </r>
       <r>   17.7143    0.0000 </r>
       <r>   18.0642    0.0000 </r>
       <r>   18.2106    0.0000 </r>
       <r>   18.3640    0.0000 </r>
       <r>   18.4602    0.0000 </r>
       <r>   19.3009    0.0000 </r>
       <r>   19.5575    0.0000 </r>
       <r>   19.6724    0.0000 </r>
       <r>   19.7642    0.0000 </r>
       <r>   20.2203    0.0000 </r>
       <r>   20.3520    0.0000 </r>
       <r>   20.6519    0.0000 </r>
       <r>   20.8933    0.0000 </r>
       <r>   20.9733    0.0000 </r>
       <r>   21.4474    0.0000 </r>
       <r>   21.4870    0.0000 </r>
       <r>   21.8863    0.0000 </r>
       <r>   22.1565    0.0000 </r>
       <r>   22.2280    0.0000 </r>
       <r>   22.9273    0.0000 </r>
       <r>   23.1639    0.0000 </r>
       <r>   23.3730    0.0000 </r>
       <r>   24.0089    0.0000 </r>
       <r>   24.2713    0.0000 </r>
       <r>   24.5628    0.0000 </r>
       <r>   24.7403    0.0000 </r>
       <r>   25.3089    0.0000 </r>
       <r>   25.5001    0.0000 </r>
       <r>   25.8403    0.0000 </r>
       <r>   26.4867    0.0000 </r>
       <r>   26.4943    0.0000 </r>
       <r>   26.9255    0.0000 </r>
       <r>   26.9338    0.0000 </r>
       <r>   27.1043    0.0000 </r>
       <r>   27.2085    0.0000 </r>
       <r>   27.5006    0.0000 </r>
       <r>   27.7271    0.0000 </r>
       <r>   27.9976    0.0000 </r>
       <r>   28.2940    0.0000 </r>
       <r>   28.7807    0.0000 </r>
       <r>   29.3757    0.0000 </r>
       <r>   29.5118    0.0000 </r>
       <r>   29.5327    0.0000 </r>
       <r>   29.9050    0.0000 </r>
       <r>   29.9230    0.0000 </r>
       <r>   30.1854    0.0000 </r>
       <r>   30.4404    0.0000 </r>
       <r>   30.5712    0.0000 </r>
       <r>   30.9708    0.0000 </r>
       <r>   31.2081    0.0000 </r>
       <r>   31.3165    0.0000 </r>
       <r>   31.3403    0.0000 </r>
       <r>   32.1395    0.0000 </r>
       <r>   32.3502    0.0000 </r>
       <r>   32.6218    0.0000 </r>
       <r>   32.7729    0.0000 </r>
       <r>   33.1128    0.0000 </r>
       <r>   33.4887    0.0000 </r>
       <r>   34.2189    0.0000 </r>
       <r>   34.3232    0.0000 </r>
       <r>   34.5933    0.0000 </r>
       <r>   34.6471    0.0000 </r>
       <r>   34.7975    0.0000 </r>
       <r>   34.8582    0.0000 </r>
       <r>   35.4745    0.0000 </r>
       <r>   35.6859    0.0000 </r>
       <r>   36.2935    0.0000 </r>
       <r>   36.3020    0.0000 </r>
       <r>   36.3993    0.0000 </r>
       <r>   36.4985    0.0000 </r>
       <r>   37.1515    0.0000 </r>
       <r>   37.3301    0.0000 </r>
       <r>   37.5092    0.0000 </r>
       <r>   37.8310    0.0000 </r>
       <r>   37.8623    0.0000 </r>
       <r>   38.1770    0.0000 </r>
       <r>   38.4180    0.0000 </r>
      </set>
      <set comment="kpoint 12">
       <r>  -17.9725    1.0000 </r>
       <r>  -16.2237    1.0000 </r>
       <r>  -15.2167    1.0000 </r>
       <r>  -12.6918    1.0000 </r>
       <r>  -10.6841    1.0000 </r>
       <r>   -8.8037    1.0000 </r>
       <r>   -8.4393    1.0000 </r>
       <r>   -7.5709    1.0000 </r>
[...]
       <r>    31.8183     0.1446   212.6806 </r>
       <r>    31.8447     0.0702   212.6824 </r>
       <r>    31.8711    16.2794   213.1121 </r>
       <r>    31.8975     9.5272   213.3635 </r>
       <r>    31.9239     7.3588   213.5578 </r>
       <r>    31.9503    10.9972   213.8480 </r>
       <r>    31.9767     4.1197   213.9568 </r>
       <r>    32.0031     5.9972   214.1151 </r>
       <r>    32.0295     2.9487   214.1929 </r>
       <r>    32.0559     1.0166   214.2197 </r>
       <r>    32.0823    17.0375   214.6694 </r>
       <r>    32.1087     8.4654   214.8928 </r>
       <r>    32.1351     4.1616   215.0027 </r>
       <r>    32.1615     6.7627   215.1812 </r>
       <r>    32.1878     9.6768   215.4366 </r>
       <r>    32.2142    10.0657   215.7023 </r>
       <r>    32.2406     7.1103   215.8899 </r>
       <r>    32.2670     4.6830   216.0135 </r>
       <r>    32.2934    16.3697   216.4456 </r>
       <r>    32.3198    12.4987   216.7755 </r>
       <r>    32.3462    13.2012   217.1239 </r>
       <r>    32.3726     7.4214   217.3198 </r>
       <r>    32.3990     7.9070   217.5285 </r>
       <r>    32.4254     5.1601   217.6647 </r>
       <r>    32.4518     9.8165   217.9238 </r>
       <r>    32.4782     8.1330   218.1385 </r>
       <r>    32.5046    11.9953   218.4551 </r>
       <r>    32.5310     7.8898   218.6633 </r>
       <r>    32.5574    15.2813   219.0667 </r>
       <r>    32.5838    11.0664   219.3587 </r>
       <r>    32.6102     1.8480   219.4075 </r>
       <r>    32.6365    21.3535   219.9711 </r>
       <r>    32.6629     6.5814   220.1448 </r>
       <r>    32.6893     7.1066   220.3324 </r>
       <r>    32.7157     5.3831   220.4745 </r>
       <r>    32.7421     3.9366   220.5784 </r>
       <r>    32.7685    14.0678   220.9497 </r>
       <r>    32.7949     8.6827   221.1789 </r>
       <r>    32.8213    13.7062   221.5406 </r>
       <r>    32.8477     4.3768   221.6562 </r>
       <r>    32.8741     2.5039   221.7222 </r>
       <r>    32.9005     7.0668   221.9088 </r>
       <r>    32.9269     6.1557   222.0712 </r>
       <r>    32.9533    10.5989   222.3510 </r>
       <r>    32.9797     4.6129   222.4727 </r>
       <r>    33.0061     1.4561   222.5112 </r>
       <r>    33.0325     0.5313   222.5252 </r>
       <r>    33.0588    12.8549   222.8645 </r>
       <r>    33.0852    16.8535   223.3093 </r>
       <r>    33.1116    10.5460   223.5877 </r>
       <r>    33.1380    11.2161   223.8837 </r>
       <r>    33.1644     3.5770   223.9781 </r>
       <r>    33.1908     3.9502   224.0824 </r>
       <r>    33.2172     1.6170   224.1251 </r>
       <r>    33.2436     8.2134   224.3418 </r>
       <r>    33.2700     6.3812   224.5103 </r>
       <r>    33.2964     6.4516   224.6806 </r>
       <r>    33.3228     9.9550   224.9433 </r>
       <r>    33.3492     3.0540   225.0239 </r>
       <r>    33.3756     4.2853   225.1370 </r>
       <r>    33.4020     6.8382   225.3175 </r>
       <r>    33.4284     3.4486   225.4085 </r>
       <r>    33.4548    10.3922   225.6828 </r>
       <r>    33.4812    16.4044   226.1158 </r>
       <r>    33.5075     7.6907   226.3188 </r>
       <r>    33.5339     0.0247   226.3194 </r>
       <r>    33.5603     0.0025   226.3195 </r>
       <r>    33.5867     4.8131   226.4465 </r>
       <r>    33.6131    20.1680   226.9789 </r>
       <r>    33.6395     5.5353   227.1250 </r>
       <r>    33.6659     0.0173   227.1254 </r>
       <r>    33.6923     6.3735   227.2936 </r>
       <r>    33.7187    24.2956   227.9349 </r>
       <r>    33.7451    15.0380   228.3318 </r>
       <r>    33.7715    16.1687   228.7586 </r>
       <r>    33.7979     2.8190   228.8330 </r>
       <r>    33.8243     7.9168   229.0419 </r>
       <r>    33.8507     8.2692   229.2602 </r>
       <r>    33.8771     5.6889   229.4103 </r>
       <r>    33.9035     1.8335   229.4587 </r>
       <r>    33.9299     5.3427   229.5997 </r>
       <r>    33.9562     9.1187   229.8404 </r>
       <r>    33.9826     6.0256   229.9995 </r>
       <r>    34.0090    19.4469   230.5128 </r>
       <r>    34.0354    13.2215   230.8617 </r>
       <r>    34.0618     6.0296   231.0209 </r>
       <r>    34.0882     4.5150   231.1400 </r>
       <r>    34.1146     9.1780   231.3823 </r>
       <r>    34.1410     6.1775   231.5453 </r>
       <r>    34.1674     6.7965   231.7247 </r>
       <r>    34.1938     9.1730   231.9668 </r>
       <r>    34.2202    16.6267   232.4057 </r>
       <r>    34.2466     7.2428   232.5968 </r>
       <r>    34.2730     6.8350   232.7772 </r>
       <r>    34.2994     2.6711   232.8477 </r>
       <r>    34.3258     8.7014   233.0774 </r>
       <r>    34.3522    12.7952   233.4151 </r>
       <r>    34.3786     0.9806   233.4410 </r>
       <r>    34.4049     4.1140   233.5496 </r>
       <r>    34.4313     0.2256   233.5556 </r>
       <r>    34.4577     0.4338   233.5670 </r>
       <r>    34.4841    15.3256   233.9715 </r>
       <r>    34.5105     3.1885   234.0557 </r>
       <r>    34.5369     2.4254   234.1197 </r>
       <r>    34.5633     2.0595   234.1740 </r>
       <r>    34.5897    15.8458   234.5923 </r>
       <r>    34.6161    11.5933   234.8983 </r>
       <r>    34.6425    11.1006   235.1913 </r>
       <r>    34.6689     5.3760   235.3332 </r>
       <r>    34.6953     0.0438   235.3343 </r>
       <r>    34.7217     2.8966   235.4108 </r>
       <r>    34.7481     1.6830   235.4552 </r>
       <r>    34.7745    10.1375   235.7228 </r>
       <r>    34.8009    10.4610   235.9989 </r>
       <r>    34.8273     8.7473   236.2297 </r>
       <r>    34.8536     6.3749   236.3980 </r>
       <r>    34.8800     9.0660   236.6373 </r>
       <r>    34.9064     3.8746   236.7396 </r>
       <r>    34.9328    11.9383   237.0547 </r>
       <r>    34.9592     2.9729   237.1331 </r>
       <r>    34.9856     4.0389   237.2397 </r>
       <r>    35.0120     6.2060   237.4035 </r>
       <r>    35.0384     9.5199   237.6548 </r>
       <r>    35.0648    10.7976   237.9398 </r>
       <r>    35.0912     9.4096   238.1881 </r>
       <r>    35.1176     3.6467   238.2844 </r>
       <r>    35.1440    10.1897   238.5533 </r>
       <r>    35.1704     2.2335   238.6123 </r>
       <r>    35.1968     4.5667   238.7328 </r>
       <r>    35.2232     6.7089   238.9099 </r>
       <r>    35.2496    12.8848   239.2500 </r>
       <r>    35.2759     9.3086   239.4957 </r>
       <r>    35.3023     0.6898   239.5139 </r>
       <r>    35.3287     0.0001   239.5139 </r>
       <r>    35.3551     1.3312   239.5490 </r>
       <r>    35.3815     7.0915   239.7362 </r>
       <r>    35.4079     2.8130   239.8104 </r>
       <r>    35.4343     8.6602   240.0390 </r>
       <r>    35.4607     2.2931   240.0996 </r>
       <r>    35.4871    21.0488   240.6551 </r>
       <r>    35.5135    21.0432   241.2105 </r>
       <r>    35.5399     2.5508   241.2779 </r>
       <r>    35.5663     8.9827   241.5149 </r>
       <r>    35.5927    16.4256   241.9485 </r>
       <r>    35.6191     4.0554   242.0555 </r>
       <r>    35.6455     0.0015   242.0556 </r>
       <r>    35.6719     4.3274   242.1698 </r>
       <r>    35.6983    20.7257   242.7168 </r>
       <r>    35.7246    14.0660   243.0881 </r>
       <r>    35.7510     5.0636   243.2217 </r>
       <r>    35.7774     4.1710   243.3318 </r>
       <r>    35.8038     8.4855   243.5558 </r>
       <r>    35.8302    11.4726   243.8586 </r>
       <r>    35.8566    16.5885   244.2964 </r>
       <r>    35.8830     1.9214   244.3471 </r>
       <r>    35.9094     5.1981   244.4843 </r>
       <r>    35.9358     7.6037   244.6850 </r>
       <r>    35.9622     7.8703   244.8928 </r>
       <r>    35.9886     9.6913   245.1486 </r>
       <r>    36.0150    10.4300   245.4238 </r>
       <r>    36.0414     0.4552   245.4359 </r>
       <r>    36.0678     3.3061   245.5231 </r>
       <r>    36.0942     0.5928   245.5388 </r>
       <r>    36.1206    10.3944   245.8131 </r>
       <r>    36.1470     4.3569   245.9281 </r>
       <r>    36.1733     0.9983   245.9545 </r>
       <r>    36.1997     2.6067   246.0233 </r>
       <r>    36.2261    15.1339   246.4227 </r>
       <r>    36.2525     8.4058   246.6446 </r>
       <r>    36.2789    12.6613   246.9788 </r>
       <r>    36.3053    17.8296   247.4494 </r>
       <r>    36.3317     3.8845   247.5519 </r>
       <r>    36.3581     1.7192   247.5973 </r>
       <r>    36.3845     6.3977   247.7661 </r>
       <r>    36.4109    15.3633   248.1716 </r>
       <r>    36.4373    10.0736   248.4375 </r>
       <r>    36.4637    24.0032   249.0710 </r>
       <r>    36.4901     9.7410   249.3281 </r>
       <r>    36.5165    13.6095   249.6874 </r>
       <r>    36.5429    10.1155   249.9543 </r>
       <r>    36.5693     6.2567   250.1195 </r>
       <r>    36.5957     9.7507   250.3768 </r>
       <r>    36.6220     1.5087   250.4167 </r>
       <r>    36.6484     0.4287   250.4280 </r>
       <r>    36.6748     2.2668   250.4878 </r>
       <r>    36.7012     7.4416   250.6842 </r>
       <r>    36.7276     5.3923   250.8265 </r>
       <r>    36.7540    12.5910   251.1589 </r>
       <r>    36.7804     5.7182   251.3098 </r>
       <r>    36.8068    10.0050   251.5739 </r>
       <r>    36.8332    22.3090   252.1627 </r>
       <r>    36.8596     6.2700   252.3282 </r>
       <r>    36.8860    16.9088   252.7745 </r>
       <r>    36.9124     7.4543   252.9712 </r>
       <r>    36.9388     9.1415   253.2125 </r>
       <r>    36.9652     6.8519   253.3934 </r>
       <r>    36.9916     6.2613   253.5586 </r>
       <r>    37.0180     7.3001   253.7513 </r>
       <r>    37.0444    11.0031   254.0417 </r>
       <r>    37.0707     8.7899   254.2737 </r>
       <r>    37.0971    16.3596   254.7055 </r>
       <r>    37.1235     6.1099   254.8668 </r>
       <r>    37.1499     8.1906   255.0830 </r>
       <r>    37.1763     9.2529   255.3272 </r>
       <r>    37.2027     9.0736   255.5667 </r>
       <r>    37.2291     3.3006   255.6538 </r>
       <r>    37.2555     7.9875   255.8646 </r>
       <r>    37.2819     5.1870   256.0015 </r>
       <r>    37.3083     4.7510   256.1269 </r>
       <r>    37.3347    12.5102   256.4571 </r>
       <r>    37.3611     6.1874   256.6204 </r>
       <r>    37.3875     5.8540   256.7749 </r>
       <r>    37.4139     3.2350   256.8603 </r>
       <r>    37.4403     2.5179   256.9268 </r>
       <r>    37.4667     5.2729   257.0660 </r>
       <r>    37.4931     6.5993   257.2401 </r>
       <r>    37.5194    13.3903   257.5936 </r>
       <r>    37.5458     2.5423   257.6607 </r>
       <r>    37.5722    14.1070   258.0330 </r>
       <r>    37.5986    13.0370   258.3771 </r>
       <r>    37.6250     2.6082   258.4459 </r>
       <r>    37.6514     8.3824   258.6672 </r>
       <r>    37.6778    11.4278   258.9688 </r>
       <r>    37.7042     5.8929   259.1244 </r>
       <r>    37.7306     4.8859   259.2533 </r>
       <r>    37.7570     6.9812   259.4376 </r>
       <r>    37.7834    18.3942   259.9231 </r>
       <r>    37.8098    11.2465   260.2199 </r>
       <r>    37.8362    13.3728   260.5729 </r>
       <r>    37.8626    10.4934   260.8498 </r>
       <r>    37.8890     6.2475   261.0147 </r>
       <r>    37.9154     6.8246   261.1949 </r>
       <r>    37.9417    17.5928   261.6592 </r>
       <r>    37.9681    13.4185   262.0134 </r>
       <r>    37.9945     1.7861   262.0605 </r>
       <r>    38.0209     5.5922   262.2081 </r>
       <r>    38.0473     2.4886   262.2738 </r>
       <r>    38.0737     1.6200   262.3166 </r>
       <r>    38.1001     5.3433   262.4576 </r>
       <r>    38.1265     0.0327   262.4585 </r>
       <r>    38.1529     2.3319   262.5200 </r>
       <r>    38.1793     4.7849   262.6463 </r>
       <r>    38.2057     7.2459   262.8375 </r>
       <r>    38.2321    10.8006   263.1226 </r>
       <r>    38.2585     0.0903   263.1250 </r>
       <r>    38.2849     0.2812   263.1324 </r>
       <r>    38.3113     7.9281   263.3417 </r>
       <r>    38.3377     4.4164   263.4582 </r>
       <r>    38.3641     0.0034   263.4583 </r>
       <r>    38.3904     0.0003   263.4583 </r>
       <r>    38.4168     2.7310   263.5304 </r>
       <r>    38.4432     3.5829   263.6250 </r>
       <r>    38.4696     1.8963   263.6750 </r>
       <r>    38.4960     2.3615   263.7374 </r>
       <r>    38.5224     2.0558   263.7916 </r>
       <r>    38.5488     0.0013   263.7917 </r>
       <r>    38.5752     0.0000   263.7917 </r>
       <r>    38.6016     0.0000   263.7917 </r>
       <r>    38.6280     0.0000   263.7917 </r>
       <r>    38.6544     0.0000   263.7917 </r>
       <r>    38.6808     0.0026   263.7917 </r>
       <r>    38.7072     2.3468   263.8537 </r>
       <r>    38.7336     2.3861   263.9167 </r>
       <r>    38.7600     1.0596   263.9446 </r>
       <r>    38.7864     0.5195   263.9583 </r>
       <r>    38.8128     0.0000   263.9583 </r>
       <r>    38.8391     0.0000   263.9583 </r>
       <r>    38.8655     0.0000   263.9583 </r>
       <r>    38.8919     0.0000   263.9583 </r>
       <r>    38.9183     0.0000   263.9583 </r>
       <r>    38.9447     0.0000   263.9583 </r>
       <r>    38.9711     0.0000   263.9583 </r>
       <r>    38.9975     0.0003   263.9583 </r>
       <r>    39.0239     0.8954   263.9820 </r>
       <r>    39.0503     0.6829   264.0000 </r>
       <r>    39.0767     0.0001   264.0000 </r>
       <r>    39.1031     0.0000   264.0000 </r>
       <r>    39.1295     0.0000   264.0000 </r>
       <r>    39.1559     0.0000   264.0000 </r>
       <r>    39.1823     0.0000   264.0000 </r>
       <r>    39.2087     0.0000   264.0000 </r>
       <r>    39.2351     0.0000   264.0000 </r>
       <r>    39.2615     0.0000   264.0000 </r>
       <r>    39.2878     0.0000   264.0000 </r>
       <r>    39.3142     0.0000   264.0000 </r>
       <r>    39.3406     0.0000   264.0000 </r>
       <r>    39.3670     0.0000   264.0000 </r>
       <r>    39.3934     0.0000   264.0000 </r>
       <r>    39.4198     0.0000   264.0000 </r>
       <r>    39.4462     0.0000   264.0000 </r>
       <r>    39.4726     0.0000   264.0000 </r>
       <r>    39.4990     0.0000   264.0000 </r>
       <r>    39.5254     0.0000   264.0000 </r>
       <r>    39.5518     0.0000   264.0000 </r>
       <r>    39.5782     0.0000   264.0000 </r>
       <r>    39.6046     0.0000   264.0000 </r>
       <r>    39.6310     0.0000   264.0000 </r>
       <r>    39.6574     0.0000   264.0000 </r>
       <r>    39.6838     0.0000   264.0000 </r>
       <r>    39.7102     0.0000   264.0000 </r>
       <r>    39.7365     0.0000   264.0000 </r>
       <r>    39.7629     0.0000   264.0000 </r>
       <r>    39.7893     0.0000   264.0000 </r>
       <r>    39.8157     0.0000   264.0000 </r>
       <r>    39.8421     0.0000   264.0000 </r>
       <r>    39.8685     0.0000   264.0000 </r>
       <r>    39.8949     0.0000   264.0000 </r>
       <r>    39.9213     0.0000   264.0000 </r>
       <r>    39.9477     0.0000   264.0000 </r>
       <r>    39.9741     0.0000   264.0000 </r>
       <r>    40.0005     0.0000   264.0000 </r>
       <r>    40.0269     0.0000   264.0000 </r>
       <r>    40.0533     0.0000   264.0000 </r>
       <r>    40.0797     0.0000   264.0000 </r>
       <r>    40.1061     0.0000   264.0000 </r>
       <r>    40.1325     0.0000   264.0000 </r>
       <r>    40.1589     0.0000   264.0000 </r>
       <r>    40.1852     0.0000   264.0000 </r>
       <r>    40.2116     0.0000   264.0000 </r>
       <r>    40.2380     0.0000   264.0000 </r>
       <r>    40.2644     0.0000   264.0000 </r>
       <r>    40.2908     0.0000   264.0000 </r>
       <r>    40.3172     0.0000   264.0000 </r>
       <r>    40.3436     0.0000   264.0000 </r>
       <r>    40.3700     0.0000   264.0000 </r>
       <r>    40.3964     0.0000   264.0000 </r>
       <r>    40.4228     0.0000   264.0000 </r>
       <r>    40.4492     0.0000   264.0000 </r>
       <r>    40.4756     0.0000   264.0000 </r>
       <r>    40.5020     0.0000   264.0000 </r>
       <r>    40.5284     0.0000   264.0000 </r>
       <r>    40.5548     0.0000   264.0000 </r>
       <r>    40.5812     0.0000   264.0000 </r>
       <r>    40.6075     0.0000   264.0000 </r>
       <r>    40.6339     0.0000   264.0000 </r>
       <r>    40.6603     0.0000   264.0000 </r>
       <r>    40.6867     0.0000   264.0000 </r>
       <r>    40.7131     0.0000   264.0000 </r>
       <r>    40.7395     0.0000   264.0000 </r>
       <r>    40.7659     0.0000   264.0000 </r>
       <r>    40.7923     0.0000   264.0000 </r>
       <r>    40.8187     0.0000   264.0000 </r>
       <r>    40.8451     0.0000   264.0000 </r>
       <r>    40.8715     0.0000   264.0000 </r>
       <r>    40.8979     0.0000   264.0000 </r>
       <r>    40.9243     0.0000   264.0000 </r>
       <r>    40.9507     0.0000   264.0000 </r>
       <r>    40.9771     0.0000   264.0000 </r>
       <r>    41.0035     0.0000   264.0000 </r>
       <r>    41.0299     0.0000   264.0000 </r>
       <r>    41.0562     0.0000   264.0000 </r>
       <r>    41.0826     0.0000   264.0000 </r>
       <r>    41.1090     0.0000   264.0000 </r>
       <r>    41.1354     0.0000   264.0000 </r>
       <r>    41.1618     0.0000   264.0000 </r>
       <r>    41.1882     0.0000   264.0000 </r>
       <r>    41.2146     0.0000   264.0000 </r>
       <r>    41.2410     0.0000   264.0000 </r>
       <r>    41.2674     0.0000   264.0000 </r>
       <r>    41.2938     0.0000   264.0000 </r>
       <r>    41.3202     0.0000   264.0000 </r>
       <r>    41.3466     0.0000   264.0000 </r>
       <r>    41.3730     0.0000   264.0000 </r>
       <r>    41.3994     0.0000   264.0000 </r>
       <r>    41.4258     0.0000   264.0000 </r>
       <r>    41.4522     0.0000   264.0000 </r>
       <r>    41.4786     0.0000   264.0000 </r>
       <r>    41.5049     0.0000   264.0000 </r>
       <r>    41.5313     0.0000   264.0000 </r>
       <r>    41.5577     0.0000   264.0000 </r>
       <r>    41.5841     0.0000   264.0000 </r>
       <r>    41.6105     0.0000   264.0000 </r>
       <r>    41.6369     0.0000   264.0000 </r>
       <r>    41.6633     0.0000   264.0000 </r>
       <r>    41.6897     0.0000   264.0000 </r>
       <r>    41.7161     0.0000   264.0000 </r>
       <r>    41.7425     0.0000   264.0000 </r>
       <r>    41.7689     0.0000   264.0000 </r>
       <r>    41.7953     0.0000   264.0000 </r>
       <r>    41.8217     0.0000   264.0000 </r>
       <r>    41.8481     0.0000   264.0000 </r>
       <r>    41.8745     0.0000   264.0000 </r>
       <r>    41.9009     0.0000   264.0000 </r>
      </set>
     </set>
    </array>
   </total>
  </dos>
 </calculation>
 <structure name="finalpos" >
  <crystal>
   <varray name="basis" >
    <v>       4.48084843       2.58701885       0.00000000 </v>
    <v>      -4.48084843       2.58701885       0.00000000 </v>
    <v>       0.00000000       0.00000000       8.52022140 </v>
   </varray>
   <i name="volume">    197.53348383 </i>
   <varray name="rec_basis" >
    <v>       0.11158601       0.19327265       0.00000000 </v>
    <v>      -0.11158601       0.19327265       0.00000000 </v>
    <v>       0.00000000       0.00000000       0.11736784 </v>
   </varray>
  </crystal>
  <varray name="positions" >
   <v>       0.33333300       0.66666600       0.25000000 </v>
   <v>       0.66666600       0.33333300       0.25000000 </v>
   <v>       0.15869124       0.31738348       0.25000000 </v>
   <v>       0.31738348       0.15869124       0.25000000 </v>
   <v>       0.15869124       0.84130776       0.25000000 </v>
   <v>       0.84130776       0.15869124       0.25000000 </v>
   <v>       0.68261552       0.84130776       0.25000000 </v>
   <v>       0.84130776       0.68261552       0.25000000 </v>
  </varray>
 </structure>
</modeling>
