   8   8   0   0
  0.2469169E+02  0.5174038E-09  0.5174038E-09  0.8520222E-09  0.5000000E-15
  1.000000000000000E-004
  CAR 
 BC3-optical                             
     56.04687287    -22.09210139 2400     -2.41485761      1.00000000
    -22.092  0.0000E+00  0.0000E+00
    -22.060  0.0000E+00  0.0000E+00
    -22.027  0.0000E+00  0.0000E+00
    -21.994  0.0000E+00  0.0000E+00
    -21.962  0.0000E+00  0.0000E+00
    -21.929  0.0000E+00  0.0000E+00
    -21.897  0.0000E+00  0.0000E+00
    -21.864  0.0000E+00  0.0000E+00
    -21.832  0.0000E+00  0.0000E+00
    -21.799  0.0000E+00  0.0000E+00
    -21.766  0.0000E+00  0.0000E+00
    -21.734  0.0000E+00  0.0000E+00
    -21.701  0.0000E+00  0.0000E+00
    -21.669  0.0000E+00  0.0000E+00
    -21.636  0.0000E+00  0.0000E+00
    -21.604  0.0000E+00  0.0000E+00
    -21.571  0.0000E+00  0.0000E+00
    -21.538  0.0000E+00  0.0000E+00
    -21.506  0.0000E+00  0.0000E+00
    -21.473  0.0000E+00  0.0000E+00
    -21.441  0.0000E+00  0.0000E+00
    -21.408  0.0000E+00  0.0000E+00
    -21.376  0.0000E+00  0.0000E+00
    -21.343  0.0000E+00  0.0000E+00
    -21.310  0.0000E+00  0.0000E+00
    -21.278  0.0000E+00  0.0000E+00
    -21.245  0.0000E+00  0.0000E+00
    -21.213  0.0000E+00  0.0000E+00
    -21.180  0.0000E+00  0.0000E+00
    -21.148  0.0000E+00  0.0000E+00
    -21.115  0.0000E+00  0.0000E+00
    -21.082  0.0000E+00  0.0000E+00
    -21.050  0.0000E+00  0.0000E+00
    -21.017  0.0000E+00  0.0000E+00
    -20.985  0.0000E+00  0.0000E+00
    -20.952  0.0000E+00  0.0000E+00
    -20.920  0.0000E+00  0.0000E+00
    -20.887  0.0000E+00  0.0000E+00
    -20.854  0.0000E+00  0.0000E+00
    -20.822  0.0000E+00  0.0000E+00
    -20.789  0.0000E+00  0.0000E+00
    -20.757  0.0000E+00  0.0000E+00
    -20.724  0.0000E+00  0.0000E+00
    -20.692  0.0000E+00  0.0000E+00
    -20.659  0.0000E+00  0.0000E+00
    -20.626  0.0000E+00  0.0000E+00
    -20.594  0.0000E+00  0.0000E+00
    -20.561  0.0000E+00  0.0000E+00
    -20.529  0.0000E+00  0.0000E+00
    -20.496  0.0000E+00  0.0000E+00
    -20.464  0.0000E+00  0.0000E+00
    -20.431  0.0000E+00  0.0000E+00
    -20.398  0.0000E+00  0.0000E+00
    -20.366  0.0000E+00  0.0000E+00
    -20.333  0.0000E+00  0.0000E+00
    -20.301  0.0000E+00  0.0000E+00
    -20.268  0.0000E+00  0.0000E+00
    -20.236  0.0000E+00  0.0000E+00
    -20.203  0.0000E+00  0.0000E+00
    -20.170  0.0000E+00  0.0000E+00
    -20.138  0.0000E+00  0.0000E+00
    -20.105  0.0000E+00  0.0000E+00
    -20.073  0.0000E+00  0.0000E+00
    -20.040  0.0000E+00  0.0000E+00
    -20.008  0.0000E+00  0.0000E+00
    -19.975  0.0000E+00  0.0000E+00
    -19.942  0.0000E+00  0.0000E+00
    -19.910  0.0000E+00  0.0000E+00
    -19.877  0.0000E+00  0.0000E+00
    -19.845  0.0000E+00  0.0000E+00
    -19.812  0.0000E+00  0.0000E+00
    -19.780  0.0000E+00  0.0000E+00
    -19.747  0.0000E+00  0.0000E+00
    -19.714  0.0000E+00  0.0000E+00
    -19.682  0.0000E+00  0.0000E+00
    -19.649  0.0000E+00  0.0000E+00
    -19.617  0.0000E+00  0.0000E+00
    -19.584  0.0000E+00  0.0000E+00
    -19.552  0.0000E+00  0.0000E+00
    -19.519  0.0000E+00  0.0000E+00
    -19.486  0.0000E+00  0.0000E+00
    -19.454  0.0000E+00  0.0000E+00
    -19.421  0.0000E+00  0.0000E+00
    -19.389  0.0000E+00  0.0000E+00
    -19.356  0.0000E+00  0.0000E+00
    -19.324  0.0000E+00  0.0000E+00
    -19.291  0.0000E+00  0.0000E+00
    -19.258  0.0000E+00  0.0000E+00
    -19.226  0.0000E+00  0.0000E+00
    -19.193  0.0000E+00  0.0000E+00
    -19.161  0.0000E+00  0.0000E+00
    -19.128  0.0000E+00  0.0000E+00
    -19.096  0.0000E+00  0.0000E+00
    -19.063  0.0000E+00  0.0000E+00
    -19.030  0.0000E+00  0.0000E+00
    -18.998  0.0000E+00  0.0000E+00
    -18.965  0.0000E+00  0.0000E+00
    -18.933  0.0000E+00  0.0000E+00
    -18.900  0.0000E+00  0.0000E+00
    -18.868  0.0000E+00  0.0000E+00
    -18.835  0.0000E+00  0.0000E+00
    -18.802  0.0000E+00  0.0000E+00
    -18.770  0.0000E+00  0.0000E+00
    -18.737  0.0000E+00  0.0000E+00
    -18.705  0.0000E+00  0.0000E+00
    -18.672  0.0000E+00  0.0000E+00
    -18.640  0.0000E+00  0.0000E+00
    -18.607  0.0000E+00  0.0000E+00
    -18.574  0.3128E-06  0.1019E-07
    -18.542  0.1779E+00  0.5795E-02
    -18.509  0.2073E+01  0.7333E-01
    -18.477  0.7581E+00  0.9802E-01
    -18.444  0.2708E+01  0.1862E+00
    -18.412  0.2383E+01  0.2638E+00
    -18.379  0.1254E-01  0.2642E+00
    -18.346  0.4899E+01  0.4238E+00
    -18.314  0.1105E+01  0.4598E+00
    -18.281  0.1660E+01  0.5139E+00
    -18.249  0.4711E+00  0.5292E+00
    -18.216  0.6078E+01  0.7272E+00
    -18.184  0.1130E+01  0.7640E+00
    -18.151  0.2425E+01  0.8430E+00
    -18.118  0.2261E+00  0.8504E+00
    -18.086  0.5375E+01  0.1025E+01
    -18.053  0.4759E+01  0.1180E+01
    -18.021  0.2107E+01  0.1249E+01
    -17.988  0.1875E+01  0.1310E+01
    -17.956  0.1257E+02  0.1720E+01
    -17.923  0.2016E+01  0.1785E+01
    -17.890  0.5591E+01  0.1967E+01
    -17.858  0.9947E+00  0.2000E+01
    -17.825  0.9456E-02  0.2000E+01
    -17.793  0.0000E+00  0.2000E+01
    -17.760  0.0000E+00  0.2000E+01
    -17.728  0.0000E+00  0.2000E+01
    -17.695  0.0000E+00  0.2000E+01
    -17.662  0.0000E+00  0.2000E+01
    -17.630  0.0000E+00  0.2000E+01
    -17.597  0.0000E+00  0.2000E+01
    -17.565  0.0000E+00  0.2000E+01
    -17.532  0.0000E+00  0.2000E+01
    -17.500  0.0000E+00  0.2000E+01
    -17.467  0.0000E+00  0.2000E+01
    -17.434  0.0000E+00  0.2000E+01
    -17.402  0.0000E+00  0.2000E+01
    -17.369  0.0000E+00  0.2000E+01
    -17.337  0.0000E+00  0.2000E+01
    -17.304  0.0000E+00  0.2000E+01
    -17.272  0.0000E+00  0.2000E+01
    -17.239  0.0000E+00  0.2000E+01
    -17.206  0.0000E+00  0.2000E+01
    -17.174  0.0000E+00  0.2000E+01
    -17.141  0.0000E+00  0.2000E+01
    -17.109  0.0000E+00  0.2000E+01
    -17.076  0.0000E+00  0.2000E+01
    -17.044  0.0000E+00  0.2000E+01
    -17.011  0.0000E+00  0.2000E+01
    -16.978  0.0000E+00  0.2000E+01
    -16.946  0.0000E+00  0.2000E+01
    -16.913  0.0000E+00  0.2000E+01
    -16.881  0.0000E+00  0.2000E+01
    -16.848  0.0000E+00  0.2000E+01
    -16.816  0.0000E+00  0.2000E+01
    -16.783  0.0000E+00  0.2000E+01
    -16.750  0.0000E+00  0.2000E+01
    -16.718  0.0000E+00  0.2000E+01
    -16.685  0.0000E+00  0.2000E+01
    -16.653  0.0000E+00  0.2000E+01
    -16.620  0.0000E+00  0.2000E+01
    -16.588  0.0000E+00  0.2000E+01
    -16.555  0.0000E+00  0.2000E+01
    -16.522  0.0000E+00  0.2000E+01
    -16.490  0.0000E+00  0.2000E+01
    -16.457  0.0000E+00  0.2000E+01
    -16.425  0.0000E+00  0.2000E+01
    -16.392  0.0000E+00  0.2000E+01
    -16.360  0.0000E+00  0.2000E+01
    -16.327  0.6249E-14  0.2000E+01
    -16.294  0.1096E-02  0.2000E+01
    -16.262  0.1188E+01  0.2039E+01
    -16.229  0.1193E+01  0.2078E+01
    -16.197  0.4262E+01  0.2216E+01
    -16.164  0.3416E+01  0.2328E+01
    -16.132  0.1452E+01  0.2375E+01
    -16.099  0.2178E+01  0.2446E+01
    -16.066  0.7240E+01  0.2682E+01
    -16.034  0.1392E+01  0.2727E+01
    -16.001  0.5634E+01  0.2911E+01
    -15.969  0.1467E+01  0.2958E+01
    -15.936  0.1345E+01  0.3002E+01
    -15.904  0.3614E+00  0.3014E+01
    -15.871  0.5071E+01  0.3179E+01
    -15.838  0.2603E+01  0.3264E+01
    -15.806  0.6070E-05  0.3264E+01
    -15.773  0.0000E+00  0.3264E+01
    -15.741  0.4175E-03  0.3264E+01
    -15.708  0.4794E+01  0.3420E+01
    -15.676  0.5438E+01  0.3597E+01
    -15.643  0.1107E-02  0.3597E+01
    -15.610  0.3343E-01  0.3598E+01
    -15.578  0.2625E+01  0.3684E+01
    -15.545  0.2454E+01  0.3764E+01
    -15.513  0.1963E+00  0.3770E+01
    -15.480  0.2446E+01  0.3850E+01
    -15.448  0.2502E+01  0.3931E+01
    -15.415  0.5001E+01  0.4094E+01
    -15.382  0.9217E-01  0.4097E+01
    -15.350  0.1121E-01  0.4098E+01
    -15.317  0.7423E+01  0.4339E+01
    -15.285  0.2800E+01  0.4431E+01
    -15.252  0.1294E-04  0.4431E+01
    -15.220  0.1767E+01  0.4488E+01
    -15.187  0.3352E+01  0.4597E+01
    -15.154  0.4597E+01  0.4747E+01
    -15.122  0.3371E+01  0.4857E+01
    -15.089  0.5429E+01  0.5034E+01
    -15.057  0.4560E+01  0.5182E+01
    -15.024  0.2479E+01  0.5263E+01
    -14.992  0.2982E+01  0.5360E+01
    -14.959  0.8857E+00  0.5389E+01
    -14.926  0.2276E+01  0.5463E+01
    -14.894  0.5398E+01  0.5639E+01
    -14.861  0.9366E-03  0.5639E+01
    -14.829  0.3306E-05  0.5639E+01
    -14.796  0.1264E+01  0.5680E+01
    -14.764  0.6376E+01  0.5888E+01
    -14.731  0.3570E-01  0.5889E+01
    -14.698  0.3953E+00  0.5902E+01
    -14.666  0.2170E+01  0.5972E+01
    -14.633  0.8345E+00  0.6000E+01
    -14.601  0.1180E-01  0.6000E+01
    -14.568  0.0000E+00  0.6000E+01
    -14.536  0.0000E+00  0.6000E+01
    -14.503  0.0000E+00  0.6000E+01
    -14.470  0.0000E+00  0.6000E+01
    -14.438  0.0000E+00  0.6000E+01
    -14.405  0.0000E+00  0.6000E+01
    -14.373  0.0000E+00  0.6000E+01
    -14.340  0.0000E+00  0.6000E+01
    -14.308  0.0000E+00  0.6000E+01
    -14.275  0.0000E+00  0.6000E+01
    -14.242  0.0000E+00  0.6000E+01
    -14.210  0.0000E+00  0.6000E+01
    -14.177  0.0000E+00  0.6000E+01
    -14.145  0.0000E+00  0.6000E+01
    -14.112  0.0000E+00  0.6000E+01
    -14.080  0.0000E+00  0.6000E+01
    -14.047  0.0000E+00  0.6000E+01
    -14.014  0.0000E+00  0.6000E+01
    -13.982  0.0000E+00  0.6000E+01
    -13.949  0.0000E+00  0.6000E+01
    -13.917  0.0000E+00  0.6000E+01
    -13.884  0.0000E+00  0.6000E+01
    -13.852  0.0000E+00  0.6000E+01
    -13.819  0.0000E+00  0.6000E+01
    -13.786  0.0000E+00  0.6000E+01
    -13.754  0.0000E+00  0.6000E+01
    -13.721  0.0000E+00  0.6000E+01
    -13.689  0.0000E+00  0.6000E+01
    -13.656  0.0000E+00  0.6000E+01
    -13.624  0.0000E+00  0.6000E+01
    -13.591  0.0000E+00  0.6000E+01
    -13.558  0.0000E+00  0.6000E+01
    -13.526  0.0000E+00  0.6000E+01
    -13.493  0.0000E+00  0.6000E+01
    -13.461  0.0000E+00  0.6000E+01
    -13.428  0.0000E+00  0.6000E+01
    -13.396  0.0000E+00  0.6000E+01
    -13.363  0.0000E+00  0.6000E+01
    -13.330  0.0000E+00  0.6000E+01
    -13.298  0.0000E+00  0.6000E+01
    -13.265  0.0000E+00  0.6000E+01
    -13.233  0.0000E+00  0.6000E+01
    -13.200  0.0000E+00  0.6000E+01
    -13.168  0.0000E+00  0.6000E+01
    -13.135  0.0000E+00  0.6000E+01
    -13.102  0.0000E+00  0.6000E+01
    -13.070  0.0000E+00  0.6000E+01
    -13.037  0.0000E+00  0.6000E+01
    -13.005  0.0000E+00  0.6000E+01
    -12.972  0.0000E+00  0.6000E+01
    -12.940  0.0000E+00  0.6000E+01
    -12.907  0.0000E+00  0.6000E+01
    -12.874  0.2349E-04  0.6000E+01
    -12.842  0.8754E+00  0.6029E+01
    -12.809  0.2534E+01  0.6111E+01
    -12.777  0.4287E+00  0.6125E+01
    -12.744  0.9841E-01  0.6128E+01
    -12.712  0.2468E+01  0.6209E+01
    -12.679  0.4930E+01  0.6369E+01
    -12.646  0.1195E+01  0.6408E+01
    -12.614  0.4246E+01  0.6546E+01
    -12.581  0.2411E+01  0.6625E+01
    -12.549  0.2062E+01  0.6692E+01
    -12.516  0.3058E+01  0.6792E+01
    -12.484  0.9993E-04  0.6792E+01
    -12.451  0.1966E+01  0.6856E+01
    -12.418  0.5692E+01  0.7041E+01
    -12.386  0.2781E-01  0.7042E+01
    -12.353  0.2542E+01  0.7125E+01
    -12.321  0.9877E+01  0.7446E+01
    -12.288  0.8289E+01  0.7716E+01
    -12.256  0.6036E+00  0.7736E+01
    -12.223  0.2190E-02  0.7736E+01
    -12.190  0.2375E+01  0.7814E+01
    -12.158  0.1810E+00  0.7819E+01
    -12.125  0.1572E-08  0.7819E+01
    -12.093  0.1244E-01  0.7820E+01
    -12.060  0.2491E+01  0.7901E+01
    -12.028  0.1063E+01  0.7936E+01
    -11.995  0.1551E+01  0.7986E+01
    -11.962  0.3640E-04  0.7986E+01
    -11.930  0.1544E+01  0.8036E+01
    -11.897  0.5139E+01  0.8204E+01
    -11.865  0.9921E+00  0.8236E+01
    -11.832  0.4023E+00  0.8249E+01
    -11.800  0.4711E+01  0.8403E+01
    -11.767  0.3616E-02  0.8403E+01
    -11.734  0.2866E-01  0.8404E+01
    -11.702  0.2504E+01  0.8485E+01
    -11.669  0.2582E-01  0.8486E+01
    -11.637  0.0000E+00  0.8486E+01
    -11.604  0.9942E-15  0.8486E+01
    -11.572  0.7159E-03  0.8486E+01
    -11.539  0.2241E+01  0.8559E+01
    -11.506  0.1536E+01  0.8609E+01
    -11.474  0.4870E+00  0.8625E+01
    -11.441  0.3362E+01  0.8735E+01
    -11.409  0.6873E+01  0.8958E+01
    -11.376  0.2368E+01  0.9036E+01
    -11.344  0.1883E+00  0.9042E+01
    -11.311  0.1788E-08  0.9042E+01
    -11.278  0.3877E-08  0.9042E+01
    -11.246  0.3929E+00  0.9054E+01
    -11.213  0.5144E+01  0.9222E+01
    -11.181  0.6759E-02  0.9222E+01
    -11.148  0.4813E-07  0.9222E+01
    -11.116  0.4819E+00  0.9238E+01
    -11.083  0.5609E+01  0.9421E+01
    -11.050  0.4143E+01  0.9556E+01
    -11.018  0.9697E+00  0.9587E+01
    -10.985  0.4147E+01  0.9722E+01
    -10.953  0.4971E-03  0.9722E+01
    -10.920  0.6216E-04  0.9722E+01
    -10.888  0.1808E+01  0.9781E+01
    -10.855  0.7502E+00  0.9806E+01
    -10.822  0.1721E+01  0.9862E+01
    -10.790  0.8373E+00  0.9889E+01
    -10.757  0.5570E-06  0.9889E+01
    -10.725  0.2391E+00  0.9897E+01
    -10.692  0.5505E+01  0.1008E+02
    -10.660  0.4489E+01  0.1022E+02
    -10.627  0.1306E-02  0.1022E+02
    -10.594  0.0000E+00  0.1022E+02
    -10.562  0.3223E-07  0.1022E+02
    -10.529  0.2551E+00  0.1023E+02
    -10.497  0.1024E+01  0.1026E+02
    -10.464  0.1075E-03  0.1026E+02
    -10.432  0.0000E+00  0.1026E+02
    -10.399  0.0000E+00  0.1026E+02
    -10.366  0.9029E-05  0.1026E+02
    -10.334  0.2495E+01  0.1035E+02
    -10.301  0.2622E+01  0.1043E+02
    -10.269  0.1217E-04  0.1043E+02
    -10.236  0.0000E+00  0.1043E+02
    -10.204  0.1355E-04  0.1043E+02
    -10.171  0.1484E+01  0.1048E+02
    -10.138  0.1075E+01  0.1051E+02
    -10.106  0.1951E-05  0.1051E+02
    -10.073  0.0000E+00  0.1051E+02
    -10.041  0.0000E+00  0.1051E+02
    -10.008  0.0000E+00  0.1051E+02
     -9.976  0.0000E+00  0.1051E+02
     -9.943  0.6879E-05  0.1051E+02
     -9.910  0.2872E+00  0.1052E+02
     -9.878  0.1392E+00  0.1053E+02
     -9.845  0.9140E-07  0.1053E+02
     -9.813  0.0000E+00  0.1053E+02
     -9.780  0.2429E-03  0.1053E+02
     -9.748  0.3860E+01  0.1065E+02
     -9.715  0.6275E+01  0.1086E+02
     -9.682  0.9943E-01  0.1086E+02
     -9.650  0.6458E-10  0.1086E+02
     -9.617  0.0000E+00  0.1086E+02
     -9.585  0.8418E-06  0.1086E+02
     -9.552  0.1147E+01  0.1090E+02
     -9.520  0.2264E+01  0.1097E+02
     -9.487  0.4821E-03  0.1097E+02
     -9.454  0.2166E+01  0.1104E+02
     -9.422  0.3922E+00  0.1106E+02
     -9.389  0.4595E-01  0.1106E+02
     -9.357  0.5007E+01  0.1122E+02
     -9.324  0.1291E+01  0.1126E+02
     -9.292  0.1332E+01  0.1131E+02
     -9.259  0.6706E-05  0.1131E+02
     -9.226  0.0000E+00  0.1131E+02
     -9.194  0.2135E-06  0.1131E+02
     -9.161  0.6792E+00  0.1133E+02
     -9.129  0.2511E+01  0.1141E+02
     -9.096  0.7051E+01  0.1164E+02
     -9.064  0.2551E+01  0.1172E+02
     -9.031  0.1091E+01  0.1176E+02
     -8.998  0.1468E+01  0.1181E+02
     -8.966  0.4452E+01  0.1195E+02
     -8.933  0.5772E+01  0.1214E+02
     -8.901  0.1781E+01  0.1220E+02
     -8.868  0.7871E+00  0.1222E+02
     -8.836  0.1815E-04  0.1222E+02
     -8.803  0.2784E+01  0.1231E+02
     -8.770  0.2333E+01  0.1239E+02
     -8.738  0.9578E-03  0.1239E+02
     -8.705  0.2279E+01  0.1246E+02
     -8.673  0.5712E+00  0.1248E+02
     -8.640  0.9861E+00  0.1251E+02
     -8.608  0.7123E-04  0.1251E+02
     -8.575  0.0000E+00  0.1251E+02
     -8.542  0.0000E+00  0.1251E+02
     -8.510  0.8329E-04  0.1251E+02
     -8.477  0.1878E+01  0.1258E+02
     -8.445  0.3095E+01  0.1268E+02
     -8.412  0.6455E+01  0.1289E+02
     -8.380  0.6743E+01  0.1311E+02
     -8.347  0.3696E+01  0.1323E+02
     -8.314  0.5789E+01  0.1341E+02
     -8.282  0.4383E+01  0.1356E+02
     -8.249  0.2489E+01  0.1364E+02
     -8.217  0.1170E-01  0.1364E+02
     -8.184  0.0000E+00  0.1364E+02
     -8.152  0.0000E+00  0.1364E+02
     -8.119  0.2334E-05  0.1364E+02
     -8.086  0.1111E+01  0.1368E+02
     -8.054  0.1448E+01  0.1372E+02
     -8.021  0.1815E+00  0.1373E+02
     -7.989  0.2375E+01  0.1381E+02
     -7.956  0.3555E+01  0.1392E+02
     -7.924  0.6192E+01  0.1412E+02
     -7.891  0.4885E+00  0.1414E+02
     -7.858  0.3428E+00  0.1415E+02
     -7.826  0.9364E+00  0.1418E+02
     -7.793  0.3143E+01  0.1428E+02
     -7.761  0.1974E+01  0.1435E+02
     -7.728  0.2492E-05  0.1435E+02
     -7.696  0.1849E-01  0.1435E+02
     -7.663  0.3013E+01  0.1445E+02
     -7.630  0.7283E+01  0.1468E+02
     -7.598  0.2479E+01  0.1476E+02
     -7.565  0.9387E+01  0.1507E+02
     -7.533  0.3404E+01  0.1518E+02
     -7.500  0.3428E-05  0.1518E+02
     -7.468  0.0000E+00  0.1518E+02
     -7.435  0.0000E+00  0.1518E+02
     -7.402  0.1116E-06  0.1518E+02
     -7.370  0.6354E+00  0.1520E+02
     -7.337  0.4839E+01  0.1536E+02
     -7.305  0.2507E+01  0.1544E+02
     -7.272  0.3040E+01  0.1554E+02
     -7.240  0.7307E+01  0.1578E+02
     -7.207  0.2527E+01  0.1586E+02
     -7.174  0.4422E+01  0.1600E+02
     -7.142  0.7374E+00  0.1603E+02
     -7.109  0.4171E+00  0.1604E+02
     -7.077  0.7790E-01  0.1604E+02
     -7.044  0.6306E+01  0.1625E+02
     -7.012  0.5464E+00  0.1627E+02
     -6.979  0.6732E+01  0.1649E+02
     -6.946  0.8413E+00  0.1651E+02
     -6.914  0.4845E-06  0.1651E+02
     -6.881  0.3610E-01  0.1652E+02
     -6.849  0.2511E+01  0.1660E+02
     -6.816  0.4901E+01  0.1676E+02
     -6.784  0.2550E+01  0.1684E+02
     -6.751  0.2357E+00  0.1685E+02
     -6.718  0.1186E+01  0.1689E+02
     -6.686  0.1942E+01  0.1695E+02
     -6.653  0.5322E+01  0.1712E+02
     -6.621  0.2698E+00  0.1713E+02
     -6.588  0.4939E+01  0.1729E+02
     -6.556  0.5222E+01  0.1746E+02
     -6.523  0.6524E+01  0.1767E+02
     -6.490  0.4691E+01  0.1783E+02
     -6.458  0.6576E+01  0.1804E+02
     -6.425  0.1286E+01  0.1808E+02
     -6.393  0.1354E+01  0.1813E+02
     -6.360  0.2573E+01  0.1821E+02
     -6.328  0.5183E+01  0.1838E+02
     -6.295  0.2674E+01  0.1847E+02
     -6.262  0.8298E+01  0.1874E+02
     -6.230  0.5736E+01  0.1892E+02
     -6.197  0.1041E+01  0.1896E+02
     -6.165  0.5953E+01  0.1915E+02
     -6.132  0.2956E+01  0.1925E+02
     -6.100  0.3882E+01  0.1937E+02
     -6.067  0.2962E-03  0.1938E+02
     -6.034  0.6657E+00  0.1940E+02
     -6.002  0.1872E+00  0.1940E+02
     -5.969  0.1026E+01  0.1944E+02
     -5.937  0.4663E+01  0.1959E+02
     -5.904  0.3857E+01  0.1971E+02
     -5.872  0.2614E+00  0.1972E+02
     -5.839  0.2998E+01  0.1982E+02
     -5.806  0.2119E+01  0.1989E+02
     -5.774  0.3611E-05  0.1989E+02
     -5.741  0.0000E+00  0.1989E+02
     -5.709  0.3627E-05  0.1989E+02
     -5.676  0.2428E+01  0.1997E+02
     -5.644  0.7800E+01  0.2022E+02
     -5.611  0.1763E-01  0.2022E+02
     -5.578  0.2489E+01  0.2030E+02
     -5.546  0.5781E-01  0.2031E+02
     -5.513  0.4943E-10  0.2031E+02
     -5.481  0.3609E-03  0.2031E+02
     -5.448  0.4386E+01  0.2045E+02
     -5.416  0.3288E+01  0.2056E+02
     -5.383  0.5564E-03  0.2056E+02
     -5.350  0.1818E-04  0.2056E+02
     -5.318  0.2879E+01  0.2065E+02
     -5.285  0.6047E+01  0.2085E+02
     -5.253  0.5291E+00  0.2086E+02
     -5.220  0.4707E+01  0.2102E+02
     -5.188  0.5172E+01  0.2119E+02
     -5.155  0.2410E+01  0.2126E+02
     -5.122  0.1673E-01  0.2126E+02
     -5.090  0.9800E+01  0.2158E+02
     -5.057  0.1078E+02  0.2193E+02
     -5.025  0.1252E+02  0.2234E+02
     -4.992  0.5502E+01  0.2252E+02
     -4.960  0.1580E+02  0.2304E+02
     -4.927  0.2675E+01  0.2312E+02
     -4.894  0.1010E+01  0.2316E+02
     -4.862  0.5751E+01  0.2334E+02
     -4.829  0.7308E+01  0.2358E+02
     -4.797  0.4918E+01  0.2374E+02
     -4.764  0.6014E+01  0.2394E+02
     -4.732  0.2763E+01  0.2403E+02
     -4.699  0.8562E-05  0.2403E+02
     -4.666  0.2698E-14  0.2403E+02
     -4.634  0.1126E-02  0.2403E+02
     -4.601  0.2301E+01  0.2410E+02
     -4.569  0.3633E+01  0.2422E+02
     -4.536  0.1741E+01  0.2428E+02
     -4.504  0.1490E-05  0.2428E+02
     -4.471  0.1674E+01  0.2433E+02
     -4.438  0.1330E+02  0.2477E+02
     -4.406  0.5615E+00  0.2478E+02
     -4.373  0.2374E+01  0.2486E+02
     -4.341  0.3638E+01  0.2498E+02
     -4.308  0.1481E+01  0.2503E+02
     -4.276  0.1535E-01  0.2503E+02
     -4.243  0.2497E+01  0.2511E+02
     -4.210  0.4638E-01  0.2511E+02
     -4.178  0.1032E+01  0.2514E+02
     -4.145  0.1527E+01  0.2519E+02
     -4.113  0.3698E-01  0.2520E+02
     -4.080  0.7341E+01  0.2543E+02
     -4.048  0.2350E+01  0.2551E+02
     -4.015  0.6753E+01  0.2573E+02
     -3.982  0.3987E+01  0.2586E+02
     -3.950  0.4047E+01  0.2599E+02
     -3.917  0.1070E+01  0.2603E+02
     -3.885  0.3065E+00  0.2604E+02
     -3.852  0.1193E+02  0.2643E+02
     -3.820  0.5566E+00  0.2644E+02
     -3.787  0.1977E-03  0.2644E+02
     -3.754  0.3803E+01  0.2657E+02
     -3.722  0.1313E+01  0.2661E+02
     -3.689  0.1416E+00  0.2662E+02
     -3.657  0.1178E+01  0.2665E+02
     -3.624  0.1245E+02  0.2706E+02
     -3.592  0.5461E+01  0.2724E+02
     -3.559  0.7805E+01  0.2749E+02
     -3.526  0.4948E+01  0.2765E+02
     -3.494  0.5286E+00  0.2767E+02
     -3.461  0.7131E+01  0.2790E+02
     -3.429  0.2794E+00  0.2791E+02
     -3.396  0.3387E+01  0.2802E+02
     -3.364  0.4947E+01  0.2818E+02
     -3.331  0.8035E+01  0.2844E+02
     -3.298  0.2993E+01  0.2854E+02
     -3.266  0.5364E+01  0.2872E+02
     -3.233  0.8254E+01  0.2899E+02
     -3.201  0.3855E+01  0.2911E+02
     -3.168  0.1516E+01  0.2916E+02
     -3.136  0.1874E+01  0.2922E+02
     -3.103  0.2203E-01  0.2922E+02
     -3.070  0.2419E-10  0.2922E+02
     -3.038  0.3289E-02  0.2922E+02
     -3.005  0.3353E+01  0.2933E+02
     -2.973  0.1760E+01  0.2939E+02
     -2.940  0.3908E+00  0.2940E+02
     -2.908  0.4722E+01  0.2956E+02
     -2.875  0.1298E+01  0.2960E+02
     -2.842  0.1264E+01  0.2964E+02
     -2.810  0.4890E-05  0.2964E+02
     -2.777  0.1860E-11  0.2964E+02
     -2.745  0.1716E-01  0.2964E+02
     -2.712  0.2499E+01  0.2972E+02
     -2.680  0.6943E+00  0.2974E+02
     -2.647  0.1906E+01  0.2981E+02
     -2.614  0.5995E+00  0.2983E+02
     -2.582  0.1959E+01  0.2989E+02
     -2.549  0.6484E-01  0.2989E+02
     -2.517  0.2484E+01  0.2997E+02
     -2.484  0.1607E-01  0.2997E+02
     -2.452  0.8332E+00  0.3000E+02
     -2.419  0.1383E-01  0.3000E+02
     -2.386  0.0000E+00  0.3000E+02
     -2.354  0.0000E+00  0.3000E+02
     -2.321  0.0000E+00  0.3000E+02
     -2.289  0.0000E+00  0.3000E+02
     -2.256  0.0000E+00  0.3000E+02
     -2.224  0.0000E+00  0.3000E+02
     -2.191  0.0000E+00  0.3000E+02
     -2.158  0.0000E+00  0.3000E+02
     -2.126  0.0000E+00  0.3000E+02
     -2.093  0.0000E+00  0.3000E+02
     -2.061  0.0000E+00  0.3000E+02
     -2.028  0.0000E+00  0.3000E+02
     -1.995  0.0000E+00  0.3000E+02
     -1.963  0.0000E+00  0.3000E+02
     -1.930  0.0000E+00  0.3000E+02
     -1.898  0.0000E+00  0.3000E+02
     -1.865  0.1334E-08  0.3000E+02
     -1.833  0.1063E+00  0.3000E+02
     -1.800  0.1211E+01  0.3004E+02
     -1.767  0.2502E+01  0.3012E+02
     -1.735  0.1895E-01  0.3012E+02
     -1.702  0.2911E-05  0.3013E+02
     -1.670  0.1156E+01  0.3016E+02
     -1.637  0.1402E+01  0.3021E+02
     -1.605  0.4787E-01  0.3021E+02
     -1.572  0.5008E+01  0.3037E+02
     -1.539  0.3833E+01  0.3050E+02
     -1.507  0.1346E+01  0.3054E+02
     -1.474  0.7830E+00  0.3057E+02
     -1.442  0.6626E+01  0.3078E+02
     -1.409  0.2662E+00  0.3079E+02
     -1.377  0.1179E-08  0.3079E+02
     -1.344  0.2397E-07  0.3079E+02
     -1.311  0.6556E+00  0.3081E+02
     -1.279  0.6404E+01  0.3102E+02
     -1.246  0.6154E+00  0.3104E+02
     -1.214  0.1136E+00  0.3105E+02
     -1.181  0.6641E+01  0.3126E+02
     -1.149  0.9486E+00  0.3129E+02
     -1.116  0.5199E+01  0.3146E+02
     -1.083  0.2857E+01  0.3155E+02
     -1.051  0.2149E+01  0.3162E+02
     -1.018  0.3864E-03  0.3162E+02
     -0.986  0.0000E+00  0.3162E+02
     -0.953  0.0000E+00  0.3162E+02
     -0.921  0.1363E-13  0.3162E+02
     -0.888  0.2277E-02  0.3163E+02
     -0.855  0.2387E+01  0.3170E+02
     -0.823  0.2649E+01  0.3179E+02
     -0.790  0.7893E-01  0.3179E+02
     -0.758  0.1215E-09  0.3179E+02
     -0.725  0.0000E+00  0.3179E+02
     -0.693  0.0000E+00  0.3179E+02
     -0.660  0.1114E-04  0.3179E+02
     -0.627  0.3060E+00  0.3180E+02
     -0.595  0.4710E+01  0.3196E+02
     -0.562  0.5276E+00  0.3197E+02
     -0.530  0.1113E-07  0.3197E+02
     -0.497  0.0000E+00  0.3197E+02
     -0.465  0.0000E+00  0.3197E+02
     -0.432  0.0000E+00  0.3197E+02
     -0.399  0.0000E+00  0.3197E+02
     -0.367  0.0000E+00  0.3197E+02
     -0.334  0.0000E+00  0.3197E+02
     -0.302  0.0000E+00  0.3197E+02
     -0.269  0.0000E+00  0.3197E+02
     -0.237  0.0000E+00  0.3197E+02
     -0.204  0.0000E+00  0.3197E+02
     -0.171  0.0000E+00  0.3197E+02
     -0.139  0.0000E+00  0.3197E+02
     -0.106  0.0000E+00  0.3197E+02
     -0.074  0.1898E-04  0.3197E+02
     -0.041  0.1096E+01  0.3201E+02
     -0.009  0.6097E+00  0.3203E+02
      0.024  0.5664E-06  0.3203E+02
      0.057  0.0000E+00  0.3203E+02
      0.089  0.0000E+00  0.3203E+02
      0.122  0.0000E+00  0.3203E+02
      0.154  0.0000E+00  0.3203E+02
      0.187  0.0000E+00  0.3203E+02
      0.219  0.0000E+00  0.3203E+02
      0.252  0.0000E+00  0.3203E+02
      0.285  0.0000E+00  0.3203E+02
      0.317  0.0000E+00  0.3203E+02
      0.350  0.0000E+00  0.3203E+02
      0.382  0.0000E+00  0.3203E+02
      0.415  0.0000E+00  0.3203E+02
      0.447  0.0000E+00  0.3203E+02
      0.480  0.4583E-05  0.3203E+02
      0.513  0.2214E+01  0.3210E+02
      0.545  0.2902E+01  0.3219E+02
      0.578  0.2334E-04  0.3219E+02
      0.610  0.0000E+00  0.3219E+02
      0.643  0.0000E+00  0.3219E+02
      0.675  0.0000E+00  0.3219E+02
      0.708  0.2583E-07  0.3219E+02
      0.741  0.4034E+00  0.3221E+02
      0.773  0.2155E+01  0.3228E+02
      0.806  0.4036E-03  0.3228E+02
      0.838  0.0000E+00  0.3228E+02
      0.871  0.0000E+00  0.3228E+02
      0.903  0.0000E+00  0.3228E+02
      0.936  0.0000E+00  0.3228E+02
      0.969  0.0000E+00  0.3228E+02
      1.001  0.4026E-10  0.3228E+02
      1.034  0.1047E+00  0.3228E+02
      1.066  0.1071E+02  0.3263E+02
      1.099  0.2288E+01  0.3270E+02
      1.131  0.1848E+01  0.3276E+02
      1.164  0.3010E+01  0.3286E+02
      1.197  0.2584E+01  0.3295E+02
      1.229  0.7718E+00  0.3297E+02
      1.262  0.3029E+01  0.3307E+02
      1.294  0.2088E+01  0.3314E+02
      1.327  0.1698E+01  0.3319E+02
      1.359  0.8603E+00  0.3322E+02
      1.392  0.2844E+01  0.3331E+02
      1.425  0.4746E+01  0.3347E+02
      1.457  0.8587E-01  0.3347E+02
      1.490  0.1882E-09  0.3347E+02
      1.522  0.7762E-01  0.3347E+02
      1.555  0.6647E+01  0.3369E+02
      1.587  0.9506E+00  0.3372E+02
      1.620  0.1325E+00  0.3373E+02
      1.653  0.4965E+01  0.3389E+02
      1.685  0.1991E-01  0.3389E+02
      1.718  0.0000E+00  0.3389E+02
      1.750  0.6361E-07  0.3389E+02
      1.783  0.5612E+00  0.3391E+02
      1.815  0.2423E+01  0.3399E+02
      1.848  0.3215E-03  0.3399E+02
      1.881  0.3639E+00  0.3400E+02
      1.913  0.3611E+01  0.3412E+02
      1.946  0.4128E+01  0.3425E+02
      1.978  0.4226E+01  0.3439E+02
      2.011  0.8905E+00  0.3442E+02
      2.043  0.1050E+01  0.3445E+02
      2.076  0.1406E+01  0.3450E+02
      2.109  0.1389E+01  0.3454E+02
      2.141  0.2465E+01  0.3462E+02
      2.174  0.1585E+01  0.3467E+02
      2.206  0.1059E+01  0.3471E+02
      2.239  0.5350E+00  0.3473E+02
      2.271  0.2322E+01  0.3480E+02
      2.304  0.4812E+01  0.3496E+02
      2.337  0.6099E-02  0.3496E+02
      2.369  0.3180E-01  0.3496E+02
      2.402  0.2504E+01  0.3504E+02
      2.434  0.5244E+01  0.3521E+02
      2.467  0.2454E+01  0.3529E+02
      2.499  0.1508E-04  0.3529E+02
      2.532  0.4072E+00  0.3530E+02
      2.565  0.2885E+01  0.3540E+02
      2.597  0.6144E+01  0.3560E+02
      2.630  0.7976E+00  0.3562E+02
      2.662  0.4945E-07  0.3562E+02
      2.695  0.1230E-10  0.3563E+02
      2.727  0.3505E-01  0.3563E+02
      2.760  0.2502E+01  0.3571E+02
      2.793  0.1431E+00  0.3571E+02
      2.825  0.7447E+01  0.3595E+02
      2.858  0.4329E+01  0.3610E+02
      2.890  0.1793E+01  0.3615E+02
      2.923  0.5491E+01  0.3633E+02
      2.955  0.6214E-02  0.3633E+02
      2.988  0.3605E+00  0.3635E+02
      3.021  0.4752E+01  0.3650E+02
      3.053  0.4415E-02  0.3650E+02
      3.086  0.1173E-06  0.3650E+02
      3.118  0.9967E+00  0.3653E+02
      3.151  0.4120E+01  0.3667E+02
      3.183  0.1301E-01  0.3667E+02
      3.216  0.2508E+01  0.3675E+02
      3.249  0.2554E+01  0.3683E+02
      3.281  0.4322E-01  0.3683E+02
      3.314  0.5858E+01  0.3702E+02
      3.346  0.6850E+01  0.3725E+02
      3.379  0.5198E+01  0.3742E+02
      3.411  0.2772E-02  0.3742E+02
      3.444  0.0000E+00  0.3742E+02
      3.477  0.3738E-04  0.3742E+02
      3.509  0.3107E+01  0.3752E+02
      3.542  0.2010E+01  0.3758E+02
      3.574  0.2740E-05  0.3758E+02
      3.607  0.1250E-13  0.3758E+02
      3.639  0.3232E-02  0.3758E+02
      3.672  0.4687E+01  0.3774E+02
      3.705  0.4271E+00  0.3775E+02
      3.737  0.1491E-02  0.3775E+02
      3.770  0.2306E+01  0.3783E+02
      3.802  0.4821E+01  0.3798E+02
      3.835  0.5656E+01  0.3817E+02
      3.867  0.8245E-02  0.3817E+02
      3.900  0.1690E+00  0.3817E+02
      3.933  0.4914E+01  0.3833E+02
      3.965  0.5020E+01  0.3850E+02
      3.998  0.1303E+00  0.3850E+02
      4.030  0.4756E-04  0.3850E+02
      4.063  0.1753E+01  0.3856E+02
      4.095  0.8161E+00  0.3858E+02
      4.128  0.4894E+01  0.3874E+02
      4.161  0.2127E+00  0.3875E+02
      4.193  0.5911E-09  0.3875E+02
      4.226  0.1090E-02  0.3875E+02
      4.258  0.4403E+01  0.3889E+02
      4.291  0.2059E+01  0.3896E+02
      4.323  0.1212E+01  0.3900E+02
      4.356  0.3594E+00  0.3901E+02
      4.389  0.2023E+01  0.3908E+02
      4.421  0.4100E+01  0.3921E+02
      4.454  0.3751E+01  0.3933E+02
      4.486  0.1931E+01  0.3940E+02
      4.519  0.7964E+00  0.3942E+02
      4.551  0.2690E+00  0.3943E+02
      4.584  0.7269E+01  0.3967E+02
      4.617  0.3946E+00  0.3968E+02
      4.649  0.9707E-04  0.3968E+02
      4.682  0.1898E+01  0.3974E+02
      4.714  0.1798E+01  0.3980E+02
      4.747  0.4540E+01  0.3995E+02
      4.779  0.4584E+01  0.4010E+02