PROCAR lm decomposed
# of k-points:   19         # of bands:   36         # of ions:    8

 k-point     1 :    0.00000000 0.00000000 0.00000000     weight = 0.00694444

band     1 # energy  -20.92486500 # occ.  2.00000000
 
ion      s     py     pz     px    dxy    dyz    dz2    dxz  x2-y2    tot
    1  0.028  0.000  0.000  0.000  0.000  0.000  0.000  0.000  0.000  0.028
    2  0.028  0.000  0.000  0.000  0.000  0.000  0.000  0.000  0.000  0.028
    3  0.094  0.004  0.000  0.001  0.000  0.000  0.000  0.000  0.000  0.098
    4  0.094  0.004  0.000  0.001  0.000  0.000  0.000  0.000  0.000  0.098
    5  0.094  0.000  0.000  0.005  0.000  0.000  0.000  0.000  0.000  0.098
    6  0.094  0.000  0.000  0.005  0.000  0.000  0.000  0.000  0.000  0.098
    7  0.094  0.004  0.000  0.001  0.000  0.000  0.000  0.000  0.000  0.098
    8  0.094  0.004  0.000  0.001  0.000  0.000  0.000  0.000  0.000  0.098
tot    0.618  0.014  0.000  0.014  0.000  0.000  0.000  0.000  0.000  0.646
 
band     2 # energy  -16.69861129 # occ.  2.00000000
 
ion      s     py     pz     px    dxy    dyz    dz2    dxz  x2-y2    tot
    1  0.000  0.000  0.000  0.014  0.000  0.000  0.000  0.000  0.000  0.014
    2  0.000  0.000  0.000  0.014  0.000  0.000  0.000  0.000  0.000  0.014
    3  0.049  0.011  0.000  0.011  0.000  0.000  0.000  0.000  0.000  0.071
    4  0.049  0.011  0.000  0.011  0.000  0.000  0.000  0.000  0.000  0.071
    5  0.196  0.000  0.000  0.006  0.000  0.000  0.000  0.000  0.000  0.202
    6  0.196  0.000  0.000  0.006  0.000  0.000  0.000  0.000  0.000  0.202
    7  0.049  0.011  0.000  0.011  0.000  0.000  0.000  0.000  0.000  0.071
    8  0.049  0.011  0.000  0.011  0.000  0.000  0.000  0.000  0.000  0.071
tot    0.589  0.044  0.000  0.083  0.000  0.000  0.000  0.000  0.000  0.716
 
band     3 # energy  -16.69855753 # occ.  2.00000000
 
ion      s     py     pz     px    dxy    dyz    dz2    dxz  x2-y2    tot
    1  0.000  0.014  0.000  0.000  0.000  0.000  0.000  0.000  0.000  0.014
    2  0.000  0.014  0.000  0.000  0.000  0.000  0.000  0.000  0.000  0.014
    3  0.147  0.000  0.000  0.011  0.000  0.000  0.000  0.000  0.000  0.158
    4  0.147  0.000  0.000  0.011  0.000  0.000  0.000  0.000  0.000  0.158
    5  0.000  0.027  0.000  0.000  0.000  0.000  0.000  0.000  0.000  0.027
    6  0.000  0.027  0.000  0.000  0.000  0.000  0.000  0.000  0.000  0.027
    7  0.147  0.000  0.000  0.011  0.000  0.000  0.000  0.000  0.000  0.158
    8  0.147  0.000  0.000  0.011  0.000  0.000  0.000  0.000  0.000  0.158
tot    0.589  0.083  0.000  0.044  0.000  0.000  0.000  0.000  0.000  0.716
 
band     4 # energy  -14.04495836 # occ.  2.00000000
 
ion      s     py     pz     px    dxy    dyz    dz2    dxz  x2-y2    tot
    1  0.000  0.054  0.000  0.000  0.000  0.000  0.000  0.000  0.000  0.054
    2  0.000  0.054  0.000  0.000  0.000  0.000  0.000  0.000  0.000  0.054
    3  0.073  0.001  0.000  0.023  0.000  0.000  0.000  0.000  0.000  0.097
    4  0.073  0.001  0.000  0.023  0.000  0.000  0.000  0.000  0.000  0.097
    5  0.000  0.087  0.000  0.000  0.000  0.000  0.000  0.000  0.000  0.087
    6  0.000  0.087  0.000  0.000  0.000  0.000  0.000  0.000  0.000  0.087
    7  0.073  0.001  0.000  0.023  0.000  0.000  0.000  0.000  0.000  0.097
    8  0.073  0.001  0.000  0.023  0.000  0.000  0.000  0.000  0.000  0.097
tot    0.293  0.284  0.000  0.093  0.000  0.000  0.000  0.000  0.000  0.671
 
band     5 # energy  -14.04489496 # occ.  2.00000000
 
ion      s     py     pz     px    dxy    dyz    dz2    dxz  x2-y2    tot
    1  0.000  0.000  0.000  0.054  0.000  0.000  0.000  0.000  0.000  0.054
    2  0.000  0.000  0.000  0.054  0.000  0.000  0.000  0.000  0.000  0.054
    3  0.024  0.023  0.000  0.043  0.000  0.000  0.000  0.000  0.000  0.090
    4  0.024  0.023  0.000  0.043  0.000  0.000  0.000  0.000  0.000  0.090
    5  0.098  0.000  0.000  0.003  0.000  0.000  0.000  0.000  0.000  0.101
    6  0.098  0.000  0.000  0.003  0.000  0.000  0.000  0.000  0.000  0.101
    7  0.024  0.023  0.000  0.043  0.000  0.000  0.000  0.000  0.000  0.090
    8  0.024  0.023  0.000  0.043  0.000  0.000  0.000  0.000  0.000  0.090
tot    0.293  0.093  0.000  0.284  0.000  0.000  0.000  0.000  0.000  0.671
 
band     6 # energy  -12.88058446 # occ.  2.00000000
 
ion      s     py     pz     px    dxy    dyz    dz2    dxz  x2-y2    tot
    1  0.123  0.000  0.000  0.000  0.000  0.000  0.000  0.000  0.000  0.123
    2  0.123  0.000  0.000  0.000  0.000  0.000  0.000  0.000  0.000  0.123
    3  0.000  0.047  0.000  0.016  0.000  0.000  0.000  0.000  0.000  0.063
    4  0.000  0.047  0.000  0.016  0.000  0.000  0.000  0.000  0.000  0.063
    5  0.000  0.000  0.000  0.062  0.000  0.000  0.000  0.000  0.000  0.063
    6  0.000  0.000  0.000  0.062  0.000  0.000  0.000  0.000  0.000  0.063
    7  0.000  0.047  0.000  0.016  0.000  0.000  0.000  0.000  0.000  0.063
    8  0.000  0.047  0.000  0.016  0.000  0.000  0.000  0.000  0.000  0.063
tot    0.248  0.186  0.000  0.186  0.000  0.000  0.000  0.000  0.000  0.621
 
band     7 # energy  -11.51820819 # occ.  2.00000000
 
ion      s     py     pz     px    dxy    dyz    dz2    dxz  x2-y2    tot
    1  0.202  0.000  0.000  0.000  0.000  0.000  0.000  0.000  0.000  0.202
    2  0.202  0.000  0.000  0.000  0.000  0.000  0.000  0.000  0.000  0.202
    3  0.030  0.016  0.000  0.005  0.000  0.000  0.000  0.000  0.000  0.051
    4  0.030  0.016  0.000  0.005  0.000  0.000  0.000  0.000  0.000  0.051
    5  0.030  0.000  0.000  0.022  0.000  0.000  0.000  0.000  0.000  0.051
    6  0.030  0.000  0.000  0.022  0.000  0.000  0.000  0.000  0.000  0.051
    7  0.030  0.016  0.000  0.005  0.000  0.000  0.000  0.000  0.000  0.051
    8  0.030  0.016  0.000  0.005  0.000  0.000  0.000  0.000  0.000  0.051
tot    0.584  0.065  0.000  0.065  0.000  0.000  0.000  0.000  0.000  0.714
 
band     8 # energy   -8.35062522 # occ.  2.00000000
 
ion      s     py     pz     px    dxy    dyz    dz2    dxz  x2-y2    tot
    1  0.000  0.000  0.030  0.000  0.000  0.000  0.000  0.000  0.000  0.030
    2  0.000  0.000  0.030  0.000  0.000  0.000  0.000  0.000  0.000  0.030
    3  0.000  0.000  0.058  0.000  0.000  0.000  0.000  0.000  0.000  0.058
    4  0.000  0.000  0.058  0.000  0.000  0.000  0.000  0.000  0.000  0.058
    5  0.000  0.000  0.058  0.000  0.000  0.000  0.000  0.000  0.000  0.058
    6  0.000  0.000  0.058  0.000  0.000  0.000  0.000  0.000  0.000  0.058
    7  0.000  0.000  0.058  0.000  0.000  0.000  0.000  0.000  0.000  0.058
    8  0.000  0.000  0.058  0.000  0.000  0.000  0.000  0.000  0.000  0.058
tot    0.000  0.000  0.409  0.000  0.000  0.000  0.000  0.000  0.000  0.409
 
band     9 # energy   -8.34261825 # occ.  2.00000000
 
ion      s     py     pz     px    dxy    dyz    dz2    dxz  x2-y2    tot
    1  0.000  0.000  0.000  0.000  0.000  0.000  0.000  0.000  0.000  0.000
    2  0.000  0.000  0.000  0.000  0.000  0.000  0.000  0.000  0.000  0.000
    3  0.000  0.032  0.000  0.095  0.000  0.000  0.000  0.000  0.000  0.127
    4  0.000  0.032  0.000  0.095  0.000  0.000  0.000  0.000  0.000  0.127
    5  0.000  0.127  0.000  0.000  0.000  0.000  0.000  0.000  0.000  0.127
    6  0.000  0.127  0.000  0.000  0.000  0.000  0.000  0.000  0.000  0.127
    7  0.000  0.032  0.000  0.095  0.000  0.000  0.000  0.000  0.000  0.127
    8  0.000  0.032  0.000  0.095  0.000  0.000  0.000  0.000  0.000  0.127
tot    0.000  0.382  0.000  0.382  0.000  0.000  0.000  0.000  0.000  0.763
 
band    10 # energy   -6.04878194 # occ.  2.00000000
 
ion      s     py     pz     px    dxy    dyz    dz2    dxz  x2-y2    tot
    1  0.000  0.130  0.000  0.000  0.000  0.000  0.000  0.000  0.000  0.130
    2  0.000  0.130  0.000  0.000  0.000  0.000  0.000  0.000  0.000  0.130
    3  0.000  0.074  0.000  0.046  0.000  0.000  0.000  0.000  0.000  0.120
    4  0.000  0.074  0.000  0.046  0.000  0.000  0.000  0.000  0.000  0.120
    5  0.000  0.010  0.000  0.000  0.000  0.000  0.000  0.000  0.000  0.010
    6  0.000  0.010  0.000  0.000  0.000  0.000  0.000  0.000  0.000  0.010
    7  0.000  0.074  0.000  0.046  0.000  0.000  0.000  0.000  0.000  0.120
    8  0.000  0.074  0.000  0.046  0.000  0.000  0.000  0.000  0.000  0.120
tot    0.002  0.576  0.000  0.185  0.000  0.000  0.000  0.000  0.000  0.763
 
band    11 # energy   -6.04876295 # occ.  2.00000000
 
ion      s     py     pz     px    dxy    dyz    dz2    dxz  x2-y2    tot
    1  0.000  0.000  0.000  0.130  0.000  0.000  0.000  0.000  0.000  0.130
    2  0.000  0.000  0.000  0.130  0.000  0.000  0.000  0.000  0.000  0.130
    3  0.000  0.046  0.000  0.001  0.000  0.000  0.000  0.000  0.000  0.047
    4  0.000  0.046  0.000  0.001  0.000  0.000  0.000  0.000  0.000  0.047
    5  0.001  0.000  0.000  0.157  0.000  0.000  0.000  0.000  0.000  0.157
    6  0.001  0.000  0.000  0.157  0.000  0.000  0.000  0.000  0.000  0.157
    7  0.000  0.046  0.000  0.001  0.000  0.000  0.000  0.000  0.000  0.047
    8  0.000  0.046  0.000  0.001  0.000  0.000  0.000  0.000  0.000  0.047
tot    0.002  0.185  0.000  0.576  0.000  0.000  0.000  0.000  0.000  0.763
 
band    12 # energy   -3.54245020 # occ.  2.00000000
 
ion      s     py     pz     px    dxy    dyz    dz2    dxz  x2-y2    tot
    1  0.000  0.000  0.000  0.000  0.000  0.000  0.000  0.000  0.000  0.000
    2  0.000  0.000  0.000  0.000  0.000  0.000  0.000  0.000  0.000  0.000
    3  0.000  0.000  0.040  0.000  0.000  0.000  0.000  0.000  0.000  0.040
    4  0.000  0.000  0.040  0.000  0.000  0.000  0.000  0.000  0.000  0.040
    5  0.000  0.000  0.159  0.000  0.000  0.000  0.000  0.000  0.000  0.159
    6  0.000  0.000  0.159  0.000  0.000  0.000  0.000  0.000  0.000  0.159
    7  0.000  0.000  0.040  0.000  0.000  0.000  0.000  0.000  0.000  0.040
    8  0.000  0.000  0.040  0.000  0.000  0.000  0.000  0.000  0.000  0.040
tot    0.000  0.000  0.477  0.000  0.000  0.000  0.000  0.000  0.000  0.477
 
band    13 # energy   -3.54241323 # occ.  2.00000000
 
ion      s     py     pz     px    dxy    dyz    dz2    dxz  x2-y2    tot
    1  0.000  0.000  0.000  0.000  0.000  0.000  0.000  0.000  0.000  0.000
    2  0.000  0.000  0.000  0.000  0.000  0.000  0.000  0.000  0.000  0.000
    3  0.000  0.000  0.119  0.000  0.000  0.000  0.000  0.000  0.000  0.119
    4  0.000  0.000  0.119  0.000  0.000  0.000  0.000  0.000  0.000  0.119
    5  0.000  0.000  0.000  0.000  0.000  0.000  0.000  0.000  0.000  0.000
    6  0.000  0.000  0.000  0.000  0.000  0.000  0.000  0.000  0.000  0.000
    7  0.000  0.000  0.119  0.000  0.000  0.000  0.000  0.000  0.000  0.119
    8  0.000  0.000  0.119  0.000  0.000  0.000  0.000  0.000  0.000  0.119
tot    0.000  0.000  0.477  0.000  0.000  0.000  0.000  0.000  0.000  0.477
 
band    14 # energy   -3.31096384 # occ.  2.00000000
 
ion      s     py     pz     px    dxy    dyz    dz2    dxz  x2-y2    tot
    1  0.000  0.106  0.000  0.000  0.000  0.000  0.000  0.000  0.000  0.106
    2  0.000  0.106  0.000  0.000  0.000  0.000  0.000  0.000  0.000  0.106
    3  0.001  0.101  0.000  0.000  0.000  0.000  0.000  0.000  0.000  0.102
    4  0.001  0.101  0.000  0.000  0.000  0.000  0.000  0.000  0.000  0.102
    5  0.000  0.092  0.000  0.000  0.000  0.000  0.000  0.000  0.000  0.092
    6  0.000  0.092  0.000  0.000  0.000  0.000  0.000  0.000  0.000  0.092
    7  0.001  0.101  0.000  0.000  0.000  0.000  0.000  0.000  0.000  0.102
    8  0.001  0.101  0.000  0.000  0.000  0.000  0.000  0.000  0.000  0.102
tot    0.003  0.798  0.000  0.000  0.000  0.000  0.000  0.000  0.000  0.801
 
band    15 # energy   -3.31085848 # occ.  2.00000000
 
ion      s     py     pz     px    dxy    dyz    dz2    dxz  x2-y2    tot
    1  0.000  0.000  0.000  0.106  0.000  0.000  0.000  0.000  0.000  0.106
    2  0.000  0.000  0.000  0.106  0.000  0.000  0.000  0.000  0.000  0.106
    3  0.000  0.000  0.000  0.095  0.000  0.000  0.000  0.000  0.000  0.095
    4  0.000  0.000  0.000  0.095  0.000  0.000  0.000  0.000  0.000  0.095
    5  0.001  0.000  0.000  0.104  0.000  0.000  0.000  0.000  0.000  0.105
    6  0.001  0.000  0.000  0.104  0.000  0.000  0.000  0.000  0.000  0.105
    7  0.000  0.000  0.000  0.095  0.000  0.000  0.000  0.000  0.000  0.095
    8  0.000  0.000  0.000  0.095  0.000  0.000  0.000  0.000  0.000  0.095
tot    0.003  0.000  0.000  0.798  0.000  0.000  0.000  0.000  0.000  0.801
 
band    16 # energy   -0.02267183 # occ.  0.00000000
 
ion      s     py     pz     px    dxy    dyz    dz2    dxz  x2-y2    tot
    1  0.000  0.000  0.170  0.000  0.000  0.000  0.000  0.000  0.000  0.170
    2  0.000  0.000  0.170  0.000  0.000  0.000  0.000  0.000  0.000  0.170
    3  0.000  0.000  0.022  0.000  0.000  0.000  0.000  0.000  0.000  0.022
    4  0.000  0.000  0.022  0.000  0.000  0.000  0.000  0.000  0.000  0.022
    5  0.000  0.000  0.022  0.000  0.000  0.000  0.000  0.000  0.000  0.022
    6  0.000  0.000  0.022  0.000  0.000  0.000  0.000  0.000  0.000  0.022
    7  0.000  0.000  0.022  0.000  0.000  0.000  0.000  0.000  0.000  0.022
    8  0.000  0.000  0.022  0.000  0.000  0.000  0.000  0.000  0.000  0.022
tot    0.000  0.000  0.473  0.000  0.000  0.000  0.000  0.000  0.000  0.473
 
band    17 # energy    1.62716609 # occ.  0.00000000
 
ion      s     py     pz     px    dxy    dyz    dz2    dxz  x2-y2    tot
    1  0.000  0.000  0.000  0.000  0.000  0.000  0.000  0.000  0.000  0.000
    2  0.000  0.000  0.000  0.000  0.000  0.000  0.000  0.000  0.000  0.000
    3  0.000  0.000  0.099  0.000  0.000  0.000  0.000  0.000  0.000  0.099
    4  0.000  0.000  0.099  0.000  0.000  0.000  0.000  0.000  0.000  0.099
    5  0.000  0.000  0.000  0.000  0.000  0.000  0.000  0.000  0.000  0.000
    6  0.000  0.000  0.000  0.000  0.000  0.000  0.000  0.000  0.000  0.000
    7  0.000  0.000  0.099  0.000  0.000  0.000  0.000  0.000  0.000  0.099
    8  0.000  0.000  0.099  0.000  0.000  0.000  0.000  0.000  0.000  0.099
tot    0.000  0.000  0.397  0.000  0.000  0.000  0.000  0.000  0.000  0.397
 
band    18 # energy    1.62720658 # occ.  0.00000000
 
ion      s     py     pz     px    dxy    dyz    dz2    dxz  x2-y2    tot
    1  0.000  0.000  0.000  0.000  0.000  0.000  0.000  0.000  0.000  0.000
    2  0.000  0.000  0.000  0.000  0.000  0.000  0.000  0.000  0.000  0.000
    3  0.000  0.000  0.033  0.000  0.000  0.000  0.000  0.000  0.000  0.033
    4  0.000  0.000  0.033  0.000  0.000  0.000  0.000  0.000  0.000  0.033
    5  0.000  0.000  0.132  0.000  0.000  0.000  0.000  0.000  0.000  0.132
    6  0.000  0.000  0.132  0.000  0.000  0.000  0.000  0.000  0.000  0.132
    7  0.000  0.000  0.033  0.000  0.000  0.000  0.000  0.000  0.000  0.033
    8  0.000  0.000  0.033  0.000  0.000  0.000  0.000  0.000  0.000  0.033
tot    0.000  0.000  0.397  0.000  0.000  0.000  0.000  0.000  0.000  0.397
 
band    19 # energy    2.06740851 # occ.  0.00000000
 
ion      s     py     pz     px    dxy    dyz    dz2    dxz  x2-y2    tot
    1  0.001  0.000  0.000  0.000  0.000  0.000  0.000  0.000  0.000  0.001
    2  0.001  0.000  0.000  0.000  0.000  0.000  0.000  0.000  0.000  0.001
    3  0.003  0.000  0.000  0.000  0.000  0.000  0.000  0.000  0.000  0.003
    4  0.003  0.000  0.000  0.000  0.000  0.000  0.000  0.000  0.000  0.003
    5  0.003  0.000  0.000  0.000  0.000  0.000  0.000  0.000  0.000  0.003
    6  0.003  0.000  0.000  0.000  0.000  0.000  0.000  0.000  0.000  0.003
    7  0.003  0.000  0.000  0.000  0.000  0.000  0.000  0.000  0.000  0.003
    8  0.003  0.000  0.000  0.000  0.000  0.000  0.000  0.000  0.000  0.003
tot    0.017  0.001  0.000  0.001  0.000  0.000  0.000  0.000  0.000  0.018
 
band    20 # energy    2.36522817 # occ.  0.00000000
 
ion      s     py     pz     px    dxy    dyz    dz2    dxz  x2-y2    tot
    1  0.000  0.000  0.124  0.000  0.000  0.000  0.000  0.000  0.000  0.124
    2  0.000  0.000  0.124  0.000  0.000  0.000  0.000  0.000  0.000  0.124
    3  0.000  0.000  0.016  0.000  0.000  0.000  0.000  0.000  0.000  0.016
    4  0.000  0.000  0.016  0.000  0.000  0.000  0.000  0.000  0.000  0.016
    5  0.000  0.000  0.016  0.000  0.000  0.000  0.000  0.000  0.000  0.016
    6  0.000  0.000  0.016  0.000  0.000  0.000  0.000  0.000  0.000  0.016
    7  0.000  0.000  0.016  0.000  0.000  0.000  0.000  0.000  0.000  0.016
    8  0.000  0.000  0.016  0.000  0.000  0.000  0.000  0.000  0.000  0.016
tot    0.000  0.000  0.343  0.000  0.000  0.000  0.000  0.000  0.000  0.343
 
band    21 # energy    4.80669063 # occ.  0.00000000
 
ion      s     py     pz     px    dxy    dyz    dz2    dxz  x2-y2    tot
    1  0.000  0.000  0.037  0.000  0.000  0.000  0.000  0.000  0.000  0.037
    2  0.000  0.000  0.037  0.000  0.000  0.000  0.000  0.000  0.000  0.037
    3  0.000  0.000  0.003  0.000  0.000  0.000  0.000  0.000  0.000  0.003
    4  0.000  0.000  0.003  0.000  0.000  0.000  0.000  0.000  0.000  0.003
    5  0.000  0.000  0.003  0.000  0.000  0.000  0.000  0.000  0.000  0.003
    6  0.000  0.000  0.003  0.000  0.000  0.000  0.000  0.000  0.000  0.003
    7  0.000  0.000  0.003  0.000  0.000  0.000  0.000  0.000  0.000  0.003
    8  0.000  0.000  0.003  0.000  0.000  0.000  0.000  0.000  0.000  0.003
tot    0.000  0.000  0.092  0.000  0.000  0.000  0.000  0.000  0.000  0.092
 
band    22 # energy    6.15872578 # occ.  0.00000000
 
ion      s     py     pz     px    dxy    dyz    dz2    dxz  x2-y2    tot
    1  0.001  0.000  0.000  0.000  0.000  0.000  0.000  0.000  0.000  0.001
    2  0.001  0.000  0.000  0.000  0.000  0.000  0.000  0.000  0.000  0.001
    3  0.008  0.001  0.000  0.000  0.000  0.000  0.000  0.000  0.000  0.010
    4  0.008  0.001  0.000  0.000  0.000  0.000  0.000  0.000  0.000  0.010
    5  0.008  0.000  0.000  0.002  0.000  0.000  0.000  0.000  0.000  0.010
    6  0.008  0.000  0.000  0.002  0.000  0.000  0.000  0.000  0.000  0.010
    7  0.008  0.001  0.000  0.000  0.000  0.000  0.000  0.000  0.000  0.010
    8  0.008  0.001  0.000  0.000  0.000  0.000  0.000  0.000  0.000  0.010
tot    0.051  0.005  0.000  0.005  0.000  0.000  0.000  0.000  0.000  0.060
 
band    23 # energy    7.02704087 # occ.  0.00000000
 
ion      s     py     pz     px    dxy    dyz    dz2    dxz  x2-y2    tot
    1  0.000  0.000  0.000  0.018  0.000  0.000  0.000  0.000  0.000  0.018
    2  0.000  0.000  0.000  0.018  0.000  0.000  0.000  0.000  0.000  0.018
    3  0.027  0.002  0.000  0.004  0.000  0.000  0.000  0.000  0.000  0.032
    4  0.027  0.002  0.000  0.004  0.000  0.000  0.000  0.000  0.000  0.033
    5  0.107  0.000  0.000  0.000  0.000  0.000  0.000  0.000  0.000  0.107
    6  0.107  0.000  0.000  0.000  0.000  0.000  0.000  0.000  0.000  0.107
    7  0.027  0.002  0.000  0.004  0.000  0.000  0.000  0.000  0.000  0.033
    8  0.027  0.002  0.000  0.004  0.000  0.000  0.000  0.000  0.000  0.032
tot    0.320  0.008  0.000  0.052  0.000  0.000  0.000  0.000  0.000  0.380
 
band    24 # energy    7.02706044 # occ.  0.00000000
 
ion      s     py     pz     px    dxy    dyz    dz2    dxz  x2-y2    tot
    1  0.000  0.018  0.000  0.000  0.000  0.000  0.000  0.000  0.000  0.018
    2  0.000  0.018  0.000  0.000  0.000  0.000  0.000  0.000  0.000  0.018
    3  0.080  0.000  0.000  0.002  0.000  0.000  0.000  0.000  0.000  0.082
    4  0.080  0.000  0.000  0.002  0.000  0.000  0.000  0.000  0.000  0.082
    5  0.000  0.008  0.000  0.000  0.000  0.000  0.000  0.000  0.000  0.008
    6  0.000  0.008  0.000  0.000  0.000  0.000  0.000  0.000  0.000  0.008
    7  0.080  0.000  0.000  0.002  0.000  0.000  0.000  0.000  0.000  0.082
    8  0.080  0.000  0.000  0.002  0.000  0.000  0.000  0.000  0.000  0.082
tot    0.320  0.052  0.000  0.008  0.000  0.000  0.000  0.000  0.000  0.380
 
band    25 # energy    8.37287646 # occ.  0.00000000
 
ion      s     py     pz     px    dxy    dyz    dz2    dxz  x2-y2    tot
    1  0.117  0.000  0.000  0.000  0.000  0.000  0.000  0.000  0.000  0.117
    2  0.117  0.000  0.000  0.000  0.000  0.000  0.000  0.000  0.000  0.117
    3  0.008  0.011  0.000  0.004  0.000  0.000  0.000  0.000  0.000  0.023
    4  0.008  0.011  0.000  0.004  0.000  0.000  0.000  0.000  0.000  0.023
    5  0.008  0.000  0.000  0.015  0.000  0.000  0.000  0.000  0.000  0.023
    6  0.008  0.000  0.000  0.015  0.000  0.000  0.000  0.000  0.000  0.023
    7  0.008  0.011  0.000  0.004  0.000  0.000  0.000  0.000  0.000  0.023
    8  0.008  0.011  0.000  0.004  0.000  0.000  0.000  0.000  0.000  0.023
tot    0.279  0.046  0.000  0.046  0.000  0.000  0.000  0.000  0.000  0.370
 
band    26 # energy    8.99650993 # occ.  0.00000000
 
ion      s     py     pz     px    dxy    dyz    dz2    dxz  x2-y2    tot
    1  0.000  0.006  0.000  0.080  0.000  0.000  0.000  0.000  0.000  0.085
    2  0.000  0.006  0.000  0.080  0.000  0.000  0.000  0.000  0.000  0.085
    3  0.000  0.005  0.000  0.055  0.000  0.000  0.000  0.000  0.000  0.060
    4  0.000  0.002  0.000  0.051  0.000  0.000  0.000  0.000  0.000  0.053
    5  0.000  0.004  0.000  0.040  0.000  0.000  0.000  0.000  0.000  0.044
    6  0.000  0.004  0.000  0.040  0.000  0.000  0.000  0.000  0.000  0.044
    7  0.000  0.002  0.000  0.051  0.000  0.000  0.000  0.000  0.000  0.053
    8  0.000  0.005  0.000  0.055  0.000  0.000  0.000  0.000  0.000  0.060
tot    0.000  0.033  0.000  0.451  0.000  0.000  0.000  0.000  0.000  0.485
 
band    27 # energy    8.99662605 # occ.  0.00000000
 
ion      s     py     pz     px    dxy    dyz    dz2    dxz  x2-y2    tot
    1  0.000  0.080  0.000  0.006  0.000  0.000  0.000  0.000  0.000  0.085
    2  0.000  0.080  0.000  0.006  0.000  0.000  0.000  0.000  0.000  0.085
    3  0.000  0.042  0.000  0.002  0.000  0.000  0.000  0.000  0.000  0.045
    4  0.000  0.046  0.000  0.006  0.000  0.000  0.000  0.000  0.000  0.051
    5  0.000  0.058  0.000  0.003  0.000  0.000  0.000  0.000  0.000  0.061
    6  0.000  0.058  0.000  0.003  0.000  0.000  0.000  0.000  0.000  0.061
    7  0.000  0.046  0.000  0.006  0.000  0.000  0.000  0.000  0.000  0.051
    8  0.000  0.042  0.000  0.002  0.000  0.000  0.000  0.000  0.000  0.045
tot    0.000  0.451  0.000  0.033  0.000  0.000  0.000  0.000  0.000  0.485
 
band    28 # energy    9.30365429 # occ.  0.00000000
 
ion      s     py     pz     px    dxy    dyz    dz2    dxz  x2-y2    tot
    1  0.000  0.000  0.000  0.000  0.000  0.000  0.000  0.000  0.000  0.000
    2  0.000  0.000  0.000  0.000  0.000  0.000  0.000  0.000  0.000  0.000
    3  0.006  0.003  0.000  0.001  0.000  0.000  0.000  0.000  0.000  0.009
    4  0.006  0.003  0.000  0.001  0.000  0.000  0.000  0.000  0.000  0.009
    5  0.006  0.000  0.000  0.003  0.000  0.000  0.000  0.000  0.000  0.009
    6  0.006  0.000  0.000  0.003  0.000  0.000  0.000  0.000  0.000  0.009
    7  0.006  0.003  0.000  0.001  0.000  0.000  0.000  0.000  0.000  0.009
    8  0.006  0.003  0.000  0.001  0.000  0.000  0.000  0.000  0.000  0.009
tot    0.035  0.010  0.000  0.010  0.000  0.000  0.000  0.000  0.000  0.055
 
band    29 # energy    9.38336565 # occ.  0.00000000
 
ion      s     py     pz     px    dxy    dyz    dz2    dxz  x2-y2    tot
    1  0.000  0.003  0.000  0.011  0.000  0.000  0.000  0.000  0.000  0.014
    2  0.000  0.003  0.000  0.011  0.000  0.000  0.000  0.000  0.000  0.014
    3  0.000  0.000  0.000  0.000  0.000  0.000  0.000  0.000  0.000  0.000
    4  0.002  0.001  0.000  0.001  0.000  0.000  0.000  0.000  0.000  0.004
    5  0.002  0.000  0.000  0.002  0.000  0.000  0.000  0.000  0.000  0.004
    6  0.002  0.000  0.000  0.002  0.000  0.000  0.000  0.000  0.000  0.004
    7  0.002  0.001  0.000  0.001  0.000  0.000  0.000  0.000  0.000  0.004
    8  0.000  0.000  0.000  0.000  0.000  0.000  0.000  0.000  0.000  0.000
tot    0.009  0.008  0.000  0.026  0.000  0.000  0.000  0.000  0.000  0.044
 
band    30 # energy    9.38337082 # occ.  0.00000000
 
ion      s     py     pz     px    dxy    dyz    dz2    dxz  x2-y2    tot
    1  0.000  0.011  0.000  0.003  0.000  0.000  0.000  0.000  0.000  0.014
    2  0.000  0.011  0.000  0.003  0.000  0.000  0.000  0.000  0.000  0.014
    3  0.003  0.002  0.000  0.001  0.000  0.000  0.000  0.000  0.000  0.005
    4  0.001  0.001  0.000  0.000  0.000  0.000  0.000  0.000  0.000  0.002
    5  0.001  0.000  0.000  0.000  0.000  0.000  0.000  0.000  0.000  0.001
    6  0.001  0.000  0.000  0.000  0.000  0.000  0.000  0.000  0.000  0.001
    7  0.001  0.001  0.000  0.000  0.000  0.000  0.000  0.000  0.000  0.002
    8  0.003  0.002  0.000  0.001  0.000  0.000  0.000  0.000  0.000  0.005
tot    0.009  0.026  0.000  0.008  0.000  0.000  0.000  0.000  0.000  0.044
 
band    31 # energy    9.52084579 # occ.  0.00000000
 
ion      s     py     pz     px    dxy    dyz    dz2    dxz  x2-y2    tot
    1  0.000  0.006  0.000  0.000  0.000  0.000  0.000  0.000  0.000  0.006
    2  0.000  0.006  0.000  0.000  0.000  0.000  0.000  0.000  0.000  0.006
    3  0.000  0.000  0.000  0.002  0.000  0.000  0.000  0.000  0.000  0.003
    4  0.000  0.000  0.000  0.002  0.000  0.000  0.000  0.000  0.000  0.003
    5  0.000  0.004  0.000  0.000  0.000  0.000  0.000  0.000  0.000  0.004
    6  0.000  0.004  0.000  0.000  0.000  0.000  0.000  0.000  0.000  0.004
    7  0.000  0.000  0.000  0.002  0.000  0.000  0.000  0.000  0.000  0.003
    8  0.000  0.000  0.000  0.002  0.000  0.000  0.000  0.000  0.000  0.003
tot    0.001  0.021  0.000  0.009  0.000  0.000  0.000  0.000  0.000  0.030
 
band    32 # energy    9.52085827 # occ.  0.00000000
 
ion      s     py     pz     px    dxy    dyz    dz2    dxz  x2-y2    tot
    1  0.000  0.000  0.000  0.006  0.000  0.000  0.000  0.000  0.000  0.006
    2  0.000  0.000  0.000  0.006  0.000  0.000  0.000  0.000  0.000  0.006
    3  0.000  0.002  0.000  0.001  0.000  0.000  0.000  0.000  0.000  0.003
    4  0.000  0.002  0.000  0.001  0.000  0.000  0.000  0.000  0.000  0.004
    5  0.000  0.000  0.000  0.002  0.000  0.000  0.000  0.000  0.000  0.002
    6  0.000  0.000  0.000  0.002  0.000  0.000  0.000  0.000  0.000  0.002
    7  0.000  0.002  0.000  0.001  0.000  0.000  0.000  0.000  0.000  0.004
    8  0.000  0.002  0.000  0.001  0.000  0.000  0.000  0.000  0.000  0.003
tot    0.001  0.009  0.000  0.021  0.000  0.000  0.000  0.000  0.000  0.030
 
band    33 # energy    9.76655953 # occ.  0.00000000
 
ion      s     py     pz     px    dxy    dyz    dz2    dxz  x2-y2    tot
    1  0.039  0.000  0.000  0.000  0.000  0.000  0.000  0.000  0.000  0.039
    2  0.039  0.000  0.000  0.000  0.000  0.000  0.000  0.000  0.000  0.039
    3  0.004  0.000  0.000  0.000  0.000  0.000  0.000  0.000  0.000  0.004
    4  0.004  0.000  0.000  0.000  0.000  0.000  0.000  0.000  0.000  0.004
    5  0.004  0.000  0.000  0.000  0.000  0.000  0.000  0.000  0.000  0.004
    6  0.004  0.000  0.000  0.000  0.000  0.000  0.000  0.000  0.000  0.004
    7  0.004  0.000  0.000  0.000  0.000  0.000  0.000  0.000  0.000  0.004
    8  0.004  0.000  0.000  0.000  0.000  0.000  0.000  0.000  0.000  0.004
tot    0.099  0.000  0.000  0.000  0.000  0.000  0.000  0.000  0.000  0.099
 
band    34 # energy   11.18355183 # occ.  0.00000000
 
ion      s     py     pz     px    dxy    dyz    dz2    dxz  x2-y2    tot
    1  0.000  0.000  0.000  0.000  0.000  0.000  0.000  0.000  0.000  0.000
    2  0.000  0.000  0.000  0.000  0.000  0.000  0.000  0.000  0.000  0.000
    3  0.000  0.000  0.038  0.000  0.000  0.000  0.000  0.000  0.000  0.038
    4  0.000  0.000  0.003  0.000  0.000  0.000  0.000  0.000  0.000  0.003
    5  0.000  0.000  0.028  0.000  0.000  0.000  0.000  0.000  0.000  0.028
    6  0.000  0.000  0.028  0.000  0.000  0.000  0.000  0.000  0.000  0.028
    7  0.000  0.000  0.003  0.000  0.000  0.000  0.000  0.000  0.000  0.003
    8  0.000  0.000  0.037  0.000  0.000  0.000  0.000  0.000  0.000  0.037
tot    0.000  0.000  0.138  0.000  0.000  0.000  0.000  0.000  0.000  0.138
 
band    35 # energy   11.18506909 # occ.  0.00000000
 
ion      s     py     pz     px    dxy    dyz    dz2    dxz  x2-y2    tot
    1  0.000  0.000  0.000  0.000  0.000  0.000  0.000  0.000  0.000  0.000
    2  0.000  0.000  0.000  0.000  0.000  0.000  0.000  0.000  0.000  0.000
    3  0.000  0.000  0.009  0.000  0.000  0.000  0.000  0.000  0.000  0.009
    4  0.000  0.000  0.043  0.000  0.000  0.000  0.000  0.000  0.000  0.043
    5  0.000  0.000  0.019  0.000  0.000  0.000  0.000  0.000  0.000  0.019
    6  0.000  0.000  0.017  0.000  0.000  0.000  0.000  0.000  0.000  0.017
    7  0.000  0.000  0.043  0.000  0.000  0.000  0.000  0.000  0.000  0.043
    8  0.000  0.000  0.007  0.000  0.000  0.000  0.000  0.000  0.000  0.007
tot    0.000  0.000  0.137  0.000  0.000  0.000  0.000  0.000  0.000  0.137
 
band    36 # energy   11.64662722 # occ.  0.00000000
 
ion      s     py     pz     px    dxy    dyz    dz2    dxz  x2-y2    tot
    1  0.000  0.000  0.003  0.000  0.000  0.000  0.000  0.000  0.000  0.003
    2  0.000  0.000  0.006  0.000  0.000  0.000  0.000  0.000  0.000  0.006
    3  0.000  0.000  0.046  0.000  0.000  0.000  0.000  0.000  0.000  0.046
    4  0.000  0.000  0.038  0.000  0.000  0.000  0.000  0.000  0.000  0.038
    5  0.000  0.000  0.009  0.000  0.000  0.000  0.000  0.000  0.000  0.009
    6  0.000  0.000  0.010  0.000  0.000  0.000  0.000  0.000  0.000  0.010
    7  0.000  0.000  0.039  0.000  0.000  0.000  0.000  0.000  0.000  0.039
    8  0.000  0.000  0.048  0.000  0.000  0.000  0.000  0.000  0.000  0.048
tot    0.000  0.000  0.198  0.000  0.000  0.000  0.000  0.000  0.000  0.199
 

 k-point     2 :    0.08333333 0.00000000 0.00000000     weight = 0.04166667

band     1 # energy  -20.89521393 # occ.  2.00000000
 
ion      s     py     pz     px    dxy    dyz    dz2    dxz  x2-y2    tot
    1  0.028  0.000  0.000  0.000  0.000  0.000  0.000  0.000  0.000  0.028
    2  0.028  0.000  0.000  0.000  0.000  0.000  0.000  0.000  0.000  0.028
    3  0.094  0.004  0.000  0.001  0.000  0.000  0.000  0.000  0.000  0.099