<?xml version="1.0" encoding="ISO-8859-1"?>
<modeling>
 <generator>
  <i name="program" type="string">vasp </i>
  <i name="version" type="string">5.4.4.18Apr17-6-g9f103f2a35  </i>
  <i name="subversion" type="string">(build Mar 30 2023 15:39:25) complex            parallel </i>
  <i name="platform" type="string">LinuxIFC </i>
  <i name="date" type="string">2023 06 23 </i>
  <i name="time" type="string">19:06:50 </i>
 </generator>
 <incar>
  <i type="string" name="SYSTEM"> BC3-optical</i>
  <i type="int" name="ISTART">     1</i>
  <i type="string" name="PREC">accurate</i>
  <i type="string" name="ALGO"> Exact</i>
  <i type="int" name="ICHARG">     2</i>
  <i name="EDIFF">      0.00000001</i>
  <i name="ENCUT">    450.00000000</i>
  <i type="int" name="NBANDS">   192</i>
  <i type="int" name="NEDOS">  2400</i>
  <i type="logical" name="LREAL"> F  </i>
  <i type="int" name="ISMEAR">     0</i>
  <i name="SIGMA">      0.01000000</i>
  <i type="int" name="NWRITE">     3</i>
  <i type="logical" name="LOPTICS"> T  </i>
  <v type="int" name="KPOINT_BSE">    -1     0     0     0</v>
  <i name="CSHIFT">      0.10000000</i>
  <i name="CSHIFT">      0.10000000</i>
 </incar>
 <structure name="primitive_cell" >
  <crystal>
   <varray name="basis" >
    <v>       4.48084843       2.58701885       0.00000000 </v>
    <v>      -4.48084843       2.58701885       0.00000000 </v>
    <v>       0.00000000       0.00000000       8.52022140 </v>
   </varray>
   <i name="volume">    197.53348383 </i>
   <varray name="rec_basis" >
    <v>       0.11158601       0.19327265       0.00000000 </v>
    <v>      -0.11158601       0.19327265       0.00000000 </v>
    <v>       0.00000000       0.00000000       0.11736784 </v>
   </varray>
  </crystal>
  <varray name="positions" >
   <v>       0.33333300      -0.33333400       0.25000000 </v>
   <v>       0.15869124       0.31738348       0.25000000 </v>
   <v>      -0.31738448      -0.15869224       0.25000000 </v>
   <v>       0.15869124      -0.15869224       0.25000000 </v>
   <v>      -0.15869224       0.15869124       0.25000000 </v>
   <v>       0.31738348       0.15869124       0.25000000 </v>
   <v>      -0.15869224      -0.31738448       0.25000000 </v>
   <v>      -0.33333400       0.33333300       0.25000000 </v>
  </varray>
 </structure>
 <varray name="primitive_index" >
  <v type="int" >        1 </v>
  <v type="int" >        3 </v>
  <v type="int" >        7 </v>
  <v type="int" >        5 </v>
  <v type="int" >        6 </v>
  <v type="int" >        4 </v>
  <v type="int" >        8 </v>
  <v type="int" >        2 </v>
 </varray>
 <kpoints>
  <generation param="Gamma">
   <v type="int" name="divisions">      12       12        1 </v>
   <v name="usershift">      0.00000000       0.00000000       0.00000000 </v>
   <v name="genvec1">      0.08333333       0.00000000       0.00000000 </v>
   <v name="genvec2">      0.00000000       0.08333333       0.00000000 </v>
   <v name="genvec3">      0.00000000       0.00000000       1.00000000 </v>
   <v name="shift">      0.00000000       0.00000000       0.00000000 </v>
  </generation>
  <varray name="kpointlist" >
   <v>       0.00000000       0.00000000       0.00000000 </v>
   <v>       0.08333333       0.00000000       0.00000000 </v>
   <v>       0.16666667       0.00000000       0.00000000 </v>
   <v>       0.25000000      -0.00000000       0.00000000 </v>
   <v>       0.33333333      -0.00000000       0.00000000 </v>
   <v>       0.41666667       0.00000000       0.00000000 </v>
   <v>       0.50000000      -0.00000000       0.00000000 </v>
   <v>       0.08333333       0.08333333       0.00000000 </v>
   <v>       0.16666667       0.08333333       0.00000000 </v>
   <v>       0.25000000       0.08333333       0.00000000 </v>
   <v>       0.33333333       0.08333333       0.00000000 </v>
   <v>       0.41666667       0.08333333       0.00000000 </v>
   <v>       0.16666667       0.16666667       0.00000000 </v>
   <v>       0.25000000       0.16666667       0.00000000 </v>
   <v>       0.33333333       0.16666667       0.00000000 </v>
   <v>       0.41666667       0.16666667       0.00000000 </v>
   <v>       0.25000000       0.25000000       0.00000000 </v>
   <v>       0.33333333       0.25000000       0.00000000 </v>
   <v>       0.33333333       0.33333333       0.00000000 </v>
  </varray>
  <varray name="weights" >
   <v>       0.00694444 </v>
   <v>       0.04166667 </v>
   <v>       0.04166667 </v>
   <v>       0.04166667 </v>
   <v>       0.04166667 </v>
   <v>       0.04166667 </v>
   <v>       0.02083333 </v>
   <v>       0.04166667 </v>
   <v>       0.08333333 </v>
   <v>       0.08333333 </v>
   <v>       0.08333333 </v>
   <v>       0.08333333 </v>
   <v>       0.04166667 </v>
   <v>       0.08333333 </v>
   <v>       0.08333333 </v>
   <v>       0.04166667 </v>
   <v>       0.04166667 </v>
   <v>       0.08333333 </v>
   <v>       0.01388889 </v>
  </varray>
 </kpoints>
 <parameters>
  <separator name="general" >
   <i type="string" name="SYSTEM">BC3-optical</i>
   <i type="logical" name="LCOMPAT"> F  </i>
  </separator>
  <separator name="electronic" >
   <i type="string" name="PREC">accura</i>
   <i name="ENMAX">    450.00000000</i>
   <i name="ENAUG">    644.87300000</i>
   <i name="EDIFF">      0.00000001</i>
   <i type="int" name="IALGO">    90</i>
   <i type="int" name="IWAVPR">    10</i>
   <i type="int" name="NBANDS">   192</i>
   <i name="NELECT">     30.00000000</i>
   <i type="int" name="TURBO">     0</i>
   <i type="int" name="IRESTART">     0</i>
   <i type="int" name="NREBOOT">     0</i>
   <i type="int" name="NMIN">     0</i>
   <i name="EREF">      0.00000000</i>
   <separator name="electronic smearing" >
    <i type="int" name="ISMEAR">     0</i>
    <i name="SIGMA">      0.01000000</i>
    <i name="KSPACING">      0.50000000</i>
    <i type="logical" name="KGAMMA"> T  </i>
   </separator>
   <separator name="electronic projectors" >
    <i type="logical" name="LREAL"> F  </i>
    <v name="ROPT">      0.00000000      0.00000000</v>
    <i type="int" name="LMAXPAW">  -100</i>
    <i type="int" name="LMAXMIX">     2</i>
    <i type="logical" name="NLSPLINE"> F  </i>
   </separator>
   <separator name="electronic startup" >
    <i type="int" name="ISTART">     1</i>
    <i type="int" name="ICHARG">     2</i>
    <i type="int" name="INIWAV">     1</i>
   </separator>
   <separator name="electronic spin" >
    <i type="int" name="ISPIN">     1</i>
    <i type="logical" name="LNONCOLLINEAR"> F  </i>
    <v name="MAGMOM">      1.00000000      1.00000000      1.00000000      1.00000000      1.00000000      1.00000000      1.00000000      1.00000000</v>
    <i name="NUPDOWN">     -1.00000000</i>
    <i type="logical" name="LSORBIT"> F  </i>
    <v name="SAXIS">      0.00000000      0.00000000      1.00000000</v>
    <i type="logical" name="LSPIRAL"> F  </i>
    <v name="QSPIRAL">      0.00000000      0.00000000      0.00000000</v>
    <i type="logical" name="LZEROZ"> F  </i>
   </separator>
   <separator name="electronic exchange-correlation" >
    <i type="logical" name="LASPH"> F  </i>
    <i type="logical" name="LMETAGGA"> F  </i>
   </separator>
   <separator name="electronic convergence" >
    <i type="int" name="NELM">    60</i>
    <i type="int" name="NELMDL">     0</i>
    <i type="int" name="NELMIN">     2</i>
    <i name="ENINI">    450.00000000</i>
    <separator name="electronic convergence detail" >
     <i type="logical" name="LDIAG"> T  </i>
     <i type="logical" name="LSUBROT"> F  </i>
     <i name="WEIMIN">      0.00000000</i>
     <i name="EBREAK">      0.00000000</i>
     <i name="DEPER">      0.30000000</i>
     <i type="int" name="NRMM">     4</i>
     <i name="TIME">      0.40000000</i>
    </separator>
   </separator>
   <separator name="electronic mixer" >
    <i name="AMIX">      0.40000000</i>
    <i name="BMIX">      1.00000000</i>
    <i name="AMIN">      0.10000000</i>
    <i name="AMIX_MAG">      1.60000000</i>
    <i name="BMIX_MAG">      1.00000000</i>
    <separator name="electronic mixer details" >
     <i type="int" name="IMIX">     4</i>
     <i type="logical" name="MIXFIRST"> F  </i>
     <i type="int" name="MAXMIX">   -45</i>
     <i name="WC">    100.00000000</i>
     <i type="int" name="INIMIX">     1</i>
     <i type="int" name="MIXPRE">     1</i>
     <i type="int" name="MREMOVE">     5</i>
    </separator>
   </separator>
   <separator name="electronic dipolcorrection" >
    <i type="logical" name="LDIPOL"> F  </i>
    <i type="logical" name="LMONO"> F  </i>
    <i type="int" name="IDIPOL">     0</i>
    <i name="EPSILON">      1.00000000</i>
    <v name="DIPOL">   -100.00000000   -100.00000000   -100.00000000</v>
    <i name="EFIELD">      0.00000000</i>
   </separator>
  </separator>
  <separator name="grids" >
   <i type="int" name="NGX">    36</i>
   <i type="int" name="NGY">    36</i>
   <i type="int" name="NGZ">    60</i>
   <i type="int" name="NGXF">    72</i>
   <i type="int" name="NGYF">    72</i>
   <i type="int" name="NGZF">   120</i>
   <i type="logical" name="ADDGRID"> F  </i>
  </separator>
  <separator name="ionic" >
   <i type="int" name="NSW">     0</i>
   <i type="int" name="IBRION">    -1</i>
   <i type="int" name="MDALGO">     0</i>
   <i type="int" name="ISIF">     2</i>
   <i name="PSTRESS">      0.00000000</i>
   <i name="EDIFFG">      0.00000010</i>
   <i type="int" name="NFREE">     0</i>
   <i name="POTIM">      0.50000000</i>
   <i name="SMASS">     -3.00000000</i>
   <i name="SCALEE">      1.00000000</i>
  </separator>
  <separator name="ionic md" >
   <i name="TEBEG">      0.00010000</i>
   <i name="TEEND">      0.00010000</i>
   <i type="int" name="NBLOCK">     1</i>
   <i type="int" name="KBLOCK">     1</i>
   <i type="int" name="NPACO">   256</i>
   <i name="APACO">     16.00000000</i>
  </separator>
  <separator name="symmetry" >
   <i type="int" name="ISYM">     2</i>
   <i name="SYMPREC">      0.00001000</i>
  </separator>
  <separator name="dos" >
   <i type="int" name="LORBIT">     0</i>
   <v name="RWIGS">     -1.00000000     -1.00000000</v>
   <i type="int" name="NEDOS">  2400</i>
   <i name="EMIN">     10.00000000</i>
   <i name="EMAX">    -10.00000000</i>
   <i name="EFERMI">      0.00000000</i>
  </separator>
  <separator name="writing" >
   <i type="int" name="NWRITE">     3</i>
   <i type="logical" name="LWAVE"> T  </i>
   <i type="logical" name="LDOWNSAMPLE"> F  </i>
   <i type="logical" name="LCHARG"> T  </i>
   <i type="logical" name="LPARD"> F  </i>
   <i type="logical" name="LVTOT"> F  </i>
   <i type="logical" name="LVHAR"> F  </i>
   <i type="logical" name="LELF"> F  </i>
   <i type="logical" name="LOPTICS"> T  </i>
   <v name="STM">      0.00000000      0.00000000      0.00000000      0.00000000      0.00000000      0.00000000      0.00000000</v>
  </separator>
  <separator name="performance" >
   <i type="int" name="NPAR">    12</i>
   <i type="int" name="NSIM">     4</i>
   <i type="int" name="NBLK">    -1</i>
   <i type="logical" name="LPLANE"> T  </i>
   <i type="logical" name="LSCALAPACK"> T  </i>
   <i type="logical" name="LSCAAWARE"> F  </i>
   <i type="logical" name="LSCALU"> F  </i>
   <i type="logical" name="LASYNC"> F  </i>
   <i type="logical" name="LORBITALREAL"> F  </i>
  </separator>
  <separator name="miscellaneous" >
   <i type="int" name="IDIOT">     3</i>
   <i type="int" name="ISPECIAL">     0</i>
   <i type="logical" name="LMUSIC"> F  </i>
   <v name="POMASS">     10.81100000     12.01100000</v>
   <v name="DARWINR">      0.00000000      0.00000000</v>
   <v name="DARWINV">      1.00000000      1.00000000</v>
   <i type="logical" name="LCORR"> T  </i>
  </separator>
  <i type="logical" name="GGA_COMPAT"> T  </i>
  <i type="logical" name="LBERRY"> F  </i>
  <i type="int" name="ICORELEVEL">     0</i>
  <i type="logical" name="LDAU"> F  </i>
  <i type="int" name="I_CONSTRAINED_M">     0</i>
  <separator name="electronic exchange-correlation" >
   <i type="string" name="GGA">--</i>
   <i type="int" name="VOSKOWN">     0</i>
   <i type="logical" name="LHFCALC"> F  </i>
   <i type="string" name="PRECFOCK"></i>
   <i type="logical" name="LSYMGRAD"> F  </i>
   <i type="logical" name="LHFONE"> F  </i>
   <i type="logical" name="LRHFCALC"> F  </i>
   <i type="logical" name="LTHOMAS"> F  </i>
   <i type="logical" name="LMODELHF"> F  </i>
   <i name="ENCUT4O">     -1.00000000</i>
   <i type="int" name="EXXOEP">     0</i>
   <i type="int" name="FOURORBIT">     0</i>
   <i name="AEXX">      0.00000000</i>
   <i name="HFALPHA">      0.00000000</i>
   <i name="MCALPHA">      0.00000000</i>
   <i name="ALDAX">      1.00000000</i>
   <i name="AGGAX">      1.00000000</i>
   <i name="ALDAC">      1.00000000</i>
   <i name="AGGAC">      1.00000000</i>
   <i type="int" name="NKREDX">     1</i>
   <i type="int" name="NKREDY">     1</i>
   <i type="int" name="NKREDZ">     1</i>
   <i type="logical" name="SHIFTRED"> F  </i>
   <i type="logical" name="ODDONLY"> F  </i>
   <i type="logical" name="EVENONLY"> F  </i>
   <i type="int" name="LMAXFOCK">     0</i>
   <i type="int" name="NMAXFOCKAE">     0</i>
   <i type="logical" name="LFOCKAEDFT"> F  </i>
   <i name="HFSCREEN">      0.00000000</i>
   <i name="HFSCREENC">      0.00000000</i>
   <i type="int" name="NBANDSGWLOW">     0</i>
  </separator>
  <separator name="vdW DFT" >
   <i type="logical" name="LUSE_VDW"> F  </i>
   <i name="Zab_VDW">     -0.84910000</i>
   <i name="PARAM1">      0.12340000</i>
   <i name="PARAM2">      1.00000000</i>
   <i name="PARAM3">      0.00000000</i>
  </separator>
  <separator name="model GW" >
   <i type="int" name="MODEL_GW">     0</i>
   <i name="MODEL_EPS0">     14.81501129</i>
   <i name="MODEL_ALPHA">      1.00000000</i>
  </separator>
  <separator name="linear response parameters" >
   <i type="logical" name="LEPSILON"> F  </i>
   <i type="logical" name="LRPA"> F  </i>
   <i type="logical" name="LNABLA"> F  </i>
   <i type="logical" name="LVEL"> F  </i>
   <i type="int" name="KINTER">     0</i>
   <i name="CSHIFT">      0.10000000</i>
   <i name="OMEGAMAX">     -1.00000000</i>
   <i name="DEG_THRESHOLD">      0.00200000</i>
   <i name="RTIME">     -0.10000000</i>
   <i name="WPLASMAI">      0.00000000</i>
   <v name="DFIELD">      0.00000000      0.00000000      0.00000000</v>
   <v name="WPLASMA">      0.00000000      0.00000000      0.00000000      0.00000000      0.00000000      0.00000000      0.00000000      0.00000000      0.00000000</v>
  </separator>
  <separator name="orbital magnetization" >
   <i type="logical" name="NUCIND"> F  </i>
   <v name="MAGPOS">      0.00000000      0.00000000      0.00000000</v>
   <i type="logical" name="LNICSALL"> T  </i>
   <i type="logical" name="ORBITALMAG"> F  </i>
   <i type="logical" name="LMAGBLOCH"> F  </i>
   <i type="logical" name="LCHIMAG"> F  </i>
   <i type="logical" name="LGAUGE"> T  </i>
   <i type="int" name="MAGATOM">     0</i>
   <v name="MAGDIPOL">      0.00000000      0.00000000      0.00000000</v>
   <v name="AVECCONST">      0.00000000      0.00000000      0.00000000</v>
  </separator>
  <separator name="response functions" >
   <i type="logical" name="LADDER"> F  </i>
   <i type="logical" name="LRPAFORCE"> F  </i>
   <i type="logical" name="LFXC"> F  </i>
   <i type="logical" name="LHARTREE"> T  </i>
   <i type="int" name="IBSE">     0</i>
   <v type="int" name="KPOINT">    -1     0     0     0</v>
   <i type="logical" name="LTCTE"> F  </i>
   <i type="logical" name="LTETE"> F  </i>
   <i type="logical" name="LTRIPLET"> F  </i>
   <i type="logical" name="LFXCEPS"> F  </i>
   <i type="logical" name="LFXHEG"> F  </i>
   <i type="int" name="NATURALO">     2</i>
   <i type="logical" name="L2ORDER"> F  </i>
   <i type="logical" name="LMP2LT"> F  </i>
   <i type="logical" name="LUSEW"> F  </i>
   <i name="ENCUTGW">     -2.00000000</i>
   <i name="ENCUTGWSOFT">     -2.00000000</i>
   <i name="ENCUTLF">     -1.00000000</i>
   <i type="int" name="LMAXMP2">    -1</i>
   <i name="SCISSOR">      0.00000000</i>
   <i type="int" name="NOMEGA">     0</i>
   <i type="int" name="NOMEGAR">     0</i>
   <i type="int" name="NBANDSGW">    -1</i>
   <i type="int" name="NBANDSO">    -1</i>
   <i type="int" name="NBANDSV">    -1</i>
   <i type="int" name="NELM">     1</i>
   <i type="int" name="NELMHF">     1</i>
   <i type="int" name="DIM">     3</i>
   <i type="int" name="ANTIRES">     0</i>
   <i name="OMEGAMAX">    -30.00000000</i>
   <i name="OMEGAMIN">    -30.00000000</i>
   <i name="OMEGATL">   -200.00000000</i>
   <i type="int" name="OMEGAGRID">   140</i>
   <i name="CSHIFT">      0.10000000</i>
   <i type="logical" name="SELFENERGY"> F  </i>
   <i type="logical" name="LSPECTRAL"> F  </i>
   <i type="logical" name="LSPECTRALGW"> F  </i>
   <i type="logical" name="LSINGLES"> F  </i>
   <i type="logical" name="LFERMIGW"> F  </i>
   <i type="logical" name="ODDONLYGW"> F  </i>
   <i type="logical" name="EVENONLYGW"> F  </i>
   <i type="int" name="NKREDLFX">     1</i>
   <i type="int" name="NKREDLFY">     1</i>
   <i type="int" name="NKREDLFZ">     1</i>
   <i type="int" name="MAXMEM">  2800</i>
   <i type="int" name="TELESCOPE">     0</i>
   <i type="int" name="TAUPAR">     1</i>
   <i type="int" name="OMEGAPAR">    -1</i>
   <i name="LAMBDA">      1.00000000</i>
  </separator>
  <separator name="External order field" >
   <i name="OFIELD_KAPPA">      0.00000000</i>
   <v name="OFIELD_K">      0.00000000      0.00000000      0.00000000</v>
   <i name="OFIELD_Q6_NEAR">      0.00000000</i>
   <i name="OFIELD_Q6_FAR">      0.00000000</i>
   <i name="OFIELD_A">      0.00000000</i>
  </separator>
 </parameters>
 <atominfo>
  <atoms>       8 </atoms>
  <types>       2 </types>
  <array name="atoms" >
   <dimension dim="1">ion</dimension>
   <field type="string">element</field>
   <field type="int">atomtype</field>
   <set>
    <rc><c>B </c><c>   1</c></rc>
    <rc><c>B </c><c>   1</c></rc>
    <rc><c>C </c><c>   2</c></rc>
    <rc><c>C </c><c>   2</c></rc>
    <rc><c>C </c><c>   2</c></rc>
    <rc><c>C </c><c>   2</c></rc>
    <rc><c>C </c><c>   2</c></rc>
    <rc><c>C </c><c>   2</c></rc>
   </set>
  </array>
  <array name="atomtypes" >
   <dimension dim="1">type</dimension>
   <field type="int">atomspertype</field>
   <field type="string">element</field>
   <field>mass</field>
   <field>valence</field>
   <field type="string">pseudopotential</field>
   <set>
    <rc><c>   2</c><c>B </c><c>     10.81100000</c><c>      3.00000000</c><c>  PAW_PBE B 06Sep2000                   </c></rc>
    <rc><c>   6</c><c>C </c><c>     12.01100000</c><c>      4.00000000</c><c>  PAW_PBE C 08Apr2002                   </c></rc>
   </set>
  </array>
 </atominfo>
 <structure name="initialpos" >
  <crystal>
   <varray name="basis" >
    <v>       4.48084843       2.58701885       0.00000000 </v>
    <v>      -4.48084843       2.58701885       0.00000000 </v>
    <v>       0.00000000       0.00000000       8.52022140 </v>
   </varray>
   <i name="volume">    197.53348383 </i>
   <varray name="rec_basis" >
    <v>       0.11158601       0.19327265       0.00000000 </v>
    <v>      -0.11158601       0.19327265       0.00000000 </v>
    <v>       0.00000000       0.00000000       0.11736784 </v>
   </varray>
  </crystal>
  <varray name="positions" >
   <v>       0.33333300       0.66666600       0.25000000 </v>
   <v>       0.66666600       0.33333300       0.25000000 </v>
   <v>       0.15869124       0.31738348       0.25000000 </v>
   <v>       0.31738348       0.15869124       0.25000000 </v>
   <v>       0.15869124       0.84130776       0.25000000 </v>
   <v>       0.84130776       0.15869124       0.25000000 </v>
   <v>       0.68261552       0.84130776       0.25000000 </v>
   <v>       0.84130776       0.68261552       0.25000000 </v>
  </varray>
 </structure>
 <calculation>
  <scstep>
   <time name="diag">  544.21  544.20</time>
   <time name="total">  544.31  544.31</time>
   <energy>
    <i name="alphaZ">     25.67921176 </i>
    <i name="ewald">    700.27145080 </i>
    <i name="hartreedc">  -1524.76618073 </i>
    <i name="XCdc">     91.14273073 </i>
    <i name="pawpsdc">    738.13200929 </i>
    <i name="pawaedc">   -739.83780425 </i>
    <i name="eentropy">     -0.00000000 </i>
    <i name="bandstr">   -389.26594481 </i>
    <i name="atom">   1025.20389953 </i>
    <i name="e_fr_energy">    -73.44062769 </i>
    <i name="e_wo_entrp">    -73.44062769 </i>
    <i name="e_0_energy">    -73.44062769 </i>
   </energy>
  </scstep>
  <scstep>
   <time name="diag">  570.33  570.33</time>
   <time name="total">  570.44  570.45</time>
   <energy>
    <i name="e_fr_energy">    -68.99901163 </i>
    <i name="e_wo_entrp">    -68.99901163 </i>
    <i name="e_0_energy">    -68.99901163 </i>
   </energy>
  </scstep>
  <scstep>
   <time name="diag">  556.84  556.84</time>
   <time name="total">  556.95  556.95</time>
   <energy>
    <i name="e_fr_energy">    -67.35394036 </i>
    <i name="e_wo_entrp">    -67.35394036 </i>
    <i name="e_0_energy">    -67.35394036 </i>
   </energy>
  </scstep>
  <scstep>
   <time name="diag">  568.85  568.85</time>
   <time name="total">  568.96  568.96</time>
   <energy>
    <i name="e_fr_energy">    -67.24757337 </i>
    <i name="e_wo_entrp">    -67.24757337 </i>
    <i name="e_0_energy">    -67.24757337 </i>
   </energy>
  </scstep>
  <scstep>
   <time name="diag">  587.01  587.01</time>
   <time name="total">  587.12  587.12</time>
   <energy>
    <i name="e_fr_energy">    -67.22049319 </i>
    <i name="e_wo_entrp">    -67.22049319 </i>
    <i name="e_0_energy">    -67.22049319 </i>
   </energy>
  </scstep>
  <scstep>
   <time name="diag">  574.55  574.55</time>
   <time name="total">  574.66  574.65</time>
   <energy>
    <i name="e_fr_energy">    -67.21907962 </i>
    <i name="e_wo_entrp">    -67.21907962 </i>
    <i name="e_0_energy">    -67.21907962 </i>
   </energy>
  </scstep>
  <scstep>
   <time name="diag">  575.57  575.57</time>
   <time name="total">  575.68  575.68</time>
   <energy>
    <i name="e_fr_energy">    -67.22295241 </i>
    <i name="e_wo_entrp">    -67.22295241 </i>
    <i name="e_0_energy">    -67.22295241 </i>
   </energy>
  </scstep>
  <scstep>
   <time name="diag">  566.74  566.74</time>
   <time name="total">  566.85  566.85</time>
   <energy>
    <i name="e_fr_energy">    -67.22702477 </i>
    <i name="e_wo_entrp">    -67.22702477 </i>
    <i name="e_0_energy">    -67.22702477 </i>
   </energy>
  </scstep>
  <scstep>
   <time name="diag">  561.94  561.93</time>
   <time name="total">  562.05  562.04</time>
   <energy>
    <i name="e_fr_energy">    -67.22770203 </i>
    <i name="e_wo_entrp">    -67.22770203 </i>
    <i name="e_0_energy">    -67.22770203 </i>
   </energy>
  </scstep>
  <scstep>
   <time name="diag">  564.58  564.58</time>
   <time name="total">  564.69  564.69</time>
   <energy>
    <i name="e_fr_energy">    -67.22771724 </i>
    <i name="e_wo_entrp">    -67.22771724 </i>
    <i name="e_0_energy">    -67.22771724 </i>
   </energy>
  </scstep>
  <scstep>
   <time name="diag">  564.01  564.00</time>
   <time name="total">  564.12  564.11</time>
   <energy>
    <i name="e_fr_energy">    -67.22773009 </i>
    <i name="e_wo_entrp">    -67.22773009 </i>
    <i name="e_0_energy">    -67.22773009 </i>
   </energy>
  </scstep>
  <scstep>
   <time name="diag">  565.02  565.01</time>
   <time name="total">  565.13  565.12</time>
   <energy>
    <i name="e_fr_energy">    -67.22773016 </i>
    <i name="e_wo_entrp">    -67.22773016 </i>
    <i name="e_0_energy">    -67.22773016 </i>
   </energy>
  </scstep>
  <scstep>
   <time name="diag">  552.75  552.75</time>
   <time name="total">  552.86  552.86</time>
   <energy>
    <i name="e_fr_energy">    -67.22773024 </i>
    <i name="e_wo_entrp">    -67.22773024 </i>
    <i name="e_0_energy">    -67.22773024 </i>
   </energy>
  </scstep>
  <scstep>
   <time name="diag">  563.68  563.68</time>
   <time name="total">  563.73  563.73</time>
   <energy>
    <i name="alphaZ">     25.67921176 </i>
    <i name="ewald">    700.27145080 </i>
    <i name="hartreedc">  -1646.75291200 </i>
    <i name="XCdc">     96.02426133 </i>
    <i name="pawpsdc">   2894.38113017 </i>
    <i name="pawaedc">  -2896.90834126 </i>
    <i name="eentropy">     -0.00000000 </i>
    <i name="bandstr">   -265.12643058 </i>
    <i name="atom">   1025.20389953 </i>
    <i name="e_fr_energy">    -67.22773025 </i>
    <i name="e_wo_entrp">    -67.22773025 </i>
    <i name="e_0_energy">    -67.22773025 </i>
   </energy>
  </scstep>
  <structure>
   <crystal>
    <varray name="basis" >
     <v>       4.48084843       2.58701885       0.00000000 </v>
     <v>      -4.48084843       2.58701885       0.00000000 </v>
     <v>       0.00000000       0.00000000       8.52022140 </v>
    </varray>
    <i name="volume">    197.53348383 </i>
    <varray name="rec_basis" >
     <v>       0.11158601       0.19327265       0.00000000 </v>
     <v>      -0.11158601       0.19327265       0.00000000 </v>
     <v>       0.00000000       0.00000000       0.11736784 </v>
    </varray>
   </crystal>
   <varray name="positions" >
    <v>       0.33333300       0.66666600       0.25000000 </v>
    <v>       0.66666600       0.33333300       0.25000000 </v>
    <v>       0.15869124       0.31738348       0.25000000 </v>
    <v>       0.31738348       0.15869124       0.25000000 </v>
    <v>       0.15869124       0.84130776       0.25000000 </v>
    <v>       0.84130776       0.15869124       0.25000000 </v>
    <v>       0.68261552       0.84130776       0.25000000 </v>
    <v>       0.84130776       0.68261552       0.25000000 </v>
   </varray>
  </structure>
  <varray name="forces" >
   <v>       0.00000000      -0.00000000       0.00000000 </v>
   <v>       0.00000000      -0.00000000       0.00000000 </v>
   <v>      -0.00064694       0.00112054       0.00000000 </v>
   <v>       0.00064694       0.00112054       0.00000000 </v>
   <v>       0.00129389      -0.00000000      -0.00000000 </v>
   <v>      -0.00129389      -0.00000000       0.00000000 </v>
   <v>      -0.00064694      -0.00112054      -0.00000000 </v>
   <v>       0.00064694      -0.00112054      -0.00000000 </v>
  </varray>
  <varray name="stress" >
   <v>      -0.53277496       0.00000000      -0.00000000 </v>
   <v>       0.00000000      -0.53277487       0.00000000 </v>
   <v>      -0.00000000       0.00000000      -1.27118546 </v>
  </varray>
  <energy>
   <i name="e_fr_energy">    -67.22773025 </i>
   <i name="e_wo_entrp">    -67.22773025 </i>
   <i name="e_0_energy">     -0.00000000 </i>
  </energy>
  <time name="totalsc"> 7921.03 7922.06</time>
  <eigenvalues>
   <array>
    <dimension dim="1">band</dimension>
    <dimension dim="2">kpoint</dimension>
    <dimension dim="3">spin</dimension>
    <field>eigene</field>
    <field>occ</field>
    <set>
     <set comment="spin 1">
      <set comment="kpoint 1">
       <r>  -18.5403    1.0000 </r>
       <r>  -14.6488    1.0000 </r>
       <r>  -14.6488    1.0000 </r>
       <r>  -12.2992    1.0000 </r>
       <r>  -12.2992    1.0000 </r>
       <r>  -11.2307    1.0000 </r>
       <r>   -9.9135    1.0000 </r>
       <r>   -7.3452    1.0000 </r>
       <r>   -7.1249    1.0000 </r>
       <r>   -4.9710    1.0000 </r>
       <r>   -4.9710    1.0000 </r>
       <r>   -3.1493    1.0000 </r>
       <r>   -3.1492    1.0000 </r>
       <r>   -2.4667    1.0000 </r>
       <r>   -2.4666    1.0000 </r>
       <r>   -0.6315    0.0000 </r>
       <r>    1.1011    0.0000 </r>
       <r>    1.1012    0.0000 </r>
       <r>    1.7906    0.0000 </r>
       <r>    1.9217    0.0000 </r>
       <r>    4.5207    0.0000 </r>
       <r>    5.9130    0.0000 </r>
       <r>    6.3151    0.0000 </r>
       <r>    6.3151    0.0000 </r>
       <r>    7.6726    0.0000 </r>
       <r>    8.0796    0.0000 </r>
       <r>    8.0797    0.0000 </r>
       <r>    8.9955    0.0000 </r>
       <r>    9.1419    0.0000 </r>
       <r>    9.1419    0.0000 </r>
       <r>    9.2976    0.0000 </r>
       <r>    9.2976    0.0000 </r>
       <r>    9.5160    0.0000 </r>
       <r>   10.3273    0.0000 </r>
       <r>   10.6836    0.0000 </r>
       <r>   10.6836    0.0000 </r>
       <r>   11.3540    0.0000 </r>
       <r>   11.3541    0.0000 </r>
       <r>   11.3922    0.0000 </r>
       <r>   11.3995    0.0000 </r>
       <r>   11.9841    0.0000 </r>
       <r>   13.0008    0.0000 </r>
       <r>   13.0008    0.0000 </r>
       <r>   13.0285    0.0000 </r>
       <r>   13.1319    0.0000 </r>
       <r>   13.1319    0.0000 </r>
       <r>   13.1825    0.0000 </r>
       <r>   13.5279    0.0000 </r>
       <r>   15.6135    0.0000 </r>
       <r>   15.8008    0.0000 </r>
       <r>   15.8008    0.0000 </r>
       <r>   16.4913    0.0000 </r>
       <r>   18.2923    0.0000 </r>
       <r>   18.2923    0.0000 </r>
       <r>   18.8601    0.0000 </r>
       <r>   18.8602    0.0000 </r>
       <r>   19.1473    0.0000 </r>
       <r>   19.2290    0.0000 </r>
       <r>   19.5333    0.0000 </r>
       <r>   19.5333    0.0000 </r>
       <r>   19.7217    0.0000 </r>
       <r>   19.9888    0.0000 </r>
       <r>   19.9888    0.0000 </r>
       <r>   20.0167    0.0000 </r>
       <r>   20.4546    0.0000 </r>
       <r>   21.0813    0.0000 </r>
       <r>   21.3027    0.0000 </r>
       <r>   21.3027    0.0000 </r>
       <r>   22.8793    0.0000 </r>
       <r>   23.2968    0.0000 </r>
       <r>   23.2968    0.0000 </r>
       <r>   23.4397    0.0000 </r>
       <r>   23.4397    0.0000 </r>
       <r>   23.5738    0.0000 </r>
       <r>   24.0936    0.0000 </r>
       <r>   24.0936    0.0000 </r>
       <r>   24.4126    0.0000 </r>
       <r>   24.4126    0.0000 </r>
       <r>   24.5372    0.0000 </r>
       <r>   24.6374    0.0000 </r>
       <r>   24.8763    0.0000 </r>
       <r>   25.2174    0.0000 </r>
       <r>   25.2174    0.0000 </r>
       <r>   26.6516    0.0000 </r>
       <r>   26.6516    0.0000 </r>
       <r>   26.7538    0.0000 </r>
       <r>   26.7538    0.0000 </r>
       <r>   26.8463    0.0000 </r>
       <r>   27.0341    0.0000 </r>
       <r>   27.1216    0.0000 </r>
       <r>   27.7308    0.0000 </r>
       <r>   27.7308    0.0000 </r>
       <r>   27.7998    0.0000 </r>
       <r>   27.7998    0.0000 </r>
       <r>   27.8401    0.0000 </r>
       <r>   28.2967    0.0000 </r>
       <r>   28.2967    0.0000 </r>
       <r>   28.7936    0.0000 </r>
       <r>   28.7936    0.0000 </r>
       <r>   28.9524    0.0000 </r>
       <r>   29.6489    0.0000 </r>
       <r>   30.2897    0.0000 </r>
       <r>   31.1920    0.0000 </r>
       <r>   31.1920    0.0000 </r>
       <r>   31.4239    0.0000 </r>
       <r>   31.4816    0.0000 </r>
       <r>   31.4816    0.0000 </r>
       <r>   31.8841    0.0000 </r>
       <r>   32.0865    0.0000 </r>
       <r>   32.0865    0.0000 </r>
       <r>   32.4044    0.0000 </r>
       <r>   32.6844    0.0000 </r>
       <r>   33.2983    0.0000 </r>
       <r>   33.2983    0.0000 </r>
       <r>   33.3127    0.0000 </r>
       <r>   33.3127    0.0000 </r>
       <r>   33.4606    0.0000 </r>
       <r>   34.0099    0.0000 </r>
       <r>   34.9816    0.0000 </r>
       <r>   34.9816    0.0000 </r>
       <r>   35.0442    0.0000 </r>
       <r>   35.0442    0.0000 </r>
       <r>   35.2268    0.0000 </r>
       <r>   35.2268    0.0000 </r>
       <r>   35.8334    0.0000 </r>
       <r>   35.8655    0.0000 </r>
       <r>   35.8655    0.0000 </r>
       <r>   36.0454    0.0000 </r>
       <r>   36.6964    0.0000 </r>
       <r>   36.6964    0.0000 </r>
       <r>   37.0546    0.0000 </r>
       <r>   37.3010    0.0000 </r>
       <r>   37.3124    0.0000 </r>
       <r>   37.3124    0.0000 </r>
       <r>   37.3416    0.0000 </r>
       <r>   37.3416    0.0000 </r>
       <r>   37.3663    0.0000 </r>
       <r>   37.4564    0.0000 </r>
       <r>   37.4564    0.0000 </r>
       <r>   37.6595    0.0000 </r>
       <r>   37.8898    0.0000 </r>
       <r>   37.9469    0.0000 </r>
       <r>   38.2105    0.0000 </r>
       <r>   38.2105    0.0000 </r>
       <r>   38.5577    0.0000 </r>
       <r>   38.8474    0.0000 </r>
       <r>   38.8474    0.0000 </r>
       <r>   40.8943    0.0000 </r>
       <r>   42.2089    0.0000 </r>
       <r>   42.2089    0.0000 </r>
       <r>   42.3915    0.0000 </r>
       <r>   43.7541    0.0000 </r>
       <r>   43.7541    0.0000 </r>
       <r>   43.9385    0.0000 </r>
       <r>   43.9385    0.0000 </r>
       <r>   44.3103    0.0000 </r>
       <r>   44.3103    0.0000 </r>
       <r>   44.3566    0.0000 </r>
       <r>   44.4926    0.0000 </r>
       <r>   44.4926    0.0000 </r>
       <r>   44.7977    0.0000 </r>
       <r>   45.3264    0.0000 </r>
       <r>   45.3264    0.0000 </r>
       <r>   45.6092    0.0000 </r>
       <r>   45.6092    0.0000 </r>
       <r>   46.0655    0.0000 </r>
       <r>   46.5987    0.0000 </r>
       <r>   46.8263    0.0000 </r>
       <r>   47.8871    0.0000 </r>
       <r>   47.9682    0.0000 </r>
       <r>   48.7262    0.0000 </r>
       <r>   48.7262    0.0000 </r>
       <r>   48.9385    0.0000 </r>
       <r>   49.0206    0.0000 </r>
       <r>   49.0207    0.0000 </r>
       <r>   49.1895    0.0000 </r>
       <r>   49.3789    0.0000 </r>
       <r>   49.5076    0.0000 </r>
       <r>   49.5077    0.0000 </r>
       <r>   49.7124    0.0000 </r>
       <r>   49.7124    0.0000 </r>
       <r>   50.1370    0.0000 </r>
       <r>   50.3457    0.0000 </r>
       <r>   50.3458    0.0000 </r>
       <r>   50.5718    0.0000 </r>
       <r>   50.6150    0.0000 </r>
       <r>   50.6150    0.0000 </r>
       <r>   51.5785    0.0000 </r>
       <r>   51.5785    0.0000 </r>
       <r>   51.7184    0.0000 </r>
       <r>   52.0203    0.0000 </r>
       <r>   52.4951    0.0000 </r>
      </set>
      <set comment="kpoint 2">
       <r>  -18.5132    1.0000 </r>
       <r>  -14.7809    1.0000 </r>
       <r>  -14.6912    1.0000 </r>
       <r>  -12.3384    1.0000 </r>
       <r>  -12.2008    1.0000 </r>
       <r>  -11.0961    1.0000 </r>
       <r>   -9.7531    1.0000 </r>
       <r>   -7.3040    1.0000 </r>
       <r>   -7.1822    1.0000 </r>
       <r>   -5.0944    1.0000 </r>
       <r>   -4.9934    1.0000 </r>
       <r>   -3.2737    1.0000 </r>
       <r>   -3.1697    1.0000 </r>
       <r>   -2.6092    1.0000 </r>
       <r>   -2.5354    1.0000 </r>
       <r>   -0.8361    0.0000 </r>
       <r>    1.1605    0.0000 </r>
       <r>    1.4116    0.0000 </r>
       <r>    1.9153    0.0000 </r>
       <r>    1.9734    0.0000 </r>
       <r>    4.5728    0.0000 </r>
       <r>    5.9692    0.0000 </r>
       <r>    6.3866    0.0000 </r>
       <r>    6.4781    0.0000 </r>
       <r>    7.6627    0.0000 </r>
       <r>    8.0377    0.0000 </r>
       <r>    8.2336    0.0000 </r>
       <r>    8.2352    0.0000 </r>
       <r>    8.6808    0.0000 </r>
       <r>    8.7555    0.0000 </r>
       <r>    9.8480    0.0000 </r>
       <r>    9.8619    0.0000 </r>
       <r>    9.9124    0.0000 </r>
       <r>   10.3759    0.0000 </r>
       <r>   10.3995    0.0000 </r>
       <r>   10.4193    0.0000 </r>
       <r>   10.9077    0.0000 </r>
       <r>   11.4137    0.0000 </r>
       <r>   11.6687    0.0000 </r>
       <r>   12.0448    0.0000 </r>
       <r>   12.1516    0.0000 </r>
       <r>   12.3345    0.0000 </r>
       <r>   12.5608    0.0000 </r>
       <r>   12.8381    0.0000 </r>
       <r>   13.0972    0.0000 </r>
       <r>   13.6279    0.0000 </r>
       <r>   13.8001    0.0000 </r>
       <r>   14.2603    0.0000 </r>
       <r>   15.5623    0.0000 </r>
       <r>   15.6614    0.0000 </r>
       <r>   15.7181    0.0000 </r>
       <r>   16.2792    0.0000 </r>
       <r>   18.0211    0.0000 </r>
       <r>   18.0716    0.0000 </r>
       <r>   18.6452    0.0000 </r>
       <r>   18.9834    0.0000 </r>
       <r>   18.9928    0.0000 </r>
       <r>   19.3961    0.0000 </r>
       <r>   19.4430    0.0000 </r>
       <r>   19.8594    0.0000 </r>
       <r>   19.9227    0.0000 </r>
       <r>   19.9355    0.0000 </r>
       <r>   20.0222    0.0000 </r>
       <r>   20.0695    0.0000 </r>
       <r>   20.4469    0.0000 </r>
       <r>   20.9480    0.0000 </r>
       <r>   21.1306    0.0000 </r>
       <r>   21.1701    0.0000 </r>
       <r>   22.3006    0.0000 </r>
       <r>   22.5129    0.0000 </r>
       <r>   23.0923    0.0000 </r>
       <r>   23.5592    0.0000 </r>
       <r>   23.5744    0.0000 </r>
       <r>   23.6015    0.0000 </r>
       <r>   23.8165    0.0000 </r>
       <r>   24.0248    0.0000 </r>
       <r>   24.2674    0.0000 </r>
       <r>   24.5217    0.0000 </r>
       <r>   24.8306    0.0000 </r>
       <r>   24.9676    0.0000 </r>
       <r>   25.0475    0.0000 </r>
       <r>   25.5521    0.0000 </r>
       <r>   25.6964    0.0000 </r>
       <r>   25.7980    0.0000 </r>
       <r>   25.9189    0.0000 </r>
       <r>   26.1275    0.0000 </r>
       <r>   26.3973    0.0000 </r>
       <r>   26.9094    0.0000 </r>
       <r>   26.9234    0.0000 </r>
       <r>   27.0815    0.0000 </r>
       <r>   27.0849    0.0000 </r>
       <r>   27.5813    0.0000 </r>
       <r>   27.8918    0.0000 </r>
       <r>   28.1065    0.0000 </r>
       <r>   28.6632    0.0000 </r>
       <r>   28.9184    0.0000 </r>
       <r>   29.0466    0.0000 </r>
       <r>   29.1763    0.0000 </r>
       <r>   29.2646    0.0000 </r>
       <r>   29.6366    0.0000 </r>
       <r>   29.6478    0.0000 </r>
       <r>   30.1213    0.0000 </r>
       <r>   30.1818    0.0000 </r>
       <r>   30.7678    0.0000 </r>
       <r>   31.1259    0.0000 </r>
       <r>   31.8749    0.0000 </r>
       <r>   31.9108    0.0000 </r>
       <r>   32.0148    0.0000 </r>
       <r>   32.0886    0.0000 </r>
       <r>   32.5461    0.0000 </r>
       <r>   32.6542    0.0000 </r>
       <r>   32.9444    0.0000 </r>
       <r>   33.0816    0.0000 </r>
       <r>   33.3384    0.0000 </r>
       <r>   33.4640    0.0000 </r>
       <r>   33.5848    0.0000 </r>
       <r>   33.6087    0.0000 </r>
       <r>   33.8445    0.0000 </r>
       <r>   34.0075    0.0000 </r>
       <r>   34.0686    0.0000 </r>
       <r>   34.1281    0.0000 </r>
       <r>   34.2291    0.0000 </r>
       <r>   35.1281    0.0000 </r>
       <r>   35.9146    0.0000 </r>
       <r>   35.9610    0.0000 </r>
       <r>   35.9882    0.0000 </r>
       <r>   36.2332    0.0000 </r>
       <r>   36.3840    0.0000 </r>
       <r>   36.5942    0.0000 </r>
       <r>   36.7596    0.0000 </r>
       <r>   36.8647    0.0000 </r>
       <r>   37.0219    0.0000 </r>
       <r>   37.1188    0.0000 </r>
       <r>   37.2090    0.0000 </r>
       <r>   37.4568    0.0000 </r>
       <r>   37.5348    0.0000 </r>
       <r>   37.8830    0.0000 </r>
       <r>   37.9740    0.0000 </r>
       <r>   38.0606    0.0000 </r>
       <r>   38.1707    0.0000 </r>
       <r>   38.3342    0.0000 </r>
       <r>   38.4488    0.0000 </r>
       <r>   38.9582    0.0000 </r>
       <r>   39.0151    0.0000 </r>
       <r>   39.1512    0.0000 </r>
       <r>   39.7411    0.0000 </r>
       <r>   39.8913    0.0000 </r>
       <r>   40.4036    0.0000 </r>
       <r>   41.6591    0.0000 </r>
       <r>   41.7874    0.0000 </r>
       <r>   42.0183    0.0000 </r>
       <r>   43.0529    0.0000 </r>
       <r>   43.1371    0.0000 </r>
       <r>   43.1853    0.0000 </r>
       <r>   43.3711    0.0000 </r>
       <r>   43.6680    0.0000 </r>
       <r>   43.9100    0.0000 </r>
       <r>   44.3356    0.0000 </r>
       <r>   44.4581    0.0000 </r>
       <r>   44.7940    0.0000 </r>
       <r>   44.8728    0.0000 </r>
       <r>   45.0487    0.0000 </r>
       <r>   45.2335    0.0000 </r>
       <r>   46.1032    0.0000 </r>
       <r>   46.2269    0.0000 </r>
       <r>   46.3651    0.0000 </r>
       <r>   46.4216    0.0000 </r>
       <r>   46.8963    0.0000 </r>
       <r>   47.1013    0.0000 </r>
       <r>   48.0085    0.0000 </r>
       <r>   48.2044    0.0000 </r>
       <r>   48.2685    0.0000 </r>
       <r>   48.4867    0.0000 </r>
       <r>   48.4867    0.0000 </r>
       <r>   48.6077    0.0000 </r>
       <r>   49.4193    0.0000 </r>
       <r>   49.4674    0.0000 </r>
       <r>   49.4813    0.0000 </r>
       <r>   49.4971    0.0000 </r>
       <r>   50.1891    0.0000 </r>
       <r>   50.2489    0.0000 </r>
       <r>   50.3481    0.0000 </r>
       <r>   50.4411    0.0000 </r>
       <r>   50.7495    0.0000 </r>
       <r>   50.7703    0.0000 </r>
       <r>   51.0252    0.0000 </r>
       <r>   51.0836    0.0000 </r>
       <r>   51.2201    0.0000 </r>
       <r>   51.2372    0.0000 </r>
       <r>   51.3233    0.0000 </r>
       <r>   52.0790    0.0000 </r>
       <r>   52.1310    0.0000 </r>
      </set>
      <set comment="kpoint 3">
       <r>  -18.4341    1.0000 </r>
       <r>  -15.1059    1.0000 </r>
       <r>  -14.7954    1.0000 </r>
       <r>  -12.4549    1.0000 </r>
       <r>  -11.9317    1.0000 </r>
       <r>  -10.7149    1.0000 </r>
       <r>   -9.3237    1.0000 </r>
       <r>   -7.3645    1.0000 </r>
       <r>   -7.1816    1.0000 </r>
       <r>   -5.4404    1.0000 </r>
       <r>   -5.0296    1.0000 </r>
       <r>   -3.6157    1.0000 </r>
       <r>   -3.2240    1.0000 </r>
       <r>   -3.0165    1.0000 </r>
       <r>   -2.7272    1.0000 </r>
       <r>   -1.1839    0.0000 </r>
       <r>    1.3238    0.0000 </r>
       <r>    1.8881    0.0000 </r>
       <r>    2.1281    0.0000 </r>
       <r>    2.4358    0.0000 </r>
       <r>    4.7294    0.0000 </r>
       <r>    6.1240    0.0000 </r>
       <r>    6.5551    0.0000 </r>
       <r>    6.9440    0.0000 </r>
       <r>    6.9598    0.0000 </r>
       <r>    7.9146    0.0000 </r>
       <r>    8.1729    0.0000 </r>
       <r>    8.2020    0.0000 </r>
       <r>    8.5790    0.0000 </r>
       <r>    8.7436    0.0000 </r>
       <r>    9.0740    0.0000 </r>
       <r>    9.9077    0.0000 </r>
       <r>    9.9160    0.0000 </r>
       <r>   10.4672    0.0000 </r>
       <r>   10.5716    0.0000 </r>
       <r>   10.5788    0.0000 </r>
       <r>   10.9114    0.0000 </r>
       <r>   11.5894    0.0000 </r>
       <r>   11.8802    0.0000 </r>
       <r>   12.1077    0.0000 </r>
       <r>   12.1424    0.0000 </r>
       <r>   12.3419    0.0000 </r>
       <r>   12.6423    0.0000 </r>
       <r>   13.0075    0.0000 </r>
       <r>   13.4775    0.0000 </r>
       <r>   14.1695    0.0000 </r>
       <r>   14.3858    0.0000 </r>
       <r>   15.1545    0.0000 </r>
       <r>   15.2765    0.0000 </r>
       <r>   15.3889    0.0000 </r>
       <r>   15.7997    0.0000 </r>
       <r>   16.1743    0.0000 </r>
       <r>   17.3574    0.0000 </r>
       <r>   17.5941    0.0000 </r>
       <r>   17.8616    0.0000 </r>
       <r>   19.0273    0.0000 </r>
       <r>   19.0831    0.0000 </r>
       <r>   19.1612    0.0000 </r>
       <r>   19.5522    0.0000 </r>
       <r>   19.8344    0.0000 </r>
       <r>   19.9231    0.0000 </r>
       <r>   20.1859    0.0000 </r>
       <r>   20.2006    0.0000 </r>
       <r>   20.2953    0.0000 </r>
       <r>   20.4610    0.0000 </r>
       <r>   20.6854    0.0000 </r>
       <r>   20.9076    0.0000 </r>
       <r>   20.9177    0.0000 </r>
       <r>   20.9658    0.0000 </r>
       <r>   21.2974    0.0000 </r>
       <r>   23.1084    0.0000 </r>
       <r>   23.7417    0.0000 </r>
       <r>   23.7808    0.0000 </r>
       <r>   23.9368    0.0000 </r>
       <r>   24.0480    0.0000 </r>
       <r>   24.1155    0.0000 </r>
       <r>   24.2288    0.0000 </r>
       <r>   24.2478    0.0000 </r>
       <r>   24.4571    0.0000 </r>
       <r>   24.5114    0.0000 </r>
       <r>   24.6934    0.0000 </r>
       <r>   24.7126    0.0000 </r>
       <r>   25.1039    0.0000 </r>
       <r>   25.1717    0.0000 </r>
       <r>   25.2293    0.0000 </r>
       <r>   26.4776    0.0000 </r>
       <r>   26.6052    0.0000 </r>
       <r>   26.9337    0.0000 </r>
       <r>   27.0663    0.0000 </r>
       <r>   27.5561    0.0000 </r>
       <r>   27.7010    0.0000 </r>
       <r>   28.0595    0.0000 </r>
       <r>   28.1032    0.0000 </r>
       <r>   28.1118    0.0000 </r>
       <r>   28.1885    0.0000 </r>
       <r>   29.1207    0.0000 </r>
       <r>   29.1320    0.0000 </r>
       <r>   29.6998    0.0000 </r>
       <r>   29.7331    0.0000 </r>
       <r>   29.7997    0.0000 </r>
       <r>   30.2525    0.0000 </r>
       <r>   30.3510    0.0000 </r>
       <r>   30.5885    0.0000 </r>
       <r>   30.9582    0.0000 </r>
       <r>   30.9705    0.0000 </r>
       <r>   31.5020    0.0000 </r>
       <r>   31.7567    0.0000 </r>
       <r>   31.9397    0.0000 </r>
       <r>   32.6385    0.0000 </r>
       <r>   32.7569    0.0000 </r>
       <r>   32.8169    0.0000 </r>
       <r>   32.8397    0.0000 </r>
       <r>   32.9283    0.0000 </r>
       <r>   33.0869    0.0000 </r>
       <r>   33.1632    0.0000 </r>
       <r>   33.2361    0.0000 </r>
       <r>   33.7486    0.0000 </r>
       <r>   33.7648    0.0000 </r>
       <r>   33.9660    0.0000 </r>
       <r>   34.0186    0.0000 </r>
       <r>   34.2044    0.0000 </r>
       <r>   34.6047    0.0000 </r>
       <r>   34.9498    0.0000 </r>
       <r>   35.2437    0.0000 </r>
       <r>   35.4874    0.0000 </r>
       <r>   36.2302    0.0000 </r>
       <r>   36.5183    0.0000 </r>
       <r>   36.7573    0.0000 </r>
       <r>   36.8777    0.0000 </r>
       <r>   37.0315    0.0000 </r>
       <r>   37.0646    0.0000 </r>
       <r>   37.4346    0.0000 </r>
       <r>   37.5842    0.0000 </r>
       <r>   37.9624    0.0000 </r>
       <r>   38.0094    0.0000 </r>
       <r>   38.1555    0.0000 </r>
       <r>   38.4170    0.0000 </r>
       <r>   38.8542    0.0000 </r>
       <r>   38.8811    0.0000 </r>
       <r>   39.1132    0.0000 </r>
       <r>   39.2447    0.0000 </r>
       <r>   39.8819    0.0000 </r>
       <r>   39.9875    0.0000 </r>
       <r>   40.0175    0.0000 </r>
       <r>   40.2079    0.0000 </r>
       <r>   40.3686    0.0000 </r>
       <r>   40.5672    0.0000 </r>
       <r>   40.9918    0.0000 </r>
       <r>   41.4309    0.0000 </r>
       <r>   41.5055    0.0000 </r>
       <r>   41.6760    0.0000 </r>
       <r>   41.6996    0.0000 </r>
       <r>   41.7220    0.0000 </r>
       <r>   41.9303    0.0000 </r>
       <r>   42.6752    0.0000 </r>
       <r>   42.7148    0.0000 </r>
       <r>   43.5865    0.0000 </r>
       <r>   43.8867    0.0000 </r>
       <r>   44.2380    0.0000 </r>
       <r>   44.5378    0.0000 </r>
       <r>   44.5403    0.0000 </r>
       <r>   44.7224    0.0000 </r>
       <r>   44.7919    0.0000 </r>
       <r>   45.3049    0.0000 </r>
       <r>   45.7839    0.0000 </r>
       <r>   46.2576    0.0000 </r>
       <r>   46.9417    0.0000 </r>
       <r>   47.1444    0.0000 </r>
       <r>   47.2395    0.0000 </r>
       <r>   47.3560    0.0000 </r>
       <r>   47.5831    0.0000 </r>
       <r>   47.7528    0.0000 </r>
       <r>   48.0740    0.0000 </r>
       <r>   48.1983    0.0000 </r>
       <r>   48.7077    0.0000 </r>
       <r>   48.8128    0.0000 </r>
       <r>   48.9407    0.0000 </r>
       <r>   49.0230    0.0000 </r>
       <r>   49.0710    0.0000 </r>
       <r>   49.1833    0.0000 </r>
       <r>   49.6233    0.0000 </r>
       <r>   50.0096    0.0000 </r>
       <r>   50.4447    0.0000 </r>
       <r>   50.7960    0.0000 </r>
       <r>   50.8175    0.0000 </r>
       <r>   51.0702    0.0000 </r>
       <r>   51.0973    0.0000 </r>
       <r>   51.2646    0.0000 </r>
       <r>   51.6052    0.0000 </r>
       <r>   51.7024    0.0000 </r>
       <r>   51.7616    0.0000 </r>
       <r>   51.7799    0.0000 </r>
      </set>
      <set comment="kpoint 4">
       <r>  -18.3111    1.0000 </r>
       <r>  -15.5025    1.0000 </r>
       <r>  -14.9178    1.0000 </r>
       <r>  -12.6026    1.0000 </r>
       <r>  -11.5471    1.0000 </r>
       <r>  -10.1724    1.0000 </r>
       <r>   -8.7139    1.0000 </r>
       <r>   -7.6782    1.0000 </r>
       <r>   -6.9823    1.0000 </r>
       <r>   -5.9473    1.0000 </r>
       <r>   -5.0207    1.0000 </r>
       <r>   -4.0930    1.0000 </r>
       <r>   -3.6340    1.0000 </r>
       <r>   -3.2941    1.0000 </r>
       <r>   -3.0028    1.0000 </r>
       <r>   -1.4707    0.0000 </r>
       <r>    1.5522    0.0000 </r>
       <r>    2.2445    0.0000 </r>
       <r>    2.3849    0.0000 </r>
       <r>    3.3190    0.0000 </r>
       <r>    4.9927    0.0000 </r>
       <r>    6.0211    0.0000 </r>
       <r>    6.3584    0.0000 </r>
       <r>    6.7511    0.0000 </r>
       <r>    7.6029    0.0000 </r>
       <r>    7.8092    0.0000 </r>
       <r>    7.9266    0.0000 </r>
       <r>    8.1647    0.0000 </r>
       <r>    8.2206    0.0000 </r>
       <r>    8.9264    0.0000 </r>
       <r>    9.3180    0.0000 </r>
       <r>    9.4674    0.0000 </r>
       <r>    9.4698    0.0000 </r>
       <r>   10.1391    0.0000 </r>
       <r>   10.1768    0.0000 </r>
       <r>   11.1044    0.0000 </r>
       <r>   11.3401    0.0000 </r>
       <r>   11.7682    0.0000 </r>
       <r>   11.8214    0.0000 </r>
       <r>   12.3380    0.0000 </r>
       <r>   12.3959    0.0000 </r>
       <r>   12.5104    0.0000 </r>
       <r>   13.2333    0.0000 </r>
       <r>   13.2608    0.0000 </r>
       <r>   14.2225    0.0000 </r>
       <r>   14.4784    0.0000 </r>
       <r>   14.8590    0.0000 </r>
       <r>   15.0380    0.0000 </r>
       <r>   15.3045    0.0000 </r>
       <r>   16.0072    0.0000 </r>
       <r>   16.0964    0.0000 </r>
       <r>   16.2607    0.0000 </r>
       <r>   16.4635    0.0000 </r>
       <r>   17.1509    0.0000 </r>
       <r>   17.2038    0.0000 </r>
       <r>   18.7148    0.0000 </r>
       <r>   18.8973    0.0000 </r>
       <r>   18.9961    0.0000 </r>
       <r>   19.1637    0.0000 </r>
       <r>   19.3560    0.0000 </r>
       <r>   19.6341    0.0000 </r>
       <r>   19.6521    0.0000 </r>
       <r>   19.8567    0.0000 </r>
       <r>   20.1793    0.0000 </r>
       <r>   20.2805    0.0000 </r>
       <r>   20.6624    0.0000 </r>
       <r>   20.7056    0.0000 </r>
       <r>   21.0592    0.0000 </r>
       <r>   21.0780    0.0000 </r>
       <r>   21.4988    0.0000 </r>
       <r>   21.9505    0.0000 </r>
       <r>   22.9605    0.0000 </r>
       <r>   23.2358    0.0000 </r>
       <r>   23.2529    0.0000 </r>
       <r>   23.3291    0.0000 </r>
       <r>   23.5515    0.0000 </r>
       <r>   24.0815    0.0000 </r>
       <r>   24.5135    0.0000 </r>
       <r>   24.5438    0.0000 </r>
       <r>   24.5896    0.0000 </r>
       <r>   24.7054    0.0000 </r>
       <r>   25.0584    0.0000 </r>
       <r>   25.2804    0.0000 </r>
       <r>   25.5470    0.0000 </r>
       <r>   25.6479    0.0000 </r>
       <r>   25.6602    0.0000 </r>
       <r>   26.4057    0.0000 </r>
       <r>   26.7615    0.0000 </r>
       <r>   27.3091    0.0000 </r>
       <r>   28.0925    0.0000 </r>
       <r>   28.1525    0.0000 </r>
       <r>   28.1598    0.0000 </r>
       <r>   28.1715    0.0000 </r>
       <r>   28.3197    0.0000 </r>
       <r>   28.6563    0.0000 </r>
       <r>   28.6892    0.0000 </r>
       <r>   29.1922    0.0000 </r>
       <r>   29.5560    0.0000 </r>
       <r>   29.8650    0.0000 </r>
       <r>   29.9607    0.0000 </r>
       <r>   30.0805    0.0000 </r>
       <r>   30.1473    0.0000 </r>
       <r>   30.6552    0.0000 </r>
       <r>   30.9060    0.0000 </r>
       <r>   31.0702    0.0000 </r>
       <r>   31.7272    0.0000 </r>
       <r>   31.9407    0.0000 </r>
       <r>   31.9744    0.0000 </r>
       <r>   32.2557    0.0000 </r>
       <r>   32.4165    0.0000 </r>
       <r>   32.5241    0.0000 </r>
       <r>   32.5549    0.0000 </r>
       <r>   33.0529    0.0000 </r>
       <r>   33.4802    0.0000 </r>
       <r>   33.5835    0.0000 </r>
       <r>   33.8017    0.0000 </r>
       <r>   33.9561    0.0000 </r>
       <r>   34.1088    0.0000 </r>
       <r>   34.2691    0.0000 </r>
       <r>   34.6196    0.0000 </r>
       <r>   34.9734    0.0000 </r>
       <r>   35.1859    0.0000 </r>
       <r>   35.7166    0.0000 </r>
       <r>   35.7976    0.0000 </r>
       <r>   35.8135    0.0000 </r>
       <r>   36.4358    0.0000 </r>
       <r>   36.7285    0.0000 </r>
       <r>   36.8859    0.0000 </r>
       <r>   37.2446    0.0000 </r>
       <r>   37.2882    0.0000 </r>
       <r>   37.7699    0.0000 </r>
       <r>   37.8238    0.0000 </r>
       <r>   37.9895    0.0000 </r>
       <r>   38.6388    0.0000 </r>
       <r>   39.0195    0.0000 </r>
       <r>   39.0640    0.0000 </r>
       <r>   39.1075    0.0000 </r>
       <r>   39.2829    0.0000 </r>
       <r>   39.3790    0.0000 </r>
       <r>   39.5941    0.0000 </r>
       <r>   39.6123    0.0000 </r>
       <r>   39.7353    0.0000 </r>
       <r>   39.9602    0.0000 </r>
       <r>   40.1138    0.0000 </r>
       <r>   40.1251    0.0000 </r>
       <r>   40.2040    0.0000 </r>
       <r>   40.9925    0.0000 </r>
       <r>   41.3002    0.0000 </r>
       <r>   41.6598    0.0000 </r>
       <r>   41.7458    0.0000 </r>
       <r>   41.8535    0.0000 </r>
       <r>   41.9176    0.0000 </r>
       <r>   42.3695    0.0000 </r>
       <r>   42.4999    0.0000 </r>
       <r>   42.6064    0.0000 </r>
       <r>   42.8776    0.0000 </r>
       <r>   43.1819    0.0000 </r>
       <r>   43.5598    0.0000 </r>
       <r>   43.6217    0.0000 </r>
       <r>   43.9314    0.0000 </r>
       <r>   44.3277    0.0000 </r>
       <r>   44.6186    0.0000 </r>
       <r>   44.9663    0.0000 </r>
       <r>   45.2003    0.0000 </r>
       <r>   45.3725    0.0000 </r>
       <r>   45.4747    0.0000 </r>
       <r>   45.6654    0.0000 </r>
       <r>   46.2222    0.0000 </r>
       <r>   46.3786    0.0000 </r>
       <r>   46.4762    0.0000 </r>
       <r>   46.8449    0.0000 </r>
       <r>   46.8456    0.0000 </r>
       <r>   46.9597    0.0000 </r>
       <r>   47.2318    0.0000 </r>
       <r>   47.9891    0.0000 </r>
       <r>   48.4743    0.0000 </r>
       <r>   48.4990    0.0000 </r>
       <r>   48.5620    0.0000 </r>
       <r>   48.8907    0.0000 </r>
       <r>   49.2050    0.0000 </r>
       <r>   49.4216    0.0000 </r>
       <r>   49.4744    0.0000 </r>
       <r>   49.9091    0.0000 </r>
       <r>   50.0110    0.0000 </r>
       <r>   50.0163    0.0000 </r>
       <r>   50.0237    0.0000 </r>
       <r>   50.3216    0.0000 </r>
       <r>   50.4912    0.0000 </r>
       <r>   50.7075    0.0000 </r>
       <r>   50.9413    0.0000 </r>
       <r>   51.1774    0.0000 </r>
       <r>   51.4010    0.0000 </r>
      </set>
      <set comment="kpoint 5">
       <r>  -18.1625    1.0000 </r>
       <r>  -15.8797    1.0000 </r>
       <r>  -15.0239    1.0000 </r>
       <r>  -12.7316    1.0000 </r>
       <r>  -11.1092    1.0000 </r>
       <r>   -9.5491    1.0000 </r>
       <r>   -8.0852    1.0000 </r>
       <r>   -8.0108    1.0000 </r>
       <r>   -6.7177    1.0000 </r>
       <r>   -6.5247    1.0000 </r>
       <r>   -4.9417    1.0000 </r>
       <r>   -4.6103    1.0000 </r>
       <r>   -4.3954    1.0000 </r>
       <r>   -3.3602    1.0000 </r>
       <r>   -3.3072    1.0000 </r>
       <r>   -1.6689    0.0000 </r>
       <r>    1.7888    0.0000 </r>
       <r>    2.5685    0.0000 </r>
       <r>    2.7430    0.0000 </r>
       <r>    4.2903    0.0000 </r>
       <r>    5.1738    0.0000 </r>
       <r>    5.3723    0.0000 </r>
       <r>    6.6300    0.0000 </r>
       <r>    6.9218    0.0000 </r>
       <r>    7.4317    0.0000 </r>
       <r>    7.5747    0.0000 </r>
       <r>    7.6596    0.0000 </r>
       <r>    8.1261    0.0000 </r>
       <r>    8.5825    0.0000 </r>
       <r>    8.5992    0.0000 </r>
       <r>    9.1056    0.0000 </r>
       <r>    9.1461    0.0000 </r>
       <r>    9.8097    0.0000 </r>
       <r>    9.9117    0.0000 </r>
       <r>   10.3942    0.0000 </r>
       <r>   11.3233    0.0000 </r>
       <r>   11.5760    0.0000 </r>
       <r>   12.0495    0.0000 </r>
       <r>   12.1462    0.0000 </r>
       <r>   12.1731    0.0000 </r>
       <r>   12.2810    0.0000 </r>
       <r>   13.0014    0.0000 </r>
       <r>   13.5155    0.0000 </r>
       <r>   14.2023    0.0000 </r>
       <r>   14.2919    0.0000 </r>
       <r>   14.6098    0.0000 </r>
       <r>   14.9235    0.0000 </r>
       <r>   15.3296    0.0000 </r>
       <r>   15.4034    0.0000 </r>
       <r>   15.7518    0.0000 </r>
       <r>   16.3012    0.0000 </r>
       <r>   16.5796    0.0000 </r>
       <r>   16.6247    0.0000 </r>
       <r>   17.1348    0.0000 </r>
       <r>   17.2323    0.0000 </r>
       <r>   17.6843    0.0000 </r>
       <r>   17.8094    0.0000 </r>
       <r>   18.4659    0.0000 </r>
       <r>   18.6258    0.0000 </r>
       <r>   18.8087    0.0000 </r>
       <r>   19.7113    0.0000 </r>
       <r>   19.9249    0.0000 </r>
       <r>   20.0480    0.0000 </r>
       <r>   20.0842    0.0000 </r>
       <r>   20.2596    0.0000 </r>
       <r>   20.3208    0.0000 </r>
       <r>   20.6361    0.0000 </r>
       <r>   20.9062    0.0000 </r>
       <r>   21.0103    0.0000 </r>
       <r>   21.2642    0.0000 </r>
       <r>   21.6925    0.0000 </r>
       <r>   21.7278    0.0000 </r>
       <r>   22.1547    0.0000 </r>
       <r>   22.4047    0.0000 </r>
       <r>   23.2560    0.0000 </r>
       <r>   23.2649    0.0000 </r>
       <r>   23.8377    0.0000 </r>
       <r>   24.1045    0.0000 </r>
       <r>   24.1943    0.0000 </r>
       <r>   24.8458    0.0000 </r>
       <r>   24.8595    0.0000 </r>
       <r>   24.9236    0.0000 </r>
       <r>   25.7790    0.0000 </r>
       <r>   26.0006    0.0000 </r>
       <r>   26.7166    0.0000 </r>
       <r>   26.7677    0.0000 </r>
       <r>   26.8194    0.0000 </r>
       <r>   26.9807    0.0000 </r>
       <r>   27.2670    0.0000 </r>
       <r>   27.2937    0.0000 </r>
       <r>   27.3826    0.0000 </r>
       <r>   27.6980    0.0000 </r>
       <r>   28.1237    0.0000 </r>
       <r>   28.1329    0.0000 </r>
       <r>   28.5291    0.0000 </r>
       <r>   28.6794    0.0000 </r>
       <r>   29.2568    0.0000 </r>
       <r>   29.4999    0.0000 </r>
       <r>   29.8863    0.0000 </r>
       <r>   30.1178    0.0000 </r>
       <r>   30.2741    0.0000 </r>
       <r>   30.5257    0.0000 </r>
       <r>   30.8992    0.0000 </r>
       <r>   30.9636    0.0000 </r>
       <r>   31.0432    0.0000 </r>
       <r>   31.0750    0.0000 </r>
       <r>   31.7420    0.0000 </r>
       <r>   32.0779    0.0000 </r>
       <r>   32.1846    0.0000 </r>
       <r>   32.2946    0.0000 </r>
       <r>   32.4570    0.0000 </r>
       <r>   32.6305    0.0000 </r>
       <r>   33.0404    0.0000 </r>
       <r>   33.0521    0.0000 </r>
       <r>   33.9218    0.0000 </r>
       <r>   34.7892    0.0000 </r>
       <r>   34.8274    0.0000 </r>
       <r>   35.0880    0.0000 </r>
       <r>   35.2388    0.0000 </r>
       <r>   35.4682    0.0000 </r>
       <r>   35.5684    0.0000 </r>
       <r>   35.6783    0.0000 </r>
       <r>   36.0039    0.0000 </r>
       <r>   36.1773    0.0000 </r>
       <r>   36.7865    0.0000 </r>
       <r>   36.9575    0.0000 </r>
       <r>   37.0661    0.0000 </r>
       <r>   37.1216    0.0000 </r>
       <r>   37.7787    0.0000 </r>
       <r>   37.8099    0.0000 </r>
       <r>   38.0417    0.0000 </r>
       <r>   38.2040    0.0000 </r>
       <r>   38.5480    0.0000 </r>
       <r>   38.7291    0.0000 </r>
       <r>   38.8050    0.0000 </r>
       <r>   38.9357    0.0000 </r>
       <r>   39.0387    0.0000 </r>
       <r>   39.1935    0.0000 </r>
       <r>   39.6691    0.0000 </r>
       <r>   40.0621    0.0000 </r>
       <r>   40.3005    0.0000 </r>
       <r>   40.3501    0.0000 </r>
       <r>   40.6077    0.0000 </r>
       <r>   40.6511    0.0000 </r>
       <r>   40.7527    0.0000 </r>
       <r>   40.8179    0.0000 </r>
       <r>   40.9890    0.0000 </r>
       <r>   41.4842    0.0000 </r>
       <r>   41.4976    0.0000 </r>
       <r>   41.5840    0.0000 </r>
       <r>   41.8153    0.0000 </r>
       <r>   41.8484    0.0000 </r>
       <r>   41.9819    0.0000 </r>
       <r>   42.2135    0.0000 </r>
       <r>   42.2646    0.0000 </r>
       <r>   43.0424    0.0000 </r>
       <r>   43.0575    0.0000 </r>
       <r>   43.6263    0.0000 </r>
       <r>   44.0351    0.0000 </r>
       <r>   44.8254    0.0000 </r>
       <r>   44.9233    0.0000 </r>
       <r>   44.9617    0.0000 </r>
       <r>   45.0181    0.0000 </r>
       <r>   45.0418    0.0000 </r>
       <r>   45.1302    0.0000 </r>
       <r>   45.1441    0.0000 </r>
       <r>   45.3294    0.0000 </r>
       <r>   45.3355    0.0000 </r>
       <r>   45.3626    0.0000 </r>
       <r>   45.8616    0.0000 </r>
       <r>   45.8627    0.0000 </r>
       <r>   45.9826    0.0000 </r>
       <r>   46.0779    0.0000 </r>
       <r>   47.1157    0.0000 </r>
       <r>   47.1433    0.0000 </r>
       <r>   47.1649    0.0000 </r>
       <r>   47.2506    0.0000 </r>
       <r>   47.3324    0.0000 </r>
       <r>   47.6477    0.0000 </r>
       <r>   48.5672    0.0000 </r>
       <r>   48.6689    0.0000 </r>
       <r>   48.7151    0.0000 </r>
       <r>   48.7602    0.0000 </r>
       <r>   48.8159    0.0000 </r>
       <r>   49.7005    0.0000 </r>
       <r>   49.7843    0.0000 </r>
       <r>   50.3424    0.0000 </r>
       <r>   50.3820    0.0000 </r>
       <r>   50.7541    0.0000 </r>
       <r>   50.8006    0.0000 </r>
       <r>   50.8601    0.0000 </r>
       <r>   51.1444    0.0000 </r>
      </set>
      <set comment="kpoint 6">
       <r>  -18.0272    1.0000 </r>
       <r>  -16.1629    1.0000 </r>
       <r>  -15.0939    1.0000 </r>
       <r>  -12.8160    1.0000 </r>
       <r>  -10.7080    1.0000 </r>
       <r>   -8.9042    1.0000 </r>
       <r>   -8.4816    1.0000 </r>
       <r>   -7.5745    1.0000 </r>
       <r>   -6.7929    1.0000 </r>
       <r>   -6.4253    1.0000 </r>
       <r>   -5.2343    1.0000 </r>
       <r>   -5.0733    1.0000 </r>
       <r>   -4.8255    1.0000 </r>
       <r>   -3.5685    1.0000 </r>
       <r>   -3.4063    1.0000 </r>
       <r>   -1.7847    0.0000 </r>
       <r>    1.9692    0.0000 </r>
       <r>    2.8120    0.0000 </r>
       <r>    3.2016    0.0000 </r>
       <r>    4.4184    0.0000 </r>
       <r>    5.2007    0.0000 </r>
       <r>    5.8937    0.0000 </r>
       <r>    6.7443    0.0000 </r>
       <r>    6.7975    0.0000 </r>
       <r>    7.1991    0.0000 </r>
       <r>    7.4335    0.0000 </r>
       <r>    7.5840    0.0000 </r>
       <r>    7.7340    0.0000 </r>
       <r>    8.0166    0.0000 </r>
       <r>    8.6500    0.0000 </r>
       <r>    8.8572    0.0000 </r>
       <r>    9.5160    0.0000 </r>
       <r>    9.5495    0.0000 </r>
       <r>   10.6449    0.0000 </r>
       <r>   11.2326    0.0000 </r>
       <r>   11.2992    0.0000 </r>
       <r>   11.6977    0.0000 </r>
       <r>   11.9222    0.0000 </r>
       <r>   12.1340    0.0000 </r>
       <r>   12.1610    0.0000 </r>
       <r>   12.5332    0.0000 </r>
       <r>   13.4739    0.0000 </r>
       <r>   13.8226    0.0000 </r>
       <r>   13.9784    0.0000 </r>
       <r>   14.4402    0.0000 </r>
       <r>   14.5157    0.0000 </r>
       <r>   14.5333    0.0000 </r>
       <r>   14.8859    0.0000 </r>
       <r>   16.0731    0.0000 </r>
       <r>   16.2936    0.0000 </r>
       <r>   16.3614    0.0000 </r>
       <r>   16.4705    0.0000 </r>
       <r>   16.8056    0.0000 </r>
       <r>   17.2299    0.0000 </r>
       <r>   17.4944    0.0000 </r>
       <r>   17.5993    0.0000 </r>
       <r>   17.8535    0.0000 </r>
       <r>   18.0816    0.0000 </r>
       <r>   18.1855    0.0000 </r>
       <r>   18.3931    0.0000 </r>
       <r>   19.2319    0.0000 </r>
       <r>   19.3262    0.0000 </r>
       <r>   19.9117    0.0000 </r>
       <r>   20.0815    0.0000 </r>
       <r>   20.1586    0.0000 </r>
       <r>   20.3208    0.0000 </r>
       <r>   20.3607    0.0000 </r>
       <r>   20.5816    0.0000 </r>
       <r>   20.6691    0.0000 </r>
       <r>   21.2355    0.0000 </r>
       <r>   21.4672    0.0000 </r>
       <r>   21.5752    0.0000 </r>
       <r>   21.6759    0.0000 </r>
       <r>   21.7734    0.0000 </r>
       <r>   22.9441    0.0000 </r>
       <r>   23.6443    0.0000 </r>
       <r>   23.8383    0.0000 </r>
       <r>   23.8481    0.0000 </r>
       <r>   24.0304    0.0000 </r>
       <r>   24.4372    0.0000 </r>
       <r>   24.6008    0.0000 </r>
       <r>   25.2913    0.0000 </r>
       <r>   25.6794    0.0000 </r>
       <r>   26.4236    0.0000 </r>
       <r>   26.4270    0.0000 </r>
       <r>   26.4999    0.0000 </r>
       <r>   27.1312    0.0000 </r>
       <r>   27.3482    0.0000 </r>
       <r>   27.4076    0.0000 </r>
       <r>   27.4819    0.0000 </r>
       <r>   27.6466    0.0000 </r>
       <r>   27.9119    0.0000 </r>
       <r>   28.0444    0.0000 </r>
       <r>   28.0530    0.0000 </r>
       <r>   29.0204    0.0000 </r>
       <r>   29.1305    0.0000 </r>
       <r>   29.5580    0.0000 </r>
       <r>   29.6028    0.0000 </r>
       <r>   29.6518    0.0000 </r>
       <r>   29.8219    0.0000 </r>
       <r>   30.2210    0.0000 </r>
       <r>   30.3000    0.0000 </r>
       <r>   30.3297    0.0000 </r>
       <r>   30.6964    0.0000 </r>
       <r>   31.0138    0.0000 </r>
       <r>   31.2065    0.0000 </r>
       <r>   31.3579    0.0000 </r>
       <r>   31.6073    0.0000 </r>
       <r>   31.7101    0.0000 </r>
       <r>   32.2821    0.0000 </r>
       <r>   32.3508    0.0000 </r>
       <r>   33.6159    0.0000 </r>
       <r>   33.7224    0.0000 </r>
       <r>   34.1765    0.0000 </r>
       <r>   34.3867    0.0000 </r>
       <r>   34.5317    0.0000 </r>
       <r>   34.5825    0.0000 </r>
       <r>   34.6123    0.0000 </r>
       <r>   34.9067    0.0000 </r>
       <r>   35.2682    0.0000 </r>
       <r>   35.5431    0.0000 </r>
       <r>   36.3325    0.0000 </r>
       <r>   37.4780    0.0000 </r>
       <r>   37.5085    0.0000 </r>
       <r>   37.6507    0.0000 </r>
       <r>   37.6847    0.0000 </r>
       <r>   37.7428    0.0000 </r>
       <r>   37.8106    0.0000 </r>
       <r>   37.9395    0.0000 </r>
       <r>   38.4678    0.0000 </r>
       <r>   38.4988    0.0000 </r>
       <r>   38.7099    0.0000 </r>
       <r>   38.9982    0.0000 </r>
       <r>   39.0633    0.0000 </r>
       <r>   39.2265    0.0000 </r>
       <r>   39.3989    0.0000 </r>
       <r>   39.4787    0.0000 </r>
       <r>   39.6422    0.0000 </r>
       <r>   39.6754    0.0000 </r>
       <r>   39.9261    0.0000 </r>
       <r>   39.9653    0.0000 </r>
       <r>   40.0463    0.0000 </r>
       <r>   40.4955    0.0000 </r>
       <r>   40.5139    0.0000 </r>
       <r>   40.9819    0.0000 </r>
       <r>   41.0215    0.0000 </r>
       <r>   41.2677    0.0000 </r>
       <r>   41.3247    0.0000 </r>
       <r>   41.7321    0.0000 </r>
       <r>   41.8725    0.0000 </r>
       <r>   41.9732    0.0000 </r>
       <r>   42.0752    0.0000 </r>
       <r>   42.1973    0.0000 </r>
       <r>   42.4914    0.0000 </r>
       <r>   42.4994    0.0000 </r>
       <r>   43.0482    0.0000 </r>
       <r>   43.1188    0.0000 </r>
       <r>   43.1882    0.0000 </r>
       <r>   43.2596    0.0000 </r>
       <r>   43.3000    0.0000 </r>
       <r>   43.3578    0.0000 </r>
       <r>   43.5294    0.0000 </r>
       <r>   43.6799    0.0000 </r>
       <r>   44.6417    0.0000 </r>
       <r>   44.6720    0.0000 </r>
       <r>   44.8853    0.0000 </r>
       <r>   45.4007    0.0000 </r>
       <r>   45.4470    0.0000 </r>
       <r>   45.6726    0.0000 </r>
       <r>   45.9617    0.0000 </r>
       <r>   46.1494    0.0000 </r>
       <r>   46.1588    0.0000 </r>
       <r>   46.2254    0.0000 </r>
       <r>   46.7239    0.0000 </r>
       <r>   46.9219    0.0000 </r>
       <r>   46.9485    0.0000 </r>
       <r>   46.9672    0.0000 </r>
       <r>   47.1489    0.0000 </r>
       <r>   47.4482    0.0000 </r>
       <r>   47.8922    0.0000 </r>
       <r>   48.0926    0.0000 </r>
       <r>   48.1597    0.0000 </r>
       <r>   48.6210    0.0000 </r>
       <r>   49.1238    0.0000 </r>
       <r>   49.1270    0.0000 </r>
       <r>   49.5631    0.0000 </r>
       <r>   49.6918    0.0000 </r>
       <r>   50.1735    0.0000 </r>
       <r>   50.6811    0.0000 </r>
       <r>   50.8336    0.0000 </r>
       <r>   51.0481    0.0000 </r>
       <r>   51.2012    0.0000 </r>
      </set>
      <set comment="kpoint 7">
       <r>  -17.9687    1.0000 </r>
       <r>  -16.2722    1.0000 </r>
       <r>  -15.1182    1.0000 </r>
       <r>  -12.8452    1.0000 </r>
       <r>  -10.5233    1.0000 </r>
       <r>   -8.6674    1.0000 </r>
       <r>   -8.4603    1.0000 </r>
       <r>   -7.8540    1.0000 </r>
       <r>   -6.2579    1.0000 </r>
       <r>   -6.2284    1.0000 </r>
       <r>   -5.9752    1.0000 </r>
       <r>   -5.3004    1.0000 </r>
       <r>   -4.7629    1.0000 </r>
       <r>   -3.6806    1.0000 </r>
       <r>   -3.4227    1.0000 </r>
       <r>   -1.8229    0.0000 </r>
       <r>    2.0369    0.0000 </r>
       <r>    2.9042    0.0000 </r>
       <r>    3.7591    0.0000 </r>
       <r>    3.7616    0.0000 </r>
       <r>    5.8295    0.0000 </r>
       <r>    6.0178    0.0000 </r>
       <r>    6.6833    0.0000 </r>
       <r>    6.8324    0.0000 </r>
       <r>    7.0070    0.0000 </r>
       <r>    7.3848    0.0000 </r>
       <r>    7.5018    0.0000 </r>
       <r>    7.5244    0.0000 </r>
       <r>    7.8615    0.0000 </r>
       <r>    8.4188    0.0000 </r>
       <r>    8.7679    0.0000 </r>
       <r>    9.4538    0.0000 </r>
       <r>   10.0363    0.0000 </r>
       <r>   11.0875    0.0000 </r>
       <r>   11.2965    0.0000 </r>
       <r>   11.3093    0.0000 </r>
       <r>   11.8230    0.0000 </r>
       <r>   11.8675    0.0000 </r>
       <r>   12.0688    0.0000 </r>
       <r>   12.5005    0.0000 </r>
       <r>   12.7063    0.0000 </r>
       <r>   12.8630    0.0000 </r>
       <r>   13.6413    0.0000 </r>
       <r>   14.0529    0.0000 </r>
       <r>   14.3493    0.0000 </r>
       <r>   14.6915    0.0000 </r>
       <r>   15.0594    0.0000 </r>
       <r>   15.2109    0.0000 </r>
       <r>   15.3651    0.0000 </r>
       <r>   15.3664    0.0000 </r>
       <r>   16.6211    0.0000 </r>
       <r>   16.9789    0.0000 </r>
       <r>   17.1612    0.0000 </r>
       <r>   17.3312    0.0000 </r>
       <r>   17.3606    0.0000 </r>
       <r>   17.7409    0.0000 </r>
       <r>   18.2136    0.0000 </r>
       <r>   18.3643    0.0000 </r>
       <r>   18.5835    0.0000 </r>
       <r>   18.6120    0.0000 </r>
       <r>   18.8324    0.0000 </r>
       <r>   18.9763    0.0000 </r>
       <r>   19.1429    0.0000 </r>
       <r>   19.3566    0.0000 </r>
       <r>   19.9079    0.0000 </r>
       <r>   19.9569    0.0000 </r>
       <r>   20.0143    0.0000 </r>
       <r>   20.1817    0.0000 </r>
       <r>   20.9535    0.0000 </r>
       <r>   21.1326    0.0000 </r>
       <r>   21.6406    0.0000 </r>
       <r>   21.7580    0.0000 </r>
       <r>   22.4412    0.0000 </r>
       <r>   22.5453    0.0000 </r>
       <r>   22.5762    0.0000 </r>
       <r>   22.6512    0.0000 </r>
       <r>   23.6180    0.0000 </r>
       <r>   23.8592    0.0000 </r>
       <r>   23.9896    0.0000 </r>
       <r>   24.0510    0.0000 </r>
       <r>   24.6837    0.0000 </r>
       <r>   25.4785    0.0000 </r>
       <r>   25.8082    0.0000 </r>
       <r>   25.8779    0.0000 </r>
       <r>   26.7758    0.0000 </r>
       <r>   26.8048    0.0000 </r>
       <r>   26.8170    0.0000 </r>
       <r>   27.1894    0.0000 </r>
       <r>   27.4249    0.0000 </r>
       <r>   27.4830    0.0000 </r>
       <r>   27.9756    0.0000 </r>
       <r>   28.0416    0.0000 </r>
       <r>   28.0484    0.0000 </r>
       <r>   28.8468    0.0000 </r>
       <r>   28.9853    0.0000 </r>
       <r>   29.0125    0.0000 </r>
       <r>   29.5492    0.0000 </r>
       <r>   29.6296    0.0000 </r>
       <r>   29.6772    0.0000 </r>
       <r>   29.7181    0.0000 </r>
       <r>   30.3493    0.0000 </r>
       <r>   30.4480    0.0000 </r>
       <r>   30.5398    0.0000 </r>
       <r>   30.6617    0.0000 </r>
       <r>   30.7937    0.0000 </r>
       <r>   30.9544    0.0000 </r>
       <r>   31.3317    0.0000 </r>
       <r>   31.3867    0.0000 </r>
       <r>   32.0574    0.0000 </r>
       <r>   32.1985    0.0000 </r>
       <r>   32.6911    0.0000 </r>
       <r>   32.7768    0.0000 </r>
       <r>   32.9954    0.0000 </r>
       <r>   33.2954    0.0000 </r>
       <r>   34.1025    0.0000 </r>
       <r>   34.3971    0.0000 </r>
       <r>   35.2177    0.0000 </r>
       <r>   35.3890    0.0000 </r>
       <r>   36.0993    0.0000 </r>
       <r>   36.2766    0.0000 </r>
       <r>   36.2958    0.0000 </r>
       <r>   36.4642    0.0000 </r>
       <r>   36.7282    0.0000 </r>
       <r>   37.0847    0.0000 </r>
       <r>   37.5441    0.0000 </r>
       <r>   37.6053    0.0000 </r>
       <r>   37.8529    0.0000 </r>
       <r>   38.1464    0.0000 </r>
       <r>   38.1501    0.0000 </r>
       <r>   38.7016    0.0000 </r>
       <r>   38.7568    0.0000 </r>
       <r>   39.0227    0.0000 </r>
       <r>   39.1861    0.0000 </r>
       <r>   39.3287    0.0000 </r>
       <r>   39.4010    0.0000 </r>
       <r>   39.4258    0.0000 </r>
       <r>   39.5871    0.0000 </r>
       <r>   39.9373    0.0000 </r>
       <r>   40.1680    0.0000 </r>
       <r>   40.4537    0.0000 </r>
       <r>   40.5255    0.0000 </r>
       <r>   40.6248    0.0000 </r>
       <r>   40.6467    0.0000 </r>
       <r>   40.7621    0.0000 </r>
       <r>   40.9160    0.0000 </r>
       <r>   41.2621    0.0000 </r>
       <r>   41.4603    0.0000 </r>
       <r>   41.4751    0.0000 </r>
       <r>   41.6013    0.0000 </r>
       <r>   41.6817    0.0000 </r>
       <r>   41.6992    0.0000 </r>
       <r>   41.8627    0.0000 </r>
       <r>   41.9437    0.0000 </r>
       <r>   42.0061    0.0000 </r>
       <r>   42.0875    0.0000 </r>
       <r>   42.2696    0.0000 </r>
       <r>   42.4282    0.0000 </r>
       <r>   42.6036    0.0000 </r>
       <r>   43.0445    0.0000 </r>
       <r>   43.2096    0.0000 </r>
       <r>   43.6206    0.0000 </r>
       <r>   43.7131    0.0000 </r>
       <r>   43.8801    0.0000 </r>
       <r>   44.1396    0.0000 </r>
       <r>   44.8172    0.0000 </r>
       <r>   44.8381    0.0000 </r>
       <r>   44.9977    0.0000 </r>
       <r>   45.1072    0.0000 </r>
       <r>   45.3839    0.0000 </r>
       <r>   45.3996    0.0000 </r>
       <r>   45.5266    0.0000 </r>
       <r>   45.5868    0.0000 </r>
       <r>   46.1111    0.0000 </r>
       <r>   46.1508    0.0000 </r>
       <r>   46.5470    0.0000 </r>
       <r>   46.9354    0.0000 </r>
       <r>   47.1765    0.0000 </r>
       <r>   47.5502    0.0000 </r>
       <r>   47.7641    0.0000 </r>
       <r>   48.2764    0.0000 </r>
       <r>   48.6599    0.0000 </r>
       <r>   48.8142    0.0000 </r>
       <r>   49.2958    0.0000 </r>
       <r>   49.3269    0.0000 </r>
       <r>   49.8173    0.0000 </r>
       <r>   50.0335    0.0000 </r>
       <r>   50.0346    0.0000 </r>
       <r>   50.1479    0.0000 </r>
       <r>   50.3518    0.0000 </r>
       <r>   50.3774    0.0000 </r>
       <r>   50.6298    0.0000 </r>
       <r>   50.7653    0.0000 </r>
      </set>
      <set comment="kpoint 8">
       <r>  -18.4601    1.0000 </r>
       <r>  -14.9943    1.0000 </r>
       <r>  -14.7809    1.0000 </r>
       <r>  -12.3670    1.0000 </r>
       <r>  -12.0744    1.0000 </r>
       <r>  -10.8255    1.0000 </r>
       <r>   -9.4616    1.0000 </r>
       <r>   -7.3045    1.0000 </r>
       <r>   -7.2222    1.0000 </r>
       <r>   -5.3045    1.0000 </r>
       <r>   -5.0454    1.0000 </r>
       <r>   -3.4865    1.0000 </r>
       <r>   -3.2340    1.0000 </r>
       <r>   -2.8750    1.0000 </r>
       <r>   -2.6748    1.0000 </r>
       <r>   -1.0765    0.0000 </r>
       <r>    1.1928    0.0000 </r>
       <r>    1.9201    0.0000 </r>
       <r>    2.0766    0.0000 </r>
       <r>    2.1721    0.0000 </r>
       <r>    4.6771    0.0000 </r>
       <r>    6.0776    0.0000 </r>
       <r>    6.5380    0.0000 </r>
       <r>    6.7516    0.0000 </r>
       <r>    7.3986    0.0000 </r>
       <r>    7.5582    0.0000 </r>
       <r>    8.0759    0.0000 </r>
       <r>    8.3552    0.0000 </r>
       <r>    8.5474    0.0000 </r>
       <r>    9.2291    0.0000 </r>
       <r>    9.4118    0.0000 </r>
       <r>    9.5260    0.0000 </r>
       <r>    9.6858    0.0000 </r>
       <r>   10.2460    0.0000 </r>
       <r>   10.7998    0.0000 </r>
       <r>   10.8126    0.0000 </r>
       <r>   11.1324    0.0000 </r>
       <r>   11.4092    0.0000 </r>
       <r>   11.5924    0.0000 </r>
       <r>   11.7043    0.0000 </r>
       <r>   12.1663    0.0000 </r>
       <r>   12.7034    0.0000 </r>
       <r>   12.7084    0.0000 </r>
       <r>   13.2664    0.0000 </r>
       <r>   13.2707    0.0000 </r>
       <r>   13.3116    0.0000 </r>
       <r>   14.6751    0.0000 </r>
       <r>   14.8541    0.0000 </r>
       <r>   15.0942    0.0000 </r>
       <r>   15.7535    0.0000 </r>
       <r>   15.7542    0.0000 </r>
       <r>   16.0620    0.0000 </r>
       <r>   17.5711    0.0000 </r>
       <r>   17.7323    0.0000 </r>
       <r>   18.0866    0.0000 </r>
       <r>   18.7975    0.0000 </r>
       <r>   19.2809    0.0000 </r>
       <r>   19.3447    0.0000 </r>
       <r>   19.6799    0.0000 </r>
       <r>   19.7002    0.0000 </r>
       <r>   19.7886    0.0000 </r>
       <r>   19.9487    0.0000 </r>
       <r>   20.3937    0.0000 </r>
       <r>   20.4966    0.0000 </r>
       <r>   20.5031    0.0000 </r>
       <r>   20.6163    0.0000 </r>
       <r>   20.7882    0.0000 </r>
       <r>   20.9393    0.0000 </r>
       <r>   21.1718    0.0000 </r>
       <r>   22.5187    0.0000 </r>
       <r>   22.5238    0.0000 </r>
       <r>   23.2618    0.0000 </r>
       <r>   23.6610    0.0000 </r>
       <r>   23.8736    0.0000 </r>
       <r>   23.9585    0.0000 </r>
       <r>   24.0196    0.0000 </r>
       <r>   24.1366    0.0000 </r>
       <r>   24.4987    0.0000 </r>
       <r>   24.5861    0.0000 </r>
       <r>   24.5924    0.0000 </r>
       <r>   24.9850    0.0000 </r>
       <r>   24.9984    0.0000 </r>
       <r>   25.7623    0.0000 </r>
       <r>   25.8278    0.0000 </r>
       <r>   25.9447    0.0000 </r>
       <r>   26.0228    0.0000 </r>
       <r>   26.2519    0.0000 </r>
       <r>   26.4644    0.0000 </r>
       <r>   26.6504    0.0000 </r>
       <r>   27.2927    0.0000 </r>
       <r>   27.3911    0.0000 </r>
       <r>   28.0323    0.0000 </r>
       <r>   28.0424    0.0000 </r>
       <r>   28.1296    0.0000 </r>
       <r>   28.3527    0.0000 </r>
       <r>   28.9976    0.0000 </r>
       <r>   29.1798    0.0000 </r>
       <r>   29.5464    0.0000 </r>
       <r>   29.6700    0.0000 </r>
       <r>   29.8667    0.0000 </r>
       <r>   30.1911    0.0000 </r>
       <r>   30.4004    0.0000 </r>
       <r>   31.0275    0.0000 </r>
       <r>   31.2333    0.0000 </r>
       <r>   31.4941    0.0000 </r>
       <r>   31.6245    0.0000 </r>
       <r>   31.6318    0.0000 </r>
       <r>   31.8743    0.0000 </r>
       <r>   32.0655    0.0000 </r>
       <r>   32.2723    0.0000 </r>
       <r>   32.4690    0.0000 </r>
       <r>   32.5777    0.0000 </r>
       <r>   32.7464    0.0000 </r>
       <r>   32.7535    0.0000 </r>
       <r>   32.7708    0.0000 </r>
       <r>   33.4091    0.0000 </r>
       <r>   33.6079    0.0000 </r>
       <r>   33.9290    0.0000 </r>
       <r>   34.0033    0.0000 </r>
       <r>   34.8529    0.0000 </r>
       <r>   35.0592    0.0000 </r>
[...]
       <r>    43.6046    12.9989   315.4386 </r>
       <r>    43.6371    13.6363   315.8827 </r>
       <r>    43.6697     6.8949   316.1073 </r>
       <r>    43.7023     3.6073   316.2248 </r>
       <r>    43.7349     5.3703   316.3997 </r>
       <r>    43.7674    12.1386   316.7951 </r>
       <r>    43.8000    12.9601   317.2172 </r>
       <r>    43.8326     4.8411   317.3749 </r>
       <r>    43.8651    10.7772   317.7259 </r>
       <r>    43.8977    10.8833   318.0804 </r>
       <r>    43.9303     8.9783   318.3729 </r>
       <r>    43.9629     2.1973   318.4444 </r>
       <r>    43.9954     1.4964   318.4932 </r>
       <r>    44.0280     5.0286   318.6570 </r>
       <r>    44.0606     6.8171   318.8790 </r>
       <r>    44.0931     8.8566   319.1675 </r>
       <r>    44.1257    15.1669   319.6615 </r>
       <r>    44.1583    17.3074   320.2252 </r>
       <r>    44.1909    13.5943   320.6680 </r>
       <r>    44.2234     3.9054   320.7952 </r>
       <r>    44.2560     8.7304   321.0796 </r>
       <r>    44.2886     7.3065   321.3176 </r>
       <r>    44.3211    11.3524   321.6873 </r>
       <r>    44.3537    11.6113   322.0655 </r>
       <r>    44.3863     5.6557   322.2497 </r>
       <r>    44.4189     4.2306   322.3875 </r>
       <r>    44.4514     9.0136   322.6811 </r>
       <r>    44.4840     2.7959   322.7722 </r>
       <r>    44.5166     5.2904   322.9445 </r>
       <r>    44.5491    12.6446   323.3564 </r>
       <r>    44.5817     2.7913   323.4473 </r>
       <r>    44.6143    10.2640   323.7816 </r>
       <r>    44.6469    16.9681   324.3343 </r>
       <r>    44.6794     9.7118   324.6506 </r>
       <r>    44.7120     6.2086   324.8528 </r>
       <r>    44.7446     4.5137   324.9998 </r>
       <r>    44.7771     3.0487   325.0991 </r>
       <r>    44.8097    14.1447   325.5598 </r>
       <r>    44.8423    17.7846   326.1391 </r>
       <r>    44.8749     7.9552   326.3982 </r>
       <r>    44.9074    11.9626   326.7879 </r>
       <r>    44.9400    12.2197   327.1859 </r>
       <r>    44.9726    27.9448   328.0961 </r>
       <r>    45.0051     4.0838   328.2291 </r>
       <r>    45.0377    13.2323   328.6601 </r>
       <r>    45.0703    18.0992   329.2496 </r>
       <r>    45.1029     2.7833   329.3403 </r>
       <r>    45.1354     4.4886   329.4865 </r>
       <r>    45.1680    20.3462   330.1492 </r>
       <r>    45.2006     6.7346   330.3685 </r>
       <r>    45.2331    15.0688   330.8593 </r>
       <r>    45.2657     8.9986   331.1524 </r>
       <r>    45.2983     2.1649   331.2230 </r>
       <r>    45.3309    10.8865   331.5775 </r>
       <r>    45.3634     6.5201   331.7899 </r>
       <r>    45.3960     5.7584   331.9775 </r>
       <r>    45.4286     8.0882   332.2409 </r>
       <r>    45.4611    14.7863   332.7225 </r>
       <r>    45.4937     6.6708   332.9398 </r>
       <r>    45.5263    10.5937   333.2849 </r>
       <r>    45.5589    12.3091   333.6858 </r>
       <r>    45.5914    15.4604   334.1894 </r>
       <r>    45.6240    11.2421   334.5555 </r>
       <r>    45.6566     2.9838   334.6527 </r>
       <r>    45.6891     9.2215   334.9531 </r>
       <r>    45.7217     6.1083   335.1520 </r>
       <r>    45.7543     5.0772   335.3174 </r>
       <r>    45.7869     5.3259   335.4909 </r>
       <r>    45.8194    12.0380   335.8830 </r>
       <r>    45.8520    11.1964   336.2477 </r>
       <r>    45.8846     8.4052   336.5214 </r>
       <r>    45.9171    14.6488   336.9986 </r>
       <r>    45.9497    14.3039   337.4645 </r>
       <r>    45.9823    20.3406   338.1270 </r>
       <r>    46.0149     7.3095   338.3651 </r>
       <r>    46.0474     4.5789   338.5142 </r>
       <r>    46.0800     9.1318   338.8116 </r>
       <r>    46.1126    12.7813   339.2279 </r>
       <r>    46.1451    12.0107   339.6191 </r>
       <r>    46.1777     9.7194   339.9357 </r>
       <r>    46.2103     1.3599   339.9800 </r>
       <r>    46.2429    18.2378   340.5740 </r>
       <r>    46.2754     2.9661   340.6707 </r>
       <r>    46.3080     2.4327   340.7499 </r>
       <r>    46.3406     3.9816   340.8796 </r>
       <r>    46.3731    13.8100   341.3294 </r>
       <r>    46.4057     8.5347   341.6074 </r>
       <r>    46.4383     4.3555   341.7492 </r>
       <r>    46.4709     4.4288   341.8935 </r>
       <r>    46.5034     9.4430   342.2011 </r>
       <r>    46.5360     7.4910   342.4451 </r>
       <r>    46.5686     1.2766   342.4866 </r>
       <r>    46.6011     8.0565   342.7491 </r>
       <r>    46.6337     9.6345   343.0629 </r>
       <r>    46.6663     9.2914   343.3655 </r>
       <r>    46.6989     3.9530   343.4943 </r>
       <r>    46.7314     7.7688   343.7473 </r>
       <r>    46.7640     7.6272   343.9957 </r>
       <r>    46.7966     6.9628   344.2225 </r>
       <r>    46.8291     1.1742   344.2608 </r>
       <r>    46.8617     5.1646   344.4290 </r>
       <r>    46.8943     4.2520   344.5675 </r>
       <r>    46.9269    17.1150   345.1249 </r>
       <r>    46.9594    10.4059   345.4639 </r>
       <r>    46.9920    16.4910   346.0010 </r>
       <r>    47.0246     7.6343   346.2497 </r>
       <r>    47.0571     9.1199   346.5467 </r>
       <r>    47.0897     1.7626   346.6041 </r>
       <r>    47.1223    12.4303   347.0090 </r>
       <r>    47.1549     9.4782   347.3177 </r>
       <r>    47.1874    22.3217   348.0448 </r>
       <r>    47.2200     3.1558   348.1476 </r>
       <r>    47.2526    16.8621   348.6968 </r>
       <r>    47.2851    10.4516   349.0372 </r>
       <r>    47.3177     5.2934   349.2096 </r>
       <r>    47.3503     3.0373   349.3085 </r>
       <r>    47.3829     2.0401   349.3750 </r>
       <r>    47.4154     1.5702   349.4261 </r>
       <r>    47.4480     9.9160   349.7491 </r>
       <r>    47.4806     8.6629   350.0313 </r>
       <r>    47.5131     2.8848   350.1252 </r>
       <r>    47.5457    11.1160   350.4873 </r>
       <r>    47.5783     9.9001   350.8098 </r>
       <r>    47.6109    10.4464   351.1500 </r>
       <r>    47.6434     5.4687   351.3281 </r>
       <r>    47.6760     2.0267   351.3942 </r>
       <r>    47.7086     5.6854   351.5793 </r>
       <r>    47.7411    15.3207   352.0784 </r>
       <r>    47.7737    12.0364   352.4704 </r>
       <r>    47.8063    13.1399   352.8984 </r>
       <r>    47.8389     7.6894   353.1488 </r>
       <r>    47.8714     9.1117   353.4456 </r>
       <r>    47.9040    12.2425   353.8444 </r>
       <r>    47.9366     7.2987   354.0821 </r>
       <r>    47.9691     7.9532   354.3412 </r>
       <r>    48.0017     8.1823   354.6077 </r>
       <r>    48.0343     7.3536   354.8472 </r>
       <r>    48.0669     4.1759   354.9832 </r>
       <r>    48.0994    22.2941   355.7094 </r>
       <r>    48.1320     6.7914   355.9306 </r>
       <r>    48.1646     1.9356   355.9936 </r>
       <r>    48.1971     4.5026   356.1403 </r>
       <r>    48.2297     8.0856   356.4036 </r>
       <r>    48.2623     5.2187   356.5736 </r>
       <r>    48.2949    17.3513   357.1388 </r>
       <r>    48.3274     5.6547   357.3229 </r>
       <r>    48.3600    11.7732   357.7064 </r>
       <r>    48.3926    12.4911   358.1133 </r>
       <r>    48.4251     2.4924   358.1944 </r>
       <r>    48.4577     0.0253   358.1953 </r>
       <r>    48.4903    10.9746   358.5527 </r>
       <r>    48.5229    17.2666   359.1151 </r>
       <r>    48.5554    10.2349   359.4485 </r>
       <r>    48.5880     9.9605   359.7729 </r>
       <r>    48.6206     3.8400   359.8980 </r>
       <r>    48.6531     6.9295   360.1237 </r>
       <r>    48.6857    17.2747   360.6864 </r>
       <r>    48.7183    18.2337   361.2803 </r>
       <r>    48.7509     9.1649   361.5788 </r>
       <r>    48.7834     5.1554   361.7467 </r>
       <r>    48.8160    12.6925   362.1601 </r>
       <r>    48.8486    11.4810   362.5341 </r>
       <r>    48.8811     3.2668   362.6405 </r>
       <r>    48.9137    10.5878   362.9853 </r>
       <r>    48.9463     4.5343   363.1330 </r>
       <r>    48.9789     5.2856   363.3052 </r>
       <r>    49.0114     0.6711   363.3270 </r>
       <r>    49.0440     8.6696   363.6094 </r>
       <r>    49.0766     8.3598   363.8817 </r>
       <r>    49.1091     1.5666   363.9327 </r>
       <r>    49.1417    17.9724   364.5181 </r>
       <r>    49.1743    12.8929   364.9381 </r>
       <r>    49.2069     4.2956   365.0780 </r>
       <r>    49.2394     3.2034   365.1823 </r>
       <r>    49.2720    12.4168   365.5867 </r>
       <r>    49.3046     8.9618   365.8786 </r>
       <r>    49.3371    16.9915   366.4321 </r>
       <r>    49.3697     6.4336   366.6416 </r>
       <r>    49.4023    10.7012   366.9902 </r>
       <r>    49.4349    10.8486   367.3435 </r>
       <r>    49.4674     5.0971   367.5096 </r>
       <r>    49.5000    14.2660   367.9742 </r>
       <r>    49.5326    13.2376   368.4054 </r>
       <r>    49.5651    13.7505   368.8533 </r>
       <r>    49.5977    17.9664   369.4385 </r>
       <r>    49.6303    16.2458   369.9676 </r>
       <r>    49.6629    15.8605   370.4842 </r>
       <r>    49.6954    17.2332   371.0455 </r>
       <r>    49.7280     9.3751   371.3509 </r>
       <r>    49.7606     8.8804   371.6401 </r>
       <r>    49.7931     6.0735   371.8380 </r>
       <r>    49.8257     4.8253   371.9951 </r>
       <r>    49.8583    13.4795   372.4342 </r>
       <r>    49.8909     3.7395   372.5560 </r>
       <r>    49.9234     4.3985   372.6992 </r>
       <r>    49.9560    15.3103   373.1979 </r>
       <r>    49.9886     5.9531   373.3918 </r>
       <r>    50.0211    17.8339   373.9727 </r>
       <r>    50.0537    15.6860   374.4836 </r>
       <r>    50.0863     2.2089   374.5556 </r>
       <r>    50.1189     0.7000   374.5784 </r>
       <r>    50.1514    10.7398   374.9282 </r>
       <r>    50.1840     3.4876   375.0418 </r>
       <r>    50.2166     2.3632   375.1187 </r>
       <r>    50.2491     7.4519   375.3615 </r>
       <r>    50.2817    15.5965   375.8695 </r>
       <r>    50.3143     2.7341   375.9585 </r>
       <r>    50.3469    11.2044   376.3235 </r>
       <r>    50.3794    15.1675   376.8175 </r>
       <r>    50.4120     2.3589   376.8943 </r>
       <r>    50.4446    10.0143   377.2205 </r>
       <r>    50.4772     9.7812   377.5391 </r>
       <r>    50.5097    14.5916   378.0144 </r>
       <r>    50.5423     6.0324   378.2108 </r>
       <r>    50.5749     3.9098   378.3382 </r>
       <r>    50.6074     2.1059   378.4068 </r>
       <r>    50.6400     2.0629   378.4740 </r>
       <r>    50.6726     5.3358   378.6478 </r>
       <r>    50.7052     3.9953   378.7779 </r>
       <r>    50.7377    13.1703   379.2069 </r>
       <r>    50.7703     7.8017   379.4610 </r>
       <r>    50.8029     5.4132   379.6373 </r>
       <r>    50.8354     5.4085   379.8135 </r>
       <r>    50.8680     3.2873   379.9205 </r>
       <r>    50.9006     5.0308   380.0844 </r>
       <r>    50.9332     5.8187   380.2739 </r>
       <r>    50.9657     5.4448   380.4513 </r>
       <r>    50.9983     2.0900   380.5193 </r>
       <r>    51.0309     8.4910   380.7959 </r>
       <r>    51.0634     7.8169   381.0505 </r>
       <r>    51.0960     7.5404   381.2961 </r>
       <r>    51.1286     1.6021   381.3483 </r>
       <r>    51.1612     2.5479   381.4313 </r>
       <r>    51.1937     5.3988   381.6071 </r>
       <r>    51.2263     4.5965   381.7568 </r>
       <r>    51.2589     8.3991   382.0304 </r>
       <r>    51.2914     2.8937   382.1247 </r>
       <r>    51.3240     3.4485   382.2370 </r>
       <r>    51.3566     3.3837   382.3472 </r>
       <r>    51.3892     0.1842   382.3532 </r>
       <r>    51.4217    14.1249   382.8133 </r>
       <r>    51.4543     1.0424   382.8472 </r>
       <r>    51.4869     0.0852   382.8500 </r>
       <r>    51.5194     4.9979   383.0128 </r>
       <r>    51.5520     0.1818   383.0187 </r>
       <r>    51.5846     8.1379   383.2838 </r>
       <r>    51.6172     2.6852   383.3712 </r>
       <r>    51.6497     0.1157   383.3750 </r>
       <r>    51.6823     0.0058   383.3752 </r>
       <r>    51.7149     2.5861   383.4594 </r>
       <r>    51.7474     0.4513   383.4741 </r>
       <r>    51.7800     4.7286   383.6281 </r>
       <r>    51.8126     4.8354   383.7856 </r>
       <r>    51.8452     0.6116   383.8056 </r>
       <r>    51.8777     0.0000   383.8056 </r>
       <r>    51.9103     0.0000   383.8056 </r>
       <r>    51.9429     0.0000   383.8056 </r>
       <r>    51.9754     0.0000   383.8056 </r>
       <r>    52.0080     0.0176   383.8061 </r>
       <r>    52.0406     0.4079   383.8194 </r>
       <r>    52.0732     0.5206   383.8364 </r>
       <r>    52.1057     2.0390   383.9028 </r>
       <r>    52.1383     2.1699   383.9735 </r>
       <r>    52.1709     0.3883   383.9861 </r>
       <r>    52.2034     0.0000   383.9861 </r>
       <r>    52.2360     0.0000   383.9861 </r>
       <r>    52.2686     0.0000   383.9861 </r>
       <r>    52.3012     0.0000   383.9861 </r>
       <r>    52.3337     0.0000   383.9861 </r>
       <r>    52.3663     0.0000   383.9861 </r>
       <r>    52.3989     0.0000   383.9861 </r>
       <r>    52.4314     0.0000   383.9861 </r>
       <r>    52.4640     0.0000   383.9861 </r>
       <r>    52.4966     0.2486   383.9942 </r>
       <r>    52.5292     0.1778   384.0000 </r>
       <r>    52.5617     0.0000   384.0000 </r>
       <r>    52.5943     0.0000   384.0000 </r>
       <r>    52.6269     0.0000   384.0000 </r>
       <r>    52.6594     0.0000   384.0000 </r>
       <r>    52.6920     0.0000   384.0000 </r>
       <r>    52.7246     0.0000   384.0000 </r>
       <r>    52.7572     0.0000   384.0000 </r>
       <r>    52.7897     0.0000   384.0000 </r>
       <r>    52.8223     0.0000   384.0000 </r>
       <r>    52.8549     0.0000   384.0000 </r>
       <r>    52.8874     0.0000   384.0000 </r>
       <r>    52.9200     0.0000   384.0000 </r>
       <r>    52.9526     0.0000   384.0000 </r>
       <r>    52.9852     0.0000   384.0000 </r>
       <r>    53.0177     0.0000   384.0000 </r>
       <r>    53.0503     0.0000   384.0000 </r>
       <r>    53.0829     0.0000   384.0000 </r>
       <r>    53.1154     0.0000   384.0000 </r>
       <r>    53.1480     0.0000   384.0000 </r>
       <r>    53.1806     0.0000   384.0000 </r>
       <r>    53.2132     0.0000   384.0000 </r>
       <r>    53.2457     0.0000   384.0000 </r>
       <r>    53.2783     0.0000   384.0000 </r>
       <r>    53.3109     0.0000   384.0000 </r>
       <r>    53.3434     0.0000   384.0000 </r>
       <r>    53.3760     0.0000   384.0000 </r>
       <r>    53.4086     0.0000   384.0000 </r>
       <r>    53.4412     0.0000   384.0000 </r>
       <r>    53.4737     0.0000   384.0000 </r>
       <r>    53.5063     0.0000   384.0000 </r>
       <r>    53.5389     0.0000   384.0000 </r>
       <r>    53.5714     0.0000   384.0000 </r>
       <r>    53.6040     0.0000   384.0000 </r>
       <r>    53.6366     0.0000   384.0000 </r>
       <r>    53.6692     0.0000   384.0000 </r>
       <r>    53.7017     0.0000   384.0000 </r>
       <r>    53.7343     0.0000   384.0000 </r>
       <r>    53.7669     0.0000   384.0000 </r>
       <r>    53.7994     0.0000   384.0000 </r>
       <r>    53.8320     0.0000   384.0000 </r>
       <r>    53.8646     0.0000   384.0000 </r>
       <r>    53.8972     0.0000   384.0000 </r>
       <r>    53.9297     0.0000   384.0000 </r>
       <r>    53.9623     0.0000   384.0000 </r>
       <r>    53.9949     0.0000   384.0000 </r>
       <r>    54.0274     0.0000   384.0000 </r>
       <r>    54.0600     0.0000   384.0000 </r>
       <r>    54.0926     0.0000   384.0000 </r>
       <r>    54.1252     0.0000   384.0000 </r>
       <r>    54.1577     0.0000   384.0000 </r>
       <r>    54.1903     0.0000   384.0000 </r>
       <r>    54.2229     0.0000   384.0000 </r>
       <r>    54.2554     0.0000   384.0000 </r>
       <r>    54.2880     0.0000   384.0000 </r>
       <r>    54.3206     0.0000   384.0000 </r>
       <r>    54.3532     0.0000   384.0000 </r>
       <r>    54.3857     0.0000   384.0000 </r>
       <r>    54.4183     0.0000   384.0000 </r>
       <r>    54.4509     0.0000   384.0000 </r>
       <r>    54.4834     0.0000   384.0000 </r>
       <r>    54.5160     0.0000   384.0000 </r>
       <r>    54.5486     0.0000   384.0000 </r>
       <r>    54.5812     0.0000   384.0000 </r>
       <r>    54.6137     0.0000   384.0000 </r>
       <r>    54.6463     0.0000   384.0000 </r>
       <r>    54.6789     0.0000   384.0000 </r>
       <r>    54.7114     0.0000   384.0000 </r>
       <r>    54.7440     0.0000   384.0000 </r>
       <r>    54.7766     0.0000   384.0000 </r>
       <r>    54.8092     0.0000   384.0000 </r>
       <r>    54.8417     0.0000   384.0000 </r>
       <r>    54.8743     0.0000   384.0000 </r>
       <r>    54.9069     0.0000   384.0000 </r>
       <r>    54.9394     0.0000   384.0000 </r>
       <r>    54.9720     0.0000   384.0000 </r>
       <r>    55.0046     0.0000   384.0000 </r>
       <r>    55.0372     0.0000   384.0000 </r>
       <r>    55.0697     0.0000   384.0000 </r>
       <r>    55.1023     0.0000   384.0000 </r>
       <r>    55.1349     0.0000   384.0000 </r>
       <r>    55.1674     0.0000   384.0000 </r>
       <r>    55.2000     0.0000   384.0000 </r>
       <r>    55.2326     0.0000   384.0000 </r>
       <r>    55.2652     0.0000   384.0000 </r>
       <r>    55.2977     0.0000   384.0000 </r>
       <r>    55.3303     0.0000   384.0000 </r>
       <r>    55.3629     0.0000   384.0000 </r>
       <r>    55.3954     0.0000   384.0000 </r>
       <r>    55.4280     0.0000   384.0000 </r>
       <r>    55.4606     0.0000   384.0000 </r>
       <r>    55.4932     0.0000   384.0000 </r>
       <r>    55.5257     0.0000   384.0000 </r>
       <r>    55.5583     0.0000   384.0000 </r>
       <r>    55.5909     0.0000   384.0000 </r>
       <r>    55.6234     0.0000   384.0000 </r>
       <r>    55.6560     0.0000   384.0000 </r>
       <r>    55.6886     0.0000   384.0000 </r>
       <r>    55.7212     0.0000   384.0000 </r>
       <r>    55.7537     0.0000   384.0000 </r>
       <r>    55.7863     0.0000   384.0000 </r>
       <r>    55.8189     0.0000   384.0000 </r>
       <r>    55.8514     0.0000   384.0000 </r>
       <r>    55.8840     0.0000   384.0000 </r>
       <r>    55.9166     0.0000   384.0000 </r>
       <r>    55.9492     0.0000   384.0000 </r>
       <r>    55.9817     0.0000   384.0000 </r>
       <r>    56.0143     0.0000   384.0000 </r>
       <r>    56.0469     0.0000   384.0000 </r>
      </set>
     </set>
    </array>
   </total>
  </dos>
 </calculation>
 <structure name="finalpos" >
  <crystal>
   <varray name="basis" >
    <v>       4.48084843       2.58701885       0.00000000 </v>
    <v>      -4.48084843       2.58701885       0.00000000 </v>
    <v>       0.00000000       0.00000000       8.52022140 </v>
   </varray>
   <i name="volume">    197.53348383 </i>
   <varray name="rec_basis" >
    <v>       0.11158601       0.19327265       0.00000000 </v>
    <v>      -0.11158601       0.19327265       0.00000000 </v>
    <v>       0.00000000       0.00000000       0.11736784 </v>
   </varray>
  </crystal>
  <varray name="positions" >
   <v>       0.33333300       0.66666600       0.25000000 </v>
   <v>       0.66666600       0.33333300       0.25000000 </v>
   <v>       0.15869124       0.31738348       0.25000000 </v>
   <v>       0.31738348       0.15869124       0.25000000 </v>
   <v>       0.15869124       0.84130776       0.25000000 </v>
   <v>       0.84130776       0.15869124       0.25000000 </v>
   <v>       0.68261552       0.84130776       0.25000000 </v>
   <v>       0.84130776       0.68261552       0.25000000 </v>
  </varray>
 </structure>
</modeling>
