   8   8   1   0
  0.2469169E+02  0.5174038E-09  0.5174038E-09  0.8520222E-09  0.5000000E-15
  1.000000000000000E-004
  CAR 
 BC3-optical                             
     14.30725856    -22.60258517  301     -2.79045759      1.00000000
    -22.603  0.0000E+00  0.0000E+00
    -22.480  0.0000E+00  0.0000E+00
    -22.357  0.0000E+00  0.0000E+00
    -22.233  0.0000E+00  0.0000E+00
    -22.110  0.0000E+00  0.0000E+00
    -21.987  0.0000E+00  0.0000E+00
    -21.864  0.0000E+00  0.0000E+00
    -21.741  0.0000E+00  0.0000E+00
    -21.618  0.0000E+00  0.0000E+00
    -21.495  0.3760E-16  0.4626E-17
    -21.372  0.1925E-10  0.2368E-11
    -21.249  0.4434E-06  0.5456E-07
    -21.126  0.6344E-03  0.7811E-04
    -21.003  0.6594E-01  0.8190E-02
    -20.880  0.7234E+00  0.9719E-01
    -20.757  0.1638E+01  0.2987E+00
    -20.634  0.1943E+01  0.5377E+00
    -20.511  0.2245E+01  0.8139E+00
    -20.388  0.2973E+01  0.1180E+01
    -20.265  0.4055E+01  0.1679E+01
    -20.142  0.2336E+01  0.1966E+01
    -20.019  0.2732E+00  0.2000E+01
    -19.896  0.3915E-02  0.2000E+01
    -19.773  0.4522E-05  0.2000E+01
    -19.650  0.3449E-09  0.2000E+01
    -19.527  0.1654E-14  0.2000E+01
    -19.404  0.0000E+00  0.2000E+01
    -19.281  0.0000E+00  0.2000E+01
    -19.158  0.0000E+00  0.2000E+01
    -19.035  0.3760E-16  0.2000E+01
    -18.912  0.1881E-10  0.2000E+01
    -18.789  0.4427E-06  0.2000E+01
    -18.666  0.6364E-03  0.2000E+01
    -18.543  0.7301E-01  0.2009E+01
    -18.419  0.9571E+00  0.2127E+01
    -18.296  0.2423E+01  0.2425E+01
    -18.173  0.3058E+01  0.2801E+01
    -18.050  0.2221E+01  0.3074E+01
    -17.927  0.1640E+01  0.3276E+01
    -17.804  0.1868E+01  0.3506E+01
    -17.681  0.1727E+01  0.3718E+01
    -17.558  0.1873E+01  0.3949E+01
    -17.435  0.2295E+01  0.4231E+01
    -17.312  0.2459E+01  0.4534E+01
    -17.189  0.3191E+01  0.4926E+01
    -17.066  0.3183E+01  0.5318E+01
    -16.943  0.2209E+01  0.5590E+01
    -16.820  0.1768E+01  0.5807E+01
    -16.697  0.1242E+01  0.5960E+01
    -16.574  0.3094E+00  0.5998E+01
    -16.451  0.1454E-01  0.6000E+01
    -16.328  0.6418E-04  0.6000E+01
    -16.205  0.1936E-07  0.6000E+01
    -16.082  0.3374E-12  0.6000E+01
    -15.959  0.0000E+00  0.6000E+01
    -15.836  0.0000E+00  0.6000E+01
    -15.713  0.0000E+00  0.6000E+01
    -15.590  0.0000E+00  0.6000E+01
    -15.467  0.0000E+00  0.6000E+01
    -15.344  0.0000E+00  0.6000E+01
    -15.221  0.1542E-14  0.6000E+01
    -15.098  0.3329E-09  0.6000E+01
    -14.975  0.3944E-05  0.6000E+01
    -14.852  0.2819E-02  0.6000E+01
    -14.728  0.1443E+00  0.6018E+01
    -14.605  0.8597E+00  0.6124E+01
    -14.482  0.1958E+01  0.6365E+01
    -14.359  0.2382E+01  0.6658E+01
    -14.236  0.2062E+01  0.6912E+01
    -14.113  0.3421E+01  0.7332E+01
    -13.990  0.3074E+01  0.7711E+01
    -13.867  0.9917E+00  0.7833E+01
    -13.744  0.1133E+01  0.7972E+01
    -13.621  0.1608E+01  0.8170E+01
    -13.498  0.1508E+01  0.8356E+01
    -13.375  0.8797E+00  0.8464E+01
    -13.252  0.6899E+00  0.8549E+01
    -13.129  0.1869E+01  0.8779E+01
    -13.006  0.2024E+01  0.9027E+01
    -12.883  0.1192E+01  0.9174E+01
    -12.760  0.1582E+01  0.9369E+01
    -12.637  0.2248E+01  0.9645E+01
    -12.514  0.1164E+01  0.9789E+01
    -12.391  0.1077E+01  0.9921E+01
    -12.268  0.1823E+01  0.1015E+02
    -12.145  0.7611E+00  0.1024E+02
    -12.022  0.2581E+00  0.1027E+02
    -11.899  0.6982E+00  0.1036E+02
    -11.776  0.7508E+00  0.1045E+02
    -11.653  0.4484E+00  0.1050E+02
    -11.530  0.1303E+00  0.1052E+02
    -11.407  0.2058E+00  0.1055E+02
    -11.284  0.1116E+01  0.1068E+02
    -11.161  0.1334E+01  0.1085E+02
    -11.038  0.8136E+00  0.1095E+02
    -10.914  0.9451E+00  0.1106E+02
    -10.791  0.1106E+01  0.1120E+02
    -10.668  0.1056E+01  0.1133E+02
    -10.545  0.2041E+01  0.1158E+02
    -10.422  0.2673E+01  0.1191E+02
    -10.299  0.2172E+01  0.1218E+02
    -10.176  0.1320E+01  0.1234E+02
    -10.053  0.1072E+01  0.1247E+02
     -9.930  0.7038E+00  0.1256E+02
     -9.807  0.2344E+01  0.1285E+02
     -9.684  0.4167E+01  0.1336E+02
     -9.561  0.2121E+01  0.1362E+02
     -9.438  0.5412E+00  0.1369E+02
     -9.315  0.1456E+01  0.1386E+02
     -9.192  0.2252E+01  0.1414E+02
     -9.069  0.1815E+01  0.1437E+02
     -8.946  0.2435E+01  0.1466E+02
     -8.823  0.2999E+01  0.1503E+02
     -8.700  0.1329E+01  0.1520E+02
     -8.577  0.1860E+01  0.1543E+02
     -8.454  0.2055E+01  0.1568E+02
     -8.331  0.1410E+01  0.1585E+02
     -8.208  0.2126E+01  0.1611E+02
     -8.085  0.1568E+01  0.1631E+02
     -7.962  0.1850E+01  0.1653E+02
     -7.839  0.2448E+01  0.1684E+02
     -7.716  0.3957E+01  0.1732E+02
     -7.593  0.3226E+01  0.1772E+02
     -7.470  0.2860E+01  0.1807E+02
     -7.347  0.3423E+01  0.1849E+02
     -7.223  0.2830E+01  0.1884E+02
     -7.100  0.3804E+01  0.1931E+02
     -6.977  0.3465E+01  0.1973E+02
     -6.854  0.1915E+01  0.1997E+02
     -6.731  0.2000E+01  0.2022E+02
     -6.608  0.1266E+01  0.2037E+02
     -6.485  0.1565E+01  0.2056E+02
     -6.362  0.1962E+01  0.2081E+02
     -6.239  0.2138E+01  0.2107E+02
     -6.116  0.5130E+01  0.2170E+02
     -5.993  0.5300E+01  0.2235E+02
     -5.870  0.3780E+01  0.2282E+02
     -5.747  0.3334E+01  0.2323E+02
     -5.624  0.1717E+01  0.2344E+02
     -5.501  0.2994E+01  0.2381E+02
     -5.378  0.3590E+01  0.2425E+02
     -5.255  0.1594E+01  0.2445E+02
     -5.132  0.1406E+01  0.2462E+02
     -5.009  0.2823E+01  0.2497E+02
     -4.886  0.3232E+01  0.2536E+02
     -4.763  0.2410E+01  0.2566E+02
     -4.640  0.2581E+01  0.2598E+02
     -4.517  0.3486E+01  0.2641E+02
     -4.394  0.3342E+01  0.2682E+02
     -4.271  0.3094E+01  0.2720E+02
     -4.148  0.2827E+01  0.2755E+02
     -4.025  0.3045E+01  0.2792E+02
     -3.902  0.3702E+01  0.2838E+02
     -3.779  0.4396E+01  0.2892E+02
     -3.656  0.3695E+01  0.2937E+02
     -3.532  0.2730E+01  0.2971E+02
     -3.409  0.1546E+01  0.2990E+02
     -3.286  0.6881E+00  0.2998E+02
     -3.163  0.1372E+00  0.3000E+02
     -3.040  0.4755E-02  0.3000E+02
     -2.917  0.1507E-04  0.3000E+02
     -2.794  0.2955E-08  0.3000E+02
     -2.671  0.3108E-13  0.3000E+02
     -2.548  0.0000E+00  0.3000E+02
     -2.425  0.0000E+00  0.3000E+02
     -2.302  0.0000E+00  0.3000E+02
     -2.179  0.0000E+00  0.3000E+02
     -2.056  0.8460E-15  0.3000E+02
     -1.933  0.2019E-09  0.3000E+02
     -1.810  0.2550E-05  0.3000E+02
     -1.687  0.1935E-02  0.3000E+02
     -1.564  0.1078E+00  0.3001E+02
     -1.441  0.6001E+00  0.3009E+02
     -1.318  0.1012E+01  0.3021E+02
     -1.195  0.1964E+01  0.3045E+02
     -1.072  0.1824E+01  0.3068E+02
     -0.949  0.1382E+01  0.3085E+02
     -0.826  0.2418E+01  0.3115E+02
     -0.703  0.2563E+01  0.3146E+02
     -0.580  0.1079E+01  0.3159E+02
     -0.457  0.6582E+00  0.3167E+02
     -0.334  0.4725E+00  0.3173E+02
     -0.211  0.8980E+00  0.3184E+02
     -0.088  0.8484E+00  0.3195E+02
      0.035  0.1765E+00  0.3197E+02
      0.158  0.2372E-01  0.3197E+02
      0.282  0.5694E-02  0.3197E+02
      0.405  0.1281E+00  0.3199E+02
      0.528  0.2665E+00  0.3202E+02
      0.651  0.5113E-01  0.3203E+02
      0.774  0.7597E-03  0.3203E+02
      0.897  0.1052E-01  0.3203E+02
      1.020  0.3262E+00  0.3207E+02
      1.143  0.8267E+00  0.3217E+02
      1.266  0.3410E+00  0.3221E+02
      1.389  0.4185E+00  0.3226E+02
      1.512  0.1812E+00  0.3229E+02
      1.635  0.1504E+01  0.3247E+02
      1.758  0.3362E+01  0.3289E+02
      1.881  0.2020E+01  0.3313E+02
      2.004  0.1688E+01  0.3334E+02
      2.127  0.1888E+01  0.3357E+02
      2.250  0.2481E+01  0.3388E+02
      2.373  0.2277E+01  0.3416E+02
      2.496  0.2355E+01  0.3445E+02
      2.619  0.2218E+01  0.3472E+02
      2.742  0.2262E+01  0.3500E+02
      2.865  0.1874E+01  0.3523E+02
      2.988  0.1302E+01  0.3539E+02
      3.111  0.2261E+01  0.3567E+02
      3.234  0.2206E+01  0.3594E+02
      3.357  0.1071E+01  0.3607E+02
      3.480  0.1572E+01  0.3627E+02
      3.603  0.3196E+01  0.3666E+02
      3.726  0.2311E+01  0.3694E+02
      3.849  0.8904E+00  0.3705E+02
      3.973  0.2381E+01  0.3735E+02
      4.096  0.2637E+01  0.3767E+02
      4.219  0.2278E+01  0.3795E+02
      4.342  0.1524E+01  0.3814E+02
      4.465  0.1177E+01  0.3828E+02
      4.588  0.2332E+01  0.3857E+02
      4.711  0.2472E+01  0.3887E+02
      4.834  0.2083E+01  0.3913E+02
      4.957  0.2141E+01  0.3939E+02
      5.080  0.2600E+01  0.3971E+02
      5.203  0.3159E+01  0.4010E+02
      5.326  0.3272E+01  0.4050E+02
      5.449  0.2199E+01  0.4077E+02
      5.572  0.2968E+01  0.4114E+02
      5.695  0.2052E+01  0.4139E+02
      5.818  0.2685E+01  0.4172E+02
      5.941  0.3623E+01  0.4217E+02
      6.064  0.2731E+01  0.4250E+02
      6.187  0.3148E+01  0.4289E+02
      6.310  0.3188E+01  0.4328E+02
      6.433  0.4097E+01  0.4379E+02
      6.556  0.3786E+01  0.4425E+02
      6.679  0.3867E+01  0.4473E+02
      6.802  0.4177E+01  0.4524E+02
      6.925  0.3270E+01  0.4565E+02
      7.048  0.2758E+01  0.4599E+02
      7.171  0.3689E+01  0.4644E+02
      7.294  0.5200E+01  0.4708E+02
      7.417  0.4456E+01  0.4763E+02
      7.540  0.4763E+01  0.4821E+02
      7.663  0.5907E+01  0.4894E+02
      7.787  0.5707E+01  0.4964E+02
      7.910  0.5622E+01  0.5033E+02
      8.033  0.5145E+01  0.5097E+02
      8.156  0.5158E+01  0.5160E+02
      8.279  0.6093E+01  0.5235E+02
      8.402  0.5498E+01  0.5303E+02
      8.525  0.3692E+01  0.5348E+02
      8.648  0.4872E+01  0.5408E+02
      8.771  0.4956E+01  0.5469E+02
      8.894  0.6497E+01  0.5549E+02
      9.017  0.8161E+01  0.5649E+02
      9.140  0.7356E+01  0.5740E+02
      9.263  0.7450E+01  0.5832E+02
      9.386  0.5965E+01  0.5905E+02
      9.509  0.6574E+01  0.5986E+02
      9.632  0.6370E+01  0.6064E+02
      9.755  0.5703E+01  0.6134E+02
      9.878  0.7765E+01  0.6230E+02
     10.001  0.7948E+01  0.6328E+02
     10.124  0.6785E+01  0.6411E+02
     10.247  0.6196E+01  0.6487E+02
     10.370  0.4696E+01  0.6545E+02
     10.493  0.4411E+01  0.6599E+02
     10.616  0.3895E+01  0.6647E+02
     10.739  0.5927E+01  0.6720E+02
     10.862  0.7040E+01  0.6807E+02
     10.985  0.4164E+01  0.6858E+02
     11.108  0.1252E+01  0.6874E+02
     11.231  0.2116E+01  0.6900E+02
     11.354  0.3597E+01  0.6944E+02
     11.478  0.4035E+01  0.6994E+02
     11.601  0.2670E+01  0.7026E+02
     11.724  0.2008E+01  0.7051E+02
     11.847  0.1870E+01  0.7074E+02
     11.970  0.2700E+01  0.7107E+02
     12.093  0.3019E+01  0.7144E+02
     12.216  0.2028E+01  0.7169E+02
     12.339  0.1327E+01  0.7186E+02
     12.462  0.4726E+00  0.7192E+02
     12.585  0.1897E+00  0.7194E+02
     12.708  0.4081E+00  0.7199E+02
     12.831  0.8933E-01  0.7200E+02
     12.954  0.1492E-02  0.7200E+02
     13.077  0.1522E-05  0.7200E+02
     13.200  0.8461E-10  0.7200E+02
     13.323  0.2256E-15  0.7200E+02
     13.446  0.0000E+00  0.7200E+02
     13.569  0.0000E+00  0.7200E+02
     13.692  0.0000E+00  0.7200E+02
     13.815  0.0000E+00  0.7200E+02
     13.938  0.0000E+00  0.7200E+02
     14.061  0.0000E+00  0.7200E+02
     14.184  0.0000E+00  0.7200E+02
     14.307  0.0000E+00  0.7200E+02
     14.30725856    -22.60258517  301     -2.79045759      1.00000000
    -22.603  0.0000E+00  0.0000E+00  0.0000E+00  0.0000E+00  0.0000E+00  0.0000E+00  0.0000E+00  0.0000E+00  0.0000E+00
    -22.480  0.0000E+00  0.0000E+00  0.0000E+00  0.0000E+00  0.0000E+00  0.0000E+00  0.0000E+00  0.0000E+00  0.0000E+00
    -22.357  0.0000E+00  0.0000E+00  0.0000E+00  0.0000E+00  0.0000E+00  0.0000E+00  0.0000E+00  0.0000E+00  0.0000E+00
    -22.233  0.0000E+00  0.0000E+00  0.0000E+00  0.0000E+00  0.0000E+00  0.0000E+00  0.0000E+00  0.0000E+00  0.0000E+00
    -22.110  0.0000E+00  0.0000E+00  0.0000E+00  0.0000E+00  0.0000E+00  0.0000E+00  0.0000E+00  0.0000E+00  0.0000E+00
    -21.987  0.0000E+00  0.0000E+00  0.0000E+00  0.0000E+00  0.0000E+00  0.0000E+00  0.0000E+00  0.0000E+00  0.0000E+00
    -21.864  0.0000E+00  0.0000E+00  0.0000E+00  0.0000E+00  0.0000E+00  0.0000E+00  0.0000E+00  0.0000E+00  0.0000E+00
    -21.741  0.0000E+00  0.0000E+00  0.0000E+00  0.0000E+00  0.0000E+00  0.0000E+00  0.0000E+00  0.0000E+00  0.0000E+00
    -21.618  0.0000E+00  0.0000E+00  0.0000E+00  0.0000E+00  0.0000E+00  0.0000E+00  0.0000E+00  0.0000E+00  0.0000E+00
    -21.495  0.1064E-17  0.2562E-29  0.2527E-30  0.4396E-29  0.0000E+00  0.0000E+00  0.0000E+00  0.0000E+00  0.0000E+00
    -21.372  0.5409E-12  0.1236E-14  0.1843E-24  0.4082E-15  0.0000E+00  0.0000E+00  0.0000E+00  0.0000E+00  0.0000E+00
    -21.249  0.1240E-07  0.4670E-10  0.4985E-20  0.1499E-10  0.0000E+00  0.0000E+00  0.0000E+00  0.0000E+00  0.0000E+00
    -21.126  0.1764E-04  0.1041E-06  0.8155E-17  0.3021E-07  0.0000E+00  0.0000E+00  0.0000E+00  0.0000E+00  0.0000E+00
    -21.003  0.1813E-02  0.1821E-04  0.8779E-15  0.4100E-05  0.0000E+00  0.0000E+00  0.0000E+00  0.0000E+00  0.0000E+00
    -20.880  0.1936E-01  0.3944E-03  0.8153E-14  0.6631E-04  0.0000E+00  0.0000E+00  0.0000E+00  0.0000E+00  0.0000E+00
    -20.757  0.4082E-01  0.1959E-02  0.1181E-13  0.2751E-03  0.0000E+00  0.0000E+00  0.0000E+00  0.0000E+00  0.0000E+00
    -20.634  0.4182E-01  0.4527E-02  0.9095E-14  0.6500E-03  0.0000E+00  0.0000E+00  0.0000E+00  0.0000E+00  0.0000E+00
    -20.511  0.3844E-01  0.8185E-02  0.1032E-13  0.1345E-02  0.0000E+00  0.0000E+00  0.0000E+00  0.0000E+00  0.0000E+00
    -20.388  0.3430E-01  0.1491E-01  0.2345E-13  0.3247E-02  0.0000E+00  0.0000E+00  0.0000E+00  0.0000E+00  0.0000E+00
    -20.265  0.2635E-01  0.2381E-01  0.4522E-13  0.7357E-02  0.0000E+00  0.0000E+00  0.0000E+00  0.0000E+00  0.0000E+00
    -20.142  0.8761E-02  0.1404E-01  0.1909E-13  0.5830E-02  0.0000E+00  0.0000E+00  0.0000E+00  0.0000E+00  0.0000E+00
    -20.019  0.5818E-03  0.1600E-02  0.1465E-14  0.8511E-03  0.0000E+00  0.0000E+00  0.0000E+00  0.0000E+00  0.0000E+00
    -19.896  0.5103E-05  0.2201E-04  0.1708E-16  0.1402E-04  0.0000E+00  0.0000E+00  0.0000E+00  0.0000E+00  0.0000E+00
    -19.773  0.3682E-08  0.2421E-07  0.1886E-19  0.1802E-07  0.0000E+00  0.0000E+00  0.0000E+00  0.0000E+00  0.0000E+00
    -19.650  0.1598E-12  0.1765E-11  0.1441E-23  0.1489E-11  0.0000E+00  0.0000E+00  0.0000E+00  0.0000E+00  0.0000E+00
    -19.527  0.5358E-18  0.8313E-17  0.6914E-29  0.7363E-17  0.0000E+00  0.0000E+00  0.0000E+00  0.0000E+00  0.0000E+00
    -19.404  0.0000E+00  0.0000E+00  0.0000E+00  0.0000E+00  0.0000E+00  0.0000E+00  0.0000E+00  0.0000E+00  0.0000E+00
    -19.281  0.0000E+00  0.0000E+00  0.0000E+00  0.0000E+00  0.0000E+00  0.0000E+00  0.0000E+00  0.0000E+00  0.0000E+00
    -19.158  0.0000E+00  0.0000E+00  0.0000E+00  0.0000E+00  0.0000E+00  0.0000E+00  0.0000E+00  0.0000E+00  0.0000E+00
    -19.035  0.1914E-17  0.1156E-18  0.3548E-30  0.3853E-19  0.0000E+00  0.0000E+00  0.0000E+00  0.0000E+00  0.0000E+00
    -18.912  0.9569E-12  0.5774E-13  0.1739E-24  0.1967E-13  0.0000E+00  0.0000E+00  0.0000E+00  0.0000E+00  0.0000E+00
    -18.789  0.2247E-07  0.1353E-08  0.3894E-20  0.4856E-09  0.0000E+00  0.0000E+00  0.0000E+00  0.0000E+00  0.0000E+00
    -18.666  0.3212E-04  0.1924E-05  0.4800E-17  0.7909E-06  0.0000E+00  0.0000E+00  0.0000E+00  0.0000E+00  0.0000E+00
    -18.543  0.3639E-02  0.2185E-03  0.3915E-15  0.1110E-03  0.0000E+00  0.0000E+00  0.0000E+00  0.0000E+00  0.0000E+00
    -18.419  0.4679E-01  0.2910E-02  0.3871E-14  0.1772E-02  0.0000E+00  0.0000E+00  0.0000E+00  0.0000E+00  0.0000E+00
    -18.296  0.1131E+00  0.6974E-02  0.1374E-13  0.6908E-02  0.0000E+00  0.0000E+00  0.0000E+00  0.0000E+00  0.0000E+00
    -18.173  0.1322E+00  0.7219E-02  0.2092E-13  0.1407E-01  0.0000E+00  0.0000E+00  0.0000E+00  0.0000E+00  0.0000E+00
    -18.050  0.8789E-01  0.5963E-02  0.8343E-14  0.1166E-01  0.0000E+00  0.0000E+00  0.0000E+00  0.0000E+00  0.0000E+00
    -17.927  0.5796E-01  0.5636E-02  0.3844E-14  0.9220E-02  0.0000E+00  0.0000E+00  0.0000E+00  0.0000E+00  0.0000E+00
    -17.804  0.5812E-01  0.9701E-02  0.8170E-14  0.1142E-01  0.0000E+00  0.0000E+00  0.0000E+00  0.0000E+00  0.0000E+00
    -17.681  0.4865E-01  0.9893E-02  0.5161E-14  0.1107E-01  0.0000E+00  0.0000E+00  0.0000E+00  0.0000E+00  0.0000E+00
    -17.558  0.4275E-01  0.1301E-01  0.2065E-14  0.1477E-01  0.0000E+00  0.0000E+00  0.0000E+00  0.0000E+00  0.0000E+00
    -17.435  0.4372E-01  0.1713E-01  0.2638E-14  0.1972E-01  0.0000E+00  0.0000E+00  0.0000E+00  0.0000E+00  0.0000E+00
    -17.312  0.3387E-01  0.1894E-01  0.2506E-14  0.2523E-01  0.0000E+00  0.0000E+00  0.0000E+00  0.0000E+00  0.0000E+00
    -17.189  0.2304E-01  0.2475E-01  0.4836E-14  0.4107E-01  0.0000E+00  0.0000E+00  0.0000E+00  0.0000E+00  0.0000E+00
    -17.066  0.1740E-01  0.2477E-01  0.9993E-14  0.3888E-01  0.0000E+00  0.0000E+00  0.0000E+00  0.0000E+00  0.0000E+00
    -16.943  0.7908E-02  0.1596E-01  0.6334E-14  0.2623E-01  0.0000E+00  0.0000E+00  0.0000E+00  0.0000E+00  0.0000E+00
    -16.820  0.3433E-02  0.1151E-01  0.3004E-14  0.1910E-01  0.0000E+00  0.0000E+00  0.0000E+00  0.0000E+00  0.0000E+00
    -16.697  0.1446E-02  0.7157E-02  0.1920E-14  0.1242E-01  0.0000E+00  0.0000E+00  0.0000E+00  0.0000E+00  0.0000E+00
    -16.574  0.8362E-04  0.1621E-02  0.2854E-15  0.2997E-02  0.0000E+00  0.0000E+00  0.0000E+00  0.0000E+00  0.0000E+00
    -16.451  0.3320E-06  0.8364E-04  0.1224E-16  0.1267E-03  0.0000E+00  0.0000E+00  0.0000E+00  0.0000E+00  0.0000E+00
    -16.328  0.7510E-10  0.4101E-06  0.5921E-19  0.5011E-06  0.0000E+00  0.0000E+00  0.0000E+00  0.0000E+00  0.0000E+00
    -16.205  0.8985E-15  0.1308E-09  0.1889E-22  0.1413E-09  0.0000E+00  0.0000E+00  0.0000E+00  0.0000E+00  0.0000E+00
    -16.082  0.2824E-23  0.2332E-14  0.3369E-27  0.2388E-14  0.0000E+00  0.0000E+00  0.0000E+00  0.0000E+00  0.0000E+00
    -15.959  0.0000E+00  0.0000E+00  0.0000E+00  0.0000E+00  0.0000E+00  0.0000E+00  0.0000E+00  0.0000E+00  0.0000E+00
    -15.836  0.0000E+00  0.0000E+00  0.0000E+00  0.0000E+00  0.0000E+00  0.0000E+00  0.0000E+00  0.0000E+00  0.0000E+00
    -15.713  0.0000E+00  0.0000E+00  0.0000E+00  0.0000E+00  0.0000E+00  0.0000E+00  0.0000E+00  0.0000E+00  0.0000E+00
    -15.590  0.0000E+00  0.0000E+00  0.0000E+00  0.0000E+00  0.0000E+00  0.0000E+00  0.0000E+00  0.0000E+00  0.0000E+00
    -15.467  0.0000E+00  0.0000E+00  0.0000E+00  0.0000E+00  0.0000E+00  0.0000E+00  0.0000E+00  0.0000E+00  0.0000E+00
    -15.344  0.0000E+00  0.0000E+00  0.0000E+00  0.0000E+00  0.0000E+00  0.0000E+00  0.0000E+00  0.0000E+00  0.0000E+00
    -15.221  0.1438E-15  0.1021E-17  0.3137E-29  0.3403E-18  0.0000E+00  0.0000E+00  0.0000E+00  0.0000E+00  0.0000E+00
    -15.098  0.3101E-10  0.2392E-12  0.7100E-24  0.7972E-13  0.0000E+00  0.0000E+00  0.0000E+00  0.0000E+00  0.0000E+00
    -14.975  0.3665E-06  0.3271E-08  0.9172E-20  0.1090E-08  0.0000E+00  0.0000E+00  0.0000E+00  0.0000E+00  0.0000E+00
    -14.852  0.2608E-03  0.2842E-05  0.7399E-17  0.9487E-06  0.0000E+00  0.0000E+00  0.0000E+00  0.0000E+00  0.0000E+00
    -14.728  0.1326E-01  0.1874E-03  0.4281E-15  0.6530E-04  0.0000E+00  0.0000E+00  0.0000E+00  0.0000E+00  0.0000E+00
    -14.605  0.7686E-01  0.1659E-02  0.2510E-14  0.8732E-03  0.0000E+00  0.0000E+00  0.0000E+00  0.0000E+00  0.0000E+00
    -14.482  0.1647E+00  0.4923E-02  0.3915E-14  0.5025E-02  0.0000E+00  0.0000E+00  0.0000E+00  0.0000E+00  0.0000E+00
    -14.359  0.1840E+00  0.1130E-01  0.3466E-14  0.9599E-02  0.0000E+00  0.0000E+00  0.0000E+00  0.0000E+00  0.0000E+00
    -14.236  0.1286E+00  0.2401E-01  0.1521E-14  0.1102E-01  0.0000E+00  0.0000E+00  0.0000E+00  0.0000E+00  0.0000E+00
    -14.113  0.1904E+00  0.4415E-01  0.2798E-14  0.2015E-01  0.0000E+00  0.0000E+00  0.0000E+00  0.0000E+00  0.0000E+00
    -13.990  0.1633E+00  0.3233E-01  0.2948E-14  0.2681E-01  0.0000E+00  0.0000E+00  0.0000E+00  0.0000E+00  0.0000E+00
    -13.867  0.2584E-01  0.9332E-02  0.8739E-15  0.2568E-01  0.0000E+00  0.0000E+00  0.0000E+00  0.0000E+00  0.0000E+00
    -13.744  0.3850E-01  0.2520E-02  0.5785E-15  0.2938E-01  0.0000E+00  0.0000E+00  0.0000E+00  0.0000E+00  0.0000E+00
    -13.621  0.6342E-01  0.6071E-02  0.1668E-14  0.3162E-01  0.0000E+00  0.0000E+00  0.0000E+00  0.0000E+00  0.0000E+00
    -13.498  0.3666E-01  0.5556E-02  0.2038E-14  0.4513E-01  0.0000E+00  0.0000E+00  0.0000E+00  0.0000E+00  0.0000E+00
    -13.375  0.1509E-01  0.1675E-02  0.1568E-14  0.3312E-01  0.0000E+00  0.0000E+00  0.0000E+00  0.0000E+00  0.0000E+00
    -13.252  0.1424E-01  0.3798E-02  0.5501E-15  0.1927E-01  0.0000E+00  0.0000E+00  0.0000E+00  0.0000E+00  0.0000E+00
    -13.129  0.3954E-01  0.7535E-02  0.3792E-15  0.5344E-01  0.0000E+00  0.0000E+00  0.0000E+00  0.0000E+00  0.0000E+00
    -13.006  0.4925E-01  0.4030E-02  0.4229E-15  0.5961E-01  0.0000E+00  0.0000E+00  0.0000E+00  0.0000E+00  0.0000E+00
    -12.883  0.4882E-01  0.2769E-02  0.3902E-15  0.2137E-01  0.0000E+00  0.0000E+00  0.0000E+00  0.0000E+00  0.0000E+00
    -12.760  0.6459E-01  0.5425E-02  0.3549E-15  0.2991E-01  0.0000E+00  0.0000E+00  0.0000E+00  0.0000E+00  0.0000E+00
    -12.637  0.7543E-01  0.7514E-02  0.6095E-15  0.5034E-01  0.0000E+00  0.0000E+00  0.0000E+00  0.0000E+00  0.0000E+00
    -12.514  0.3633E-01  0.5335E-02  0.3586E-15  0.2375E-01  0.0000E+00  0.0000E+00  0.0000E+00  0.0000E+00  0.0000E+00
    -12.391  0.6415E-01  0.6478E-02  0.2278E-15  0.1223E-01  0.0000E+00  0.0000E+00  0.0000E+00  0.0000E+00  0.0000E+00
    -12.268  0.6945E-01  0.1085E-01  0.4476E-15  0.3161E-01  0.0000E+00  0.0000E+00  0.0000E+00  0.0000E+00  0.0000E+00
    -12.145  0.1942E-01  0.4715E-02  0.1492E-15  0.1518E-01  0.0000E+00  0.0000E+00  0.0000E+00  0.0000E+00  0.0000E+00
    -12.022  0.7231E-02  0.2237E-02  0.2393E-15  0.4487E-02  0.0000E+00  0.0000E+00  0.0000E+00  0.0000E+00  0.0000E+00
    -11.899  0.6334E-01  0.7658E-02  0.2071E-14  0.1453E-02  0.0000E+00  0.0000E+00  0.0000E+00  0.0000E+00  0.0000E+00
    -11.776  0.7108E-01  0.7912E-02  0.1986E-14  0.1400E-02  0.0000E+00  0.0000E+00  0.0000E+00  0.0000E+00  0.0000E+00
    -11.653  0.4484E-01  0.4056E-02  0.7319E-15  0.1261E-02  0.0000E+00  0.0000E+00  0.0000E+00  0.0000E+00  0.0000E+00
    -11.530  0.1792E-01  0.7456E-03  0.8705E-15  0.2474E-03  0.0000E+00  0.0000E+00  0.0000E+00  0.0000E+00  0.0000E+00
    -11.407  0.3525E-01  0.1283E-02  0.2985E-14  0.2598E-03  0.0000E+00  0.0000E+00  0.0000E+00  0.0000E+00  0.0000E+00
    -11.284  0.1359E+00  0.1440E-01  0.8790E-14  0.1681E-02  0.0000E+00  0.0000E+00  0.0000E+00  0.0000E+00  0.0000E+00
    -11.161  0.1272E+00  0.2120E-01  0.4422E-14  0.1881E-02  0.0000E+00  0.0000E+00  0.0000E+00  0.0000E+00  0.0000E+00
    -11.038  0.8930E-01  0.1305E-01  0.1815E-14  0.2997E-02  0.0000E+00  0.0000E+00  0.0000E+00  0.0000E+00  0.0000E+00
    -10.914  0.1083E+00  0.1821E-01  0.2865E-14  0.7158E-02  0.0000E+00  0.0000E+00  0.0000E+00  0.0000E+00  0.0000E+00
    -10.791  0.7629E-01  0.3041E-01  0.3444E-14  0.1643E-01  0.0000E+00  0.0000E+00  0.0000E+00  0.0000E+00  0.0000E+00
    -10.668  0.3475E-01  0.3365E-01  0.1173E-14  0.1631E-01  0.0000E+00  0.0000E+00  0.0000E+00  0.0000E+00  0.0000E+00
    -10.545  0.1219E+00  0.5667E-01  0.1603E-14  0.1036E-01  0.0000E+00  0.0000E+00  0.0000E+00  0.0000E+00  0.0000E+00
    -10.422  0.1829E+00  0.8166E-01  0.1924E-14  0.1574E-01  0.0000E+00  0.0000E+00  0.0000E+00  0.0000E+00  0.0000E+00
    -10.299  0.1175E+00  0.7105E-01  0.1180E-14  0.1645E-01  0.0000E+00  0.0000E+00  0.0000E+00  0.0000E+00  0.0000E+00
    -10.176  0.6079E-01  0.3677E-01  0.1274E-14  0.1569E-01  0.0000E+00  0.0000E+00  0.0000E+00  0.0000E+00  0.0000E+00
    -10.053  0.4330E-01  0.2597E-01  0.1081E-14  0.1511E-01  0.0000E+00  0.0000E+00  0.0000E+00  0.0000E+00  0.0000E+00
     -9.930  0.4564E-01  0.1035E-01  0.1532E-14  0.6304E-02  0.0000E+00  0.0000E+00  0.0000E+00  0.0000E+00  0.0000E+00
     -9.807  0.1904E+00  0.3897E-01  0.7077E-14  0.1189E-01  0.0000E+00  0.0000E+00  0.0000E+00  0.0000E+00  0.0000E+00
     -9.684  0.2417E+00  0.7136E-01  0.1042E-13  0.2867E-01  0.0000E+00  0.0000E+00  0.0000E+00  0.0000E+00  0.0000E+00
     -9.561  0.1140E+00  0.3170E-01  0.3950E-14  0.1485E-01  0.0000E+00  0.0000E+00  0.0000E+00  0.0000E+00  0.0000E+00
     -9.438  0.3256E-01  0.9437E-02  0.1943E-14  0.5374E-02  0.0000E+00  0.0000E+00  0.0000E+00  0.0000E+00  0.0000E+00
     -9.315  0.7741E-01  0.2141E-01  0.4161E-14  0.1455E-01  0.0000E+00  0.0000E+00  0.0000E+00  0.0000E+00  0.0000E+00
     -9.192  0.8276E-01  0.4390E-01  0.1849E-14  0.1785E-01  0.0000E+00  0.0000E+00  0.0000E+00  0.0000E+00  0.0000E+00
     -9.069  0.9922E-01  0.5683E-01  0.1809E-14  0.1542E-01  0.0000E+00  0.0000E+00  0.0000E+00  0.0000E+00  0.0000E+00
     -8.946  0.1472E+00  0.6041E-01  0.4222E-14  0.2433E-01  0.0000E+00  0.0000E+00  0.0000E+00  0.0000E+00  0.0000E+00
     -8.823  0.1019E+00  0.7557E-01  0.4594E-13  0.3687E-01  0.0000E+00  0.0000E+00  0.0000E+00  0.0000E+00  0.0000E+00
     -8.700  0.1960E-01  0.2611E-01  0.1543E-08  0.1329E-01  0.0000E+00  0.0000E+00  0.0000E+00  0.0000E+00  0.0000E+00
     -8.577  0.6490E-01  0.4026E-01  0.3470E-05  0.2040E-01  0.0000E+00  0.0000E+00  0.0000E+00  0.0000E+00  0.0000E+00
     -8.454  0.7787E-01  0.3750E-01  0.5883E-03  0.2122E-01  0.0000E+00  0.0000E+00  0.0000E+00  0.0000E+00  0.0000E+00
     -8.331  0.3693E-01  0.7035E-02  0.9599E-02  0.7344E-02  0.0000E+00  0.0000E+00  0.0000E+00  0.0000E+00  0.0000E+00
     -8.208  0.6756E-01  0.1029E-01  0.2700E-01  0.1740E-01  0.0000E+00  0.0000E+00  0.0000E+00  0.0000E+00  0.0000E+00
     -8.085  0.2980E-01  0.1327E-01  0.2992E-01  0.9535E-02  0.0000E+00  0.0000E+00  0.0000E+00  0.0000E+00  0.0000E+00
     -7.962  0.3173E-01  0.3856E-01  0.3217E-01  0.1338E-01  0.0000E+00  0.0000E+00  0.0000E+00  0.0000E+00  0.0000E+00
     -7.839  0.4838E-01  0.8235E-01  0.2580E-01  0.2770E-01  0.0000E+00  0.0000E+00  0.0000E+00  0.0000E+00  0.0000E+00
     -7.716  0.1079E+00  0.1388E+00  0.3259E-01  0.4110E-01  0.0000E+00  0.0000E+00  0.0000E+00  0.0000E+00  0.0000E+00
     -7.593  0.9878E-01  0.9957E-01  0.2230E-01  0.3195E-01  0.0000E+00  0.0000E+00  0.0000E+00  0.0000E+00  0.0000E+00
     -7.470  0.5446E-01  0.5638E-01  0.2881E-01  0.1606E-01  0.0000E+00  0.0000E+00  0.0000E+00  0.0000E+00  0.0000E+00
     -7.347  0.9295E-01  0.9988E-01  0.2346E-01  0.2783E-01  0.0000E+00  0.0000E+00  0.0000E+00  0.0000E+00  0.0000E+00
     -7.223  0.3310E-01  0.7353E-01  0.2115E-01  0.2292E-01  0.0000E+00  0.0000E+00  0.0000E+00  0.0000E+00  0.0000E+00
     -7.100  0.1383E-01  0.1395E+00  0.2223E-01  0.4560E-01  0.0000E+00  0.0000E+00  0.0000E+00  0.0000E+00  0.0000E+00
     -6.977  0.1849E-01  0.1871E+00  0.8620E-02  0.3886E-01  0.0000E+00  0.0000E+00  0.0000E+00  0.0000E+00  0.0000E+00
     -6.854  0.2014E-01  0.1151E+00  0.2433E-02  0.1914E-01  0.0000E+00  0.0000E+00  0.0000E+00  0.0000E+00  0.0000E+00
     -6.731  0.3864E-01  0.1694E+00  0.1112E-03  0.3268E-01  0.0000E+00  0.0000E+00  0.0000E+00  0.0000E+00  0.0000E+00
     -6.608  0.1746E-01  0.1154E+00  0.3788E-06  0.1679E-01  0.0000E+00  0.0000E+00  0.0000E+00  0.0000E+00  0.0000E+00
     -6.485  0.1914E-01  0.1363E+00  0.7592E-10  0.2790E-01  0.0000E+00  0.0000E+00  0.0000E+00  0.0000E+00  0.0000E+00
     -6.362  0.1542E-01  0.1301E+00  0.4004E-11  0.8834E-01  0.0000E+00  0.0000E+00  0.0000E+00  0.0000E+00  0.0000E+00
     -6.239  0.1672E-01  0.9915E-01  0.6026E-07  0.1458E+00  0.0000E+00  0.0000E+00  0.0000E+00  0.0000E+00  0.0000E+00
     -6.116  0.2296E-01  0.1681E+00  0.5043E-04  0.4319E+00  0.0000E+00  0.0000E+00  0.0000E+00  0.0000E+00  0.0000E+00
     -5.993  0.2807E-01  0.1502E+00  0.2982E-02  0.4484E+00  0.0000E+00  0.0000E+00  0.0000E+00  0.0000E+00  0.0000E+00
     -5.870  0.2556E-01  0.7381E-01  0.2692E-01  0.2656E+00  0.0000E+00  0.0000E+00  0.0000E+00  0.0000E+00  0.0000E+00
     -5.747  0.2105E-01  0.4487E-01  0.6350E-01  0.1481E+00  0.0000E+00  0.0000E+00  0.0000E+00  0.0000E+00  0.0000E+00
     -5.624  0.5329E-02  0.1015E-01  0.5632E-01  0.2719E-01  0.0000E+00  0.0000E+00  0.0000E+00  0.0000E+00  0.0000E+00
     -5.501  0.1835E-01  0.4672E-01  0.7939E-01  0.6483E-01  0.0000E+00  0.0000E+00  0.0000E+00  0.0000E+00  0.0000E+00
     -5.378  0.3318E-01  0.9482E-01  0.6219E-01  0.1152E+00  0.0000E+00  0.0000E+00  0.0000E+00  0.0000E+00  0.0000E+00
     -5.255  0.8281E-02  0.2585E-01  0.3919E-01  0.2456E-01  0.0000E+00  0.0000E+00  0.0000E+00  0.0000E+00  0.0000E+00
     -5.132  0.3382E-02  0.1455E-01  0.3063E-01  0.2413E-01  0.0000E+00  0.0000E+00  0.0000E+00  0.0000E+00  0.0000E+00
     -5.009  0.1939E-01  0.8182E-01  0.3425E-01  0.1071E+00  0.0000E+00  0.0000E+00  0.0000E+00  0.0000E+00  0.0000E+00
     -4.886  0.1974E-01  0.8963E-01  0.4346E-01  0.1180E+00  0.0000E+00  0.0000E+00  0.0000E+00  0.0000E+00  0.0000E+00
     -4.763  0.1044E-01  0.5922E-01  0.3169E-01  0.8399E-01  0.0000E+00  0.0000E+00  0.0000E+00  0.0000E+00  0.0000E+00
     -4.640  0.6248E-02  0.6055E-01  0.2615E-01  0.1288E+00  0.0000E+00  0.0000E+00  0.0000E+00  0.0000E+00  0.0000E+00
     -4.517  0.1039E-01  0.9264E-01  0.2578E-01  0.1864E+00  0.0000E+00  0.0000E+00  0.0000E+00  0.0000E+00  0.0000E+00
     -4.394  0.5020E-02  0.6319E-01  0.3664E-01  0.1391E+00  0.0000E+00  0.0000E+00  0.0000E+00  0.0000E+00  0.0000E+00
     -4.271  0.7941E-02  0.7397E-01  0.3525E-01  0.5582E-01  0.0000E+00  0.0000E+00  0.0000E+00  0.0000E+00  0.0000E+00
     -4.148  0.6703E-02  0.7905E-01  0.1535E-01  0.1386E+00  0.0000E+00  0.0000E+00  0.0000E+00  0.0000E+00  0.0000E+00
     -4.025  0.1772E-02  0.3052E-01  0.2066E-01  0.9140E-01  0.0000E+00  0.0000E+00  0.0000E+00  0.0000E+00  0.0000E+00
     -3.902  0.2370E-02  0.3865E-01  0.2399E-01  0.5056E-01  0.0000E+00  0.0000E+00  0.0000E+00  0.0000E+00  0.0000E+00
     -3.779  0.3483E-02  0.6873E-01  0.1092E-01  0.1127E+00  0.0000E+00  0.0000E+00  0.0000E+00  0.0000E+00  0.0000E+00
     -3.656  0.2184E-02  0.5004E-01  0.5307E-02  0.6057E-01  0.0000E+00  0.0000E+00  0.0000E+00  0.0000E+00  0.0000E+00
     -3.532  0.5201E-03  0.2857E-01  0.1593E-02  0.7283E-01  0.0000E+00  0.0000E+00  0.0000E+00  0.0000E+00  0.0000E+00
     -3.409  0.7601E-03  0.4591E-01  0.1132E-03  0.7264E-01  0.0000E+00  0.0000E+00  0.0000E+00  0.0000E+00  0.0000E+00