       N       E                     dE             d eps       ncg     rms          rms(c)
DAV:   1    -0.769289759264E+02   -0.76929E+02   -0.94807E-01  1464   0.403E+00
DAV:   2    -0.769425992623E+02   -0.13623E-01   -0.63006E-02  1788   0.132E+00
DAV:   3    -0.769428653687E+02   -0.26611E-03   -0.11550E-03  1776   0.127E-01
DAV:   4    -0.769428720395E+02   -0.66708E-05   -0.23271E-05  1740   0.196E-02
DAV:   5    -0.769428722130E+02   -0.17352E-06   -0.58589E-07  1788   0.300E-03
   1 F= -.76942872E+02 E0= -.76942872E+02  d E =-.135091E-14
 imaginary and real dielectric function
