       N       E                     dE             d eps       ncg     rms          rms(c)
DIA:   1    -0.734406276876E+02   -0.73441E+02    0.00000E+00     0   0.000E+00    0.131E+01
