 vasp.5.4.4.18Apr17-6-g9f103f2a35 (build Mar 30 2023 15:39:25) complex          
  
 executed on             LinuxIFC date 2023.06.16  05:04:36
 running on   12 total cores
 distrk:  each k-point on   12 cores,    1 groups
 distr:  one band on NCORES_PER_BAND=   1 cores,   12 groups


--------------------------------------------------------------------------------------------------------


 INCAR:
 POTCAR:    PAW_PBE B 06Sep2000                   
 POTCAR:    PAW_PBE C 08Apr2002                   

 ----------------------------------------------------------------------------- 
|                                                                             |
|           W    W    AA    RRRRR   N    N  II  N    N   GGGG   !!!           |
|           W    W   A  A   R    R  NN   N  II  NN   N  G    G  !!!           |
|           W    W  A    A  R    R  N N  N  II  N N  N  G       !!!           |
|           W WW W  AAAAAA  RRRRR   N  N N  II  N  N N  G  GGG   !            |
|           WW  WW  A    A  R   R   N   NN  II  N   NN  G    G                |
|           W    W  A    A  R    R  N    N  II  N    N   GGGG   !!!           |
|                                                                             |
|      For optimal performance we recommend to set                            |
|        NCORE= 4 - approx SQRT( number of cores)                             |
|      NCORE specifies how many cores store one orbital (NPAR=cpu/NCORE).     |
|      This setting can  greatly improve the performance of VASP for DFT.     |
|      The default,   NCORE=1            might be grossly inefficient         |
|      on modern multi-core architectures or massively parallel machines.     |
|      Do your own testing !!!!                                               |
|      Unfortunately you need to use the default for GW and RPA calculations. |
|      (for HF NCORE is supported but not extensively tested yet)             |
|                                                                             |
 ----------------------------------------------------------------------------- 

 POTCAR:    PAW_PBE B 06Sep2000                   
   SHA256 =  a32ced30f5ae56fd4d10b4325ff17eb3e4e38ee0f4288bc219fb012fddfa6e97 B/
   COPYR  = (c) Copyright 06Sep2000 Georg Kresse                                
   COPYR  = This file is part of the software VASP. Any use, copying, and all ot
   COPYR  = If you do not have a valid VASP license, you may not use, copy or di
   VRHFIN =B: s2p1                                                              
   LEXCH  = PE                                                                  
   EATOM  =    71.1703 eV,    5.2309 Ry                                         
                                                                                
   TITEL  = PAW_PBE B 06Sep2000                                                 
   LULTRA =        F    use ultrasoft PP ?                                      
   IUNSCR =        1    unscreen: 0-lin 1-nonlin 2-no                           
   RPACOR =    1.200    partial core radius                                     
   POMASS =   10.811; ZVAL   =    3.000    mass and valenz                      
   RCORE  =    1.700    outmost cutoff radius                                   
   RWIGS  =    1.710; RWIGS  =    0.905    wigner-seitz radius (au A)           
   ENMAX  =  318.614; ENMIN  =  238.960 eV                                      
   ICORE  =        2    local potential                                         
   LCOR   =        T    correct aug charges                                     
   LPAW   =        T    paw PP                                                  
   EAUG   =  535.514                                                            
   DEXC   =    0.000                                                            
   RMAX   =    1.732    core radius for proj-oper                               
   RAUG   =    1.300    factor for augmentation sphere                          
   RDEP   =    1.757    radius for radial grids                                 
   RDEPT  =    1.436    core radius for aug-charge                              
                                                                                
   Atomic configuration                                                         
    4 entries                                                                   
     n  l   j            E        occ.                                          
     1  0  0.50      -180.5896   2.0000                                         
     2  0  0.50        -9.4431   2.0000                                         
     2  1  0.50        -3.6068   1.0000                                         
     3  2  1.50        -4.0817   0.0000                                         
   Description                                                                  
     l       E           TYP  RCUT    TYP  RCUT                                 
     0     -9.4430752     23  1.500                                             
     0      0.8675899     23  1.500                                             
     1     -3.6067955     23  1.700                                             
     1      6.1086146     23  1.700                                             
     2     -4.0817478      7  1.700                                             
  local pseudopotential read in
  partial core-charges read in
  partial kinetic energy density read in
  atomic valenz-charges read in
  non local Contribution for L=           0  read in
    real space projection operators read in
  non local Contribution for L=           0  read in
    real space projection operators read in
  non local Contribution for L=           1  read in
    real space projection operators read in
  non local Contribution for L=           1  read in
    real space projection operators read in
    PAW grid and wavefunctions read in
 
   number of l-projection  operators is LMAX  =           4
   number of lm-projection operators is LMMAX =           8
 
 POTCAR:    PAW_PBE C 08Apr2002                   
   SHA256 =  253f7b50bb8d59471dbedb8285d89021f4a42ed1a2c5d38a03a736e69125dd95 C/
   COPYR  = (c) Copyright 08Apr2002 Georg Kresse                                
   COPYR  = This file is part of the software VASP. Any use, copying, and all ot
   COPYR  = If you do not have a valid VASP license, you may not use, copy or di
   VRHFIN =C: s2p2                                                              
   LEXCH  = PE                                                                  
   EATOM  =   147.1560 eV,   10.8157 Ry                                         
                                                                                
   TITEL  = PAW_PBE C 08Apr2002                                                 
   LULTRA =        F    use ultrasoft PP ?                                      
   IUNSCR =        1    unscreen: 0-lin 1-nonlin 2-no                           
   RPACOR =    1.200    partial core radius                                     
   POMASS =   12.011; ZVAL   =    4.000    mass and valenz                      
   RCORE  =    1.500    outmost cutoff radius                                   
   RWIGS  =    1.630; RWIGS  =    0.863    wigner-seitz radius (au A)           
   ENMAX  =  400.000; ENMIN  =  300.000 eV                                      
   ICORE  =        2    local potential                                         
   LCOR   =        T    correct aug charges                                     
   LPAW   =        T    paw PP                                                  
   EAUG   =  644.873                                                            
   DEXC   =    0.000                                                            
   RMAX   =    1.529    core radius for proj-oper                               
   RAUG   =    1.300    factor for augmentation sphere                          
   RDEP   =    1.501    radius for radial grids                                 
   RDEPT  =    1.300    core radius for aug-charge                              
                                                                                
   Atomic configuration                                                         
    4 entries                                                                   
     n  l   j            E        occ.                                          
     1  0  0.50      -273.3789   2.0000                                         
     2  0  0.50       -13.7508   2.0000                                         
     2  1  0.50        -5.2854   2.0000                                         
     3  2  1.50        -5.4423   0.0000                                         
   Description                                                                  
     l       E           TYP  RCUT    TYP  RCUT                                 
     0    -13.7508458     23  1.200                                             
     0     -8.2022199     23  1.200                                             
     1     -5.2854383     23  1.500                                             
     1     34.0145650     23  1.500                                             
     2     -5.4423304      7  1.500                                             
  local pseudopotential read in
  partial core-charges read in
  partial kinetic energy density read in
  atomic valenz-charges read in
  non local Contribution for L=           0  read in
    real space projection operators read in
  non local Contribution for L=           0  read in
    real space projection operators read in
  non local Contribution for L=           1  read in
    real space projection operators read in
  non local Contribution for L=           1  read in
    real space projection operators read in
    PAW grid and wavefunctions read in
 
   number of l-projection  operators is LMAX  =           4
   number of lm-projection operators is LMMAX =           8
 
  PAW_PBE B 06Sep2000                   :
 energy of atom  1       EATOM=  -71.1703
 kinetic energy error for atom=    0.0015 (will be added to EATOM!!)
  PAW_PBE C 08Apr2002                   :
 energy of atom  2       EATOM= -147.1560
 kinetic energy error for atom=    0.0116 (will be added to EATOM!!)
 
 
 POSCAR: BC3 with lattice parameter 5.174Ang, len
  positions in direct lattice
  velocities in cartesian coordinates
 exchange correlation table for  LEXCH =        8
   RHO(1)=    0.500       N(1)  =     2000
   RHO(2)=  100.500       N(2)  =     4000
 


--------------------------------------------------------------------------------------------------------


 ion  position               nearest neighbor table
   1  0.333  0.667  0.250-   3 1.57   7 1.57   5 1.57
   2  0.667  0.333  0.250-   4 1.57   8 1.57   6 1.57
   3  0.159  0.317  0.250-   6 1.42   4 1.42   1 1.57
   4  0.317  0.159  0.250-   5 1.42   3 1.42   2 1.57
   5  0.159  0.841  0.250-   4 1.42   8 1.42   1 1.57
   6  0.841  0.159  0.250-   3 1.42   7 1.42   2 1.57
   7  0.683  0.841  0.250-   6 1.42   8 1.42   1 1.57
   8  0.841  0.683  0.250-   5 1.42   7 1.42   2 1.57
 
  LATTYP: Found a hexagonal cell.
 ALAT       =     5.1740377035
 C/A-ratio  =     1.6467258045
  
  Lattice vectors:
  
 A1 = (   4.4808484340,   2.5870188517,   0.0000000000)
 A2 = (  -4.4808484340,   2.5870188517,   0.0000000000)
 A3 = (   0.0000000000,   0.0000000000,   8.5202213998)


Analysis of symmetry for initial positions (statically):
=====================================================================
 Subroutine PRICEL returns:
 Original cell was already a primitive cell.
 

 Routine SETGRP: Setting up the symmetry group for a 
 hexagonal supercell.


 Subroutine GETGRP returns: Found 24 space group operations
 (whereof 12 operations were pure point group operations)
 out of a pool of 24 trial point group operations.


The static configuration has the point symmetry C_6v.
 The point group associated with its full space group is D_6h.


Analysis of symmetry for dynamics (positions and initial velocities):
=====================================================================
 Subroutine PRICEL returns:
 Original cell was already a primitive cell.
 

 Routine SETGRP: Setting up the symmetry group for a 
 hexagonal supercell.


 Subroutine GETGRP returns: Found 24 space group operations
 (whereof 12 operations were pure point group operations)
 out of a pool of 24 trial point group operations.


The dynamic configuration has the point symmetry C_6v.
 The point group associated with its full space group is D_6h.


 Subroutine INISYM returns: Found 24 space group operations
 (whereof 12 operations are pure point group operations),
 and found     1 'primitive' translations



 irot  :   1
 --------------------------------------------------------------------
 isymop:   1   0   0
           0   1   0
           0   0   1

 gtrans:     0.0000000     0.0000000     0.0000000

 ptrans:     0.0000000     0.0000000     0.0000000
 
 rotmap:
 (   1->   1)  (   2->   2)  (   3->   3)  (   4->   4)  (   5->   5) 
 (   6->   6)  (   7->   7)  (   8->   8) 


 irot  :   2
 --------------------------------------------------------------------
 isymop:   1  -1   0
           1   0   0
           0   0   1

 gtrans:     0.0000000     0.0000000     0.0000000

 ptrans:     0.0000000     0.0000000     0.0000000
 
 rotmap:
 (   1->   2)  (   2->   1)  (   3->   6)  (   4->   3)  (   5->   4) 
 (   6->   7)  (   7->   8)  (   8->   5) 


 irot  :   3
 --------------------------------------------------------------------
 isymop:   0  -1   0
           1  -1   0
           0   0   1

 gtrans:     0.0000000     0.0000000     0.0000000

 ptrans:     0.0000000     0.0000000     0.0000000
 
 rotmap:
 (   1->   1)  (   2->   2)  (   3->   7)  (   4->   6)  (   5->   3) 
 (   6->   8)  (   7->   5)  (   8->   4) 


 irot  :   4
 --------------------------------------------------------------------
 isymop:  -1   0   0
           0  -1   0
           0   0   1

 gtrans:     0.0000000     0.0000000     0.0000000

 ptrans:     0.0000000     0.0000000     0.0000000
 
 rotmap:
 (   1->   2)  (   2->   1)  (   3->   8)  (   4->   7)  (   5->   6) 
 (   6->   5)  (   7->   4)  (   8->   3) 


 irot  :   5
 --------------------------------------------------------------------
 isymop:  -1   1   0
          -1   0   0
           0   0   1

 gtrans:     0.0000000     0.0000000     0.0000000

 ptrans:     0.0000000     0.0000000     0.0000000
 
 rotmap:
 (   1->   1)  (   2->   2)  (   3->   5)  (   4->   8)  (   5->   7) 
 (   6->   4)  (   7->   3)  (   8->   6) 


 irot  :   6
 --------------------------------------------------------------------
 isymop:   0   1   0
          -1   1   0
           0   0   1

 gtrans:     0.0000000     0.0000000     0.0000000

 ptrans:     0.0000000     0.0000000     0.0000000
 
 rotmap:
 (   1->   2)  (   2->   1)  (   3->   4)  (   4->   5)  (   5->   8) 
 (   6->   3)  (   7->   6)  (   8->   7) 


 irot  :   7
 --------------------------------------------------------------------
 isymop:  -1   1   0
           0   1   0
           0   0   1

 gtrans:     0.0000000     0.0000000     0.0000000

 ptrans:     0.0000000     0.0000000     0.0000000
 
 rotmap:
 (   1->   1)  (   2->   2)  (   3->   3)  (   4->   6)  (   5->   7) 
 (   6->   4)  (   7->   5)  (   8->   8) 


 irot  :   8
 --------------------------------------------------------------------
 isymop:   0   1   0
           1   0   0
           0   0   1

 gtrans:     0.0000000     0.0000000     0.0000000

 ptrans:     0.0000000     0.0000000     0.0000000
 
 rotmap:
 (   1->   2)  (   2->   1)  (   3->   4)  (   4->   3)  (   5->   6) 
 (   6->   5)  (   7->   8)  (   8->   7) 


 irot  :   9
 --------------------------------------------------------------------
 isymop:   1   0   0
           1  -1   0
           0   0   1

 gtrans:     0.0000000     0.0000000     0.0000000

 ptrans:     0.0000000     0.0000000     0.0000000
 
 rotmap:
 (   1->   1)  (   2->   2)  (   3->   5)  (   4->   4)  (   5->   3) 
 (   6->   8)  (   7->   7)  (   8->   6) 


 irot  :  10
 --------------------------------------------------------------------
 isymop:   1  -1   0
           0  -1   0
           0   0   1

 gtrans:     0.0000000     0.0000000     0.0000000

 ptrans:     0.0000000     0.0000000     0.0000000
 
 rotmap:
 (   1->   2)  (   2->   1)  (   3->   8)  (   4->   5)  (   5->   4) 
 (   6->   7)  (   7->   6)  (   8->   3) 


 irot  :  11
 --------------------------------------------------------------------
 isymop:   0  -1   0
          -1   0   0
           0   0   1

 gtrans:     0.0000000     0.0000000     0.0000000

 ptrans:     0.0000000     0.0000000     0.0000000
 
 rotmap:
 (   1->   1)  (   2->   2)  (   3->   7)  (   4->   8)  (   5->   5) 
 (   6->   6)  (   7->   3)  (   8->   4) 


 irot  :  12
 --------------------------------------------------------------------
 isymop:  -1   0   0
          -1   1   0
           0   0   1

 gtrans:     0.0000000     0.0000000     0.0000000

 ptrans:     0.0000000     0.0000000     0.0000000
 
 rotmap:
 (   1->   2)  (   2->   1)  (   3->   6)  (   4->   7)  (   5->   8) 
 (   6->   3)  (   7->   4)  (   8->   5) 


 irot  :  13
 --------------------------------------------------------------------
 isymop:  -1   0   0
           0  -1   0
           0   0  -1

 gtrans:     0.0000000     0.0000000     0.5000000

 ptrans:     0.0000000     0.0000000     0.0000000
 
 rotmap:
 (   1->   2)  (   2->   1)  (   3->   8)  (   4->   7)  (   5->   6) 
 (   6->   5)  (   7->   4)  (   8->   3) 


 irot  :  14
 --------------------------------------------------------------------
 isymop:  -1   1   0
          -1   0   0
           0   0  -1

 gtrans:     0.0000000     0.0000000     0.5000000

 ptrans:     0.0000000     0.0000000     0.0000000
 
 rotmap:
 (   1->   1)  (   2->   2)  (   3->   5)  (   4->   8)  (   5->   7) 
 (   6->   4)  (   7->   3)  (   8->   6) 


 irot  :  15
 --------------------------------------------------------------------
 isymop:   0   1   0
          -1   1   0
           0   0  -1

 gtrans:     0.0000000     0.0000000     0.5000000

 ptrans:     0.0000000     0.0000000     0.0000000
 
 rotmap:
 (   1->   2)  (   2->   1)  (   3->   4)  (   4->   5)  (   5->   8) 
 (   6->   3)  (   7->   6)  (   8->   7) 


 irot  :  16
 --------------------------------------------------------------------
 isymop:   1   0   0
           0   1   0
           0   0  -1

 gtrans:     0.0000000     0.0000000     0.5000000

 ptrans:     0.0000000     0.0000000     0.0000000
 
 rotmap:
 (   1->   1)  (   2->   2)  (   3->   3)  (   4->   4)  (   5->   5) 
 (   6->   6)  (   7->   7)  (   8->   8) 


 irot  :  17
 --------------------------------------------------------------------
 isymop:   1  -1   0
           1   0   0
           0   0  -1

 gtrans:     0.0000000     0.0000000     0.5000000

 ptrans:     0.0000000     0.0000000     0.0000000
 
 rotmap:
 (   1->   2)  (   2->   1)  (   3->   6)  (   4->   3)  (   5->   4) 
 (   6->   7)  (   7->   8)  (   8->   5) 


 irot  :  18
 --------------------------------------------------------------------
 isymop:   0  -1   0
           1  -1   0
           0   0  -1

 gtrans:     0.0000000     0.0000000     0.5000000

 ptrans:     0.0000000     0.0000000     0.0000000
 
 rotmap:
 (   1->   1)  (   2->   2)  (   3->   7)  (   4->   6)  (   5->   3) 
 (   6->   8)  (   7->   5)  (   8->   4) 


 irot  :  19
 --------------------------------------------------------------------
 isymop:   1  -1   0
           0  -1   0
           0   0  -1

 gtrans:     0.0000000     0.0000000     0.5000000

 ptrans:     0.0000000     0.0000000     0.0000000
 
 rotmap:
 (   1->   2)  (   2->   1)  (   3->   8)  (   4->   5)  (   5->   4) 
 (   6->   7)  (   7->   6)  (   8->   3) 


 irot  :  20
 --------------------------------------------------------------------
 isymop:   0  -1   0
          -1   0   0
           0   0  -1

 gtrans:     0.0000000     0.0000000     0.5000000

 ptrans:     0.0000000     0.0000000     0.0000000
 
 rotmap:
 (   1->   1)  (   2->   2)  (   3->   7)  (   4->   8)  (   5->   5) 
 (   6->   6)  (   7->   3)  (   8->   4) 


 irot  :  21
 --------------------------------------------------------------------
 isymop:  -1   0   0
          -1   1   0
           0   0  -1

 gtrans:     0.0000000     0.0000000     0.5000000

 ptrans:     0.0000000     0.0000000     0.0000000
 
 rotmap:
 (   1->   2)  (   2->   1)  (   3->   6)  (   4->   7)  (   5->   8) 
 (   6->   3)  (   7->   4)  (   8->   5) 


 irot  :  22
 --------------------------------------------------------------------
 isymop:  -1   1   0
           0   1   0
           0   0  -1

 gtrans:     0.0000000     0.0000000     0.5000000

 ptrans:     0.0000000     0.0000000     0.0000000
 
 rotmap:
 (   1->   1)  (   2->   2)  (   3->   3)  (   4->   6)  (   5->   7) 
 (   6->   4)  (   7->   5)  (   8->   8) 


 irot  :  23
 --------------------------------------------------------------------
 isymop:   0   1   0
           1   0   0
           0   0  -1

 gtrans:     0.0000000     0.0000000     0.5000000

 ptrans:     0.0000000     0.0000000     0.0000000
 
 rotmap:
 (   1->   2)  (   2->   1)  (   3->   4)  (   4->   3)  (   5->   6) 
 (   6->   5)  (   7->   8)  (   8->   7) 


 irot  :  24
 --------------------------------------------------------------------
 isymop:   1   0   0
           1  -1   0
           0   0  -1

 gtrans:     0.0000000     0.0000000     0.5000000

 ptrans:     0.0000000     0.0000000     0.0000000
 
 rotmap:
 (   1->   1)  (   2->   2)  (   3->   5)  (   4->   4)  (   5->   3) 
 (   6->   8)  (   7->   7)  (   8->   6) 
 
 
 KPOINTS: K-points for BC3                        

Automatic generation of k-mesh.
Space group operators:
 irot       det(A)        alpha          n_x          n_y          n_z        tau_x        tau_y        tau_z
    1     1.000000     0.000000     1.000000     0.000000     0.000000     0.000000     0.000000     0.000000
    2     1.000000    60.000000     0.000000     0.000000    -1.000000     0.000000     0.000000     0.000000
    3     1.000000   120.000000     0.000000     0.000000    -1.000000     0.000000     0.000000     0.000000
    4     1.000000   180.000000     0.000000     0.000000     1.000000     0.000000     0.000000     0.000000
    5     1.000000   120.000000     0.000000     0.000000     1.000000     0.000000     0.000000     0.000000
    6     1.000000    60.000000     0.000000     0.000000     1.000000     0.000000     0.000000     0.000000
    7    -1.000000   180.000000     0.866025     0.500000     0.000000     0.000000     0.000000     0.000000
    8    -1.000000   180.000000     1.000000     0.000000     0.000000     0.000000     0.000000     0.000000
    9    -1.000000   180.000000     0.866025    -0.500000     0.000000     0.000000     0.000000     0.000000
   10    -1.000000   180.000000     0.500000    -0.866025     0.000000     0.000000     0.000000     0.000000
   11    -1.000000   180.000000     0.000000     1.000000     0.000000     0.000000     0.000000     0.000000
   12    -1.000000   180.000000    -0.500000    -0.866025     0.000000     0.000000     0.000000     0.000000
   13    -1.000000     0.000000     1.000000     0.000000     0.000000     0.000000     0.000000     0.500000
   14    -1.000000    60.000000     0.000000     0.000000    -1.000000     0.000000     0.000000     0.500000
   15    -1.000000   120.000000     0.000000     0.000000    -1.000000     0.000000     0.000000     0.500000
   16    -1.000000   180.000000     0.000000     0.000000     1.000000     0.000000     0.000000     0.500000
   17    -1.000000   120.000000     0.000000     0.000000     1.000000     0.000000     0.000000     0.500000
   18    -1.000000    60.000000     0.000000     0.000000     1.000000     0.000000     0.000000     0.500000
   19     1.000000   180.000000     0.866025     0.500000     0.000000     0.000000     0.000000     0.500000
   20     1.000000   180.000000     1.000000     0.000000     0.000000     0.000000     0.000000     0.500000
   21     1.000000   180.000000     0.866025    -0.500000     0.000000     0.000000     0.000000     0.500000
   22     1.000000   180.000000     0.500000    -0.866025     0.000000     0.000000     0.000000     0.500000
   23     1.000000   180.000000     0.000000     1.000000     0.000000     0.000000     0.000000     0.500000
   24     1.000000   180.000000    -0.500000    -0.866025     0.000000     0.000000     0.000000     0.500000
 
 Subroutine IBZKPT returns following result:
 ===========================================
 
 Found     19 irreducible k-points:
 
 Following reciprocal coordinates:
            Coordinates               Weight
  0.000000  0.000000  0.000000      1.000000
  0.083333  0.000000  0.000000      6.000000
  0.166667  0.000000  0.000000      6.000000
  0.250000 -0.000000  0.000000      6.000000
  0.333333 -0.000000  0.000000      6.000000
  0.416667  0.000000  0.000000      6.000000
  0.500000 -0.000000  0.000000      3.000000
  0.083333  0.083333  0.000000      6.000000
  0.166667  0.083333  0.000000     12.000000
  0.250000  0.083333  0.000000     12.000000
  0.333333  0.083333  0.000000     12.000000
  0.416667  0.083333  0.000000     12.000000
  0.166667  0.166667  0.000000      6.000000
  0.250000  0.166667  0.000000     12.000000
  0.333333  0.166667  0.000000     12.000000
  0.416667  0.166667  0.000000      6.000000
  0.250000  0.250000  0.000000      6.000000
  0.333333  0.250000  0.000000     12.000000
  0.333333  0.333333  0.000000      2.000000
 
 Following cartesian coordinates:
            Coordinates               Weight
  0.000000  0.000000  0.000000      1.000000
  0.009299  0.016106  0.000000      6.000000
  0.018598  0.032212  0.000000      6.000000
  0.027897  0.048318  0.000000      6.000000
  0.037195  0.064424  0.000000      6.000000
  0.046494  0.080530  0.000000      6.000000
  0.055793  0.096636  0.000000      3.000000
  0.000000  0.032212  0.000000      6.000000
  0.009299  0.048318  0.000000     12.000000
  0.018598  0.064424  0.000000     12.000000
  0.027897  0.080530  0.000000     12.000000
  0.037195  0.096636  0.000000     12.000000
  0.000000  0.064424  0.000000      6.000000
  0.009299  0.080530  0.000000     12.000000
  0.018598  0.096636  0.000000     12.000000
  0.027897  0.112742  0.000000      6.000000
  0.000000  0.096636  0.000000      6.000000
  0.009299  0.112742  0.000000     12.000000
  0.000000  0.128848  0.000000      2.000000
 
 
 Subroutine IBZKPT_HF returns following result:
 ==============================================
 
 Found    144 k-points in 1st BZ
 the following    144 k-points will be used (e.g. in the exchange kernel)
 Following reciprocal coordinates:   # in IRBZ
  0.000000  0.000000  0.000000    0.00694444   1 t-inv F
  0.083333  0.000000  0.000000    0.00694444   2 t-inv F
  0.166667  0.000000  0.000000    0.00694444   3 t-inv F
  0.250000 -0.000000  0.000000    0.00694444   4 t-inv F
  0.333333 -0.000000  0.000000    0.00694444   5 t-inv F
  0.416667  0.000000  0.000000    0.00694444   6 t-inv F
  0.500000 -0.000000  0.000000    0.00694444   7 t-inv F
  0.083333  0.083333  0.000000    0.00694444   8 t-inv F
  0.166667  0.083333  0.000000    0.00694444   9 t-inv F
  0.250000  0.083333  0.000000    0.00694444  10 t-inv F
  0.333333  0.083333  0.000000    0.00694444  11 t-inv F
  0.416667  0.083333  0.000000    0.00694444  12 t-inv F
  0.166667  0.166667  0.000000    0.00694444  13 t-inv F
  0.250000  0.166667  0.000000    0.00694444  14 t-inv F
  0.333333  0.166667  0.000000    0.00694444  15 t-inv F
  0.416667  0.166667  0.000000    0.00694444  16 t-inv F
  0.250000  0.250000  0.000000    0.00694444  17 t-inv F
  0.333333  0.250000  0.000000    0.00694444  18 t-inv F
  0.333333  0.333333  0.000000    0.00694444  19 t-inv F
 -0.000000  0.083333  0.000000    0.00694444   2 t-inv F
 -0.083333  0.083333  0.000000    0.00694444   2 t-inv F
 -0.083333 -0.000000  0.000000    0.00694444   2 t-inv F
  0.000000 -0.083333  0.000000    0.00694444   2 t-inv F
  0.083333 -0.083333  0.000000    0.00694444   2 t-inv F
  0.000000  0.166667  0.000000    0.00694444   3 t-inv F
 -0.166667  0.166667  0.000000    0.00694444   3 t-inv F
 -0.166667  0.000000  0.000000    0.00694444   3 t-inv F
  0.000000 -0.166667  0.000000    0.00694444   3 t-inv F
  0.166667 -0.166667  0.000000    0.00694444   3 t-inv F
  0.000000  0.250000  0.000000    0.00694444   4 t-inv F
 -0.250000  0.250000  0.000000    0.00694444   4 t-inv F
 -0.250000  0.000000  0.000000    0.00694444   4 t-inv F
 -0.000000 -0.250000  0.000000    0.00694444   4 t-inv F
  0.250000 -0.250000  0.000000    0.00694444   4 t-inv F
  0.000000  0.333333  0.000000    0.00694444   5 t-inv F
 -0.333333  0.333333  0.000000    0.00694444   5 t-inv F
 -0.333333  0.000000  0.000000    0.00694444   5 t-inv F
 -0.000000 -0.333333  0.000000    0.00694444   5 t-inv F
  0.333333 -0.333333  0.000000    0.00694444   5 t-inv F
  0.000000  0.416667  0.000000    0.00694444   6 t-inv F
 -0.416667  0.416667  0.000000    0.00694444   6 t-inv F
 -0.416667  0.000000  0.000000    0.00694444   6 t-inv F
  0.000000 -0.416667  0.000000    0.00694444   6 t-inv F
  0.416667 -0.416667  0.000000    0.00694444   6 t-inv F
  0.000000  0.500000  0.000000    0.00694444   7 t-inv F
 -0.500000  0.500000  0.000000    0.00694444   7 t-inv F
 -0.083333  0.166667  0.000000    0.00694444   8 t-inv F
 -0.166667  0.083333  0.000000    0.00694444   8 t-inv F
 -0.083333 -0.083333  0.000000    0.00694444   8 t-inv F
  0.083333 -0.166667  0.000000    0.00694444   8 t-inv F
  0.166667 -0.083333  0.000000    0.00694444   8 t-inv F
 -0.083333  0.250000  0.000000    0.00694444   9 t-inv F
 -0.250000  0.166667  0.000000    0.00694444   9 t-inv F
 -0.166667 -0.083333  0.000000    0.00694444   9 t-inv F
  0.083333 -0.250000  0.000000    0.00694444   9 t-inv F
  0.250000 -0.166667  0.000000    0.00694444   9 t-inv F
 -0.166667  0.250000  0.000000    0.00694444   9 t-inv F
  0.083333  0.166667  0.000000    0.00694444   9 t-inv F
  0.250000 -0.083333  0.000000    0.00694444   9 t-inv F
  0.166667 -0.250000  0.000000    0.00694444   9 t-inv F
 -0.083333 -0.166667  0.000000    0.00694444   9 t-inv F
 -0.250000  0.083333  0.000000    0.00694444   9 t-inv F
 -0.083333  0.333333  0.000000    0.00694444  10 t-inv F
 -0.333333  0.250000  0.000000    0.00694444  10 t-inv F
 -0.250000 -0.083333  0.000000    0.00694444  10 t-inv F
  0.083333 -0.333333  0.000000    0.00694444  10 t-inv F
  0.333333 -0.250000  0.000000    0.00694444  10 t-inv F
 -0.250000  0.333333  0.000000    0.00694444  10 t-inv F
  0.083333  0.250000  0.000000    0.00694444  10 t-inv F
  0.333333 -0.083333  0.000000    0.00694444  10 t-inv F
  0.250000 -0.333333  0.000000    0.00694444  10 t-inv F
 -0.083333 -0.250000  0.000000    0.00694444  10 t-inv F
 -0.333333  0.083333  0.000000    0.00694444  10 t-inv F
 -0.083333  0.416667  0.000000    0.00694444  11 t-inv F
 -0.416667  0.333333  0.000000    0.00694444  11 t-inv F
 -0.333333 -0.083333  0.000000    0.00694444  11 t-inv F
  0.083333 -0.416667  0.000000    0.00694444  11 t-inv F
  0.416667 -0.333333  0.000000    0.00694444  11 t-inv F
 -0.333333  0.416667  0.000000    0.00694444  11 t-inv F
  0.083333  0.333333  0.000000    0.00694444  11 t-inv F
  0.416667 -0.083333  0.000000    0.00694444  11 t-inv F
  0.333333 -0.416667  0.000000    0.00694444  11 t-inv F
 -0.083333 -0.333333  0.000000    0.00694444  11 t-inv F
 -0.416667  0.083333  0.000000    0.00694444  11 t-inv F
 -0.083333  0.500000  0.000000    0.00694444  12 t-inv F
 -0.500000  0.416667  0.000000    0.00694444  12 t-inv F
 -0.416667 -0.083333  0.000000    0.00694444  12 t-inv F
  0.083333 -0.500000  0.000000    0.00694444  12 t-inv F
  0.500000 -0.416667  0.000000    0.00694444  12 t-inv F
 -0.416667  0.500000  0.000000    0.00694444  12 t-inv F
  0.083333  0.416667  0.000000    0.00694444  12 t-inv F
  0.500000 -0.083333  0.000000    0.00694444  12 t-inv F
  0.416667 -0.500000  0.000000    0.00694444  12 t-inv F
 -0.083333 -0.416667  0.000000    0.00694444  12 t-inv F
 -0.500000  0.083333  0.000000    0.00694444  12 t-inv F
 -0.166667  0.333333  0.000000    0.00694444  13 t-inv F
 -0.333333  0.166667  0.000000    0.00694444  13 t-inv F
 -0.166667 -0.166667  0.000000    0.00694444  13 t-inv F
  0.166667 -0.333333  0.000000    0.00694444  13 t-inv F
  0.333333 -0.166667  0.000000    0.00694444  13 t-inv F
 -0.166667  0.416667  0.000000    0.00694444  14 t-inv F
 -0.416667  0.250000  0.000000    0.00694444  14 t-inv F
 -0.250000 -0.166667  0.000000    0.00694444  14 t-inv F
  0.166667 -0.416667  0.000000    0.00694444  14 t-inv F
  0.416667 -0.250000  0.000000    0.00694444  14 t-inv F
 -0.250000  0.416667  0.000000    0.00694444  14 t-inv F
  0.166667  0.250000  0.000000    0.00694444  14 t-inv F
  0.416667 -0.166667  0.000000    0.00694444  14 t-inv F
  0.250000 -0.416667  0.000000    0.00694444  14 t-inv F
 -0.166667 -0.250000  0.000000    0.00694444  14 t-inv F
 -0.416667  0.166667  0.000000    0.00694444  14 t-inv F
 -0.166667  0.500000  0.000000    0.00694444  15 t-inv F
 -0.500000  0.333333  0.000000    0.00694444  15 t-inv F
 -0.333333 -0.166667  0.000000    0.00694444  15 t-inv F
  0.166667 -0.500000  0.000000    0.00694444  15 t-inv F
  0.500000 -0.333333  0.000000    0.00694444  15 t-inv F
 -0.333333  0.500000  0.000000    0.00694444  15 t-inv F
  0.166667  0.333333  0.000000    0.00694444  15 t-inv F
  0.500000 -0.166667  0.000000    0.00694444  15 t-inv F
  0.333333 -0.500000  0.000000    0.00694444  15 t-inv F
 -0.166667 -0.333333  0.000000    0.00694444  15 t-inv F
 -0.500000  0.166667  0.000000    0.00694444  15 t-inv F
 -0.166667  0.583333  0.000000    0.00694444  16 t-inv F
 -0.583333  0.416667  0.000000    0.00694444  16 t-inv F
 -0.416667 -0.166667  0.000000    0.00694444  16 t-inv F
  0.166667 -0.583333  0.000000    0.00694444  16 t-inv F
  0.583333 -0.416667  0.000000    0.00694444  16 t-inv F
 -0.250000  0.500000  0.000000    0.00694444  17 t-inv F
 -0.500000  0.250000  0.000000    0.00694444  17 t-inv F
 -0.250000 -0.250000  0.000000    0.00694444  17 t-inv F
  0.250000 -0.500000  0.000000    0.00694444  17 t-inv F
  0.500000 -0.250000  0.000000    0.00694444  17 t-inv F
 -0.250000  0.583333  0.000000    0.00694444  18 t-inv F
 -0.583333  0.333333  0.000000    0.00694444  18 t-inv F
 -0.333333 -0.250000  0.000000    0.00694444  18 t-inv F
  0.250000 -0.583333  0.000000    0.00694444  18 t-inv F
  0.583333 -0.333333  0.000000    0.00694444  18 t-inv F
 -0.333333  0.583333  0.000000    0.00694444  18 t-inv F
  0.250000  0.333333  0.000000    0.00694444  18 t-inv F
  0.583333 -0.250000  0.000000    0.00694444  18 t-inv F
  0.333333 -0.583333  0.000000    0.00694444  18 t-inv F
 -0.250000 -0.333333  0.000000    0.00694444  18 t-inv F
 -0.583333  0.250000  0.000000    0.00694444  18 t-inv F
 -0.333333  0.666667  0.000000    0.00694444  19 t-inv F

 ----------------------------------------------------------------------------- 
|                                                                             |
|           W    W    AA    RRRRR   N    N  II  N    N   GGGG   !!!           |
|           W    W   A  A   R    R  NN   N  II  NN   N  G    G  !!!           |
|           W    W  A    A  R    R  N N  N  II  N N  N  G       !!!           |
|           W WW W  AAAAAA  RRRRR   N  N N  II  N  N N  G  GGG   !            |
|           WW  WW  A    A  R   R   N   NN  II  N   NN  G    G                |
|           W    W  A    A  R    R  N    N  II  N    N   GGGG   !!!           |
|                                                                             |
|      The number of bands has been changed from the values supplied          |
|      in the INCAR file. This is a result of running the parallel version.   |
|      The orbitals not found in the WAVECAR file will be initialized with    |
|      random numbers, which is usually adequate. For correlated              |
|      calculations, however, you should redo the groundstate calculation.    |
|      I found NBANDS    =       30  now  NBANDS  =      36                   |
|                                                                             |
 ----------------------------------------------------------------------------- 



--------------------------------------------------------------------------------------------------------




 Dimension of arrays:
   k-points           NKPTS =     19   k-points in BZ     NKDIM =    144   number of bands    NBANDS=     36
   number of dos      NEDOS =    301   number of ions     NIONS =      8
   non local maximal  LDIM  =      4   non local SUM 2l+1 LMDIM =      8
   total plane-waves  NPLWV =  77760
   max r-space proj   IRMAX =      1   max aug-charges    IRDMAX=   6338
   dimension x,y,z NGX =    36 NGY =   36 NGZ =   60
   dimension x,y,z NGXF=    72 NGYF=   72 NGZF=  120
   support grid    NGXF=    72 NGYF=   72 NGZF=  120
   ions per type =               2   6
   NGX,Y,Z   is equivalent  to a cutoff of  11.57, 11.57, 11.71 a.u.
   NGXF,Y,Z  is equivalent  to a cutoff of  23.13, 23.13, 23.41 a.u.

 SYSTEM =  BC3-optical                             
 POSCAR =  BC3 with lattice parameter 5.174Ang, len

 Startparameter for this run:
   NWRITE =      3    write-flag & timer
   PREC   = accura    normal or accurate (medium, high low for compatibility)
   ISTART =      1    job   : 0-new  1-cont  2-samecut
   ICHARG =     11    charge: 1-file 2-atom 10-const
   ISPIN  =      1    spin polarized calculation?
   LNONCOLLINEAR =      F non collinear calculations
   LSORBIT =      F    spin-orbit coupling
   INIWAV =      1    electr: 0-lowe 1-rand  2-diag
   LASPH  =      F    aspherical Exc in radial PAW
   METAGGA=      F    non-selfconsistent MetaGGA calc.

 Electronic Relaxation 1
   ENCUT  =  450.0 eV  33.07 Ry    5.75 a.u.   8.95  8.95 14.74*2*pi/ulx,y,z
   ENINI  =  450.0     initial cutoff
   ENAUG  =  644.9 eV  augmentation charge cutoff
   NELM   =     60;   NELMIN=  2; NELMDL=  0     # of ELM steps 
   EDIFF  = 0.1E-05   stopping-criterion for ELM
   LREAL  =      F    real-space projection
   NLSPLINE    = F    spline interpolate recip. space projectors
   LCOMPAT=      F    compatible to vasp.4.4
   GGA_COMPAT  = T    GGA compatible to vasp.4.4-vasp.4.6
   LMAXPAW     = -100 max onsite density
   LMAXMIX     =    2 max onsite mixed and CHGCAR
   VOSKOWN=      0    Vosko Wilk Nusair interpolation
   ROPT   =    0.00000   0.00000
 Ionic relaxation
   EDIFFG = 0.1E-04   stopping-criterion for IOM
   NSW    =      0    number of steps for IOM
   NBLOCK =      1;   KBLOCK =      1    inner block; outer block 
   IBRION =     -1    ionic relax: 0-MD 1-quasi-New 2-CG
   NFREE  =      0    steps in history (QN), initial steepest desc. (CG)
   ISIF   =      0    stress and relaxation
   IWAVPR =     10    prediction:  0-non 1-charg 2-wave 3-comb
   ISYM   =      3    0-nonsym 1-usesym 2-fastsym
   LCORR  =      T    Harris-Foulkes like correction to forces

   POTIM  = 0.5000    time-step for ionic-motion
   TEIN   =    0.0    initial temperature
   TEBEG  =    0.0;   TEEND  =   0.0 temperature during run
   SMASS  =  -3.00    Nose mass-parameter (am)
   estimated Nose-frequenzy (Omega)   =  0.10E-29 period in steps =****** mass=  -0.612E-27a.u.
   SCALEE = 1.0000    scale energy and forces
   NPACO  =    256;   APACO  = 16.0  distance and # of slots for P.C.
   PSTRESS=    0.0 pullay stress

  Mass of Ions in am
   POMASS =  10.81 12.01
  Ionic Valenz
   ZVAL   =   3.00  4.00
  Atomic Wigner-Seitz radii
   RWIGS  =  -1.00 -1.00
  virtual crystal weights 
   VCA    =   1.00  1.00
   NELECT =      30.0000    total number of electrons
   NUPDOWN=      -1.0000    fix difference up-down

 DOS related values:
   EMIN   =  10.00;   EMAX   =-10.00  energy-range for DOS
   EFERMI =   0.00
   ISMEAR =     0;   SIGMA  =   0.10  broadening in eV -4-tet -1-fermi 0-gaus

 Electronic relaxation 2 (details)
   IALGO  =     38    algorithm
   LDIAG  =      T    sub-space diagonalisation (order eigenvalues)
   LSUBROT=      F    optimize rotation matrix (better conditioning)
   TURBO    =      0    0=normal 1=particle mesh
   IRESTART =      0    0=no restart 2=restart with 2 vectors
   NREBOOT  =      0    no. of reboots
   NMIN     =      0    reboot dimension
   EREF     =   0.00    reference energy to select bands
   IMIX   =      1    mixing-type and parameters
     AMIX     =   0.40;   BMIX     =  1.00
     AMIX_MAG =   1.60;   BMIX_MAG =  1.00
     AMIN     =   0.10
     WC   =   100.;   INIMIX=   1;  MIXPRE=   1;  MAXMIX= -45

 Intra band minimization:
   WEIMIN = 0.0000     energy-eigenvalue tresh-hold
   EBREAK =  0.69E-08  absolut break condition
   DEPER  =   0.30     relativ break condition  

   TIME   =   0.40     timestep for ELM

  volume/ion in A,a.u.               =      24.69       166.63
  Fermi-wavevector in a.u.,A,eV,Ry     =   0.873444  1.650570 10.379942  0.762904
  Thomas-Fermi vector in A             =   1.992835
 
 Write flags
   LWAVE        =      T    write WAVECAR
   LDOWNSAMPLE  =      F    k-point downsampling of WAVECAR
   LCHARG       =      T    write CHGCAR
   LVTOT        =      F    write LOCPOT, total local potential
   LVHAR        =      F    write LOCPOT, Hartree potential only
   LELF         =      F    write electronic localiz. function (ELF)
   LORBIT       =     11    0 simple, 1 ext, 2 COOP (PROOUT), +10 PAW based schemes


 Dipole corrections
   LMONO  =      F    monopole corrections only (constant potential shift)
   LDIPOL =      F    correct potential (dipole corrections)
   IDIPOL =      0    1-x, 2-y, 3-z, 4-all directions 
   EPSILON=  1.0000000 bulk dielectric constant

 Exchange correlation treatment:
   GGA     =    --    GGA type
   LEXCH   =     8    internal setting for exchange type
   VOSKOWN=      0    Vosko Wilk Nusair interpolation
   EXXOEP  =     0    0=HF, 1=EXX-LHF (local Hartree Fock) 2=EXX OEP
   LHFCALC =     T    Hartree Fock is set to
   LSYMGRAD=     F    symmetrize gradient (conserves proper symmetry)
   PRECFOCK=normal    Normal, Fast or Accurate (Low or Medium for compatibility)
   LRHFCALC=     F    long range Hartree Fock
   LRSCOR  =     F    long range correlation only (use DFT for short range part)
   LTHOMAS =     F    Thomas Fermi screening in HF
   LMODELHF=     F    short range full HF, long range fraction AEXX
   ENCUT4O =  -1.0   cutoff for four orbital integrals eV
   LMAXFOCK=     4    L truncation for augmentation on plane wave grid
   LMAXFOCKAE=  -1    L truncation for all-electron charge restoration on plane wave grid
   NMAXFOCKAE=   1    number of basis functions for all-electron charge restoration
   LFOCKAEDFT=     F  apply the AE augmentation even for DFT
   NKREDX  =     1    reduce k-point grid by
   NKREDY  =     1    reduce k-point grid by
   NKREDZ  =     1    reduce k-point grid by
   SHIFTRED=     F    shift reduced grid of Gamma
   HFKIDENT=     F    idential grid for each k-point
   ODDONLY =     F    use only odd q-grid points
   EVENONLY=     F    use only even q-grid points
   HFALPHA =   -1.0000 decay constant for conv. correction
   MCALPHA =    0.0000 extent of test-charge in conv. correction in multipole expansion
   AEXX    =    0.2500 exact exchange contribution
   HFSCREEN=    0.2000 screening length (either q_TF or 0.3 A-1)
   HFSCREENC=   0.2000 screening length for correlation (either q_TF or 0.3 A-1)
   HFRCUT  =    0.0000 spherical cutoff for potential kernel
   ALDAX   =    0.7500 LDA exchange part
   AGGAX   =    0.7500 GGA exchange part
   ALDAC   =    1.0000 LDA correlation
   AGGAC   =    1.0000 GGA correlation
   ENCUTFOCK=  -1.0 apply spherical cutoff to Coloumb kernel
   NBANDSGWLOW=     1    first orbital included in HF term
   NBLOCK_FOCK=    64    blocking factor in FOCK_ACC
 Linear response parameters
   LEPSILON=     F    determine dielectric tensor
   LRPA    =     F    only Hartree local field effects (RPA)
   LNABLA  =     F    use nabla operator in PAW spheres
   LVEL    =     F    velocity operator in full k-point grid
   LINTERFAST=   F  fast interpolation
   KINTER  =     0    interpolate to denser k-point grid
   CSHIFT  =0.1000    complex shift for real part using Kramers Kronig
   OMEGAMAX=  -1.0    maximum frequency
   DEG_THRESHOLD= 0.2000000E-02 threshold for treating states as degnerate
   RTIME   =   -0.100 relaxation time in fs
  (WPLASMAI=    0.000 imaginary part of plasma frequency in eV, 0.658/RTIME)
   DFIELD  = 0.0000000 0.0000000 0.0000000 field for delta impulse in time
 
 Orbital magnetization related:
   ORBITALMAG=     F  switch on orbital magnetization
   LCHIMAG   =     F  perturbation theory with respect to B field
   DQ        =  0.001000  dq finite difference perturbation B field
   LLRAUG    =     F  two centre corrections for induced B field



--------------------------------------------------------------------------------------------------------


 Static calculation
 charge density and potential remain constant during run
 non-spin polarized calculation
 Variant of blocked Davidson
 Davidson routine will perform the subspace rotation
 perform sub-space diagonalisation
    after iterative eigenvector-optimisation
 no mixing
 using additional bands           21
 reciprocal scheme for non local part
 use partial core corrections
 calculate Harris-corrections to forces 
   (improved forces if not selfconsistent)
 use gradient corrections 
 WARNING: stress and forces are not correct
  (second derivative of E(xc) not defined)
 use of overlap-Matrix (Vanderbilt PP)
 Gauss-broadening in eV      SIGMA  =   0.10


--------------------------------------------------------------------------------------------------------


  energy-cutoff  :      450.00
  volume of cell :      197.53
      direct lattice vectors                 reciprocal lattice vectors
     4.480848434  2.587018852  0.000000000     0.111586010  0.193272654  0.000000000
    -4.480848434  2.587018852  0.000000000    -0.111586010  0.193272654  0.000000000
     0.000000000  0.000000000  8.520221400     0.000000000  0.000000000  0.117367842

  length of vectors
     5.174038000  5.174038000  8.520221400     0.223172034  0.223172034  0.117367842


 
 old parameters found on file WAVECAR:
  energy-cutoff  :      450.00
  volume of cell :      197.53
      direct lattice vectors                 reciprocal lattice vectors
     4.480848434  2.587018852  0.000000000     0.111586010  0.193272654  0.000000000
    -4.480848434  2.587018852  0.000000000    -0.111586010  0.193272654  0.000000000
     0.000000000  0.000000000  8.520221400     0.000000000  0.000000000  0.117367842

  length of vectors

 
 k-points in units of 2pi/SCALE and weight: K-points for BC3                        
   0.00000000  0.00000000  0.00000000       0.007
   0.00929883  0.01610605  0.00000000       0.042
   0.01859767  0.03221211  0.00000000       0.042
   0.02789650  0.04831816  0.00000000       0.042
   0.03719534  0.06442422  0.00000000       0.042
   0.04649417  0.08053027  0.00000000       0.042
   0.05579301  0.09663633  0.00000000       0.021
   0.00000000  0.03221211  0.00000000       0.042
   0.00929883  0.04831816  0.00000000       0.083
   0.01859767  0.06442422  0.00000000       0.083
   0.02789650  0.08053027  0.00000000       0.083
   0.03719534  0.09663633  0.00000000       0.083
   0.00000000  0.06442422  0.00000000       0.042
   0.00929883  0.08053027  0.00000000       0.083
   0.01859767  0.09663633  0.00000000       0.083
   0.02789650  0.11274238  0.00000000       0.042
   0.00000000  0.09663633  0.00000000       0.042
   0.00929883  0.11274238  0.00000000       0.083
   0.00000000  0.12884844  0.00000000       0.014
 
 k-points in reciprocal lattice and weights: K-points for BC3                        
   0.00000000  0.00000000  0.00000000       0.007
   0.08333333  0.00000000  0.00000000       0.042
   0.16666667  0.00000000  0.00000000       0.042
   0.25000000 -0.00000000  0.00000000       0.042
   0.33333333 -0.00000000  0.00000000       0.042
   0.41666667  0.00000000  0.00000000       0.042
   0.50000000 -0.00000000  0.00000000       0.021
   0.08333333  0.08333333  0.00000000       0.042
   0.16666667  0.08333333  0.00000000       0.083
   0.25000000  0.08333333  0.00000000       0.083
   0.33333333  0.08333333  0.00000000       0.083
   0.41666667  0.08333333  0.00000000       0.083
   0.16666667  0.16666667  0.00000000       0.042
   0.25000000  0.16666667  0.00000000       0.083
   0.33333333  0.16666667  0.00000000       0.083
   0.41666667  0.16666667  0.00000000       0.042
   0.25000000  0.25000000  0.00000000       0.042
   0.33333333  0.25000000  0.00000000       0.083
   0.33333333  0.33333333  0.00000000       0.014
 
 position of ions in fractional coordinates (direct lattice) 
   0.33333300  0.66666600  0.25000000
   0.66666600  0.33333300  0.25000000
   0.15869124  0.31738348  0.25000000
   0.31738348  0.15869124  0.25000000
   0.15869124  0.84130776  0.25000000
   0.84130776  0.15869124  0.25000000
   0.68261552  0.84130776  0.25000000
   0.84130776  0.68261552  0.25000000
 
 position of ions in cartesian coordinates  (Angst):
  -1.49361465  2.58701626  2.13005535
   1.49361465  2.58701626  2.13005535
  -0.71107588  1.23161429  2.13005535
   0.71107588  1.23161429  2.13005535
  -3.05870114  2.58701626  2.13005535
   3.05870114  2.58701626  2.13005535
  -0.71107588  3.94241824  2.13005535
   0.71107588  3.94241824  2.13005535
 


--------------------------------------------------------------------------------------------------------


 k-point  1 :   0.0000 0.0000 0.0000  plane waves:    4271
 k-point  2 :   0.0833 0.0000 0.0000  plane waves:    4257
 k-point  3 :   0.1667 0.0000 0.0000  plane waves:    4273
 k-point  4 :   0.2500-0.0000 0.0000  plane waves:    4286
 k-point  5 :   0.3333-0.0000 0.0000  plane waves:    4272
 k-point  6 :   0.4167 0.0000 0.0000  plane waves:    4280
 k-point  7 :   0.5000-0.0000 0.0000  plane waves:    4280
 k-point  8 :   0.0833 0.0833 0.0000  plane waves:    4273
 k-point  9 :   0.1667 0.0833 0.0000  plane waves:    4261
 k-point 10 :   0.2500 0.0833 0.0000  plane waves:    4277
 k-point 11 :   0.3333 0.0833 0.0000  plane waves:    4283
 k-point 12 :   0.4167 0.0833 0.0000  plane waves:    4292
 k-point 13 :   0.1667 0.1667 0.0000  plane waves:    4267
 k-point 14 :   0.2500 0.1667 0.0000  plane waves:    4287
 k-point 15 :   0.3333 0.1667 0.0000  plane waves:    4297
 k-point 16 :   0.4167 0.1667 0.0000  plane waves:    4305
 k-point 17 :   0.2500 0.2500 0.0000  plane waves:    4283
 k-point 18 :   0.3333 0.2500 0.0000  plane waves:    4306
 k-point 19 :   0.3333 0.3333 0.0000  plane waves:    4323

 maximum and minimum number of plane-waves per node :      4323     4257

 maximum number of plane-waves:      4323
 maximum index in each direction: 
   IXMAX=    8   IYMAX=    8   IZMAX=   14
   IXMIN=   -9   IYMIN=   -9   IZMIN=  -14


 serial   3D FFT for wavefunctions
 parallel 3D FFT for charge:
    minimum data exchange during FFTs selected (reduces bandwidth)


 FFT grid for exact exchange (Hartree Fock) 
  NGX = 28; NGY = 28; NGZ = 48

 
 Radii for the augmentation spheres in the non-local exchange
 for species   1 augmentation radius   0.959 (default was   0.767)
       energy cutoff for augmentation   1800.0
 for species   2 augmentation radius   0.874 (default was   0.699)
       energy cutoff for augmentation   1800.0
 Maximum index for augmentation-charges in exchange          708
  SETUP_FOCK is finished

 total amount of memory used by VASP MPI-rank0    53755. kBytes
=======================================================================

   base      :      30000. kBytes
   nonl-proj :      11089. kBytes
   fftplans  :       2090. kBytes
   grid      :       6068. kBytes
   one-center:         24. kBytes
   HF        :          9. kBytes
   nonlr-proj:        459. kBytes
   wavefun   :       4016. kBytes
 
     INWAV:  cpu time    1.0809: real time    1.1243
 initial charge density was supplied:
 number of electron      29.9999997 magnetization 
 keeping initial charge density in first step


--------------------------------------------------------------------------------------------------------


 Maximum index for augmentation-charges          403 (set IRDMAX)


--------------------------------------------------------------------------------------------------------


 First call to EWALD:  gamma=   0.304
 Maximum number of real-space cells 3x 3x 2
 Maximum number of reciprocal cells 2x 2x 4

    FEWALD:  cpu time    0.0017: real time    0.0017


--------------------------------------- Iteration      1(   1)  ---------------------------------------


    POTLOK:  cpu time    0.2249: real time    0.2255
    SETDIJ:  cpu time    0.0972: real time    0.0972
     EDDAV:  cpu time  965.9096: real time  965.9790
       DOS:  cpu time    0.0003: real time    0.0003
    --------------------------------------------
      LOOP:  cpu time  966.2319: real time  966.3020

 eigenvalue-minimisations  :  1464
 total energy-change (2. order) :-0.7692898E+02  (-0.9480687E-01)
 number of electron      29.9999997 magnetization 
 augmentation part       29.9999997 magnetization 

 Free energy of the ion-electron system (eV)
  ---------------------------------------------------
  alpha Z        PSCENC =        25.67921176
  Ewald energy   TEWEN  =       700.27145080
  -Hartree energ DENC   =     -1646.75232089
  -exchange      EXHF   =        64.18355184
  -V(xc)+E(xc)   XCENC  =        73.83349174
  PAW double counting   =      2936.12521642    -2937.50893907
  entropy T*S    EENTRO =        -0.00000000
  eigenvalues    EBANDS =      -305.67741964
  atomic energy  EATOM  =      1012.91678113
  Solvation  Ediel_sol  =         0.00000000
  ---------------------------------------------------
  free energy    TOTEN  =       -76.92897593 eV

  energy without entropy =      -76.92897593  energy(sigma->0) =      -76.92897593
  exchange ACFDT corr.  =        -0.00000000  see jH, gK, PRB 81, 115126


--------------------------------------------------------------------------------------------------------




 average (electrostatic) potential at core
  the test charge radii are     0.7672  0.6991
  (the norm of the test charge is              1.0000)
       1 -30.0846       2 -30.0846       3 -51.8204       4 -51.8204       5 -51.8205
       6 -51.8205       7 -51.8205       8 -51.8205
 
 
 
 E-fermi :  -2.8163     XC(G=0):  -4.0629     alpha+bet : -4.1680


 k-point     1 :       0.0000    0.0000    0.0000
  band No.  band energies     occupation 
      1     -20.9205      2.00000
      2     -16.6926      2.00000
      3     -16.6925      2.00000
      4     -14.0449      2.00000
      5     -14.0448      2.00000
      6     -12.8837      2.00000
      7     -11.5238      2.00000
      8      -8.3547      2.00000
      9      -8.3383      2.00000
     10      -6.0426      2.00000
     11      -6.0425      2.00000
     12      -3.5280      2.00000
     13      -3.5277      2.00000
     14      -3.2991      2.00000
     15      -3.2989      2.00000
     16      -0.0690      0.00000
     17       1.6257      0.00000
     18       1.6278      0.00000
     19       2.0686      0.00000
     20       2.3497      0.00000
     21       4.8044      0.00000
     22       6.1676      0.00000
     23       7.0194      0.00000
     24       7.0199      0.00000
     25      10.3181      0.00000
     26      10.5934      0.00000
     27      11.5433      0.00000
     28      11.7830      0.00000
     29      12.0047      0.00000
     30      13.1004      0.00000
     31      14.1971      0.00000
     32      15.1608      0.00000
     33      15.7053      0.00000
     34      17.2368      0.00000
     35      18.1681      0.00000
     36      19.8187      0.00000

 k-point     2 :       0.0833    0.0000    0.0000
  band No.  band energies     occupation 
      1     -20.8908      2.00000
      2     -16.8341      2.00000
      3     -16.7373      2.00000
      4     -14.0940      2.00000
      5     -13.9388      2.00000
      6     -12.7380      2.00000
      7     -11.3425      2.00000
      8      -8.4001      2.00000
      9      -8.3080      2.00000
     10      -6.1761      2.00000
     11      -6.0660      2.00000
     12      -3.6664      2.00000
     13      -3.5499      2.00000
     14      -3.4543      2.00000
     15      -3.3732      2.00000
     16      -0.3343      0.00000
     17       1.6975      0.00000
     18       2.0052      0.00000
     19       2.1207      0.00000
     20       2.4858      0.00000
     21       4.8587      0.00000
     22       6.2243      0.00000
     23       7.0935      0.00000
     24       7.1927      0.00000
     25       9.7069      0.00000
     26      11.2767      0.00000
     27      11.8744      0.00000
     28      12.5433      0.00000
     29      13.0279      0.00000
     30      13.4208      0.00000
     31      14.5719      0.00000
     32      15.5021      0.00000
     33      16.4997      0.00000
     34      18.0562      0.00000
     35      19.9076      0.00000
     36      22.8128      0.00000

 k-point     3 :       0.1667    0.0000    0.0000
  band No.  band energies     occupation 
      1     -20.8042      2.00000
      2     -17.1843      2.00000
      3     -16.8481      2.00000
      4     -14.2321      2.00000
      5     -13.6481      2.00000
      6     -12.3249      2.00000
      7     -10.8611      2.00000
      8      -8.5971      2.00000
      9      -8.1687      2.00000
     10      -6.5511      2.00000
     11      -6.1027      2.00000
     12      -4.0480      2.00000
     13      -3.8983      2.00000
     14      -3.6097      2.00000
     15      -3.5805      2.00000
     16      -0.7643      0.00000
     17       1.8953      0.00000
     18       2.2766      0.00000
     19       2.5291      0.00000
     20       3.0993      0.00000
     21       5.0259      0.00000
     22       6.3814      0.00000
     23       7.1419      0.00000
     24       7.3118      0.00000
     25       9.8146      0.00000
     26      10.2699      0.00000
     27      12.4311      0.00000
     28      12.7482      0.00000
     29      13.5665      0.00000
     30      14.7084      0.00000
     31      15.6121      0.00000
     32      16.9360      0.00000
     33      17.7386      0.00000
     34      18.7141      0.00000
     35      19.7781      0.00000
     36      21.4314      0.00000

 k-point     4 :       0.2500   -0.0000    0.0000
  band No.  band energies     occupation 
      1     -20.6693      2.00000
      2     -17.6141      2.00000
      3     -16.9788      2.00000
      4     -14.4014      2.00000
      5     -13.2319      2.00000
      6     -11.7361      2.00000
      7     -10.1817      2.00000
      8      -8.9371      2.00000
      9      -7.9421      2.00000
     10      -7.1023      2.00000
     11      -6.0891      2.00000
     12      -4.5830      2.00000
     13      -4.5740      2.00000
     14      -3.8796      2.00000
     15      -3.6870      2.00000
     16      -1.1143      0.00000
     17       2.1739      0.00000
     18       2.5355      0.00000
     19       2.9174      0.00000
     20       4.0912      0.00000
     21       5.3150      0.00000
     22       6.2222      0.00000
     23       6.6334      0.00000
     24       7.4265      0.00000
     25       9.6786      0.00000
     26      10.5813      0.00000
     27      11.8300      0.00000
     28      12.7749      0.00000
     29      13.5565      0.00000
     30      14.4268      0.00000
     31      15.5058      0.00000
     32      16.1876      0.00000
     33      17.5377      0.00000
     34      18.4812      0.00000
     35      20.2861      0.00000
     36      20.9291      0.00000

 k-point     5 :       0.3333   -0.0000    0.0000
  band No.  band energies     occupation 
      1     -20.5062      2.00000
      2     -18.0247      2.00000
      3     -17.0927      2.00000
      4     -14.5470      2.00000
      5     -12.7585      2.00000
      6     -11.0591      2.00000
      7      -9.4008      2.00000
      8      -9.3778      2.00000
      9      -7.7312      2.00000
     10      -7.6426      2.00000
     11      -5.9986      2.00000
     12      -5.4098      2.00000
     13      -5.1669      2.00000
     14      -4.2116      2.00000
     15      -3.7594      2.00000
     16      -1.3537      0.00000
     17       2.4653      0.00000
     18       2.8968      0.00000
     19       3.2901      0.00000
     20       5.0810      0.00000
     21       5.3595      0.00000
     22       5.7941      0.00000
     23       6.9797      0.00000
     24       7.5054      0.00000
     25       9.1517      0.00000
     26       9.9588      0.00000
     27      10.5768      0.00000
     28      12.4560      0.00000
     29      13.3575      0.00000
     30      14.7638      0.00000
     31      15.4331      0.00000
     32      17.1717      0.00000
     33      17.3943      0.00000
     34      17.6835      0.00000
     35      19.0546      0.00000
     36      21.4501      0.00000

 k-point     6 :       0.4167    0.0000    0.0000
  band No.  band energies     occupation 
      1     -20.3574      2.00000
      2     -18.3339      2.00000
      3     -17.1681      2.00000
      4     -14.6418      2.00000
      5     -12.3282      2.00000
      6     -10.3603      2.00000
      7      -9.8036      2.00000
      8      -8.8977      2.00000
      9      -8.0342      2.00000
     10      -7.3165      2.00000
     11      -6.3334      2.00000
     12      -5.8679      2.00000
     13      -5.6872      2.00000
     14      -4.4980      2.00000
     15      -3.8106      2.00000
     16      -1.4940      0.00000
     17       2.6893      0.00000
     18       3.3614      0.00000
     19       3.5780      0.00000
     20       4.5924      0.00000
     21       5.7925      0.00000
     22       6.5395      0.00000
     23       7.2475      0.00000
     24       7.4174      0.00000
     25       8.3130      0.00000
     26       9.2870      0.00000
     27      10.4236      0.00000
     28      12.3111      0.00000
     29      13.9801      0.00000
     30      15.2339      0.00000
     31      16.4086      0.00000
     32      16.6506      0.00000
     33      17.0725      0.00000
     34      19.3238      0.00000
     35      20.8734      0.00000
     36      23.3914      0.00000

 k-point     7 :       0.5000   -0.0000    0.0000
  band No.  band energies     occupation 
      1     -20.2930      2.00000
      2     -18.4535      2.00000
      3     -17.1943      2.00000
      4     -14.6744      2.00000
      5     -12.1327      2.00000
      6     -10.0007      2.00000
      7      -9.8912      2.00000
      8      -9.1741      2.00000
      9      -7.4120      2.00000
     10      -7.1605      2.00000
     11      -7.1358      2.00000
     12      -5.9361      2.00000
     13      -5.7976      2.00000
     14      -4.6213      2.00000
     15      -3.8283      2.00000
     16      -1.5393      0.00000
     17       2.7751      0.00000
     18       3.6898      0.00000
     19       3.9260      0.00000
     20       3.9298      0.00000
     21       6.3170      0.00000
     22       6.4653      0.00000
     23       7.4610      0.00000
     24       7.7744      0.00000
     25       8.7844      0.00000
     26       9.8611      0.00000
     27      10.5896      0.00000
     28      11.2565      0.00000
     29      12.7015      0.00000
     30      13.6718      0.00000
     31      14.8650      0.00000
     32      16.1529      0.00000
     33      18.3990      0.00000
     34      19.4440      0.00000
     35      20.0198      0.00000
     36      21.1168      0.00000

 k-point     8 :       0.0833    0.0833    0.0000
  band No.  band energies     occupation 
      1     -20.8326      2.00000
      2     -17.0639      2.00000
      3     -16.8325      2.00000
      4     -14.1352      2.00000
      5     -13.8018      2.00000
      6     -12.4441      2.00000
      7     -11.0156      2.00000
      8      -8.5323      2.00000
      9      -8.2149      2.00000
     10      -6.4035      2.00000
     11      -6.1206      2.00000
     12      -3.9054      2.00000
     13      -3.7444      2.00000
     14      -3.6178      2.00000
     15      -3.5235      2.00000
     16      -0.6348      0.00000
     17       1.7431      0.00000
     18       2.2247      0.00000
     19       2.6003      0.00000
     20       2.7666      0.00000
     21       4.9697      0.00000
     22       6.3299      0.00000
     23       7.2467      0.00000
     24       7.4767      0.00000
     25       9.1899      0.00000
     26      10.1729      0.00000
     27      11.2249      0.00000
     28      12.3104      0.00000
     29      13.3568      0.00000
     30      14.1296      0.00000
     31      14.8701      0.00000
     32      16.4758      0.00000
     33      17.3034      0.00000
     34      19.4776      0.00000
     35      20.2404      0.00000
     36      21.2605      0.00000

 k-point     9 :       0.1667    0.0833    0.0000
  band No.  band energies     occupation 
      1     -20.7215      2.00000
      2     -17.4267      2.00000
      3     -16.9859      2.00000
      4     -14.2216      2.00000
      5     -13.5296      2.00000
      6     -11.9089      2.00000
      7     -10.4492      2.00000
      8      -8.8174      2.00000
      9      -8.0318      2.00000
     10      -6.8046      2.00000
     11      -6.1796      2.00000
     12      -4.3284      2.00000
     13      -4.2811      2.00000
     14      -3.7993      2.00000
     15      -3.7458      2.00000
     16      -0.9237      0.00000
     17       1.8339      0.00000
     18       2.4322      0.00000
     19       3.1138      0.00000
     20       3.5851      0.00000
     21       5.1930      0.00000
     22       6.5400      0.00000
     23       6.7233      0.00000
     24       7.4223      0.00000
     25       9.4242      0.00000
     26      11.4092      0.00000
     27      11.8032      0.00000
     28      12.9224      0.00000
     29      13.5515      0.00000
     30      14.3660      0.00000
     31      15.2230      0.00000
     32      15.9229      0.00000
     33      16.5456      0.00000
     34      17.6943      0.00000
     35      19.3049      0.00000
     36      20.9625      0.00000

 k-point    10 :       0.2500    0.0833    0.0000
  band No.  band energies     occupation 
      1     -20.5711      2.00000
      2     -17.8294      2.00000
      3     -17.1335      2.00000
      4     -14.3461      2.00000
      5     -13.1159      2.00000
      6     -11.2516      2.00000
      7      -9.7309      2.00000
      8      -9.2408      2.00000
      9      -7.7673      2.00000
     10      -7.3411      2.00000
     11      -6.1600      2.00000
     12      -5.0088      2.00000
     13      -4.8677      2.00000
     14      -4.1400      2.00000
     15      -3.8777      2.00000
     16      -1.1198      0.00000
     17       2.0038      0.00000
     18       2.7424      0.00000
     19       3.5398      0.00000
     20       4.6131      0.00000
     21       5.5545      0.00000
     22       5.8169      0.00000
     23       6.8536      0.00000
     24       7.0675      0.00000
     25       9.6508      0.00000
     26      10.9009      0.00000
     27      11.3631      0.00000
     28      12.6643      0.00000
     29      14.2021      0.00000
     30      15.2077      0.00000
     31      15.8105      0.00000
     32      16.6467      0.00000
     33      17.8407      0.00000
     34      18.7548      0.00000
     35      20.1446      0.00000
     36      22.5401      0.00000

 k-point    11 :       0.3333    0.0833    0.0000
  band No.  band energies     occupation 
      1     -20.4108      2.00000
      2     -18.1834      2.00000
      3     -17.2433      2.00000
      4     -14.4509      2.00000
      5     -12.6572      2.00000
      6     -10.5617      2.00000
      7      -9.7203      2.00000
      8      -8.9762      2.00000
      9      -7.8851      2.00000
     10      -7.4471      2.00000
     11      -6.1063      2.00000
     12      -5.8152      2.00000
     13      -5.4181      2.00000
     14      -4.4746      2.00000
     15      -3.9789      2.00000
     16      -1.2387      0.00000
     17       2.1918      0.00000
     18       3.1554      0.00000
     19       3.9130      0.00000
     20       5.0032      0.00000
     21       5.5029      0.00000
     22       6.1668      0.00000
     23       6.8265      0.00000
     24       7.3136      0.00000
     25       9.8395      0.00000
     26      10.2353      0.00000
     27      11.6764      0.00000
     28      12.3075      0.00000
     29      14.1602      0.00000
     30      14.7672      0.00000
     31      16.3157      0.00000
     32      17.6954      0.00000
     33      18.6624      0.00000
     34      19.2199      0.00000
     35      20.7178      0.00000
     36      22.2681      0.00000

 k-point    12 :       0.4167    0.0833    0.0000
  band No.  band energies     occupation 
      1     -20.2973      2.00000
      2     -18.4003      2.00000
      3     -17.3010      2.00000
      4     -14.5082      2.00000
      5     -12.3089      2.00000
      6     -10.1669      2.00000
      7      -9.8484      2.00000
      8      -8.8690      2.00000
      9      -7.7083      2.00000
     10      -7.1619      2.00000
     11      -6.8106      2.00000
     12      -5.9056      2.00000
     13      -5.8318      2.00000
     14      -4.7050      2.00000
     15      -4.0332      2.00000
     16      -1.2965      0.00000
     17       2.3154      0.00000
     18       3.6706      0.00000
     19       4.1383      0.00000
     20       4.2859      0.00000
     21       6.1128      0.00000
     22       6.6406      0.00000
     23       6.7274      0.00000
     24       7.3569      0.00000
     25       9.2428      0.00000
     26      10.0148      0.00000
     27      11.2754      0.00000
     28      11.8208      0.00000
     29      13.6254      0.00000
     30      14.2661      0.00000
     31      15.7489      0.00000
     32      17.1241      0.00000
     33      17.8182      0.00000
     34      19.5677      0.00000
     35      20.3770      0.00000
     36      22.7722      0.00000

 k-point    13 :       0.1667    0.1667    0.0000
  band No.  band energies     occupation 
      1     -20.5938      2.00000
      2     -17.7145      2.00000
      3     -17.2109      2.00000
      4     -14.1110      2.00000
      5     -13.4171      2.00000
      6     -11.2720      2.00000
      7      -9.8615      2.00000
      8      -9.2141      2.00000
      9      -7.8099      2.00000
     10      -7.0699      2.00000
     11      -6.3319      2.00000
     12      -4.8265      2.00000
     13      -4.6838      2.00000
     14      -4.1596      2.00000
     15      -4.0318      2.00000
     16      -0.9348      0.00000
     17       1.7061      0.00000
     18       2.6909      0.00000
     19       3.9237      0.00000
     20       4.2179      0.00000
     21       5.4756      0.00000
     22       6.3653      0.00000
     23       6.3845      0.00000
     24       6.8054      0.00000
     25      10.6138      0.00000
     26      11.2801      0.00000
     27      12.0514      0.00000
     28      13.3161      0.00000
     29      13.9839      0.00000
     30      14.6252      0.00000
     31      15.4692      0.00000
     32      16.5031      0.00000
     33      17.1820      0.00000
     34      17.7082      0.00000
     35      19.1827      0.00000
     36      21.8600      0.00000

 k-point    14 :       0.2500    0.1667    0.0000
  band No.  band energies     occupation 
      1     -20.4417      2.00000
      2     -18.0160      2.00000
      3     -17.4099      2.00000
      4     -14.0808      2.00000
      5     -13.1189      2.00000
      6     -10.5804      2.00000
      7      -9.7043      2.00000
      8      -9.1653      2.00000
      9      -7.5189      2.00000
     10      -7.4389      2.00000
     11      -6.4072      2.00000
     12      -5.4909      2.00000
     13      -5.1259      2.00000
     14      -4.5675      2.00000
     15      -4.2954      2.00000
     16      -0.8616      0.00000
     17       1.6511      0.00000
     18       3.0521      0.00000
     19       4.4484      0.00000
     20       5.1456      0.00000
     21       5.5139      0.00000
     22       5.8944      0.00000
     23       6.1237      0.00000
     24       7.1666      0.00000
     25       9.2862      0.00000
     26      10.4222      0.00000
     27      12.5289      0.00000
     28      13.5201      0.00000
     29      13.8460      0.00000
     30      15.0256      0.00000
     31      16.2411      0.00000
     32      16.8759      0.00000
     33      18.1019      0.00000
     34      19.0855      0.00000
     35      21.0967      0.00000
     36      22.7918      0.00000

 k-point    15 :       0.3333    0.1667    0.0000
  band No.  band energies     occupation 
      1     -20.3057      2.00000
      2     -18.2623      2.00000
      3     -17.5324      2.00000
      4     -14.1071      2.00000
      5     -12.7368      2.00000
      6     -10.3607      2.00000
      7      -9.7152      2.00000
      8      -8.5591      2.00000
      9      -7.7766      2.00000
     10      -7.2082      2.00000
     11      -6.5699      2.00000
     12      -6.0368      2.00000
     13      -5.5708      2.00000
     14      -4.9142      2.00000
     15      -4.4496      2.00000
     16      -0.7953      0.00000
     17       1.6535      0.00000
     18       3.5171      0.00000
     19       4.7467      0.00000
     20       4.8063      0.00000
     21       5.9294      0.00000
     22       5.9689      0.00000
     23       6.5465      0.00000
     24       7.3034      0.00000
     25       9.1682      0.00000
     26       9.9747      0.00000
     27      11.0993      0.00000
     28      12.3668      0.00000
     29      13.7635      0.00000
     30      14.7767      0.00000
     31      16.5526      0.00000
     32      17.8625      0.00000
     33      18.4870      0.00000
     34      19.5882      0.00000
     35      20.6678      0.00000
     36      21.5458      0.00000

 k-point    16 :       0.4167    0.1667    0.0000
  band No.  band energies     occupation 
      1     -20.2481      2.00000
      2     -18.3606      2.00000
      3     -17.5729      2.00000
      4     -14.1219      2.00000
      5     -12.5424      2.00000
      6     -10.5475      2.00000
      7      -9.3272      2.00000
      8      -8.6184      2.00000
      9      -7.4215      2.00000
     10      -7.1291      2.00000
     11      -7.0417      2.00000
     12      -6.0878      2.00000
     13      -5.7893      2.00000
     14      -5.0634      2.00000
     15      -4.4992      2.00000
     16      -0.7710      0.00000
     17       1.6627      0.00000
     18       4.0789      0.00000
     19       4.0861      0.00000
     20       4.9488      0.00000
     21       5.9211      0.00000
     22       6.4408      0.00000
     23       6.6514      0.00000
     24       7.4729      0.00000
     25       9.0539      0.00000
     26       9.5554      0.00000
     27      10.6336      0.00000
     28      11.4583      0.00000
     29      12.9747      0.00000
     30      14.2439      0.00000
     31      15.9910      0.00000
     32      16.5808      0.00000
     33      17.3072      0.00000
     34      18.6533      0.00000
     35      19.9684      0.00000
     36      20.8726      0.00000

 k-point    17 :       0.2500    0.2500    0.0000
  band No.  band energies     occupation 
      1     -20.3098      2.00000
      2     -18.1556      2.00000
      3     -17.6807      2.00000
      4     -13.7900      2.00000
      5     -13.0691      2.00000
      6     -10.4255      2.00000
      7      -9.6362      2.00000
      8      -8.5710      2.00000
      9      -7.5574      2.00000
     10      -7.2288      2.00000
     11      -6.7121      2.00000
     12      -5.9302      2.00000
     13      -5.3632      2.00000
     14      -5.0626      2.00000
     15      -4.7213      2.00000
     16      -0.4970      0.00000
     17       1.3103      0.00000
     18       3.4660      0.00000
     19       5.2362      0.00000
     20       5.3008      0.00000
     21       5.3175      0.00000
     22       5.7628      0.00000
     23       6.3091      0.00000
     24       7.6230      0.00000
     25       8.6645      0.00000
     26       9.5572      0.00000
     27      11.8341      0.00000
     28      12.1885      0.00000
     29      13.7200      0.00000
     30      14.2968      0.00000
     31      15.5341      0.00000
     32      17.1641      0.00000
     33      17.7336      0.00000
     34      18.3033      0.00000
     35      20.9897      0.00000
     36      22.1661      0.00000

 k-point    18 :       0.3333    0.2500    0.0000
  band No.  band energies     occupation 
      1     -20.2216      2.00000
      2     -18.2356      2.00000
      3     -17.8422      2.00000
      4     -13.6545      2.00000
      5     -12.9194      2.00000
      6     -10.7840      2.00000
      7      -8.9800      2.00000
      8      -8.2548      2.00000
      9      -7.6785      2.00000
     10      -7.0138      2.00000
     11      -6.9901      2.00000
     12      -6.1425      2.00000
     13      -5.5718      2.00000
     14      -5.4484      2.00000
     15      -4.9586      2.00000
     16      -0.2043      0.00000
     17       1.0576      0.00000
     18       3.9809      0.00000
     19       4.5969      0.00000
     20       5.2100      0.00000
     21       5.6786      0.00000
     22       6.3831      0.00000
     23       6.8232      0.00000
     24       7.1530      0.00000
     25       9.0715      0.00000
     26      10.1635      0.00000
     27      10.5975      0.00000
     28      11.8603      0.00000
     29      12.9193      0.00000
     30      14.3893      0.00000
     31      15.6356      0.00000
     32      17.3183      0.00000
     33      17.9773      0.00000
     34      19.1583      0.00000
     35      20.6529      0.00000
     36      21.6705      0.00000

 k-point    19 :       0.3333    0.3333    0.0000
  band No.  band energies     occupation 
      1     -20.1891      2.00000
      2     -18.0913      2.00000
      3     -18.0913      2.00000
      4     -13.2259      2.00000
      5     -13.2259      2.00000
      6     -10.9717      2.00000
      7      -8.3220      2.00000
      8      -8.3219      2.00000
      9      -7.8747      2.00000
     10      -7.1063      2.00000
     11      -6.8975      2.00000
     12      -5.9335      2.00000
     13      -5.9334      2.00000
     14      -5.3642      2.00000
     15      -5.3641      2.00000
     16       0.4293      0.00000
     17       0.4299      0.00000
     18       4.5324      0.00000
     19       4.5515      0.00000
     20       4.5519      0.00000
     21       6.4245      0.00000
     22       6.4288      0.00000
     23       6.8392      0.00000
     24       6.8933      0.00000
     25       9.2695      0.00000
     26       9.4136      0.00000
     27      10.3888      0.00000
     28      10.4795      0.00000
     29      11.7948      0.00000
     30      14.5970      0.00000
     31      15.5021      0.00000
     32      16.4506      0.00000
     33      18.8433      0.00000
     34      19.1640      0.00000
     35      20.5423      0.00000
     36      20.8386      0.00000


--------------------------------------------------------------------------------------------------------


[...]
   38.290312    0.890071    0.890071    0.926225    0.000000    0.000000    0.000000
   38.693368    0.892724    0.892724    0.928009    0.000000    0.000000    0.000000
   39.096424    0.895276    0.895277    0.929726    0.000000    0.000000    0.000000
   39.499479    0.897734    0.897734    0.931378    0.000000    0.000000    0.000000
   39.902535    0.900100    0.900100    0.932970    0.000000    0.000000    0.000000

  frequency dependent IMAGINARY DIELECTRIC FUNCTION (independent particle, no local field effects) current-current (2nd set in vasprun.xml)
     E(ev)      X         Y         Z        XY        YZ        ZX
  --------------------------------------------------------------------------------------------------------------
    0.000000   16.371372   16.371370    2.731726   -0.000000   -0.000000   -0.000000
    0.403056    1.692801    1.692801    0.273829   -0.000000   -0.000000   -0.000000
    0.806112    0.943701    0.943701    0.137921   -0.000000   -0.000000   -0.000000
    1.209168    0.777769    0.777769    0.093095   -0.000000   -0.000000   -0.000000
    1.612224    0.864590    0.864590    0.071078   -0.000000   -0.000000   -0.000000
    2.015280    1.669098    1.669098    0.058246   -0.000000   -0.000000   -0.000000
    2.418335    8.120824    8.120823    0.050129   -0.000000   -0.000000   -0.000000
    2.821391   11.437777   11.437775    0.045259   -0.000000   -0.000000   -0.000000
    3.224447    2.836319    2.836318    0.047109   -0.000000   -0.000000   -0.000000
    3.627503    2.580296    2.580296    0.042562    0.000000   -0.000000   -0.000000
    4.030559    0.804778    0.804778    0.046433    0.000000   -0.000000   -0.000000
    4.433615    0.652372    0.652372    0.042526   -0.000000   -0.000000   -0.000000
    4.836671    0.760439    0.760439    0.048953   -0.000000   -0.000000   -0.000000
    5.239727    1.259796    1.259796    0.058839   -0.000000   -0.000000   -0.000000
    5.642783    1.833653    1.833653    0.065922   -0.000000   -0.000000   -0.000000
    6.045839    2.088382    2.088382    0.081154    0.000000   -0.000000   -0.000000
    6.448895    1.054580    1.054579    0.125766   -0.000000   -0.000000   -0.000000
    6.851951    0.782866    0.782865    0.090840    0.000000   -0.000000   -0.000000
    7.255006    0.499731    0.499731    0.078273    0.000000   -0.000000   -0.000000
    7.658062    0.323129    0.323129    0.106264    0.000000   -0.000000   -0.000000
    8.061118    0.304476    0.304476    0.150160    0.000000   -0.000000   -0.000000
    8.464174    0.295809    0.295809    0.164199    0.000000   -0.000000   -0.000000
    8.867230    0.210747    0.210747    0.231876   -0.000000   -0.000000   -0.000000
    9.270286    0.180356    0.180356    0.276056    0.000000   -0.000000   -0.000000
    9.673342    0.168917    0.168917    0.552107    0.000000   -0.000000   -0.000000
   10.076398    0.122155    0.122155    1.298293   -0.000000   -0.000000   -0.000000
   10.479454    0.155249    0.155249    3.243246   -0.000000   -0.000000   -0.000000
   10.882510    0.156573    0.156573    1.698081    0.000000   -0.000000   -0.000000
   11.285566    0.174473    0.174473    0.779745    0.000000   -0.000000   -0.000000
   11.688621    0.248511    0.248511    0.644041    0.000000   -0.000000   -0.000000
   12.091677    0.415328    0.415328    0.407787   -0.000000   -0.000000   -0.000000
   12.494733    1.439897    1.439896    0.416094    0.000000   -0.000000   -0.000000
   12.897789    2.156039    2.156039    0.701494    0.000000   -0.000000   -0.000000
   13.300845    3.021908    3.021908    2.311566   -0.000000   -0.000000   -0.000000
   13.703901    3.285784    3.285783    1.180069   -0.000000   -0.000000   -0.000000
   14.106957    2.220496    2.220496    1.882231    0.000000   -0.000000   -0.000000
   14.510013    2.034707    2.034706    3.016628    0.000000   -0.000000   -0.000000
   14.913069    1.544030    1.544029    2.303822    0.000000   -0.000000   -0.000000
   15.316125    1.386115    1.386115    1.963793    0.000000   -0.000000    0.000000
   15.719181    1.382217    1.382217    0.881275    0.000000   -0.000000    0.000000
   16.122237    1.095911    1.095911    0.474117   -0.000000   -0.000000    0.000000
   16.525292    0.860127    0.860127    0.298737   -0.000000    0.000000    0.000000
   16.928348    0.774001    0.774001    0.241036    0.000000    0.000000    0.000000
   17.331404    0.602305    0.602305    0.210350    0.000000   -0.000000    0.000000
   17.734460    0.641813    0.641813    0.183743   -0.000000    0.000000    0.000000
   18.137516    0.540701    0.540701    0.088399   -0.000000   -0.000000    0.000000
   18.540572    0.348250    0.348250    0.074129   -0.000000    0.000000    0.000000
   18.943628    0.241495    0.241495    0.100279    0.000000   -0.000000    0.000000
   19.346684    0.306104    0.306104    0.072917    0.000000   -0.000000   -0.000000
   19.749740    0.244105    0.244105    0.100233   -0.000000   -0.000000    0.000000
   20.152796    0.168684    0.168684    0.202821    0.000000   -0.000000   -0.000000
   20.555852    0.173906    0.173906    0.185057   -0.000000   -0.000000   -0.000000
   20.958907    0.138519    0.138519    0.038140   -0.000000   -0.000000    0.000000
   21.361963    0.069693    0.069693    0.031664   -0.000000   -0.000000    0.000000
   21.765019    0.053695    0.053695    0.014765   -0.000000    0.000000   -0.000000
   22.168075    0.088789    0.088789    0.016864   -0.000000   -0.000000    0.000000
   22.571131    0.085370    0.085370    0.039031   -0.000000    0.000000    0.000000
   22.974187    0.111450    0.111450    0.018033   -0.000000    0.000000    0.000000
   23.377243    0.039416    0.039416    0.021083   -0.000000   -0.000000   -0.000000
   23.780299    0.025086    0.025086    0.011680   -0.000000    0.000000   -0.000000
   24.183355    0.024179    0.024179    0.015913   -0.000000    0.000000   -0.000000
   24.586411    0.025066    0.025066    0.017482   -0.000000    0.000000    0.000000
   24.989467    0.017312    0.017312    0.010127   -0.000000    0.000000   -0.000000
   25.392522    0.008415    0.008415    0.004689    0.000000    0.000000   -0.000000
   25.795578    0.007167    0.007167    0.007558   -0.000000    0.000000   -0.000000
   26.198634    0.007906    0.007906    0.009293   -0.000000    0.000000   -0.000000
   26.601690    0.006453    0.006453    0.008529   -0.000000    0.000000   -0.000000
   27.004746    0.005253    0.005253    0.006943   -0.000000    0.000000    0.000000
   27.407802    0.005345    0.005345    0.002451   -0.000000    0.000000   -0.000000
   27.810858    0.004192    0.004192    0.001788   -0.000000    0.000000   -0.000000
   28.213914    0.005055    0.005055    0.000991   -0.000000    0.000000   -0.000000
   28.616970    0.004818    0.004818    0.000880    0.000000    0.000000   -0.000000
   29.020026    0.003030    0.003030    0.000614   -0.000000    0.000000   -0.000000
   29.423082    0.002792    0.002792    0.000688   -0.000000    0.000000   -0.000000
   29.826138    0.002883    0.002883    0.001094   -0.000000    0.000000    0.000000
   30.229193    0.002218    0.002218    0.001662   -0.000000    0.000000   -0.000000
   30.632249    0.001455    0.001455    0.000888   -0.000000    0.000000    0.000000
   31.035305    0.001171    0.001171    0.000540   -0.000000    0.000000    0.000000
   31.438361    0.000878    0.000878    0.000572   -0.000000    0.000000   -0.000000
   31.841417    0.000763    0.000763    0.000340   -0.000000    0.000000    0.000000
   32.244473    0.000594    0.000594    0.000342   -0.000000    0.000000    0.000000
   32.647529    0.000379    0.000379    0.000384   -0.000000    0.000000    0.000000
   33.050585    0.000279    0.000279    0.000189   -0.000000    0.000000    0.000000
   33.453641    0.000243    0.000243    0.000160   -0.000000    0.000000    0.000000
   33.856697    0.000220    0.000220    0.000145   -0.000000    0.000000    0.000000
   34.259753    0.000201    0.000201    0.000133   -0.000000    0.000000    0.000000
   34.662808    0.000185    0.000185    0.000123   -0.000000    0.000000    0.000000
   35.065864    0.000171    0.000171    0.000114   -0.000000    0.000000   -0.000000
   35.468920    0.000158    0.000158    0.000106   -0.000000    0.000000   -0.000000
   35.871976    0.000147    0.000147    0.000098   -0.000000    0.000000   -0.000000
   36.275032    0.000136    0.000136    0.000092   -0.000000    0.000000   -0.000000
   36.678088    0.000127    0.000127    0.000086   -0.000000    0.000000   -0.000000
   37.081144    0.000119    0.000119    0.000080   -0.000000    0.000000   -0.000000
   37.484200    0.000111    0.000111    0.000075   -0.000000    0.000000   -0.000000
   37.887256    0.000104    0.000104    0.000070   -0.000000    0.000000   -0.000000
   38.290312    0.000097    0.000097    0.000066   -0.000000    0.000000   -0.000000
   38.693368    0.000091    0.000091    0.000062   -0.000000    0.000000   -0.000000
   39.096424    0.000086    0.000086    0.000058   -0.000000    0.000000   -0.000000
   39.499479    0.000080    0.000080    0.000055   -0.000000    0.000000   -0.000000
   39.902535    0.000076    0.000076    0.000052   -0.000000    0.000000   -0.000000

  frequency dependent      REAL DIELECTRIC FUNCTION (independent particle, no local field effects) current-current (2nd set in vasprun.xml)
     E(ev)        X           Y           Z          XY          YZ          ZX
  --------------------------------------------------------------------------------------------------------------
    0.000000    4.285219    4.285219    1.550348   -0.000000   -0.000000    0.000000
    0.403056    4.339877    4.339876    1.551008   -0.000000   -0.000000    0.000000
    0.806112    4.521664    4.521664    1.553024   -0.000000   -0.000000    0.000000
    1.209168    4.893549    4.893548    1.556441   -0.000000   -0.000000    0.000000
    1.612224    5.646224    5.646224    1.561354   -0.000000   -0.000000    0.000000
    2.015280    7.561477    7.561476    1.567932   -0.000000   -0.000000    0.000000
    2.418335    6.202705    6.202704    1.576500   -0.000000   -0.000000    0.000000
    2.821391   -0.611764   -0.611764    1.587970    0.000000   -0.000000    0.000000
    3.224447   -0.915263   -0.915263    1.599508    0.000000   -0.000000    0.000000
    3.627503   -0.649884   -0.649883    1.609484    0.000000   -0.000000    0.000000
    4.030559   -0.241262   -0.241261    1.622742    0.000000   -0.000000    0.000000
    4.433615    0.456989    0.456989    1.650268    0.000000   -0.000000    0.000000
    4.836671    1.110660    1.110660    1.663720    0.000000   -0.000000    0.000000
    5.239727    1.905944    1.905944    1.696765    0.000000   -0.000000    0.000000
    5.642783    1.163997    1.163996    1.712478    0.000000   -0.000000    0.000000
    6.045839    0.806646    0.806646    1.749103    0.000000   -0.000000    0.000000
    6.448895    0.200956    0.200957    1.776019    0.000000   -0.000000    0.000000
    6.851951    0.261236    0.261236    1.761180    0.000000   -0.000000    0.000000
    7.255006    0.600118    0.600118    1.837243    0.000000   -0.000000    0.000000
    7.658062    0.676745    0.676745    1.915874    0.000000   -0.000000    0.000000
    8.061118    0.843077    0.843077    2.007584   -0.000000   -0.000000    0.000000
    8.464174    1.053660    1.053660    2.104170    0.000000   -0.000000    0.000000
    8.867230    1.062009    1.062009    2.242186    0.000000   -0.000000    0.000000
    9.270286    1.280510    1.280509    2.422580    0.000000   -0.000000    0.000000
    9.673342    1.259133    1.259133    2.684088    0.000000   -0.000000    0.000000
   10.076398    1.488567    1.488567    3.124224    0.000000   -0.000000    0.000000
   10.479454    1.602992    1.602992    2.042489    0.000000   -0.000000    0.000000
   10.882510    1.800811    1.800811    0.457770    0.000000   -0.000000    0.000000
   11.285566    1.977258    1.977258    0.786273   -0.000000   -0.000000    0.000000
   11.688621    2.294717    2.294716    0.887880   -0.000000   -0.000000    0.000000
   12.091677    2.781880    2.781879    1.294147   -0.000000   -0.000000    0.000000
   12.494733    3.130582    3.130582    1.725436    0.000000   -0.000000    0.000000
   12.897789    2.932134    2.932133    2.316925   -0.000000   -0.000000    0.000000
   13.300845    2.273042    2.273042    1.722169    0.000000   -0.000000    0.000000
   13.703901    1.555362    1.555362    1.438921    0.000000   -0.000000    0.000000
   14.106957   -0.151189   -0.151188    1.983339   -0.000000   -0.000000    0.000000
   14.510013   -0.059262   -0.059262    1.218725    0.000000   -0.000000    0.000000
   14.913069    0.014152    0.014152   -0.181623    0.000000   -0.000000    0.000000
   15.316125   -0.007714   -0.007714   -0.772846   -0.000000    0.000000    0.000000
   15.719181   -0.018550   -0.018550   -0.874117   -0.000000   -0.000000   -0.000000
   16.122237   -0.036625   -0.036625   -0.403258    0.000000    0.000000   -0.000000
   16.525292   -0.182540   -0.182539   -0.091830    0.000000    0.000000   -0.000000
   16.928348   -0.093468   -0.093468    0.035006    0.000000   -0.000000    0.000000
   17.331404    0.058508    0.058508    0.193876   -0.000000    0.000000    0.000000
   17.734460    0.181164    0.181164    0.232331   -0.000000   -0.000000   -0.000000
   18.137516   -0.082845   -0.082844    0.332417    0.000000    0.000000   -0.000000
   18.540572    0.063457    0.063457    0.433675    0.000000   -0.000000   -0.000000
   18.943628    0.163130    0.163130    0.520467    0.000000   -0.000000   -0.000000
   19.346684    0.264456    0.264456    0.545183    0.000000   -0.000000    0.000000
   19.749740    0.239393    0.239393    0.648697    0.000000    0.000000   -0.000000
   20.152796    0.302795    0.302796    0.629100    0.000000    0.000000   -0.000000
   20.555852    0.355364    0.355364    0.415239    0.000000    0.000000    0.000000
   20.958907    0.406236    0.406236    0.538413   -0.000000    0.000000    0.000000
   21.361963    0.402703    0.402703    0.598779    0.000000    0.000000   -0.000000
   21.765019    0.486653    0.486653    0.632868    0.000000   -0.000000    0.000000
   22.168075    0.543528    0.543528    0.679386    0.000000    0.000000    0.000000
   22.571131    0.543581    0.543581    0.674398   -0.000000    0.000000   -0.000000
   22.974187    0.530449    0.530449    0.701079    0.000000   -0.000000   -0.000000
   23.377243    0.539072    0.539072    0.720475    0.000000    0.000000    0.000000
   23.780299    0.583230    0.583230    0.738643    0.000000    0.000000    0.000000
   24.183355    0.614818    0.614818    0.749965    0.000000   -0.000000   -0.000000
   24.586411    0.628922    0.628922    0.758320    0.000000    0.000000   -0.000000
   24.989467    0.644702    0.644702    0.769971    0.000000    0.000000   -0.000000
   25.392522    0.666431    0.666431    0.782383    0.000000    0.000000   -0.000000
   25.795578    0.687436    0.687436    0.796487    0.000000    0.000000   -0.000000
   26.198634    0.701522    0.701522    0.803492    0.000000    0.000000   -0.000000
   26.601690    0.715550    0.715550    0.809803    0.000000    0.000000    0.000000
   27.004746    0.728862    0.728862    0.813835    0.000000    0.000000   -0.000000
   27.407802    0.741795    0.741795    0.823062    0.000000    0.000000   -0.000000
   27.810858    0.751989    0.751989    0.831298    0.000000    0.000000   -0.000000
   28.213914    0.761740    0.761740    0.838699    0.000000    0.000000   -0.000000
   28.616970    0.770032    0.770032    0.845492    0.000000    0.000000   -0.000000
   29.020026    0.777906    0.777906    0.851846    0.000000    0.000000   -0.000000
   29.423082    0.786809    0.786809    0.857549    0.000000    0.000000   -0.000000
   29.826138    0.794273    0.794273    0.863086    0.000000    0.000000    0.000000
   30.229193    0.801332    0.801332    0.867346    0.000000    0.000000   -0.000000
   30.632249    0.808244    0.808244    0.871785    0.000000    0.000000   -0.000000
   31.035305    0.814799    0.814799    0.875895    0.000000    0.000000   -0.000000
   31.438361    0.820959    0.820959    0.880145    0.000000    0.000000   -0.000000
   31.841417    0.827124    0.827124    0.884034    0.000000    0.000000   -0.000000
   32.244473    0.832423    0.832423    0.887700    0.000000    0.000000   -0.000000
   32.647529    0.837695    0.837695    0.891168    0.000000    0.000000   -0.000000
   33.050585    0.842807    0.842807    0.894530    0.000000    0.000000   -0.000000
   33.453641    0.847598    0.847598    0.897737    0.000000    0.000000   -0.000000
   33.856697    0.852125    0.852125    0.900764    0.000000    0.000000   -0.000000
   34.259753    0.856421    0.856421    0.903639    0.000000    0.000000   -0.000000
   34.662808    0.860509    0.860509    0.906377    0.000000    0.000000   -0.000000
   35.065864    0.864406    0.864406    0.908988    0.000000    0.000000   -0.000000
   35.468920    0.868125    0.868125    0.911481    0.000000    0.000000   -0.000000
   35.871976    0.871679    0.871679    0.913866    0.000000    0.000000   -0.000000
   36.275032    0.875079    0.875079    0.916148    0.000000    0.000000   -0.000000
   36.678088    0.878334    0.878334    0.918334    0.000000    0.000000   -0.000000
   37.081144    0.881454    0.881455    0.920429    0.000000    0.000000   -0.000000
   37.484200    0.884447    0.884447    0.922440    0.000000    0.000000   -0.000000
   37.887256    0.887320    0.887320    0.924371    0.000000    0.000000   -0.000000
   38.290312    0.890080    0.890080    0.926226    0.000000    0.000000   -0.000000
   38.693368    0.892733    0.892733    0.928010    0.000000    0.000000   -0.000000
   39.096424    0.895286    0.895286    0.929727    0.000000    0.000000   -0.000000
   39.499479    0.897743    0.897743    0.931379    0.000000    0.000000   -0.000000
   39.902535    0.900109    0.900109    0.932971    0.000000    0.000000   -0.000000
 
 The outermost node in the dielectric function lies at epsilon=  18.3


--------------------------------------------------------------------------------------------------------


    OPTICS:  cpu time    0.4530: real time    0.4596
    4ORBIT:  cpu time    0.0000: real time    0.0000
 


 total charge     
 
# of ion       s       p       d       tot
------------------------------------------
    1        0.760   1.286   0.000   2.046
    2        0.760   1.286   0.000   2.046
    3        0.881   1.735   0.000   2.615
    4        0.881   1.680   0.000   2.561
    5        0.880   1.755   0.000   2.636
    6        0.880   1.755   0.000   2.636
    7        0.881   1.680   0.000   2.561
    8        0.881   1.735   0.000   2.615
--------------------------------------------------
tot          6.803  12.913   0.000  19.716
 

 total amount of memory used by VASP MPI-rank0    54052. kBytes
=======================================================================

   base      :      30000. kBytes
   nonl-proj :      11089. kBytes
   fftplans  :       2090. kBytes
   grid      :       6068. kBytes
   one-center:         24. kBytes
   HF        :          9. kBytes
   nonlr-proj:        756. kBytes
   wavefun   :       4016. kBytes
 
  
  
 General timing and accounting informations for this job:
 ========================================================
  
                  Total CPU time used (sec):     7219.514
                            User time (sec):     7206.970
                          System time (sec):       12.544
                         Elapsed time (sec):     7220.990
  
                   Maximum memory used (kb):      387840.
                   Average memory used (kb):           0.
  
                          Minor page faults:      3990963
                          Major page faults:            5
                 Voluntary context switches:         2045
