<?xml version="1.0" encoding="ISO-8859-1"?>
<modeling>
 <generator>
  <i name="program" type="string">vasp </i>
  <i name="version" type="string">5.4.4.18Apr17-6-g9f103f2a35  </i>
  <i name="subversion" type="string">(build Mar 30 2023 15:39:25) complex            parallel </i>
  <i name="platform" type="string">LinuxIFC </i>
  <i name="date" type="string">2023 06 16 </i>
  <i name="time" type="string">05:04:36 </i>
 </generator>
 <incar>
  <i type="string" name="SYSTEM"> BC3-optical</i>
  <i type="int" name="ISTART">     1</i>
  <i type="string" name="PREC">accurate</i>
  <i type="string" name="ALGO"> Normal</i>
  <i type="int" name="ICHARG">    11</i>
  <i name="EDIFF">      0.00000100</i>
  <i name="ENCUT">    450.00000000</i>
  <i type="int" name="NBANDS">    30</i>
  <i type="logical" name="LREAL"> F  </i>
  <i type="int" name="ISMEAR">     0</i>
  <i name="SIGMA">      0.10000000</i>
  <i type="int" name="NWRITE">     3</i>
  <i type="int" name="LORBIT">    11</i>
  <i type="logical" name="LOPTICS"> T  </i>
  <v type="int" name="KPOINT_BSE">    -1     0     0     0</v>
  <i name="CSHIFT">      0.10000000</i>
  <i type="logical" name="LHFCALC"> T  </i>
  <i name="HFSCREEN">      0.20000000</i>
  <i name="AEXX">      0.25000000</i>
  <i name="CSHIFT">      0.10000000</i>
 </incar>
 <structure name="primitive_cell" >
  <crystal>
   <varray name="basis" >
    <v>       4.48084843       2.58701885       0.00000000 </v>
    <v>      -4.48084843       2.58701885       0.00000000 </v>
    <v>       0.00000000       0.00000000       8.52022140 </v>
   </varray>
   <i name="volume">    197.53348383 </i>
   <varray name="rec_basis" >
    <v>       0.11158601       0.19327265       0.00000000 </v>
    <v>      -0.11158601       0.19327265       0.00000000 </v>
    <v>       0.00000000       0.00000000       0.11736784 </v>
   </varray>
  </crystal>
  <varray name="positions" >
   <v>       0.33333300      -0.33333400       0.25000000 </v>
   <v>       0.15869124       0.31738348       0.25000000 </v>
   <v>      -0.31738448      -0.15869224       0.25000000 </v>
   <v>       0.15869124      -0.15869224       0.25000000 </v>
   <v>      -0.15869224       0.15869124       0.25000000 </v>
   <v>       0.31738348       0.15869124       0.25000000 </v>
   <v>      -0.15869224      -0.31738448       0.25000000 </v>
   <v>      -0.33333400       0.33333300       0.25000000 </v>
  </varray>
 </structure>
 <varray name="primitive_index" >
  <v type="int" >        1 </v>
  <v type="int" >        3 </v>
  <v type="int" >        7 </v>
  <v type="int" >        5 </v>
  <v type="int" >        6 </v>
  <v type="int" >        4 </v>
  <v type="int" >        8 </v>
  <v type="int" >        2 </v>
 </varray>
 <kpoints>
  <generation param="Gamma">
   <v type="int" name="divisions">      12       12        1 </v>
   <v name="usershift">      0.00000000       0.00000000       0.00000000 </v>
   <v name="genvec1">      0.08333333       0.00000000       0.00000000 </v>
   <v name="genvec2">      0.00000000       0.08333333       0.00000000 </v>
   <v name="genvec3">      0.00000000       0.00000000       1.00000000 </v>
   <v name="shift">      0.00000000       0.00000000       0.00000000 </v>
  </generation>
  <varray name="kpointlist" >
   <v>       0.00000000       0.00000000       0.00000000 </v>
   <v>       0.08333333       0.00000000       0.00000000 </v>
   <v>       0.16666667       0.00000000       0.00000000 </v>
   <v>       0.25000000      -0.00000000       0.00000000 </v>
   <v>       0.33333333      -0.00000000       0.00000000 </v>
   <v>       0.41666667       0.00000000       0.00000000 </v>
   <v>       0.50000000      -0.00000000       0.00000000 </v>
   <v>       0.08333333       0.08333333       0.00000000 </v>
   <v>       0.16666667       0.08333333       0.00000000 </v>
   <v>       0.25000000       0.08333333       0.00000000 </v>
   <v>       0.33333333       0.08333333       0.00000000 </v>
   <v>       0.41666667       0.08333333       0.00000000 </v>
   <v>       0.16666667       0.16666667       0.00000000 </v>
   <v>       0.25000000       0.16666667       0.00000000 </v>
   <v>       0.33333333       0.16666667       0.00000000 </v>
   <v>       0.41666667       0.16666667       0.00000000 </v>
   <v>       0.25000000       0.25000000       0.00000000 </v>
   <v>       0.33333333       0.25000000       0.00000000 </v>
   <v>       0.33333333       0.33333333       0.00000000 </v>
  </varray>
  <varray name="weights" >
   <v>       0.00694444 </v>
   <v>       0.04166667 </v>
   <v>       0.04166667 </v>
   <v>       0.04166667 </v>
   <v>       0.04166667 </v>
   <v>       0.04166667 </v>
   <v>       0.02083333 </v>
   <v>       0.04166667 </v>
   <v>       0.08333333 </v>
   <v>       0.08333333 </v>
   <v>       0.08333333 </v>
   <v>       0.08333333 </v>
   <v>       0.04166667 </v>
   <v>       0.08333333 </v>
   <v>       0.08333333 </v>
   <v>       0.04166667 </v>
   <v>       0.04166667 </v>
   <v>       0.08333333 </v>
   <v>       0.01388889 </v>
  </varray>
 </kpoints>
 <parameters>
  <separator name="general" >
   <i type="string" name="SYSTEM">BC3-optical</i>
   <i type="logical" name="LCOMPAT"> F  </i>
  </separator>
  <separator name="electronic" >
   <i type="string" name="PREC">accura</i>
   <i name="ENMAX">    450.00000000</i>
   <i name="ENAUG">    644.87300000</i>
   <i name="EDIFF">      0.00000100</i>
   <i type="int" name="IALGO">    38</i>
   <i type="int" name="IWAVPR">    10</i>
   <i type="int" name="NBANDS">    36</i>
   <i name="NELECT">     30.00000000</i>
   <i type="int" name="TURBO">     0</i>
   <i type="int" name="IRESTART">     0</i>
   <i type="int" name="NREBOOT">     0</i>
   <i type="int" name="NMIN">     0</i>
   <i name="EREF">      0.00000000</i>
   <separator name="electronic smearing" >
    <i type="int" name="ISMEAR">     0</i>
    <i name="SIGMA">      0.10000000</i>
    <i name="KSPACING">      0.50000000</i>
    <i type="logical" name="KGAMMA"> T  </i>
   </separator>
   <separator name="electronic projectors" >
    <i type="logical" name="LREAL"> F  </i>
    <v name="ROPT">      0.00000000      0.00000000</v>
    <i type="int" name="LMAXPAW">  -100</i>
    <i type="int" name="LMAXMIX">     2</i>
    <i type="logical" name="NLSPLINE"> F  </i>
   </separator>
   <separator name="electronic startup" >
    <i type="int" name="ISTART">     1</i>
    <i type="int" name="ICHARG">    11</i>
    <i type="int" name="INIWAV">     1</i>
   </separator>
   <separator name="electronic spin" >
    <i type="int" name="ISPIN">     1</i>
    <i type="logical" name="LNONCOLLINEAR"> F  </i>
    <v name="MAGMOM">      1.00000000      1.00000000      1.00000000      1.00000000      1.00000000      1.00000000      1.00000000      1.00000000</v>
    <i name="NUPDOWN">     -1.00000000</i>
    <i type="logical" name="LSORBIT"> F  </i>
    <v name="SAXIS">      0.00000000      0.00000000      1.00000000</v>
    <i type="logical" name="LSPIRAL"> F  </i>
    <v name="QSPIRAL">      0.00000000      0.00000000      0.00000000</v>
    <i type="logical" name="LZEROZ"> F  </i>
   </separator>
   <separator name="electronic exchange-correlation" >
    <i type="logical" name="LASPH"> F  </i>
    <i type="logical" name="LMETAGGA"> F  </i>
   </separator>
   <separator name="electronic convergence" >
    <i type="int" name="NELM">    60</i>
    <i type="int" name="NELMDL">     0</i>
    <i type="int" name="NELMIN">     2</i>
    <i name="ENINI">    450.00000000</i>
    <separator name="electronic convergence detail" >
     <i type="logical" name="LDIAG"> T  </i>
     <i type="logical" name="LSUBROT"> F  </i>
     <i name="WEIMIN">      0.00000000</i>
     <i name="EBREAK">      0.00000001</i>
     <i name="DEPER">      0.30000000</i>
     <i type="int" name="NRMM">     4</i>
     <i name="TIME">      0.40000000</i>
    </separator>
   </separator>
   <separator name="electronic mixer" >
    <i name="AMIX">      0.40000000</i>
    <i name="BMIX">      1.00000000</i>
    <i name="AMIN">      0.10000000</i>
    <i name="AMIX_MAG">      1.60000000</i>
    <i name="BMIX_MAG">      1.00000000</i>
    <separator name="electronic mixer details" >
     <i type="int" name="IMIX">     1</i>
     <i type="logical" name="MIXFIRST"> F  </i>
     <i type="int" name="MAXMIX">   -45</i>
     <i name="WC">    100.00000000</i>
     <i type="int" name="INIMIX">     1</i>
     <i type="int" name="MIXPRE">     1</i>
     <i type="int" name="MREMOVE">     5</i>
    </separator>
   </separator>
   <separator name="electronic dipolcorrection" >
    <i type="logical" name="LDIPOL"> F  </i>
    <i type="logical" name="LMONO"> F  </i>
    <i type="int" name="IDIPOL">     0</i>
    <i name="EPSILON">      1.00000000</i>
    <v name="DIPOL">   -100.00000000   -100.00000000   -100.00000000</v>
    <i name="EFIELD">      0.00000000</i>
   </separator>
  </separator>
  <separator name="grids" >
   <i type="int" name="NGX">    36</i>
   <i type="int" name="NGY">    36</i>
   <i type="int" name="NGZ">    60</i>
   <i type="int" name="NGXF">    72</i>
   <i type="int" name="NGYF">    72</i>
   <i type="int" name="NGZF">   120</i>
   <i type="logical" name="ADDGRID"> F  </i>
  </separator>
  <separator name="ionic" >
   <i type="int" name="NSW">     0</i>
   <i type="int" name="IBRION">    -1</i>
   <i type="int" name="MDALGO">     0</i>
   <i type="int" name="ISIF">     0</i>
   <i name="PSTRESS">      0.00000000</i>
   <i name="EDIFFG">      0.00001000</i>
   <i type="int" name="NFREE">     0</i>
   <i name="POTIM">      0.50000000</i>
   <i name="SMASS">     -3.00000000</i>
   <i name="SCALEE">      1.00000000</i>
  </separator>
  <separator name="ionic md" >
   <i name="TEBEG">      0.00010000</i>
   <i name="TEEND">      0.00010000</i>
   <i type="int" name="NBLOCK">     1</i>
   <i type="int" name="KBLOCK">     1</i>
   <i type="int" name="NPACO">   256</i>
   <i name="APACO">     16.00000000</i>
  </separator>
  <separator name="symmetry" >
   <i type="int" name="ISYM">     3</i>
   <i name="SYMPREC">      0.00001000</i>
  </separator>
  <separator name="dos" >
   <i type="int" name="LORBIT">    11</i>
   <v name="RWIGS">     -1.00000000     -1.00000000</v>
   <i type="int" name="NEDOS">   301</i>
   <i name="EMIN">     10.00000000</i>
   <i name="EMAX">    -10.00000000</i>
   <i name="EFERMI">      0.00000000</i>
  </separator>
  <separator name="writing" >
   <i type="int" name="NWRITE">     3</i>
   <i type="logical" name="LWAVE"> T  </i>
   <i type="logical" name="LDOWNSAMPLE"> F  </i>
   <i type="logical" name="LCHARG"> T  </i>
   <i type="logical" name="LPARD"> F  </i>
   <i type="logical" name="LVTOT"> F  </i>
   <i type="logical" name="LVHAR"> F  </i>
   <i type="logical" name="LELF"> F  </i>
   <i type="logical" name="LOPTICS"> T  </i>
   <v name="STM">      0.00000000      0.00000000      0.00000000      0.00000000      0.00000000      0.00000000      0.00000000</v>
  </separator>
  <separator name="performance" >
   <i type="int" name="NPAR">    12</i>
   <i type="int" name="NSIM">     4</i>
   <i type="int" name="NBLK">    -1</i>
   <i type="logical" name="LPLANE"> T  </i>
   <i type="logical" name="LSCALAPACK"> T  </i>
   <i type="logical" name="LSCAAWARE"> F  </i>
   <i type="logical" name="LSCALU"> F  </i>
   <i type="logical" name="LASYNC"> F  </i>
   <i type="logical" name="LORBITALREAL"> F  </i>
  </separator>
  <separator name="miscellaneous" >
   <i type="int" name="IDIOT">     3</i>
   <i type="int" name="ISPECIAL">     0</i>
   <i type="logical" name="LMUSIC"> F  </i>
   <v name="POMASS">     10.81100000     12.01100000</v>
   <v name="DARWINR">      0.00000000      0.00000000</v>
   <v name="DARWINV">      1.00000000      1.00000000</v>
   <i type="logical" name="LCORR"> T  </i>
  </separator>
  <i type="logical" name="GGA_COMPAT"> T  </i>
  <i type="logical" name="LBERRY"> F  </i>
  <i type="int" name="ICORELEVEL">     0</i>
  <i type="logical" name="LDAU"> F  </i>
  <i type="int" name="I_CONSTRAINED_M">     0</i>
  <separator name="electronic exchange-correlation" >
   <i type="string" name="GGA">--</i>
   <i type="int" name="VOSKOWN">     0</i>
   <i type="logical" name="LHFCALC"> T  </i>
   <i type="string" name="PRECFOCK">normal</i>
   <i type="logical" name="LSYMGRAD"> F  </i>
   <i type="logical" name="LHFONE"> F  </i>
   <i type="logical" name="LRHFCALC"> F  </i>
   <i type="logical" name="LTHOMAS"> F  </i>
   <i type="logical" name="LMODELHF"> F  </i>
   <i name="ENCUT4O">     -1.00000000</i>
   <i type="int" name="EXXOEP">     0</i>
   <i type="int" name="FOURORBIT">     0</i>
   <i name="AEXX">      0.25000000</i>
   <i name="HFALPHA">     -1.00000000</i>
   <i name="MCALPHA">      0.00000000</i>
   <i name="ALDAX">      0.75000000</i>
   <i name="AGGAX">      0.75000000</i>
   <i name="ALDAC">      1.00000000</i>
   <i name="AGGAC">      1.00000000</i>
   <i type="int" name="NKREDX">     1</i>
   <i type="int" name="NKREDY">     1</i>
   <i type="int" name="NKREDZ">     1</i>
   <i type="logical" name="SHIFTRED"> F  </i>
   <i type="logical" name="ODDONLY"> F  </i>
   <i type="logical" name="EVENONLY"> F  </i>
   <i type="int" name="LMAXFOCK">     4</i>
   <i type="int" name="NMAXFOCKAE">     1</i>
   <i type="logical" name="LFOCKAEDFT"> F  </i>
   <i name="HFSCREEN">      0.20000000</i>
   <i name="HFSCREENC">      0.20000000</i>
   <i type="int" name="NBANDSGWLOW">     1</i>
  </separator>
  <separator name="vdW DFT" >
   <i type="logical" name="LUSE_VDW"> F  </i>
   <i name="Zab_VDW">     -0.84910000</i>
   <i name="PARAM1">      0.12340000</i>
   <i name="PARAM2">      1.00000000</i>
   <i name="PARAM3">      0.00000000</i>
  </separator>
  <separator name="model GW" >
   <i type="int" name="MODEL_GW">     0</i>
   <i name="MODEL_EPS0">     14.81501129</i>
   <i name="MODEL_ALPHA">      1.00000000</i>
  </separator>
  <separator name="linear response parameters" >
   <i type="logical" name="LEPSILON"> F  </i>
   <i type="logical" name="LRPA"> F  </i>
   <i type="logical" name="LNABLA"> F  </i>
   <i type="logical" name="LVEL"> F  </i>
   <i type="int" name="KINTER">     0</i>
   <i name="CSHIFT">      0.10000000</i>
   <i name="OMEGAMAX">     -1.00000000</i>
   <i name="DEG_THRESHOLD">      0.00200000</i>
   <i name="RTIME">     -0.10000000</i>
   <i name="WPLASMAI">      0.00000000</i>
   <v name="DFIELD">      0.00000000      0.00000000      0.00000000</v>
   <v name="WPLASMA">      0.00000000      0.00000000      0.00000000      0.00000000      0.00000000      0.00000000      0.00000000      0.00000000      0.00000000</v>
  </separator>
  <separator name="orbital magnetization" >
   <i type="logical" name="NUCIND"> F  </i>
   <v name="MAGPOS">      0.00000000      0.00000000      0.00000000</v>
   <i type="logical" name="LNICSALL"> T  </i>
   <i type="logical" name="ORBITALMAG"> F  </i>
   <i type="logical" name="LMAGBLOCH"> F  </i>
   <i type="logical" name="LCHIMAG"> F  </i>
   <i type="logical" name="LGAUGE"> T  </i>
   <i type="int" name="MAGATOM">     0</i>
   <v name="MAGDIPOL">      0.00000000      0.00000000      0.00000000</v>
   <v name="AVECCONST">      0.00000000      0.00000000      0.00000000</v>
  </separator>
  <separator name="response functions" >
   <i type="logical" name="LADDER"> F  </i>
   <i type="logical" name="LRPAFORCE"> F  </i>
   <i type="logical" name="LFXC"> F  </i>
   <i type="logical" name="LHARTREE"> T  </i>
   <i type="int" name="IBSE">     0</i>
   <v type="int" name="KPOINT">    -1     0     0     0</v>
   <i type="logical" name="LTCTE"> F  </i>
   <i type="logical" name="LTETE"> F  </i>
   <i type="logical" name="LTRIPLET"> F  </i>
   <i type="logical" name="LFXCEPS"> F  </i>
   <i type="logical" name="LFXHEG"> F  </i>
   <i type="int" name="NATURALO">     2</i>
   <i type="logical" name="L2ORDER"> F  </i>
   <i type="logical" name="LMP2LT"> F  </i>
   <i type="logical" name="LUSEW"> F  </i>
   <i name="ENCUTGW">     -2.00000000</i>
   <i name="ENCUTGWSOFT">     -2.00000000</i>
   <i name="ENCUTLF">     -1.00000000</i>
   <i type="int" name="LMAXMP2">    -1</i>
   <i name="SCISSOR">      0.00000000</i>
   <i type="int" name="NOMEGA">     0</i>
   <i type="int" name="NOMEGAR">     0</i>
   <i type="int" name="NBANDSGW">    -1</i>
   <i type="int" name="NBANDSO">    -1</i>
   <i type="int" name="NBANDSV">    -1</i>
   <i type="int" name="NELM">     1</i>
   <i type="int" name="NELMHF">     1</i>
   <i type="int" name="DIM">     3</i>
   <i type="int" name="ANTIRES">     0</i>
   <i name="OMEGAMAX">    -30.00000000</i>
   <i name="OMEGAMIN">    -30.00000000</i>
   <i name="OMEGATL">   -200.00000000</i>
   <i type="int" name="OMEGAGRID">   140</i>
   <i name="CSHIFT">      0.10000000</i>
   <i type="logical" name="SELFENERGY"> F  </i>
   <i type="logical" name="LSPECTRAL"> F  </i>
   <i type="logical" name="LSPECTRALGW"> F  </i>
   <i type="logical" name="LSINGLES"> F  </i>
   <i type="logical" name="LFERMIGW"> F  </i>
   <i type="logical" name="ODDONLYGW"> F  </i>
   <i type="logical" name="EVENONLYGW"> F  </i>
   <i type="int" name="NKREDLFX">     1</i>
   <i type="int" name="NKREDLFY">     1</i>
   <i type="int" name="NKREDLFZ">     1</i>
   <i type="int" name="MAXMEM">  2800</i>
   <i type="int" name="TELESCOPE">     0</i>
   <i type="int" name="TAUPAR">     1</i>
   <i type="int" name="OMEGAPAR">    -1</i>
   <i name="LAMBDA">      1.00000000</i>
  </separator>
  <separator name="External order field" >
   <i name="OFIELD_KAPPA">      0.00000000</i>
   <v name="OFIELD_K">      0.00000000      0.00000000      0.00000000</v>
   <i name="OFIELD_Q6_NEAR">      0.00000000</i>
   <i name="OFIELD_Q6_FAR">      0.00000000</i>
   <i name="OFIELD_A">      0.00000000</i>
  </separator>
 </parameters>
 <atominfo>
  <atoms>       8 </atoms>
  <types>       2 </types>
  <array name="atoms" >
   <dimension dim="1">ion</dimension>
   <field type="string">element</field>
   <field type="int">atomtype</field>
   <set>
    <rc><c>B </c><c>   1</c></rc>
    <rc><c>B </c><c>   1</c></rc>
    <rc><c>C </c><c>   2</c></rc>
    <rc><c>C </c><c>   2</c></rc>
    <rc><c>C </c><c>   2</c></rc>
    <rc><c>C </c><c>   2</c></rc>
    <rc><c>C </c><c>   2</c></rc>
    <rc><c>C </c><c>   2</c></rc>
   </set>
  </array>
  <array name="atomtypes" >
   <dimension dim="1">type</dimension>
   <field type="int">atomspertype</field>
   <field type="string">element</field>
   <field>mass</field>
   <field>valence</field>
   <field type="string">pseudopotential</field>
   <set>
    <rc><c>   2</c><c>B </c><c>     10.81100000</c><c>      3.00000000</c><c>  PAW_PBE B 06Sep2000                   </c></rc>
    <rc><c>   6</c><c>C </c><c>     12.01100000</c><c>      4.00000000</c><c>  PAW_PBE C 08Apr2002                   </c></rc>
   </set>
  </array>
 </atominfo>
 <structure name="initialpos" >
  <crystal>
   <varray name="basis" >
    <v>       4.48084843       2.58701885       0.00000000 </v>
    <v>      -4.48084843       2.58701885       0.00000000 </v>
    <v>       0.00000000       0.00000000       8.52022140 </v>
   </varray>
   <i name="volume">    197.53348383 </i>
   <varray name="rec_basis" >
    <v>       0.11158601       0.19327265       0.00000000 </v>
    <v>      -0.11158601       0.19327265       0.00000000 </v>
    <v>       0.00000000       0.00000000       0.11736784 </v>
   </varray>
  </crystal>
  <varray name="positions" >
   <v>       0.33333300       0.66666600       0.25000000 </v>
   <v>       0.66666600       0.33333300       0.25000000 </v>
   <v>       0.15869124       0.31738348       0.25000000 </v>
   <v>       0.31738348       0.15869124       0.25000000 </v>
   <v>       0.15869124       0.84130776       0.25000000 </v>
   <v>       0.84130776       0.15869124       0.25000000 </v>
   <v>       0.68261552       0.84130776       0.25000000 </v>
   <v>       0.84130776       0.68261552       0.25000000 </v>
  </varray>
 </structure>
 <calculation>
  <scstep>
   <time name="dav">  965.91  965.98</time>
   <time name="total">  966.23  966.30</time>
   <energy>
    <i name="alphaZ">     25.67921176 </i>
    <i name="ewald">    700.27145080 </i>
    <i name="hartreedc">  -1646.75232089 </i>
    <i name="XCdc">     73.83349174 </i>
    <i name="pawpsdc">   2936.12521642 </i>
    <i name="pawaedc">  -2937.50893907 </i>
    <i name="eentropy">     -0.00000000 </i>
    <i name="bandstr">   -305.67741964 </i>
    <i name="atom">   1012.91678113 </i>
    <i name="e_fr_energy">    -76.92897593 </i>
    <i name="e_wo_entrp">    -76.92897593 </i>
    <i name="e_0_energy">    -76.92897593 </i>
   </energy>
  </scstep>
  <scstep>
   <time name="dav"> 1104.84 1104.91</time>
   <time name="total"> 1104.84 1104.91</time>
   <energy>
    <i name="e_fr_energy">    -76.94259926 </i>
    <i name="e_wo_entrp">    -76.94259926 </i>
    <i name="e_0_energy">    -76.94259926 </i>
   </energy>
  </scstep>
  <scstep>
   <time name="dav"> 1108.48 1108.56</time>
   <time name="total"> 1108.48 1108.56</time>
   <energy>
    <i name="e_fr_energy">    -76.94286537 </i>
    <i name="e_wo_entrp">    -76.94286537 </i>
    <i name="e_0_energy">    -76.94286537 </i>
   </energy>
  </scstep>
  <scstep>
   <time name="dav"> 1084.16 1084.24</time>
   <time name="total"> 1084.16 1084.24</time>
   <energy>
    <i name="e_fr_energy">    -76.94287204 </i>
    <i name="e_wo_entrp">    -76.94287204 </i>
    <i name="e_0_energy">    -76.94287204 </i>
   </energy>
  </scstep>
  <scstep>
   <time name="dav"> 1104.01 1104.10</time>
   <time name="total"> 1104.02 1104.10</time>
   <energy>
    <i name="alphaZ">     25.67921176 </i>
    <i name="ewald">    700.27145080 </i>
    <i name="hartreedc">  -1646.75232089 </i>
    <i name="XCdc">     73.83349174 </i>
    <i name="pawpsdc">   2936.12521642 </i>
    <i name="pawaedc">  -2937.50893907 </i>
    <i name="eentropy">     -0.00000000 </i>
    <i name="bandstr">   -305.76885284 </i>
    <i name="atom">   1012.91678113 </i>
    <i name="e_fr_energy">    -76.94287221 </i>
    <i name="e_wo_entrp">    -76.94287221 </i>
    <i name="e_0_energy">    -76.94287221 </i>
   </energy>
  </scstep>
  <structure>
   <crystal>
    <varray name="basis" >
     <v>       4.48084843       2.58701885       0.00000000 </v>
     <v>      -4.48084843       2.58701885       0.00000000 </v>
     <v>       0.00000000       0.00000000       8.52022140 </v>
    </varray>
    <i name="volume">    197.53348383 </i>
    <varray name="rec_basis" >
     <v>       0.11158601       0.19327265       0.00000000 </v>
     <v>      -0.11158601       0.19327265       0.00000000 </v>
     <v>       0.00000000       0.00000000       0.11736784 </v>
    </varray>
   </crystal>
   <varray name="positions" >
    <v>       0.33333300       0.66666600       0.25000000 </v>
    <v>       0.66666600       0.33333300       0.25000000 </v>
    <v>       0.15869124       0.31738348       0.25000000 </v>
    <v>       0.31738348       0.15869124       0.25000000 </v>
    <v>       0.15869124       0.84130776       0.25000000 </v>
    <v>       0.84130776       0.15869124       0.25000000 </v>
    <v>       0.68261552       0.84130776       0.25000000 </v>
    <v>       0.84130776       0.68261552       0.25000000 </v>
   </varray>
  </structure>
  <varray name="forces" >
   <v>       0.00000000      -0.00000000      -0.00000000 </v>
   <v>       0.00000000      -0.00000000       0.00000000 </v>
   <v>       0.20507592      -0.35520188       0.00000000 </v>
   <v>      -0.20507592      -0.35520188       0.00000000 </v>
   <v>      -0.41015184      -0.00000000       0.00000000 </v>
   <v>       0.41015184      -0.00000000      -0.00000000 </v>
   <v>       0.20507592       0.35520188      -0.00000000 </v>
   <v>      -0.20507592       0.35520188      -0.00000000 </v>
  </varray>
  <energy>
   <i name="e_fr_energy">    -76.94287221 </i>
   <i name="e_wo_entrp">    -76.94287221 </i>
   <i name="e_0_energy">     -0.00000000 </i>
  </energy>
  <time name="totalsc"> 5561.74 5562.54</time>
  <eigenvalues>
   <array>
    <dimension dim="1">band</dimension>
    <dimension dim="2">kpoint</dimension>
    <dimension dim="3">spin</dimension>
    <field>eigene</field>
    <field>occ</field>
    <set>
     <set comment="spin 1">
      <set comment="kpoint 1">
       <r>  -20.9249    1.0000 </r>
       <r>  -16.6986    1.0000 </r>
       <r>  -16.6986    1.0000 </r>
       <r>  -14.0450    1.0000 </r>
       <r>  -14.0449    1.0000 </r>
       <r>  -12.8806    1.0000 </r>
       <r>  -11.5182    1.0000 </r>
       <r>   -8.3506    1.0000 </r>
       <r>   -8.3426    1.0000 </r>
       <r>   -6.0488    1.0000 </r>
       <r>   -6.0488    1.0000 </r>
       <r>   -3.5425    1.0000 </r>
       <r>   -3.5424    1.0000 </r>
       <r>   -3.3110    1.0000 </r>
       <r>   -3.3109    1.0000 </r>
       <r>   -0.0227    0.0000 </r>
       <r>    1.6272    0.0000 </r>
       <r>    1.6272    0.0000 </r>
       <r>    2.0674    0.0000 </r>
       <r>    2.3652    0.0000 </r>
       <r>    4.8067    0.0000 </r>
       <r>    6.1587    0.0000 </r>
       <r>    7.0270    0.0000 </r>
       <r>    7.0271    0.0000 </r>
       <r>    8.3729    0.0000 </r>
       <r>    8.9965    0.0000 </r>
       <r>    8.9966    0.0000 </r>
       <r>    9.3037    0.0000 </r>
       <r>    9.3834    0.0000 </r>
       <r>    9.3834    0.0000 </r>
       <r>    9.5208    0.0000 </r>
       <r>    9.5209    0.0000 </r>
       <r>    9.7666    0.0000 </r>
       <r>   11.1836    0.0000 </r>
       <r>   11.1851    0.0000 </r>
       <r>   11.6466    0.0000 </r>
      </set>
      <set comment="kpoint 2">
       <r>  -20.8952    1.0000 </r>
       <r>  -16.8397    1.0000 </r>
       <r>  -16.7433    1.0000 </r>
       <r>  -14.0937    1.0000 </r>
       <r>  -13.9391    1.0000 </r>
       <r>  -12.7352    1.0000 </r>
       <r>  -11.3376    1.0000 </r>
       <r>   -8.4042    1.0000 </r>
       <r>   -8.3039    1.0000 </r>
       <r>   -6.1819    1.0000 </r>
       <r>   -6.0721    1.0000 </r>
       <r>   -3.6798    1.0000 </r>
       <r>   -3.5651    1.0000 </r>
       <r>   -3.4657    1.0000 </r>
       <r>   -3.3848    1.0000 </r>
       <r>   -0.2914    0.0000 </r>
       <r>    1.6985    0.0000 </r>
       <r>    2.0111    0.0000 </r>
       <r>    2.1195    0.0000 </r>
       <r>    2.5004    0.0000 </r>
       <r>    4.8615    0.0000 </r>
       <r>    6.2141    0.0000 </r>
       <r>    7.0994    0.0000 </r>
       <r>    7.1987    0.0000 </r>
       <r>    8.1487    0.0000 </r>
       <r>    8.5521    0.0000 </r>
       <r>    8.8687    0.0000 </r>
       <r>    8.9867    0.0000 </r>
       <r>    9.1295    0.0000 </r>
       <r>    9.2036    0.0000 </r>
       <r>   10.1031    0.0000 </r>
       <r>   10.1306    0.0000 </r>
       <r>   10.4402    0.0000 </r>
       <r>   10.6960    0.0000 </r>
       <r>   10.8191    0.0000 </r>
       <r>   11.1607    0.0000 </r>
      </set>
      <set comment="kpoint 3">
       <r>  -20.8087    1.0000 </r>
       <r>  -17.1890    1.0000 </r>
       <r>  -16.8537    1.0000 </r>
       <r>  -14.2311    1.0000 </r>
       <r>  -13.6489    1.0000 </r>
       <r>  -12.3229    1.0000 </r>
       <r>  -10.8573    1.0000 </r>
       <r>   -8.6008    1.0000 </r>
       <r>   -8.1653    1.0000 </r>
       <r>   -6.5561    1.0000 </r>
       <r>   -6.1087    1.0000 </r>
       <r>   -4.0574    1.0000 </r>
       <r>   -3.9083    1.0000 </r>
       <r>   -3.6253    1.0000 </r>
       <r>   -3.5912    1.0000 </r>
       <r>   -0.7248    0.0000 </r>
       <r>    1.8958    0.0000 </r>
       <r>    2.2753    0.0000 </r>
       <r>    2.5410    0.0000 </r>
       <r>    3.1084    0.0000 </r>
       <r>    5.0279    0.0000 </r>
       <r>    6.3740    0.0000 </r>
       <r>    7.1315    0.0000 </r>
       <r>    7.3139    0.0000 </r>
       <r>    7.6805    0.0000 </r>
       <r>    8.3390    0.0000 </r>
       <r>    8.4434    0.0000 </r>
       <r>    8.9980    0.0000 </r>
       <r>    9.2244    0.0000 </r>
       <r>    9.4912    0.0000 </r>
       <r>    9.6991    0.0000 </r>
       <r>   10.3270    0.0000 </r>
       <r>   10.6817    0.0000 </r>
       <r>   10.8161    0.0000 </r>
       <r>   10.8436    0.0000 </r>
       <r>   11.2291    0.0000 </r>
      </set>
      <set comment="kpoint 4">
       <r>  -20.6741    1.0000 </r>
       <r>  -17.6178    1.0000 </r>
       <r>  -16.9842    1.0000 </r>
       <r>  -14.3998    1.0000 </r>
       <r>  -13.2333    1.0000 </r>
       <r>  -11.7349    1.0000 </r>
       <r>  -10.1793    1.0000 </r>
       <r>   -8.9399    1.0000 </r>
       <r>   -7.9400    1.0000 </r>
       <r>   -7.1060    1.0000 </r>
       <r>   -6.0951    1.0000 </r>
       <r>   -4.5872    1.0000 </r>
       <r>   -4.5819    1.0000 </r>
       <r>   -3.8892    1.0000 </r>
       <r>   -3.7031    1.0000 </r>
       <r>   -1.0760    0.0000 </r>
       <r>    2.1740    0.0000 </r>
       <r>    2.5342    0.0000 </r>
       <r>    2.9306    0.0000 </r>
       <r>    4.0979    0.0000 </r>
       <r>    5.3173    0.0000 </r>
       <r>    6.2148    0.0000 </r>
       <r>    6.6293    0.0000 </r>
       <r>    7.4227    0.0000 </r>
       <r>    7.9980    0.0000 </r>
       <r>    8.1058    0.0000 </r>
       <r>    8.5376    0.0000 </r>
       <r>    8.6025    0.0000 </r>
       <r>    9.0246    0.0000 </r>
       <r>    9.6650    0.0000 </r>
       <r>    9.8767    0.0000 </r>
       <r>   10.2206    0.0000 </r>
       <r>   10.4812    0.0000 </r>
       <r>   10.4839    0.0000 </r>
       <r>   11.1122    0.0000 </r>
       <r>   11.5599    0.0000 </r>
      </set>
      <set comment="kpoint 5">
       <r>  -20.5114    1.0000 </r>
       <r>  -18.0276    1.0000 </r>
       <r>  -17.0980    1.0000 </r>
       <r>  -14.5451    1.0000 </r>
       <r>  -12.7608    1.0000 </r>
       <r>  -11.0583    1.0000 </r>
       <r>   -9.4000    1.0000 </r>
       <r>   -9.3794    1.0000 </r>
       <r>   -7.7335    1.0000 </r>
       <r>   -7.6430    1.0000 </r>
       <r>   -6.0049    1.0000 </r>
       <r>   -5.4156    1.0000 </r>
       <r>   -5.1648    1.0000 </r>
       <r>   -4.2198    1.0000 </r>
       <r>   -3.7764    1.0000 </r>
       <r>   -1.3172    0.0000 </r>
       <r>    2.4657    0.0000 </r>
       <r>    2.8954    0.0000 </r>
       <r>    3.3034    0.0000 </r>
       <r>    5.0849    0.0000 </r>
       <r>    5.3536    0.0000 </r>
       <r>    5.7971    0.0000 </r>
       <r>    6.9731    0.0000 </r>
       <r>    7.4680    0.0000 </r>
       <r>    7.7806    0.0000 </r>
       <r>    7.8102    0.0000 </r>
       <r>    7.9914    0.0000 </r>
       <r>    8.9078    0.0000 </r>
       <r>    9.4375    0.0000 </r>
       <r>    9.4998    0.0000 </r>
       <r>    9.5206    0.0000 </r>
       <r>    9.6817    0.0000 </r>
       <r>   10.4506    0.0000 </r>
       <r>   10.7302    0.0000 </r>
       <r>   11.4831    0.0000 </r>
       <r>   11.7661    0.0000 </r>
      </set>
      <set comment="kpoint 6">
       <r>  -20.3631    1.0000 </r>
       <r>  -18.3360    1.0000 </r>
       <r>  -17.1733    1.0000 </r>
       <r>  -14.6396    1.0000 </r>
       <r>  -12.3315    1.0000 </r>
       <r>  -10.3601    1.0000 </r>
       <r>   -9.8039    1.0000 </r>
       <r>   -8.8995    1.0000 </r>
       <r>   -8.0344    1.0000 </r>
       <r>   -7.3211    1.0000 </r>
       <r>   -6.3372    1.0000 </r>
       <r>   -5.8746    1.0000 </r>
       <r>   -5.6782    1.0000 </r>
       <r>   -4.5051    1.0000 </r>
       <r>   -3.8277    1.0000 </r>
       <r>   -1.4570    0.0000 </r>
       <r>    2.6909    0.0000 </r>
       <r>    3.3585    0.0000 </r>
       <r>    3.5923    0.0000 </r>
       <r>    4.5886    0.0000 </r>
       <r>    5.7946    0.0000 </r>
       <r>    6.5393    0.0000 </r>
       <r>    7.2316    0.0000 </r>
       <r>    7.3526    0.0000 </r>
       <r>    7.4842    0.0000 </r>
       <r>    7.6332    0.0000 </r>
       <r>    7.9897    0.0000 </r>
       <r>    8.5306    0.0000 </r>
       <r>    8.8763    0.0000 </r>
       <r>    9.1789    0.0000 </r>
       <r>    9.2382    0.0000 </r>
       <r>   10.0216    0.0000 </r>
       <r>   10.3722    0.0000 </r>
       <r>   11.4064    0.0000 </r>
       <r>   11.6341    0.0000 </r>
       <r>   11.9068    0.0000 </r>
      </set>
      <set comment="kpoint 7">
       <r>  -20.2990    1.0000 </r>
       <r>  -18.4552    1.0000 </r>
       <r>  -17.1994    1.0000 </r>
       <r>  -14.6721    1.0000 </r>
       <r>  -12.1366    1.0000 </r>
       <r>  -10.0002    1.0000 </r>
       <r>   -9.8911    1.0000 </r>
       <r>   -9.1760    1.0000 </r>
       <r>   -7.4122    1.0000 </r>
       <r>   -7.1636    1.0000 </r>
       <r>   -7.1445    1.0000 </r>
       <r>   -5.9223    1.0000 </r>
       <r>   -5.8047    1.0000 </r>
       <r>   -4.6279    1.0000 </r>
       <r>   -3.8460    1.0000 </r>
       <r>   -1.5027    0.0000 </r>
       <r>    2.7763    0.0000 </r>
       <r>    3.7039    0.0000 </r>
       <r>    3.9211    0.0000 </r>
       <r>    3.9252    0.0000 </r>
       <r>    6.3160    0.0000 </r>
       <r>    6.3794    0.0000 </r>
       <r>    7.3871    0.0000 </r>
       <r>    7.5834    0.0000 </r>
       <r>    7.7765    0.0000 </r>
       <r>    7.8837    0.0000 </r>
       <r>    7.8976    0.0000 </r>
       <r>    7.9711    0.0000 </r>
       <r>    8.1459    0.0000 </r>
       <r>    9.1002    0.0000 </r>
       <r>    9.1428    0.0000 </r>
       <r>    9.8880    0.0000 </r>
       <r>   10.8587    0.0000 </r>
       <r>   11.4980    0.0000 </r>
       <r>   11.6128    0.0000 </r>
       <r>   12.2953    0.0000 </r>
      </set>
      <set comment="kpoint 8">
       <r>  -20.8371    1.0000 </r>
       <r>  -17.0689    1.0000 </r>
       <r>  -16.8382    1.0000 </r>
       <r>  -14.1347    1.0000 </r>
       <r>  -13.8020    1.0000 </r>
       <r>  -12.4420    1.0000 </r>
       <r>  -11.0113    1.0000 </r>
       <r>   -8.5361    1.0000 </r>
       <r>   -8.2112    1.0000 </r>
       <r>   -6.4088    1.0000 </r>
       <r>   -6.1265    1.0000 </r>
       <r>   -3.9168    1.0000 </r>
       <r>   -3.7549    1.0000 </r>
       <r>   -3.6320    1.0000 </r>
       <r>   -3.5344    1.0000 </r>
       <r>   -0.5951    0.0000 </r>
       <r>    1.7447    0.0000 </r>
       <r>    2.2234    0.0000 </r>
       <r>    2.6081    0.0000 </r>
       <r>    2.7778    0.0000 </r>
       <r>    4.9719    0.0000 </r>
       <r>    6.3223    0.0000 </r>
       <r>    7.2422    0.0000 </r>
       <r>    7.4799    0.0000 </r>
       <r>    7.6808    0.0000 </r>
       <r>    7.8032    0.0000 </r>
       <r>    8.8770    0.0000 </r>
       <r>    9.1361    0.0000 </r>
       <r>    9.4666    0.0000 </r>
       <r>    9.5252    0.0000 </r>
       <r>    9.7729    0.0000 </r>
       <r>    9.9092    0.0000 </r>
       <r>   10.0519    0.0000 </r>
       <r>   11.2460    0.0000 </r>
       <r>   11.2967    0.0000 </r>
       <r>   11.4011    0.0000 </r>
      </set>
      <set comment="kpoint 9">
       <r>  -20.7262    1.0000 </r>
       <r>  -17.4309    1.0000 </r>
       <r>  -16.9911    1.0000 </r>
       <r>  -14.2207    1.0000 </r>
       <r>  -13.5302    1.0000 </r>
       <r>  -11.9077    1.0000 </r>
       <r>  -10.4461    1.0000 </r>
       <r>   -8.8204    1.0000 </r>
       <r>   -8.0290    1.0000 </r>
       <r>   -6.8091    1.0000 </r>
       <r>   -6.1853    1.0000 </r>
       <r>   -4.3358    1.0000 </r>
       <r>   -4.2900    1.0000 </r>
       <r>   -3.8091    1.0000 </r>
       <r>   -3.7590    1.0000 </r>
       <r>   -0.8870    0.0000 </r>
       <r>    1.8374    0.0000 </r>
       <r>    2.4308    0.0000 </r>
       <r>    3.1243    0.0000 </r>
       <r>    3.5931    0.0000 </r>
       <r>    5.1963    0.0000 </r>
       <r>    6.5320    0.0000 </r>
       <r>    6.7153    0.0000 </r>
       <r>    7.2706    0.0000 </r>
       <r>    7.5994    0.0000 </r>
       <r>    7.9990    0.0000 </r>
       <r>    9.0505    0.0000 </r>
       <r>    9.1045    0.0000 </r>
       <r>    9.1781    0.0000 </r>
       <r>    9.5341    0.0000 </r>
       <r>    9.5625    0.0000 </r>
       <r>   10.0514    0.0000 </r>
       <r>   10.4152    0.0000 </r>
       <r>   10.8580    0.0000 </r>
       <r>   10.8710    0.0000 </r>
       <r>   11.3970    0.0000 </r>
      </set>
      <set comment="kpoint 10">
       <r>  -20.5761    1.0000 </r>
       <r>  -17.8327    1.0000 </r>
       <r>  -17.1384    1.0000 </r>
       <r>  -14.3448    1.0000 </r>
       <r>  -13.1172    1.0000 </r>
       <r>  -11.2511    1.0000 </r>
       <r>   -9.7293    1.0000 </r>
       <r>   -9.2428    1.0000 </r>
       <r>   -7.7665    1.0000 </r>
       <r>   -7.3444    1.0000 </r>
       <r>   -6.1658    1.0000 </r>
       <r>   -5.0157    1.0000 </r>
       <r>   -4.8698    1.0000 </r>
       <r>   -4.1485    1.0000 </r>
       <r>   -3.8899    1.0000 </r>
       <r>   -1.0858    0.0000 </r>
       <r>    2.0078    0.0000 </r>
       <r>    2.7409    0.0000 </r>
       <r>    3.5500    0.0000 </r>
       <r>    4.6185    0.0000 </r>
       <r>    5.5568    0.0000 </r>
       <r>    5.8110    0.0000 </r>
       <r>    6.8355    0.0000 </r>
       <r>    7.0062    0.0000 </r>
       <r>    7.7427    0.0000 </r>
       <r>    8.2128    0.0000 </r>
       <r>    8.6518    0.0000 </r>
       <r>    8.9971    0.0000 </r>
       <r>    9.1674    0.0000 </r>
       <r>    9.1885    0.0000 </r>
       <r>    9.8269    0.0000 </r>
       <r>   10.2506    0.0000 </r>
       <r>   10.4418    0.0000 </r>
       <r>   10.7024    0.0000 </r>
       <r>   10.8383    0.0000 </r>
       <r>   11.2645    0.0000 </r>
      </set>
      <set comment="kpoint 11">
       <r>  -20.4163    1.0000 </r>
       <r>  -18.1859    1.0000 </r>
       <r>  -17.2480    1.0000 </r>
       <r>  -14.4493    1.0000 </r>
       <r>  -12.6594    1.0000 </r>
       <r>  -10.5618    1.0000 </r>
       <r>   -9.7209    1.0000 </r>
       <r>   -8.9765    1.0000 </r>
       <r>   -7.8870    1.0000 </r>
       <r>   -7.4496    1.0000 </r>
       <r>   -6.1123    1.0000 </r>
       <r>   -5.8201    1.0000 </r>
       <r>   -5.4134    1.0000 </r>
       <r>   -4.4819    1.0000 </r>
       <r>   -3.9907    1.0000 </r>
       <r>   -1.2069    0.0000 </r>
       <r>    2.1967    0.0000 </r>
       <r>    3.1531    0.0000 </r>
       <r>    3.9225    0.0000 </r>
       <r>    4.9975    0.0000 </r>
       <r>    5.5051    0.0000 </r>
       <r>    6.1666    0.0000 </r>
       <r>    6.8104    0.0000 </r>
       <r>    7.2308    0.0000 </r>
       <r>    7.4871    0.0000 </r>
       <r>    7.8473    0.0000 </r>
       <r>    8.6902    0.0000 </r>
       <r>    8.8533    0.0000 </r>
       <r>    8.8664    0.0000 </r>
       <r>    9.3450    0.0000 </r>
       <r>    9.4868    0.0000 </r>
       <r>    9.8536    0.0000 </r>
       <r>   10.2144    0.0000 </r>
       <r>   10.7530    0.0000 </r>
       <r>   11.4505    0.0000 </r>
       <r>   12.0716    0.0000 </r>
      </set>
      <set comment="kpoint 12">
       <r>  -20.3032    1.0000 </r>
       <r>  -18.4022    1.0000 </r>
       <r>  -17.3056    1.0000 </r>
       <r>  -14.5065    1.0000 </r>
       <r>  -12.3121    1.0000 </r>
       <r>  -10.1667    1.0000 </r>
       <r>   -9.8486    1.0000 </r>
       <r>   -8.8713    1.0000 </r>
       <r>   -7.7089    1.0000 </r>
       <r>   -7.1697    1.0000 </r>
       <r>   -6.8138    1.0000 </r>
       <r>   -5.9120    1.0000 </r>
       <r>   -5.8196    1.0000 </r>
       <r>   -4.7113    1.0000 </r>
       <r>   -4.0446    1.0000 </r>
       <r>   -1.2651    0.0000 </r>
       <r>    2.3211    0.0000 </r>
       <r>    3.6670    0.0000 </r>
       <r>    4.1496    0.0000 </r>
       <r>    4.2821    0.0000 </r>
       <r>    6.1128    0.0000 </r>
       <r>    6.6145    0.0000 </r>
       <r>    6.7122    0.0000 </r>
       <r>    7.3519    0.0000 </r>
       <r>    7.6897    0.0000 </r>
       <r>    7.9065    0.0000 </r>
       <r>    8.2969    0.0000 </r>
       <r>    8.3151    0.0000 </r>
       <r>    8.6340    0.0000 </r>
       <r>    8.9364    0.0000 </r>
       <r>    9.2438    0.0000 </r>
       <r>    9.9553    0.0000 </r>
       <r>   10.5971    0.0000 </r>
       <r>   10.7579    0.0000 </r>
       <r>   12.1581    0.0000 </r>
       <r>   12.2984    0.0000 </r>
      </set>
      <set comment="kpoint 13">
       <r>  -20.5988    1.0000 </r>
       <r>  -17.7181    1.0000 </r>
       <r>  -17.2153    1.0000 </r>
       <r>  -14.1106    1.0000 </r>
       <r>  -13.4173    1.0000 </r>
       <r>  -11.2720    1.0000 </r>
       <r>   -9.8595    1.0000 </r>
       <r>   -9.2161    1.0000 </r>
       <r>   -7.8086    1.0000 </r>
       <r>   -7.0741    1.0000 </r>
       <r>   -6.3372    1.0000 </r>
       <r>   -4.8339    1.0000 </r>
       <r>   -4.6887    1.0000 </r>
       <r>   -4.1679    1.0000 </r>
       <r>   -4.0393    1.0000 </r>
       <r>   -0.9031    0.0000 </r>
       <r>    1.7110    0.0000 </r>
       <r>    2.6895    0.0000 </r>
       <r>    3.9294    0.0000 </r>
       <r>    4.2262    0.0000 </r>
       <r>    5.4786    0.0000 </r>
       <r>    6.3565    0.0000 </r>
       <r>    6.3770    0.0000 </r>
       <r>    6.7941    0.0000 </r>
       <r>    8.0266    0.0000 </r>
       <r>    8.2444    0.0000 </r>
       <r>    8.6084    0.0000 </r>
       <r>    8.7725    0.0000 </r>
       <r>    9.3773    0.0000 </r>
       <r>    9.9253    0.0000 </r>
       <r>    9.9590    0.0000 </r>
       <r>   10.2081    0.0000 </r>
       <r>   10.2087    0.0000 </r>
       <r>   10.5877    0.0000 </r>
       <r>   10.7289    0.0000 </r>
       <r>   10.8218    0.0000 </r>
      </set>
      <set comment="kpoint 14">
       <r>  -20.4470    1.0000 </r>
       <r>  -18.0189    1.0000 </r>
       <r>  -17.4138    1.0000 </r>
       <r>  -14.0804    1.0000 </r>
       <r>  -13.1198    1.0000 </r>
       <r>  -10.5813    1.0000 </r>
       <r>   -9.7049    1.0000 </r>
       <r>   -9.1646    1.0000 </r>
       <r>   -7.5205    1.0000 </r>
       <r>   -7.4425    1.0000 </r>
       <r>   -6.4123    1.0000 </r>
       <r>   -5.4965    1.0000 </r>
       <r>   -5.1255    1.0000 </r>
       <r>   -4.5744    1.0000 </r>
       <r>   -4.2985    1.0000 </r>
       <r>   -0.8354    0.0000 </r>
       <r>    1.6580    0.0000 </r>
       <r>    3.0506    0.0000 </r>
       <r>    4.4544    0.0000 </r>
       <r>    5.1520    0.0000 </r>
       <r>    5.5076    0.0000 </r>
       <r>    5.8973    0.0000 </r>
       <r>    6.1160    0.0000 </r>
       <r>    7.1512    0.0000 </r>
       <r>    7.8879    0.0000 </r>
       <r>    8.2585    0.0000 </r>
       <r>    8.4105    0.0000 </r>
       <r>    8.8654    0.0000 </r>
       <r>    9.3499    0.0000 </r>
       <r>    9.7838    0.0000 </r>
       <r>    9.7844    0.0000 </r>
       <r>    9.8625    0.0000 </r>
       <r>   10.0990    0.0000 </r>
       <r>   10.3036    0.0000 </r>
       <r>   10.9482    0.0000 </r>
       <r>   11.3408    0.0000 </r>
      </set>
      <set comment="kpoint 15">
       <r>  -20.3116    1.0000 </r>
       <r>  -18.2645    1.0000 </r>
       <r>  -17.5361    1.0000 </r>
       <r>  -14.1066    1.0000 </r>
       <r>  -12.7388    1.0000 </r>
       <r>  -10.3607    1.0000 </r>
       <r>   -9.7159    1.0000 </r>
       <r>   -8.5608    1.0000 </r>
       <r>   -7.7786    1.0000 </r>
       <r>   -7.2143    1.0000 </r>
       <r>   -6.5747    1.0000 </r>
       <r>   -6.0410    1.0000 </r>
       <r>   -5.5628    1.0000 </r>
       <r>   -4.9199    1.0000 </r>
       <r>   -4.4518    1.0000 </r>
       <r>   -0.7720    0.0000 </r>
       <r>    1.6613    0.0000 </r>
       <r>    3.5137    0.0000 </r>
       <r>    4.7434    0.0000 </r>
       <r>    4.8144    0.0000 </r>
       <r>    5.9325    0.0000 </r>
       <r>    5.9649    0.0000 </r>
       <r>    6.5451    0.0000 </r>
       <r>    7.2494    0.0000 </r>
       <r>    7.5994    0.0000 </r>
       <r>    8.1647    0.0000 </r>
       <r>    8.3371    0.0000 </r>
       <r>    8.7654    0.0000 </r>
       <r>    8.9179    0.0000 </r>
       <r>    9.4582    0.0000 </r>
       <r>    9.6647    0.0000 </r>
       <r>    9.9513    0.0000 </r>
       <r>    9.9987    0.0000 </r>
       <r>   10.1083    0.0000 </r>
       <r>   11.8390    0.0000 </r>
       <r>   12.0545    0.0000 </r>
      </set>
      <set comment="kpoint 16">
       <r>  -20.2542    1.0000 </r>
       <r>  -18.3624    1.0000 </r>
       <r>  -17.5766    1.0000 </r>
       <r>  -14.1213    1.0000 </r>
       <r>  -12.5451    1.0000 </r>
       <r>  -10.5464    1.0000 </r>
       <r>   -9.3284    1.0000 </r>
       <r>   -8.6212    1.0000 </r>
       <r>   -7.4230    1.0000 </r>
       <r>   -7.1324    1.0000 </r>
       <r>   -7.0521    1.0000 </r>
       <r>   -6.0927    1.0000 </r>
       <r>   -5.7765    1.0000 </r>
       <r>   -5.0685    1.0000 </r>
       <r>   -4.5011    1.0000 </r>
       <r>   -0.7488    0.0000 </r>
       <r>    1.6712    0.0000 </r>
       <r>    4.0744    0.0000 </r>
       <r>    4.0821    0.0000 </r>
       <r>    4.9545    0.0000 </r>
       <r>    5.9145    0.0000 </r>
       <r>    6.4374    0.0000 </r>
       <r>    6.5509    0.0000 </r>
       <r>    7.4374    0.0000 </r>
       <r>    7.8186    0.0000 </r>
       <r>    8.1130    0.0000 </r>
       <r>    8.1428    0.0000 </r>
       <r>    8.3983    0.0000 </r>
       <r>    8.4477    0.0000 </r>
       <r>    9.5889    0.0000 </r>
       <r>    9.6048    0.0000 </r>
       <r>    9.8176    0.0000 </r>
       <r>    9.9624    0.0000 </r>
       <r>   10.5220    0.0000 </r>
       <r>   11.9766    0.0000 </r>
       <r>   12.6295    0.0000 </r>
      </set>
      <set comment="kpoint 17">
       <r>  -20.3157    1.0000 </r>
       <r>  -18.1581    1.0000 </r>
       <r>  -17.6838    1.0000 </r>
       <r>  -13.7904    1.0000 </r>
       <r>  -13.0701    1.0000 </r>
       <r>  -10.4256    1.0000 </r>
       <r>   -9.6372    1.0000 </r>
       <r>   -8.5716    1.0000 </r>
       <r>   -7.5612    1.0000 </r>
       <r>   -7.2344    1.0000 </r>
       <r>   -6.7166    1.0000 </r>
       <r>   -5.9342    1.0000 </r>
       <r>   -5.3595    1.0000 </r>
       <r>   -5.0677    1.0000 </r>
       <r>   -4.7172    1.0000 </r>
       <r>   -0.4764    0.0000 </r>
       <r>    1.3189    0.0000 </r>
       <r>    3.4627    0.0000 </r>
       <r>    5.2381    0.0000 </r>
       <r>    5.2961    0.0000 </r>
       <r>    5.3147    0.0000 </r>
       <r>    5.7734    0.0000 </r>
       <r>    6.3103    0.0000 </r>
       <r>    7.5375    0.0000 </r>
       <r>    7.5621    0.0000 </r>
       <r>    7.8134    0.0000 </r>
       <r>    8.8975    0.0000 </r>
       <r>    9.0133    0.0000 </r>
       <r>    9.0703    0.0000 </r>
       <r>    9.2953    0.0000 </r>
       <r>    9.3953    0.0000 </r>
       <r>    9.9198    0.0000 </r>
       <r>   10.1110    0.0000 </r>
       <r>   10.6362    0.0000 </r>
       <r>   10.9202    0.0000 </r>
       <r>   11.8596    0.0000 </r>
      </set>
      <set comment="kpoint 18">
       <r>  -20.2278    1.0000 </r>
       <r>  -18.2377    1.0000 </r>
       <r>  -17.8451    1.0000 </r>
       <r>  -13.6550    1.0000 </r>
       <r>  -12.9212    1.0000 </r>
       <r>  -10.7825    1.0000 </r>
       <r>   -8.9820    1.0000 </r>
       <r>   -8.2576    1.0000 </r>
       <r>   -7.6817    1.0000 </r>
       <r>   -7.0177    1.0000 </r>
       <r>   -7.0011    1.0000 </r>
       <r>   -6.1455    1.0000 </r>
       <r>   -5.5616    1.0000 </r>
       <r>   -5.4523    1.0000 </r>
       <r>   -4.9531    1.0000 </r>
       <r>   -0.1875    0.0000 </r>
       <r>    1.0677    0.0000 </r>
       <r>    3.9764    0.0000 </r>
       <r>    4.5911    0.0000 </r>
       <r>    5.2043    0.0000 </r>
       <r>    5.6755    0.0000 </r>
       <r>    6.3849    0.0000 </r>
       <r>    6.7912    0.0000 </r>
       <r>    7.0380    0.0000 </r>
       <r>    7.6399    0.0000 </r>
       <r>    8.0644    0.0000 </r>
       <r>    8.2262    0.0000 </r>
       <r>    8.6545    0.0000 </r>
       <r>    8.9932    0.0000 </r>
       <r>    9.2846    0.0000 </r>
       <r>    9.6798    0.0000 </r>
       <r>    9.8411    0.0000 </r>
       <r>   10.2281    0.0000 </r>
       <r>   10.6804    0.0000 </r>
       <r>   11.6475    0.0000 </r>
       <r>   11.9607    0.0000 </r>
      </set>
      <set comment="kpoint 19">
       <r>  -20.1954    1.0000 </r>
       <r>  -18.0936    1.0000 </r>
       <r>  -18.0936    1.0000 </r>
       <r>  -13.2274    1.0000 </r>
       <r>  -13.2273    1.0000 </r>
       <r>  -10.9695    1.0000 </r>
       <r>   -8.3247    1.0000 </r>
       <r>   -8.3247    1.0000 </r>
       <r>   -7.8787    1.0000 </r>
       <r>   -7.1100    1.0000 </r>
       <r>   -6.9111    1.0000 </r>
       <r>   -5.9361    1.0000 </r>
       <r>   -5.9361    1.0000 </r>
       <r>   -5.3543    1.0000 </r>
       <r>   -5.3542    1.0000 </r>
       <r>    0.4426    0.0000 </r>
       <r>    0.4427    0.0000 </r>
       <r>    4.5266    0.0000 </r>
       <r>    4.5473    0.0000 </r>
       <r>    4.5473    0.0000 </r>
       <r>    6.3742    0.0000 </r>
       <r>    6.3742    0.0000 </r>
       <r>    6.8348    0.0000 </r>
       <r>    6.9033    0.0000 </r>
       <r>    7.6607    0.0000 </r>
       <r>    7.6607    0.0000 </r>
       <r>    8.6157    0.0000 </r>
       <r>    8.6157    0.0000 </r>
       <r>    8.6203    0.0000 </r>
       <r>    9.4395    0.0000 </r>
       <r>    9.5709    0.0000 </r>
       <r>   10.1287    0.0000 </r>
       <r>   10.1289    0.0000 </r>
       <r>   11.4654    0.0000 </r>
       <r>   11.4672    0.0000 </r>
       <r>   12.0231    0.0000 </r>
      </set>
     </set>
    </set>
   </array>
  </eigenvalues>
  <separator name="orbital magnetization" >
   <v name="MAGDIPOLOUT">      0.00000000      0.00000000      0.00000000</v>
  </separator>
  <dielectricfunction>
   <imag>
    <array>
     <dimension dim="1">gridpoints</dimension>
     <field>energy</field>
     <field>xx</field>
     <field>yy</field>
     <field>zz</field>
     <field>xy</field>
     <field>yz</field>
     <field>zx</field>
     <set>
      <r>     0.0000     0.0000     0.0000     0.0000     0.0000     0.0000     0.0000 </r>
      <r>     0.0403     0.0027     0.0027     0.0000    -0.0000     0.0000     0.0000 </r>
      <r>     0.0806     0.0054     0.0054     0.0001    -0.0000     0.0000     0.0000 </r>
      <r>     0.1209     0.0082     0.0082     0.0001    -0.0000     0.0000     0.0000 </r>
      <r>     0.1612     0.0109     0.0109     0.0001    -0.0000     0.0000     0.0000 </r>
      <r>     0.2015     0.0137     0.0137     0.0002    -0.0000     0.0000     0.0000 </r>
      <r>     0.2418     0.0165     0.0165     0.0002    -0.0000     0.0000     0.0000 </r>
      <r>     0.2821     0.0194     0.0194     0.0002    -0.0000     0.0000     0.0000 </r>
      <r>     0.3224     0.0223     0.0223     0.0003    -0.0000     0.0000     0.0000 </r>
      <r>     0.3628     0.0253     0.0253     0.0003    -0.0000     0.0000     0.0000 </r>
      <r>     0.4031     0.0284     0.0284     0.0003    -0.0000     0.0000     0.0000 </r>
      <r>     0.4434     0.0315     0.0315     0.0004    -0.0000     0.0000     0.0000 </r>
      <r>     0.4837     0.0347     0.0347     0.0004    -0.0000     0.0000     0.0000 </r>
      <r>     0.5240     0.0381     0.0381     0.0004    -0.0000     0.0000     0.0000 </r>
      <r>     0.5643     0.0415     0.0415     0.0005    -0.0000     0.0000     0.0000 </r>
      <r>     0.6046     0.0451     0.0451     0.0005    -0.0000     0.0000     0.0000 </r>
      <r>     0.6449     0.0488     0.0488     0.0005    -0.0000     0.0000     0.0000 </r>
      <r>     0.6852     0.0527     0.0527     0.0006    -0.0000     0.0000     0.0000 </r>
      <r>     0.7255     0.0568     0.0568     0.0006    -0.0000     0.0000     0.0000 </r>
      <r>     0.7658     0.0610     0.0610     0.0006    -0.0000     0.0000     0.0000 </r>
      <r>     0.8061     0.0655     0.0655     0.0007    -0.0000     0.0000     0.0000 </r>
      <r>     0.8464     0.0703     0.0703     0.0007    -0.0000     0.0000     0.0000 </r>
      <r>     0.8867     0.0752     0.0752     0.0007    -0.0000     0.0000     0.0000 </r>
      <r>     0.9270     0.0805     0.0805     0.0008    -0.0000     0.0000     0.0000 </r>
      <r>     0.9673     0.0861     0.0861     0.0008    -0.0000     0.0000     0.0000 </r>
      <r>     1.0076     0.0921     0.0921     0.0008    -0.0000     0.0000     0.0000 </r>
      <r>     1.0479     0.0985     0.0985     0.0009    -0.0000     0.0000     0.0000 </r>
      <r>     1.0883     0.1054     0.1054     0.0009    -0.0000     0.0000     0.0000 </r>
      <r>     1.1286     0.1128     0.1128     0.0010    -0.0000     0.0000     0.0000 </r>
      <r>     1.1689     0.1207     0.1207     0.0010    -0.0000     0.0000     0.0000 </r>
      <r>     1.2092     0.1293     0.1293     0.0010    -0.0000     0.0000     0.0000 </r>
      <r>     1.2495     0.1386     0.1386     0.0011    -0.0000     0.0000     0.0000 </r>
      <r>     1.2898     0.1488     0.1488     0.0011    -0.0000     0.0000     0.0000 </r>
      <r>     1.3301     0.1600     0.1600     0.0011    -0.0000     0.0000     0.0000 </r>
      <r>     1.3704     0.1722     0.1722     0.0012    -0.0000     0.0000     0.0000 </r>
      <r>     1.4107     0.1857     0.1857     0.0012    -0.0000     0.0000     0.0000 </r>
      <r>     1.4510     0.2007     0.2007     0.0013    -0.0000     0.0000     0.0000 </r>
      <r>     1.4913     0.2174     0.2174     0.0013    -0.0000     0.0000     0.0000 </r>
      <r>     1.5316     0.2361     0.2361     0.0013    -0.0000     0.0000     0.0000 </r>
      <r>     1.5719     0.2572     0.2572     0.0014    -0.0000     0.0000     0.0000 </r>
      <r>     1.6122     0.2811     0.2811     0.0014    -0.0000     0.0000     0.0000 </r>
      <r>     1.6525     0.3085     0.3085     0.0015    -0.0000     0.0000     0.0000 </r>
      <r>     1.6928     0.3400     0.3400     0.0015    -0.0000     0.0000     0.0000 </r>
      <r>     1.7331     0.3767     0.3767     0.0015    -0.0000     0.0000     0.0000 </r>
      <r>     1.7734     0.4199     0.4199     0.0016    -0.0000     0.0000     0.0000 </r>
      <r>     1.8138     0.4712     0.4712     0.0016    -0.0000     0.0000     0.0000 </r>
      <r>     1.8541     0.5332     0.5332     0.0017    -0.0000     0.0000     0.0000 </r>
      <r>     1.8944     0.6093     0.6093     0.0017    -0.0000     0.0000     0.0000 </r>
      <r>     1.9347     0.7046     0.7046     0.0018    -0.0000     0.0000     0.0000 </r>
      <r>     1.9750     0.8266     0.8266     0.0018    -0.0000     0.0000     0.0000 </r>
      <r>     2.0153     0.9873     0.9873     0.0019    -0.0000     0.0000     0.0000 </r>
      <r>     2.0556     1.2058     1.2058     0.0019    -0.0000     0.0000     0.0000 </r>
      <r>     2.0959     1.5122     1.5122     0.0020    -0.0000     0.0000     0.0000 </r>
      <r>     2.1362     1.9510     1.9510     0.0020    -0.0000     0.0000     0.0000 </r>
      <r>     2.1765     2.5773     2.5773     0.0021    -0.0000     0.0000     0.0000 </r>
      <r>     2.2168     3.4340     3.4340     0.0021    -0.0000     0.0000     0.0000 </r>
      <r>     2.2571     4.5046     4.5046     0.0022    -0.0000     0.0000     0.0000 </r>
      <r>     2.2974     5.6671     5.6671     0.0022    -0.0000     0.0000     0.0000 </r>
      <r>     2.3377     6.7035     6.7035     0.0023    -0.0000     0.0000     0.0000 </r>
      <r>     2.3780     7.3933     7.3933     0.0024    -0.0000     0.0000     0.0000 </r>
      <r>     2.4183     7.6379     7.6379     0.0024    -0.0000     0.0000     0.0000 </r>
      <r>     2.4586     7.5180     7.5180     0.0025     0.0000     0.0000     0.0000 </r>
      <r>     2.4989     7.2503     7.2503     0.0026     0.0000     0.0000     0.0000 </r>
      <r>     2.5393     7.0873     7.0873     0.0027     0.0000     0.0000     0.0000 </r>
      <r>     2.5796     7.2267     7.2267     0.0027     0.0000     0.0000     0.0000 </r>
      <r>     2.6199     7.7701     7.7701     0.0028     0.0000     0.0000     0.0000 </r>
      <r>     2.6602     8.7122     8.7122     0.0029     0.0000     0.0000     0.0000 </r>
      <r>     2.7005     9.9098     9.9098     0.0031     0.0000     0.0000     0.0000 </r>
      <r>     2.7408    11.0449    11.0449     0.0032     0.0000     0.0000     0.0000 </r>
      <r>     2.7811    11.6958    11.6958     0.0034     0.0000     0.0000     0.0000 </r>
      <r>     2.8214    11.5488    11.5488     0.0035    -0.0000     0.0000     0.0000 </r>
      <r>     2.8617    10.5945    10.5945     0.0038    -0.0000     0.0000     0.0000 </r>
      <r>     2.9020     9.1191     9.1191     0.0041     0.0000     0.0000     0.0000 </r>
      <r>     2.9423     7.5165     7.5165     0.0045     0.0000     0.0000     0.0000 </r>
      <r>     2.9826     6.0937     6.0937     0.0051     0.0000     0.0000     0.0000 </r>
      <r>     3.0229     4.9892     4.9892     0.0059     0.0000     0.0000     0.0000 </r>
      <r>     3.0632     4.2004     4.2004     0.0069     0.0000     0.0000     0.0000 </r>
      <r>     3.1035     3.6579     3.6579     0.0079     0.0000     0.0000     0.0000 </r>
      <r>     3.1438     3.2917     3.2917     0.0089     0.0000     0.0000     0.0000 </r>
      <r>     3.1841     3.0612     3.0612     0.0095     0.0000     0.0000     0.0000 </r>
      <r>     3.2244     2.9503     2.9503     0.0099     0.0000     0.0000     0.0000 </r>
      <r>     3.2648     2.9457     2.9457     0.0102     0.0000     0.0000     0.0000 </r>
      <r>     3.3051     3.0212     3.0212     0.0106     0.0000     0.0000     0.0000 </r>
      <r>     3.3454     3.1367     3.1367     0.0112     0.0000     0.0000     0.0000 </r>
      <r>     3.3857     3.2420     3.2420     0.0117     0.0000     0.0000     0.0000 </r>
      <r>     3.4260     3.2831     3.2831     0.0120     0.0000     0.0000     0.0000 </r>
      <r>     3.4663     3.2216     3.2216     0.0118     0.0000     0.0000     0.0000 </r>
      <r>     3.5066     3.0660     3.0660     0.0112    -0.0000     0.0000     0.0000 </r>
      <r>     3.5469     2.8776     2.8776     0.0104    -0.0000     0.0000     0.0000 </r>
      <r>     3.5872     2.7327     2.7327     0.0096    -0.0000     0.0000     0.0000 </r>
      <r>     3.6275     2.6664     2.6664     0.0090    -0.0000     0.0000     0.0000 </r>
      <r>     3.6678     2.6499     2.6499     0.0087    -0.0000     0.0000     0.0000 </r>
      <r>     3.7081     2.6147     2.6147     0.0089    -0.0000     0.0000     0.0000 </r>
      <r>     3.7484     2.4991     2.4991     0.0097    -0.0000     0.0000     0.0000 </r>
      <r>     3.7887     2.2804     2.2804     0.0110    -0.0000     0.0000     0.0000 </r>
      <r>     3.8290     1.9817     1.9817     0.0127    -0.0000     0.0000     0.0000 </r>
      <r>     3.8693     1.6549     1.6549     0.0145     0.0000     0.0000     0.0000 </r>
      <r>     3.9096     1.3543     1.3543     0.0159     0.0000     0.0000     0.0000 </r>
      <r>     3.9499     1.1163     1.1163     0.0165     0.0000     0.0000     0.0000 </r>
      <r>     3.9903     0.9547     0.9547     0.0163     0.0000     0.0000     0.0000 </r>
      <r>     4.0306     0.8681     0.8681     0.0156     0.0000     0.0000     0.0000 </r>
      <r>     4.0709     0.8482     0.8482     0.0146     0.0000     0.0000     0.0000 </r>
      <r>     4.1112     0.8819     0.8819     0.0135     0.0000     0.0000     0.0000 </r>
      <r>     4.1515     0.9479     0.9479     0.0124     0.0000     0.0000     0.0000 </r>
      <r>     4.1918     1.0148     1.0148     0.0114     0.0000     0.0000     0.0000 </r>
      <r>     4.2321     1.0485     1.0485     0.0106     0.0000     0.0000     0.0000 </r>
      <r>     4.2724     1.0279     1.0279     0.0102     0.0000     0.0000     0.0000 </r>
      <r>     4.3127     0.9557     0.9557     0.0102     0.0000     0.0000     0.0000 </r>
      <r>     4.3530     0.8554     0.8554     0.0106     0.0000     0.0000     0.0000 </r>
      <r>     4.3933     0.7563     0.7563     0.0115     0.0000     0.0000     0.0000 </r>
      <r>     4.4336     0.6794     0.6794     0.0131     0.0000     0.0000     0.0000 </r>
      <r>     4.4739     0.6312     0.6312     0.0153     0.0000     0.0000     0.0000 </r>
      <r>     4.5142     0.6077     0.6077     0.0182    -0.0000     0.0000     0.0000 </r>
      <r>     4.5545     0.6022     0.6022     0.0214     0.0000     0.0000     0.0000 </r>
      <r>     4.5948     0.6119     0.6119     0.0241     0.0000     0.0000     0.0000 </r>
      <r>     4.6351     0.6385     0.6385     0.0256     0.0000     0.0000     0.0000 </r>
      <r>     4.6754     0.6820     0.6820     0.0256     0.0000     0.0000     0.0000 </r>
      <r>     4.7158     0.7326     0.7326     0.0245     0.0000     0.0000     0.0000 </r>
      <r>     4.7561     0.7711     0.7711     0.0230     0.0000     0.0000     0.0000 </r>
      <r>     4.7964     0.7803     0.7803     0.0220     0.0000     0.0000     0.0000 </r>
      <r>     4.8367     0.7567     0.7567     0.0215     0.0000     0.0000     0.0000 </r>
      <r>     4.8770     0.7129     0.7129     0.0214     0.0000     0.0000     0.0000 </r>
      <r>     4.9173     0.6683     0.6683     0.0214     0.0000     0.0000     0.0000 </r>
      <r>     4.9576     0.6400     0.6400     0.0214     0.0000     0.0000     0.0000 </r>
      <r>     4.9979     0.6389     0.6389     0.0216     0.0000     0.0000     0.0000 </r>
      <r>     5.0382     0.6698     0.6698     0.0222     0.0000     0.0000     0.0000 </r>
      <r>     5.0785     0.7332     0.7332     0.0232    -0.0000     0.0000     0.0000 </r>
      <r>     5.1188     0.8264     0.8264     0.0247    -0.0000     0.0000     0.0000 </r>
      <r>     5.1591     0.9430     0.9430     0.0268    -0.0000     0.0000     0.0000 </r>
      <r>     5.1994     1.0755     1.0755     0.0294    -0.0000     0.0000     0.0000 </r>
      <r>     5.2397     1.2167     1.2167     0.0321    -0.0000     0.0000     0.0000 </r>
      <r>     5.2800     1.3575     1.3575     0.0345    -0.0000     0.0000     0.0000 </r>
      <r>     5.3203     1.4846     1.4846     0.0363    -0.0000     0.0000     0.0000 </r>
      <r>     5.3606     1.5835     1.5835     0.0380    -0.0000     0.0000     0.0000 </r>
      <r>     5.4009     1.6513     1.6513     0.0397    -0.0000     0.0000     0.0000 </r>
      <r>     5.4413     1.7034     1.7034     0.0415    -0.0000     0.0000     0.0000 </r>
      <r>     5.4816     1.7607     1.7607     0.0430    -0.0000     0.0000     0.0000 </r>
      <r>     5.5219     1.8253     1.8253     0.0437    -0.0000     0.0000     0.0000 </r>
      <r>     5.5622     1.8734     1.8734     0.0434    -0.0000     0.0000     0.0000 </r>
      <r>     5.6025     1.8762     1.8762     0.0422    -0.0000     0.0000     0.0000 </r>
      <r>     5.6428     1.8288     1.8288     0.0407     0.0000     0.0000     0.0000 </r>
      <r>     5.6831     1.7572     1.7572     0.0395     0.0000     0.0000     0.0000 </r>
      <r>     5.7234     1.7005     1.7005     0.0392     0.0000     0.0000     0.0000 </r>
      <r>     5.7637     1.6882     1.6882     0.0404     0.0000     0.0000     0.0000 </r>
      <r>     5.8040     1.7293     1.7293     0.0432    -0.0000     0.0000     0.0000 </r>
      <r>     5.8443     1.8104     1.8104     0.0469    -0.0000     0.0000     0.0000 </r>
      <r>     5.8846     1.9029     1.9029     0.0507    -0.0000     0.0000     0.0000 </r>
      <r>     5.9249     1.9782     1.9782     0.0536    -0.0000     0.0000     0.0000 </r>
      <r>     5.9652     2.0258     2.0258     0.0552    -0.0000     0.0000     0.0000 </r>
      <r>     6.0055     2.0573     2.0573     0.0558    -0.0000     0.0000     0.0000 </r>
      <r>     6.0458     2.0911     2.0911     0.0563    -0.0000     0.0000     0.0000 </r>
      <r>     6.0861     2.1305     2.1305     0.0575     0.0000     0.0000     0.0000 </r>
      <r>     6.1264     2.1522     2.1522     0.0596     0.0000     0.0000     0.0000 </r>
      <r>     6.1668     2.1179     2.1179     0.0624     0.0000     0.0000     0.0000 </r>
      <r>     6.2071     2.0023     2.0023     0.0658     0.0000     0.0000     0.0000 </r>
      <r>     6.2474     1.8161     1.8161     0.0700     0.0000     0.0000     0.0000 </r>
      <r>     6.2877     1.6017     1.6017     0.0753     0.0000     0.0000     0.0000 </r>
      <r>     6.3280     1.4048     1.4048     0.0817     0.0000     0.0000     0.0000 </r>
      <r>     6.3683     1.2515     1.2515     0.0889     0.0000     0.0000     0.0000 </r>
      <r>     6.4086     1.1455     1.1455     0.0958     0.0000     0.0000     0.0000 </r>
      <r>     6.4489     1.0804     1.0804     0.1014     0.0000     0.0000     0.0000 </r>
      <r>     6.4892     1.0491     1.0491     0.1055     0.0000     0.0000     0.0000 </r>
      <r>     6.5295     1.0449     1.0449     0.1083     0.0000     0.0000     0.0000 </r>
      <r>     6.5698     1.0575     1.0575     0.1099    -0.0000     0.0000     0.0000 </r>
      <r>     6.6101     1.0715     1.0715     0.1102    -0.0000     0.0000     0.0000 </r>
      <r>     6.6504     1.0704     1.0704     0.1083    -0.0000     0.0000     0.0000 </r>
      <r>     6.6907     1.0437     1.0437     0.1036    -0.0000     0.0000     0.0000 </r>
      <r>     6.7310     0.9933     0.9933     0.0958    -0.0000     0.0000     0.0000 </r>
      <r>     6.7713     0.9309     0.9309     0.0862    -0.0000     0.0000     0.0000 </r>
      <r>     6.8116     0.8677     0.8677     0.0765    -0.0000     0.0000     0.0000 </r>
      <r>     6.8520     0.8061     0.8061     0.0688    -0.0000     0.0000     0.0000 </r>
      <r>     6.8923     0.7427     0.7427     0.0642    -0.0000     0.0000     0.0000 </r>
      <r>     6.9326     0.6773     0.6773     0.0628    -0.0000     0.0000     0.0000 </r>
      <r>     6.9729     0.6184     0.6184     0.0633    -0.0000     0.0000     0.0000 </r>
      <r>     7.0132     0.5772     0.5772     0.0641    -0.0000     0.0000     0.0000 </r>
      <r>     7.0535     0.5581     0.5581     0.0640    -0.0000     0.0000     0.0000 </r>
      <r>     7.0938     0.5547     0.5547     0.0625    -0.0000     0.0000     0.0000 </r>
      <r>     7.1341     0.5544     0.5544     0.0602    -0.0000     0.0000     0.0000 </r>
      <r>     7.1744     0.5463     0.5463     0.0576    -0.0000     0.0000     0.0000 </r>
      <r>     7.2147     0.5289     0.5289     0.0557    -0.0000     0.0000     0.0000 </r>
      <r>     7.2550     0.5109     0.5109     0.0552    -0.0000     0.0000     0.0000 </r>
      <r>     7.2953     0.5046     0.5046     0.0562    -0.0000     0.0000     0.0000 </r>
      <r>     7.3356     0.5160     0.5160     0.0585    -0.0000     0.0000     0.0000 </r>
      <r>     7.3759     0.5394     0.5394     0.0614    -0.0000     0.0000     0.0000 </r>
      <r>     7.4162     0.5587     0.5587     0.0644    -0.0000     0.0000     0.0000 </r>
      <r>     7.4565     0.5574     0.5574     0.0672    -0.0000     0.0000     0.0000 </r>
      <r>     7.4968     0.5291     0.5291     0.0700    -0.0000     0.0000     0.0000 </r>
      <r>     7.5371     0.4805     0.4805     0.0731    -0.0000     0.0000     0.0000 </r>
      <r>     7.5775     0.4249     0.4249     0.0764    -0.0000     0.0000     0.0000 </r>
      <r>     7.6178     0.3735     0.3735     0.0795    -0.0000     0.0000     0.0000 </r>
      <r>     7.6581     0.3325     0.3325     0.0822    -0.0000     0.0000     0.0000 </r>
      <r>     7.6984     0.3058     0.3058     0.0845    -0.0000     0.0000     0.0000 </r>
      <r>     7.7387     0.2965     0.2965     0.0862    -0.0000     0.0000     0.0000 </r>
      <r>     7.7790     0.3067     0.3067     0.0869    -0.0000     0.0000     0.0000 </r>
      <r>     7.8193     0.3334     0.3334     0.0868    -0.0000     0.0000     0.0000 </r>
      <r>     7.8596     0.3667     0.3667     0.0870    -0.0000     0.0000     0.0000 </r>
      <r>     7.8999     0.3915     0.3915     0.0891    -0.0000     0.0000     0.0000 </r>
      <r>     7.9402     0.3953     0.3953     0.0946    -0.0000     0.0000     0.0000 </r>
      <r>     7.9805     0.3759     0.3759     0.1034    -0.0000     0.0000     0.0000 </r>
      <r>     8.0208     0.3427     0.3427     0.1143    -0.0000     0.0000     0.0000 </r>
      <r>     8.0611     0.3092     0.3092     0.1248    -0.0000     0.0000     0.0000 </r>
      <r>     8.1014     0.2843     0.2843     0.1325    -0.0000     0.0000     0.0000 </r>
      <r>     8.1417     0.2699     0.2699     0.1362    -0.0000     0.0000     0.0000 </r>
      <r>     8.1820     0.2629     0.2629     0.1362    -0.0000     0.0000     0.0000 </r>
      <r>     8.2223     0.2602     0.2602     0.1341    -0.0000     0.0000     0.0000 </r>
      <r>     8.2626     0.2607     0.2607     0.1313    -0.0000     0.0000     0.0000 </r>
      <r>     8.3030     0.2644     0.2644     0.1289    -0.0000     0.0000     0.0000 </r>
      <r>     8.3433     0.2711     0.2711     0.1271    -0.0000     0.0000     0.0000 </r>
      <r>     8.3836     0.2792     0.2792     0.1270    -0.0000     0.0000     0.0000 </r>
      <r>     8.4239     0.2869     0.2869     0.1300    -0.0000     0.0000     0.0000 </r>
      <r>     8.4642     0.2942     0.2942     0.1377    -0.0000     0.0000     0.0000 </r>
      <r>     8.5045     0.3026     0.3026     0.1496    -0.0000     0.0000     0.0000 </r>
      <r>     8.5448     0.3131     0.3131     0.1629     0.0000     0.0000     0.0000 </r>
      <r>     8.5851     0.3232     0.3232     0.1737     0.0000     0.0000     0.0000 </r>
      <r>     8.6254     0.3275     0.3275     0.1795     0.0000     0.0000     0.0000 </r>
      <r>     8.6657     0.3212     0.3212     0.1805     0.0000     0.0000     0.0000 </r>
      <r>     8.7060     0.3033     0.3033     0.1796     0.0000     0.0000     0.0000 </r>
      <r>     8.7463     0.2777     0.2777     0.1800     0.0000     0.0000     0.0000 </r>
      <r>     8.7866     0.2506     0.2506     0.1838     0.0000     0.0000     0.0000 </r>
      <r>     8.8269     0.2273     0.2273     0.1917     0.0000     0.0000     0.0000 </r>
      <r>     8.8672     0.2097     0.2097     0.2034     0.0000     0.0000     0.0000 </r>
      <r>     8.9075     0.1967     0.1967     0.2188     0.0000     0.0000     0.0000 </r>
      <r>     8.9478     0.1858     0.1858     0.2371     0.0000     0.0000     0.0000 </r>
      <r>     8.9881     0.1757     0.1757     0.2561     0.0000     0.0000     0.0000 </r>
      <r>     9.0285     0.1662     0.1662     0.2714    -0.0000     0.0000     0.0000 </r>
      <r>     9.0688     0.1584     0.1584     0.2787     0.0000     0.0000     0.0000 </r>
      <r>     9.1091     0.1535     0.1535     0.2759     0.0000     0.0000     0.0000 </r>
      <r>     9.1494     0.1525     0.1525     0.2653     0.0000     0.0000     0.0000 </r>
      <r>     9.1897     0.1560     0.1560     0.2524     0.0000     0.0000     0.0000 </r>
      <r>     9.2300     0.1634     0.1634     0.2438     0.0000     0.0000     0.0000 </r>
      <r>     9.2703     0.1739     0.1739     0.2451     0.0000     0.0000     0.0000 </r>
      <r>     9.3106     0.1874     0.1874     0.2603     0.0000     0.0000     0.0000 </r>
      <r>     9.3509     0.2042     0.2042     0.2920     0.0000     0.0000     0.0000 </r>
      <r>     9.3912     0.2241     0.2241     0.3401     0.0000     0.0000     0.0000 </r>
      <r>     9.4315     0.2439     0.2439     0.3992     0.0000     0.0000     0.0000 </r>
      <r>     9.4718     0.2579     0.2579     0.4581     0.0000     0.0000     0.0000 </r>
      <r>     9.5121     0.2602     0.2602     0.5024     0.0000     0.0000     0.0000 </r>
      <r>     9.5524     0.2483     0.2483     0.5228     0.0000     0.0000     0.0000 </r>
      <r>     9.5927     0.2243     0.2243     0.5217     0.0000     0.0000     0.0000 </r>
      <r>     9.6330     0.1941     0.1941     0.5136     0.0000     0.0000     0.0000 </r>
      <r>     9.6733     0.1642     0.1642     0.5167     0.0000     0.0000     0.0000 </r>
      <r>     9.7136     0.1394     0.1394     0.5438    -0.0000     0.0000     0.0000 </r>
      <r>     9.7540     0.1217     0.1217     0.5965    -0.0000     0.0000     0.0000 </r>
      <r>     9.7943     0.1110     0.1110     0.6659    -0.0000     0.0000     0.0000 </r>
      <r>     9.8346     0.1057     0.1057     0.7376    -0.0000     0.0000     0.0000 </r>
      <r>     9.8749     0.1039     0.1039     0.8017    -0.0000     0.0000     0.0000 </r>
      <r>     9.9152     0.1036     0.1036     0.8603    -0.0000     0.0000     0.0000 </r>
      <r>     9.9555     0.1040     0.1040     0.9268    -0.0000     0.0000     0.0000 </r>
      <r>     9.9958     0.1051     0.1051     1.0149    -0.0000     0.0000     0.0000 </r>
      <r>    10.0361     0.1077     0.1077     1.1273    -0.0000     0.0000     0.0000 </r>
      <r>    10.0764     0.1123     0.1123     1.2525    -0.0000     0.0000     0.0000 </r>
      <r>    10.1167     0.1188     0.1188     1.3736    -0.0000     0.0000     0.0000 </r>
      <r>    10.1570     0.1262     0.1262     1.4840    -0.0000     0.0000     0.0000 </r>
      <r>    10.1973     0.1333     0.1333     1.5982    -0.0000     0.0000     0.0000 </r>
      <r>    10.2376     0.1391     0.1391     1.7479    -0.0000     0.0000     0.0000 </r>
      <r>    10.2779     0.1432     0.1432     1.9645    -0.0000     0.0000     0.0000 </r>
      <r>    10.3182     0.1459     0.1459     2.2569    -0.0000     0.0000     0.0000 </r>
      <r>    10.3585     0.1474     0.1474     2.5951     0.0000     0.0000     0.0000 </r>
      <r>    10.3988     0.1477     0.1477     2.9130     0.0000     0.0000     0.0000 </r>
      <r>    10.4391     0.1465     0.1465     3.1360     0.0000     0.0000     0.0000 </r>
      <r>    10.4795     0.1438     0.1438     3.2218     0.0000     0.0000     0.0000 </r>
      <r>    10.5198     0.1399     0.1399     3.1812     0.0000     0.0000     0.0000 </r>
      <r>    10.5601     0.1353     0.1353     3.0608     0.0000     0.0000     0.0000 </r>
      <r>    10.6004     0.1300     0.1300     2.9085     0.0000     0.0000     0.0000 </r>
      <r>    10.6407     0.1245     0.1245     2.7499     0.0000     0.0000     0.0000 </r>
      <r>    10.6810     0.1196     0.1196     2.5881     0.0000     0.0000     0.0000 </r>
      <r>    10.7213     0.1168     0.1168     2.4171     0.0000     0.0000     0.0000 </r>
      <r>    10.7616     0.1172     0.1172     2.2346     0.0000     0.0000     0.0000 </r>
      <r>    10.8019     0.1216     0.1216     2.0463     0.0000     0.0000     0.0000 </r>
      <r>    10.8422     0.1301     0.1301     1.8661     0.0000     0.0000     0.0000 </r>
      <r>    10.8825     0.1415     0.1415     1.7108     0.0000     0.0000     0.0000 </r>
      <r>    10.9228     0.1534     0.1534     1.5922     0.0000     0.0000     0.0000 </r>
      <r>    10.9631     0.1627     0.1627     1.5081     0.0000     0.0000     0.0000 </r>
      <r>    11.0034     0.1669     0.1669     1.4398     0.0000     0.0000     0.0000 </r>
      <r>    11.0437     0.1656     0.1656     1.3623     0.0000     0.0000     0.0000 </r>
      <r>    11.0840     0.1609     0.1609     1.2599     0.0000     0.0000     0.0000 </r>
      <r>    11.1243     0.1561     0.1561     1.1363     0.0000     0.0000     0.0000 </r>
      <r>    11.1646     0.1535     0.1535     1.0095     0.0000     0.0000     0.0000 </r>
      <r>    11.2050     0.1536     0.1536     0.9002     0.0000     0.0000     0.0000 </r>
      <r>    11.2453     0.1553     0.1553     0.8229     0.0000     0.0000     0.0000 </r>
      <r>    11.2856     0.1571     0.1571     0.7838     0.0000     0.0000     0.0000 </r>
      <r>    11.3259     0.1581     0.1581     0.7809     0.0000     0.0000     0.0000 </r>
      <r>    11.3662     0.1586     0.1586     0.8040     0.0000     0.0000     0.0000 </r>
      <r>    11.4065     0.1598     0.1598     0.8365     0.0000     0.0000     0.0000 </r>
      <r>    11.4468     0.1634     0.1634     0.8618     0.0000     0.0000     0.0000 </r>
      <r>    11.4871     0.1702     0.1702     0.8690     0.0000     0.0000     0.0000 </r>
      <r>    11.5274     0.1798     0.1798     0.8554     0.0000     0.0000     0.0000 </r>
      <r>    11.5677     0.1910     0.1910     0.8222     0.0000     0.0000     0.0000 </r>
      <r>    11.6080     0.2025     0.2025     0.7725     0.0000     0.0000     0.0000 </r>
      <r>    11.6483     0.2140     0.2140     0.7115     0.0000     0.0000     0.0000 </r>
      <r>    11.6886     0.2260     0.2260     0.6472     0.0000     0.0000     0.0000 </r>
      <r>    11.7289     0.2394     0.2394     0.5883     0.0000     0.0000     0.0000 </r>
      <r>    11.7692     0.2543     0.2543     0.5408     0.0000     0.0000     0.0000 </r>
      <r>    11.8095     0.2700     0.2700     0.5060     0.0000     0.0000     0.0000 </r>
      <r>    11.8498     0.2854     0.2854     0.4813     0.0000     0.0000     0.0000 </r>
      <r>    11.8901     0.2993     0.2993     0.4631     0.0000     0.0000     0.0000 </r>
      <r>    11.9305     0.3116     0.3116     0.4485     0.0000     0.0000     0.0000 </r>
      <r>    11.9708     0.3232     0.3232     0.4361    -0.0000     0.0000     0.0000 </r>
      <r>    12.0111     0.3365     0.3365     0.4251    -0.0000     0.0000     0.0000 </r>
      <r>    12.0514     0.3554     0.3554     0.4143    -0.0000     0.0000     0.0000 </r>
      <r>    12.0917     0.3850     0.3850     0.4031    -0.0000     0.0000     0.0000 </r>
      <r>    12.1320     0.4312     0.4312     0.3913    -0.0000     0.0000     0.0000 </r>
      <r>    12.1723     0.4989     0.4989     0.3800    -0.0000     0.0000     0.0000 </r>
      <r>    12.2126     0.5901     0.5901     0.3702    -0.0000     0.0000     0.0000 </r>
      <r>    12.2529     0.7016     0.7016     0.3629    -0.0000     0.0000     0.0000 </r>
      <r>    12.2932     0.8249     0.8249     0.3602    -0.0000     0.0000     0.0000 </r>
      <r>    12.3335     0.9498     0.9498     0.3636    -0.0000     0.0000     0.0000 </r>
      <r>    12.3738     1.0691     1.0691     0.3728    -0.0000     0.0000     0.0000 </r>
      <r>    12.4141     1.1819     1.1819     0.3849    -0.0000     0.0000     0.0000 </r>
      <r>    12.4544     1.2922     1.2922     0.3958    -0.0000     0.0000     0.0000 </r>
      <r>    12.4947     1.4032     1.4032     0.4042    -0.0000     0.0000     0.0000 </r>
      <r>    12.5350     1.5113     1.5113     0.4121    -0.0000     0.0000     0.0000 </r>
      <r>    12.5753     1.6031     1.6031     0.4227    -0.0000     0.0000     0.0000 </r>
      <r>    12.6157     1.6629     1.6629     0.4375    -0.0000     0.0000     0.0000 </r>
      <r>    12.6560     1.6858     1.6858     0.4553    -0.0000     0.0000     0.0000 </r>
      <r>    12.6963     1.6870     1.6870     0.4750    -0.0000     0.0000     0.0000 </r>
      <r>    12.7366     1.6975     1.6975     0.4983    -0.0000     0.0000     0.0000 </r>
      <r>    12.7769     1.7480     1.7480     0.5291    -0.0000     0.0000     0.0000 </r>
      <r>    12.8172     1.8494     1.8494     0.5706    -0.0000     0.0000     0.0000 </r>
      <r>    12.8575     1.9856     1.9856     0.6216    -0.0000     0.0000     0.0000 </r>
      <r>    12.8978     2.1231     2.1231     0.6797    -0.0000     0.0000     0.0000 </r>
      <r>    12.9381     2.2321     2.2321     0.7462    -0.0000     0.0000     0.0000 </r>
      <r>    12.9784     2.3040     2.3040     0.8309    -0.0000     0.0000     0.0000 </r>
[...]
        <r>  0.0034  0.0648  0.0000  0.0011  0.0000  0.0000  0.0000  0.0000  0.0000 </r>
        <r>  0.0033  0.0649  0.0000  0.0011  0.0000  0.0000  0.0000  0.0000  0.0000 </r>
        <r>  0.0005  0.0548  0.0000  0.0395  0.0000  0.0000  0.0000  0.0000  0.0000 </r>
        <r>  0.0005  0.0548  0.0000  0.0396  0.0000  0.0000  0.0000  0.0000  0.0000 </r>
        <r>  0.0033  0.0648  0.0000  0.0011  0.0000  0.0000  0.0000  0.0000  0.0000 </r>
        <r>  0.0033  0.0648  0.0000  0.0011  0.0000  0.0000  0.0000  0.0000  0.0000 </r>
       </set>
       <set comment="band 13">
        <r>  0.0176  0.0605  0.0000  0.0605  0.0000  0.0000  0.0000  0.0000  0.0000 </r>
        <r>  0.0176  0.0604  0.0000  0.0604  0.0000  0.0000  0.0000  0.0000  0.0000 </r>
        <r>  0.0015  0.0206  0.0000  0.0643  0.0000  0.0000  0.0000  0.0000  0.0000 </r>
        <r>  0.0015  0.0205  0.0000  0.0642  0.0000  0.0000  0.0000  0.0000  0.0000 </r>
        <r>  0.0043  0.0005  0.0000  0.0559  0.0000  0.0000  0.0000  0.0000  0.0000 </r>
        <r>  0.0043  0.0005  0.0000  0.0558  0.0000  0.0000  0.0000  0.0000  0.0000 </r>
        <r>  0.0015  0.0206  0.0000  0.0643  0.0000  0.0000  0.0000  0.0000  0.0000 </r>
        <r>  0.0015  0.0205  0.0000  0.0642  0.0000  0.0000  0.0000  0.0000  0.0000 </r>
       </set>
       <set comment="band 14">
        <r>  0.0000  0.0000  0.0418  0.0000  0.0000  0.0000  0.0000  0.0000  0.0000 </r>
        <r>  0.0000  0.0000  0.0420  0.0000  0.0000  0.0000  0.0000  0.0000  0.0000 </r>
        <r>  0.0000  0.0000  0.0298  0.0000  0.0000  0.0000  0.0000  0.0000  0.0000 </r>
        <r>  0.0000  0.0000  0.0300  0.0000  0.0000  0.0000  0.0000  0.0000  0.0000 </r>
        <r>  0.0000  0.0000  0.1097  0.0000  0.0000  0.0000  0.0000  0.0000  0.0000 </r>
        <r>  0.0000  0.0000  0.1097  0.0000  0.0000  0.0000  0.0000  0.0000  0.0000 </r>
        <r>  0.0000  0.0000  0.0299  0.0000  0.0000  0.0000  0.0000  0.0000  0.0000 </r>
        <r>  0.0000  0.0000  0.0298  0.0000  0.0000  0.0000  0.0000  0.0000  0.0000 </r>
       </set>
       <set comment="band 15">
        <r>  0.0000  0.0000  0.0420  0.0000  0.0000  0.0000  0.0000  0.0000  0.0000 </r>
        <r>  0.0000  0.0000  0.0418  0.0000  0.0000  0.0000  0.0000  0.0000  0.0000 </r>
        <r>  0.0000  0.0000  0.0832  0.0000  0.0000  0.0000  0.0000  0.0000  0.0000 </r>
        <r>  0.0000  0.0000  0.0830  0.0000  0.0000  0.0000  0.0000  0.0000  0.0000 </r>
        <r>  0.0000  0.0000  0.0033  0.0000  0.0000  0.0000  0.0000  0.0000  0.0000 </r>
        <r>  0.0000  0.0000  0.0032  0.0000  0.0000  0.0000  0.0000  0.0000  0.0000 </r>
        <r>  0.0000  0.0000  0.0830  0.0000  0.0000  0.0000  0.0000  0.0000  0.0000 </r>
        <r>  0.0000  0.0000  0.0831  0.0000  0.0000  0.0000  0.0000  0.0000  0.0000 </r>
       </set>
       <set comment="band 16">
        <r>  0.0000  0.0000  0.0668  0.0000  0.0000  0.0000  0.0000  0.0000  0.0000 </r>
        <r>  0.0000  0.0000  0.0669  0.0000  0.0000  0.0000  0.0000  0.0000  0.0000 </r>
        <r>  0.0000  0.0000  0.0686  0.0000  0.0000  0.0000  0.0000  0.0000  0.0000 </r>
        <r>  0.0000  0.0000  0.0685  0.0000  0.0000  0.0000  0.0000  0.0000  0.0000 </r>
        <r>  0.0000  0.0000  0.0336  0.0000  0.0000  0.0000  0.0000  0.0000  0.0000 </r>
        <r>  0.0000  0.0000  0.0335  0.0000  0.0000  0.0000  0.0000  0.0000  0.0000 </r>
        <r>  0.0000  0.0000  0.0686  0.0000  0.0000  0.0000  0.0000  0.0000  0.0000 </r>
        <r>  0.0000  0.0000  0.0685  0.0000  0.0000  0.0000  0.0000  0.0000  0.0000 </r>
       </set>
       <set comment="band 17">
        <r>  0.0000  0.0000  0.0669  0.0000  0.0000  0.0000  0.0000  0.0000  0.0000 </r>
        <r>  0.0000  0.0000  0.0668  0.0000  0.0000  0.0000  0.0000  0.0000  0.0000 </r>
        <r>  0.0000  0.0000  0.0452  0.0000  0.0000  0.0000  0.0000  0.0000  0.0000 </r>
        <r>  0.0000  0.0000  0.0453  0.0000  0.0000  0.0000  0.0000  0.0000  0.0000 </r>
        <r>  0.0000  0.0000  0.0802  0.0000  0.0000  0.0000  0.0000  0.0000  0.0000 </r>
        <r>  0.0000  0.0000  0.0803  0.0000  0.0000  0.0000  0.0000  0.0000  0.0000 </r>
        <r>  0.0000  0.0000  0.0452  0.0000  0.0000  0.0000  0.0000  0.0000  0.0000 </r>
        <r>  0.0000  0.0000  0.0453  0.0000  0.0000  0.0000  0.0000  0.0000  0.0000 </r>
       </set>
       <set comment="band 18">
        <r>  0.0000  0.0005  0.0000  0.0005  0.0000  0.0000  0.0000  0.0000  0.0000 </r>
        <r>  0.0000  0.0005  0.0000  0.0005  0.0000  0.0000  0.0000  0.0000  0.0000 </r>
        <r>  0.0023  0.0001  0.0000  0.0000  0.0000  0.0000  0.0000  0.0000  0.0000 </r>
        <r>  0.0023  0.0001  0.0000  0.0000  0.0000  0.0000  0.0000  0.0000  0.0000 </r>
        <r>  0.0023  0.0000  0.0000  0.0001  0.0000  0.0000  0.0000  0.0000  0.0000 </r>
        <r>  0.0023  0.0000  0.0000  0.0001  0.0000  0.0000  0.0000  0.0000  0.0000 </r>
        <r>  0.0023  0.0001  0.0000  0.0000  0.0000  0.0000  0.0000  0.0000  0.0000 </r>
        <r>  0.0023  0.0001  0.0000  0.0000  0.0000  0.0000  0.0000  0.0000  0.0000 </r>
       </set>
       <set comment="band 19">
        <r>  0.0013  0.0001  0.0000  0.0001  0.0000  0.0000  0.0000  0.0000  0.0000 </r>
        <r>  0.0013  0.0001  0.0000  0.0001  0.0000  0.0000  0.0000  0.0000  0.0000 </r>
        <r>  0.0011  0.0005  0.0000  0.0010  0.0000  0.0000  0.0000  0.0000  0.0000 </r>
        <r>  0.0011  0.0005  0.0000  0.0010  0.0000  0.0000  0.0000  0.0000  0.0000 </r>
        <r>  0.0025  0.0000  0.0000  0.0015  0.0000  0.0000  0.0000  0.0000  0.0000 </r>
        <r>  0.0025  0.0000  0.0000  0.0015  0.0000  0.0000  0.0000  0.0000  0.0000 </r>
        <r>  0.0011  0.0005  0.0000  0.0010  0.0000  0.0000  0.0000  0.0000  0.0000 </r>
        <r>  0.0011  0.0005  0.0000  0.0010  0.0000  0.0000  0.0000  0.0000  0.0000 </r>
       </set>
       <set comment="band 20">
        <r>  0.0013  0.0001  0.0000  0.0001  0.0000  0.0000  0.0000  0.0000  0.0000 </r>
        <r>  0.0013  0.0001  0.0000  0.0001  0.0000  0.0000  0.0000  0.0000  0.0000 </r>
        <r>  0.0020  0.0014  0.0000  0.0001  0.0000  0.0000  0.0000  0.0000  0.0000 </r>
        <r>  0.0020  0.0014  0.0000  0.0001  0.0000  0.0000  0.0000  0.0000  0.0000 </r>
        <r>  0.0006  0.0006  0.0000  0.0008  0.0000  0.0000  0.0000  0.0000  0.0000 </r>
        <r>  0.0006  0.0006  0.0000  0.0008  0.0000  0.0000  0.0000  0.0000  0.0000 </r>
        <r>  0.0020  0.0014  0.0000  0.0001  0.0000  0.0000  0.0000  0.0000  0.0000 </r>
        <r>  0.0020  0.0014  0.0000  0.0001  0.0000  0.0000  0.0000  0.0000  0.0000 </r>
       </set>
       <set comment="band 21">
        <r>  0.0000  0.0000  0.0257  0.0000  0.0000  0.0000  0.0000  0.0000  0.0000 </r>
        <r>  0.0000  0.0000  0.0258  0.0000  0.0000  0.0000  0.0000  0.0000  0.0000 </r>
        <r>  0.0000  0.0000  0.0541  0.0000  0.0000  0.0000  0.0000  0.0000  0.0000 </r>
        <r>  0.0000  0.0000  0.0542  0.0000  0.0000  0.0000  0.0000  0.0000  0.0000 </r>
        <r>  0.0000  0.0000  0.0241  0.0000  0.0000  0.0000  0.0000  0.0000  0.0000 </r>
        <r>  0.0000  0.0000  0.0241  0.0000  0.0000  0.0000  0.0000  0.0000  0.0000 </r>
        <r>  0.0000  0.0000  0.0541  0.0000  0.0000  0.0000  0.0000  0.0000  0.0000 </r>
        <r>  0.0000  0.0000  0.0542  0.0000  0.0000  0.0000  0.0000  0.0000  0.0000 </r>
       </set>
       <set comment="band 22">
        <r>  0.0000  0.0000  0.0258  0.0000  0.0000  0.0000  0.0000  0.0000  0.0000 </r>
        <r>  0.0000  0.0000  0.0257  0.0000  0.0000  0.0000  0.0000  0.0000  0.0000 </r>
        <r>  0.0000  0.0000  0.0342  0.0000  0.0000  0.0000  0.0000  0.0000  0.0000 </r>
        <r>  0.0000  0.0000  0.0341  0.0000  0.0000  0.0000  0.0000  0.0000  0.0000 </r>
        <r>  0.0000  0.0000  0.0642  0.0000  0.0000  0.0000  0.0000  0.0000  0.0000 </r>
        <r>  0.0000  0.0000  0.0641  0.0000  0.0000  0.0000  0.0000  0.0000  0.0000 </r>
        <r>  0.0000  0.0000  0.0342  0.0000  0.0000  0.0000  0.0000  0.0000  0.0000 </r>
        <r>  0.0000  0.0000  0.0341  0.0000  0.0000  0.0000  0.0000  0.0000  0.0000 </r>
       </set>
       <set comment="band 23">
        <r>  0.0000  0.0000  0.0000  0.0000  0.0000  0.0000  0.0000  0.0000  0.0000 </r>
        <r>  0.0000  0.0000  0.0000  0.0000  0.0000  0.0000  0.0000  0.0000  0.0000 </r>
        <r>  0.0000  0.0000  0.0104  0.0000  0.0000  0.0000  0.0000  0.0000  0.0000 </r>
        <r>  0.0000  0.0000  0.0104  0.0000  0.0000  0.0000  0.0000  0.0000  0.0000 </r>
        <r>  0.0000  0.0000  0.0104  0.0000  0.0000  0.0000  0.0000  0.0000  0.0000 </r>
        <r>  0.0000  0.0000  0.0104  0.0000  0.0000  0.0000  0.0000  0.0000  0.0000 </r>
        <r>  0.0000  0.0000  0.0104  0.0000  0.0000  0.0000  0.0000  0.0000  0.0000 </r>
        <r>  0.0000  0.0000  0.0104  0.0000  0.0000  0.0000  0.0000  0.0000  0.0000 </r>
       </set>
       <set comment="band 24">
        <r>  0.0000  0.0000  0.0000  0.0000  0.0000  0.0000  0.0000  0.0000  0.0000 </r>
        <r>  0.0000  0.0000  0.0000  0.0000  0.0000  0.0000  0.0000  0.0000  0.0000 </r>
        <r>  0.0000  0.0000  0.0922  0.0000  0.0000  0.0000  0.0000  0.0000  0.0000 </r>
        <r>  0.0000  0.0000  0.0922  0.0000  0.0000  0.0000  0.0000  0.0000  0.0000 </r>
        <r>  0.0000  0.0000  0.0922  0.0000  0.0000  0.0000  0.0000  0.0000  0.0000 </r>
        <r>  0.0000  0.0000  0.0922  0.0000  0.0000  0.0000  0.0000  0.0000  0.0000 </r>
        <r>  0.0000  0.0000  0.0922  0.0000  0.0000  0.0000  0.0000  0.0000  0.0000 </r>
        <r>  0.0000  0.0000  0.0922  0.0000  0.0000  0.0000  0.0000  0.0000  0.0000 </r>
       </set>
       <set comment="band 25">
        <r>  0.0000  0.0000  0.1144  0.0000  0.0000  0.0000  0.0000  0.0000  0.0000 </r>
        <r>  0.0000  0.0000  0.1141  0.0000  0.0000  0.0000  0.0000  0.0000  0.0000 </r>
        <r>  0.0000  0.0000  0.0220  0.0000  0.0000  0.0000  0.0000  0.0000  0.0000 </r>
        <r>  0.0000  0.0000  0.0220  0.0000  0.0000  0.0000  0.0000  0.0000  0.0000 </r>
        <r>  0.0000  0.0000  0.0001  0.0000  0.0000  0.0000  0.0000  0.0000  0.0000 </r>
        <r>  0.0000  0.0000  0.0001  0.0000  0.0000  0.0000  0.0000  0.0000  0.0000 </r>
        <r>  0.0000  0.0000  0.0220  0.0000  0.0000  0.0000  0.0000  0.0000  0.0000 </r>
        <r>  0.0000  0.0000  0.0220  0.0000  0.0000  0.0000  0.0000  0.0000  0.0000 </r>
       </set>
       <set comment="band 26">
        <r>  0.0000  0.0000  0.1141  0.0000  0.0000  0.0000  0.0000  0.0000  0.0000 </r>
        <r>  0.0000  0.0000  0.1144  0.0000  0.0000  0.0000  0.0000  0.0000  0.0000 </r>
        <r>  0.0000  0.0000  0.0074  0.0000  0.0000  0.0000  0.0000  0.0000  0.0000 </r>
        <r>  0.0000  0.0000  0.0074  0.0000  0.0000  0.0000  0.0000  0.0000  0.0000 </r>
        <r>  0.0000  0.0000  0.0293  0.0000  0.0000  0.0000  0.0000  0.0000  0.0000 </r>
        <r>  0.0000  0.0000  0.0293  0.0000  0.0000  0.0000  0.0000  0.0000  0.0000 </r>
        <r>  0.0000  0.0000  0.0074  0.0000  0.0000  0.0000  0.0000  0.0000  0.0000 </r>
        <r>  0.0000  0.0000  0.0074  0.0000  0.0000  0.0000  0.0000  0.0000  0.0000 </r>
       </set>
       <set comment="band 27">
        <r>  0.0000  0.0000  0.0000  0.0000  0.0000  0.0000  0.0000  0.0000  0.0000 </r>
        <r>  0.0000  0.0000  0.0000  0.0000  0.0000  0.0000  0.0000  0.0000  0.0000 </r>
        <r>  0.0031  0.0020  0.0000  0.0044  0.0000  0.0000  0.0000  0.0000  0.0000 </r>
        <r>  0.0031  0.0020  0.0000  0.0044  0.0000  0.0000  0.0000  0.0000  0.0000 </r>
        <r>  0.0049  0.0000  0.0000  0.0055  0.0000  0.0000  0.0000  0.0000  0.0000 </r>
        <r>  0.0049  0.0000  0.0000  0.0055  0.0000  0.0000  0.0000  0.0000  0.0000 </r>
        <r>  0.0031  0.0020  0.0000  0.0044  0.0000  0.0000  0.0000  0.0000  0.0000 </r>
        <r>  0.0031  0.0020  0.0000  0.0044  0.0000  0.0000  0.0000  0.0000  0.0000 </r>
       </set>
       <set comment="band 28">
        <r>  0.0000  0.0000  0.0000  0.0000  0.0000  0.0000  0.0000  0.0000  0.0000 </r>
        <r>  0.0000  0.0000  0.0000  0.0000  0.0000  0.0000  0.0000  0.0000  0.0000 </r>
        <r>  0.0043  0.0054  0.0000  0.0004  0.0000  0.0000  0.0000  0.0000  0.0000 </r>
        <r>  0.0043  0.0054  0.0000  0.0004  0.0000  0.0000  0.0000  0.0000  0.0000 </r>
        <r>  0.0025  0.0034  0.0000  0.0032  0.0000  0.0000  0.0000  0.0000  0.0000 </r>
        <r>  0.0025  0.0034  0.0000  0.0032  0.0000  0.0000  0.0000  0.0000  0.0000 </r>
        <r>  0.0043  0.0054  0.0000  0.0004  0.0000  0.0000  0.0000  0.0000  0.0000 </r>
        <r>  0.0043  0.0054  0.0000  0.0004  0.0000  0.0000  0.0000  0.0000  0.0000 </r>
       </set>
       <set comment="band 29">
        <r>  0.0000  0.0007  0.0000  0.0007  0.0000  0.0000  0.0000  0.0000  0.0000 </r>
        <r>  0.0000  0.0007  0.0000  0.0007  0.0000  0.0000  0.0000  0.0000  0.0000 </r>
        <r>  0.0045  0.0003  0.0000  0.0001  0.0000  0.0000  0.0000  0.0000  0.0000 </r>
        <r>  0.0045  0.0003  0.0000  0.0001  0.0000  0.0000  0.0000  0.0000  0.0000 </r>
        <r>  0.0045  0.0001  0.0000  0.0003  0.0000  0.0000  0.0000  0.0000  0.0000 </r>
        <r>  0.0045  0.0001  0.0000  0.0003  0.0000  0.0000  0.0000  0.0000  0.0000 </r>
        <r>  0.0045  0.0003  0.0000  0.0001  0.0000  0.0000  0.0000  0.0000  0.0000 </r>
        <r>  0.0045  0.0003  0.0000  0.0001  0.0000  0.0000  0.0000  0.0000  0.0000 </r>
       </set>
       <set comment="band 30">
        <r>  0.0000  0.0490  0.0000  0.0490  0.0000  0.0000  0.0000  0.0000  0.0000 </r>
        <r>  0.0000  0.0490  0.0000  0.0490  0.0000  0.0000  0.0000  0.0000  0.0000 </r>
        <r>  0.0091  0.0102  0.0000  0.0144  0.0000  0.0000  0.0000  0.0000  0.0000 </r>
        <r>  0.0091  0.0102  0.0000  0.0145  0.0000  0.0000  0.0000  0.0000  0.0000 </r>
        <r>  0.0091  0.0166  0.0000  0.0081  0.0000  0.0000  0.0000  0.0000  0.0000 </r>
        <r>  0.0091  0.0166  0.0000  0.0081  0.0000  0.0000  0.0000  0.0000  0.0000 </r>
        <r>  0.0092  0.0102  0.0000  0.0144  0.0000  0.0000  0.0000  0.0000  0.0000 </r>
        <r>  0.0091  0.0103  0.0000  0.0144  0.0000  0.0000  0.0000  0.0000  0.0000 </r>
       </set>
       <set comment="band 31">
        <r>  0.0000  0.0000  0.0000  0.0000  0.0000  0.0000  0.0000  0.0000  0.0000 </r>
        <r>  0.0000  0.0000  0.0000  0.0000  0.0000  0.0000  0.0000  0.0000  0.0000 </r>
        <r>  0.0000  0.0000  0.0000  0.0000  0.0000  0.0000  0.0000  0.0000  0.0000 </r>
        <r>  0.0000  0.0000  0.0000  0.0000  0.0000  0.0000  0.0000  0.0000  0.0000 </r>
        <r>  0.0000  0.0000  0.0000  0.0000  0.0000  0.0000  0.0000  0.0000  0.0000 </r>
        <r>  0.0000  0.0000  0.0000  0.0000  0.0000  0.0000  0.0000  0.0000  0.0000 </r>
        <r>  0.0000  0.0000  0.0000  0.0000  0.0000  0.0000  0.0000  0.0000  0.0000 </r>
        <r>  0.0000  0.0000  0.0000  0.0000  0.0000  0.0000  0.0000  0.0000  0.0000 </r>
       </set>
       <set comment="band 32">
        <r>  0.0023  0.0017  0.0000  0.0017  0.0000  0.0000  0.0000  0.0000  0.0000 </r>
        <r>  0.0007  0.0052  0.0000  0.0052  0.0000  0.0000  0.0000  0.0000  0.0000 </r>
        <r>  0.0189  0.0292  0.0000  0.0334  0.0000  0.0000  0.0000  0.0000  0.0000 </r>
        <r>  0.0112  0.0335  0.0000  0.0092  0.0000  0.0000  0.0000  0.0000  0.0000 </r>
        <r>  0.0240  0.0133  0.0000  0.0147  0.0000  0.0000  0.0000  0.0000  0.0000 </r>
        <r>  0.0090  0.0152  0.0000  0.0424  0.0000  0.0000  0.0000  0.0000  0.0000 </r>
        <r>  0.0262  0.0123  0.0000  0.0008  0.0000  0.0000  0.0000  0.0000  0.0000 </r>
        <r>  0.0039  0.0504  0.0000  0.0418  0.0000  0.0000  0.0000  0.0000  0.0000 </r>
       </set>
       <set comment="band 33">
        <r>  0.0008  0.0052  0.0000  0.0051  0.0000  0.0000  0.0000  0.0000  0.0000 </r>
        <r>  0.0022  0.0017  0.0000  0.0017  0.0000  0.0000  0.0000  0.0000  0.0000 </r>
        <r>  0.0120  0.0273  0.0000  0.0087  0.0000  0.0000  0.0000  0.0000  0.0000 </r>
        <r>  0.0199  0.0227  0.0000  0.0332  0.0000  0.0000  0.0000  0.0000  0.0000 </r>
        <r>  0.0069  0.0223  0.0000  0.0490  0.0000  0.0000  0.0000  0.0000  0.0000 </r>
        <r>  0.0221  0.0197  0.0000  0.0211  0.0000  0.0000  0.0000  0.0000  0.0000 </r>
        <r>  0.0048  0.0443  0.0000  0.0415  0.0000  0.0000  0.0000  0.0000  0.0000 </r>
        <r>  0.0275  0.0060  0.0000  0.0005  0.0000  0.0000  0.0000  0.0000  0.0000 </r>
       </set>
       <set comment="band 34">
        <r>  0.0153  0.0090  0.0000  0.0092  0.0000  0.0000  0.0000  0.0000  0.0000 </r>
        <r>  0.0369  0.0037  0.0000  0.0037  0.0000  0.0000  0.0000  0.0000  0.0000 </r>
        <r>  0.0022  0.0073  0.0000  0.0026  0.0000  0.0000  0.0000  0.0000  0.0000 </r>
        <r>  0.0019  0.0158  0.0000  0.0057  0.0000  0.0000  0.0000  0.0000  0.0000 </r>
        <r>  0.0073  0.0002  0.0000  0.0054  0.0000  0.0000  0.0000  0.0000  0.0000 </r>
        <r>  0.0072  0.0006  0.0000  0.0167  0.0000  0.0000  0.0000  0.0000  0.0000 </r>
        <r>  0.0022  0.0074  0.0000  0.0026  0.0000  0.0000  0.0000  0.0000  0.0000 </r>
        <r>  0.0020  0.0159  0.0000  0.0056  0.0000  0.0000  0.0000  0.0000  0.0000 </r>
       </set>
       <set comment="band 35">
        <r>  0.0339  0.0038  0.0000  0.0037  0.0000  0.0000  0.0000  0.0000  0.0000 </r>
        <r>  0.0138  0.0089  0.0000  0.0089  0.0000  0.0000  0.0000  0.0000  0.0000 </r>
        <r>  0.0047  0.0137  0.0000  0.0046  0.0000  0.0000  0.0000  0.0000  0.0000 </r>
        <r>  0.0054  0.0049  0.0000  0.0018  0.0000  0.0000  0.0000  0.0000  0.0000 </r>
        <r>  0.0002  0.0004  0.0000  0.0214  0.0000  0.0000  0.0000  0.0000  0.0000 </r>
        <r>  0.0005  0.0002  0.0000  0.0106  0.0000  0.0000  0.0000  0.0000  0.0000 </r>
        <r>  0.0048  0.0129  0.0000  0.0048  0.0000  0.0000  0.0000  0.0000  0.0000 </r>
        <r>  0.0046  0.0052  0.0000  0.0017  0.0000  0.0000  0.0000  0.0000  0.0000 </r>
       </set>
       <set comment="band 36">
        <r>  0.0019  0.0145  0.0000  0.0152  0.0000  0.0000  0.0000  0.0000  0.0000 </r>
        <r>  0.0003  0.0141  0.0000  0.0138  0.0000  0.0000  0.0000  0.0000  0.0000 </r>
        <r>  0.0003  0.0012  0.0000  0.0011  0.0000  0.0000  0.0000  0.0000  0.0000 </r>
        <r>  0.0026  0.0010  0.0000  0.0004  0.0000  0.0000  0.0000  0.0000  0.0000 </r>
        <r>  0.0012  0.0009  0.0000  0.0008  0.0000  0.0000  0.0000  0.0000  0.0000 </r>
        <r>  0.0009  0.0002  0.0000  0.0012  0.0000  0.0000  0.0000  0.0000  0.0000 </r>
        <r>  0.0031  0.0002  0.0000  0.0009  0.0000  0.0000  0.0000  0.0000  0.0000 </r>
        <r>  0.0002  0.0003  0.0000  0.0002  0.0000  0.0000  0.0000  0.0000  0.0000 </r>
       </set>
      </set>
     </set>
    </set>
   </array>
  </projected>
 </calculation>
 <structure name="finalpos" >
  <crystal>
   <varray name="basis" >
    <v>       4.48084843       2.58701885       0.00000000 </v>
    <v>      -4.48084843       2.58701885       0.00000000 </v>
    <v>       0.00000000       0.00000000       8.52022140 </v>
   </varray>
   <i name="volume">    197.53348383 </i>
   <varray name="rec_basis" >
    <v>       0.11158601       0.19327265       0.00000000 </v>
    <v>      -0.11158601       0.19327265       0.00000000 </v>
    <v>       0.00000000       0.00000000       0.11736784 </v>
   </varray>
  </crystal>
  <varray name="positions" >
   <v>       0.33333300       0.66666600       0.25000000 </v>
   <v>       0.66666600       0.33333300       0.25000000 </v>
   <v>       0.15869124       0.31738348       0.25000000 </v>
   <v>       0.31738348       0.15869124       0.25000000 </v>
   <v>       0.15869124       0.84130776       0.25000000 </v>
   <v>       0.84130776       0.15869124       0.25000000 </v>
   <v>       0.68261552       0.84130776       0.25000000 </v>
   <v>       0.84130776       0.68261552       0.25000000 </v>
  </varray>
 </structure>
</modeling>
