fcc Si DOS                              
   5.00000000000000     
     0.500000    0.500000    0.000000
     0.000000    0.500000    0.500000
     0.500000    0.000000    0.500000
   Si
     1
Direct
  0.000000  0.000000  0.000000
 
   36   36   36
 -5.0129     -4.1590     -1.7951      1.5427      5.1327      8.2628      10.406      11.329      11.108      10.060    
  8.6241      7.1936      5.9196      4.8545      4.0159      3.3966      2.9771      2.7359      2.6574      2.7359    
  2.9771      3.3966      4.0159      4.8545      5.9196      7.1936      8.6241      10.060      11.108      11.329    
  10.406      8.2628      5.1327      1.5427     -1.7951     -4.1590     -4.1590     -2.5511     0.29237      3.7345    
  7.0518      9.6231      11.073      11.332      10.612      9.3027      7.8406      6.4883      5.3235      4.3791    
  3.6584      3.1464      2.8213      2.6643      2.6643      2.8213      3.1464      3.6584      4.3791      5.3235    
  6.4883      7.8406      9.3027      10.612      11.332      11.073      9.6231      7.0518      3.7345     0.29238    
 -2.5511     -4.1590     -1.7951     0.29237      3.2232      6.3419      9.0057      10.746      11.368      10.960    
  9.8311      8.3961      6.9995      5.7618      4.7304      3.9199      3.3219      2.9170      2.6841      2.6083    
  2.6841      2.9170      3.3219      3.9199      4.7304      5.7618      6.9995      8.3961      9.8311      10.960    
  11.368      10.746      9.0057      6.3419      3.2232     0.29238     -1.7951     -2.5511      1.5427      3.7345    
  6.3419      8.7726      10.529      11.326      11.144      10.194      8.8329      7.4261      6.1456      5.0509    
  4.1675      3.4951      3.0178      2.7148      2.5684      2.5684      2.7148      3.0178      3.4951      4.1675    
  5.0509      6.1456      7.4261      8.8329      10.194      11.144      11.326      10.529      8.7726      6.3419    
  3.7345      1.5427     0.29238     0.29238      5.1327      7.0518      9.0057      10.529      11.300      11.218    
  10.401      9.1305      7.7463      6.4535      5.3222      4.3872      3.6558      3.1174      2.7530      2.5433    
  2.4751      2.5433      2.7530      3.1174      3.6558      4.3872      5.3222      6.4535      7.7463      9.1305    
  10.401      11.218      11.300      10.529      9.0057      7.0518      5.1327      3.7345      3.2232      3.7345    
  8.2628      9.6231      10.746      11.326      11.218      10.467      9.2801      7.9445      6.6685      5.5285    
  4.5656      3.7942      3.2091      2.7941      2.5307      2.4032      2.4032      2.5307      2.7941      3.2091    
  3.7942      4.5656      5.5285      6.6685      7.9445      9.2801      10.467      11.218      11.326      10.746    
  9.6231      8.2628      7.0518      6.3419      6.3419      7.0518      10.406      11.073      11.368      11.144    
  10.401      9.2801      8.0115      6.7790      5.6575      4.6915      3.9008      3.2855      2.8334      2.5271    
  2.3507      2.2932      2.3507      2.5271      2.8334      3.2855      3.9008      4.6915      5.6575      6.7790    
  8.0115      9.2801      10.401      11.144      11.368      11.073      10.406      9.6231      9.0057      8.7726    
  9.0057      9.6231      11.329      11.332      10.960      10.194      9.1305      7.9445      6.7790      5.7014    
  4.7566      3.9681      3.3406      2.8658      2.5288      2.3145      2.2106      2.2106      2.3145      2.5288    
  2.8658      3.3406      3.9681      4.7566      5.7014      6.7790      7.9445      9.1305      10.194      10.960    
  11.332      11.329      11.073      10.746      10.529      10.529      10.746      11.073      11.108      10.612    
  9.8311      8.8329      7.7463      6.6685      5.6575      4.7566      3.9911      3.3694      2.8871      2.5324    
  2.2915      2.1523      2.1069      2.1523      2.2915      2.5324      2.8871      3.3694      3.9911      4.7566    
  5.6575      6.6685      7.7463      8.8329      9.8311      10.612      11.108      11.332      11.368      11.326    
  11.300      11.326      11.368      11.332      10.060      9.3027      8.3961      7.4261      6.4535      5.5285    
  4.6915      3.9681      3.3694      2.8945      2.5349      2.2790      2.1155      2.0360      2.0360      2.1155    
  2.2790      2.5349      2.8945      3.3694      3.9681      4.6915      5.5285      6.4535      7.4261      8.3961    
  9.3027      10.060      10.612      10.960      11.144      11.218      11.218      11.144      10.960      10.612    
  8.6241      7.8406      6.9995      6.1456      5.3222      4.5656      3.9008      3.3406      2.8871      2.5349    
  2.2750      2.0977      1.9947      1.9610      1.9947      2.0977      2.2750      2.5349      2.8871      3.3406    
  3.9008      4.5656      5.3222      6.1456      6.9995      7.8406      8.6241      9.3027      9.8311      10.194    
  10.401      10.467      10.401      10.194      9.8311      9.3027      7.1936      6.4883      5.7618      5.0509    
  4.3872      3.7942      3.2855      2.8658      2.5324      2.2790      2.0977      1.9812      1.9244      1.9244    
  1.9812      2.0977      2.2790      2.5324      2.8658      3.2855      3.7942      4.3872      5.0509      5.7618    
  6.4883      7.1936      7.8406      8.3961      8.8329      9.1305      9.2801      9.2801      9.1305      8.8329    
  8.3961      7.8406      5.9196      5.3235      4.7304      4.1675      3.6558      3.2091      2.8334      2.5288    
  2.2915      2.1155      1.9947      1.9244      1.9013      1.9244      1.9947      2.1155      2.2915      2.5288    
  2.8334      3.2091      3.6558      4.1675      4.7304      5.3235      5.9196      6.4883      6.9995      7.4261    
  7.7463      7.9445      8.0115      7.9445      7.7463      7.4261      6.9995      6.4883      4.8545      4.3791    
  3.9199      3.4951      3.1174      2.7941      2.5271      2.3145      2.1523      2.0360      1.9610      1.9244    
  1.9244      1.9610      2.0360      2.1523      2.3145      2.5271      2.7941      3.1174      3.4951      3.9199    
  4.3791      4.8545      5.3235      5.7618      6.1456      6.4535      6.6685      6.7790      6.7790      6.6685    
  6.4535      6.1456      5.7618      5.3235      4.0159      3.6584      3.3219      3.0178      2.7530      2.5307    
  2.3507      2.2106      2.1069      2.0360      1.9947      1.9812      1.9947      2.0360      2.1069      2.2106    
  2.3507      2.5307      2.7530      3.0178      3.3219      3.6584      4.0159      4.3791      4.7304      5.0509    
  5.3222      5.5285      5.6575      5.7014      5.6575      5.5285      5.3222      5.0509      4.7304      4.3791    
  3.3966      3.1464      2.9170      2.7148      2.5433      2.4032      2.2932      2.2106      2.1523      2.1155    
  2.0977      2.0977      2.1155      2.1523      2.2106      2.2932      2.4032      2.5433      2.7148      2.9170    
  3.1464      3.3966      3.6584      3.9199      4.1675      4.3872      4.5656      4.6915      4.7566      4.7566    
  4.6915      4.5656      4.3872      4.1675      3.9199      3.6584      2.9771      2.8213      2.6841      2.5684    
  2.4751      2.4032      2.3507      2.3145      2.2915      2.2790      2.2750      2.2790      2.2915      2.3145    
  2.3507      2.4032      2.4751      2.5684      2.6841      2.8213      2.9771      3.1464      3.3219      3.4951    
  3.6558      3.7942      3.9008      3.9681      3.9911      3.9681      3.9008      3.7942      3.6558      3.4951    
  3.3219      3.1464      2.7359      2.6643      2.6083      2.5684      2.5433      2.5307      2.5271      2.5288    
  2.5324      2.5349      2.5349      2.5324      2.5288      2.5271      2.5307      2.5433      2.5684      2.6083    
  2.6643      2.7359      2.8213      2.9170      3.0178      3.1174      3.2091      3.2855      3.3406      3.3694    
  3.3694      3.3406      3.2855      3.2091      3.1174      3.0178      2.9170      2.8213      2.6574      2.6643    
  2.6841      2.7148      2.7530      2.7941      2.8334      2.8658      2.8871      2.8945      2.8871      2.8658    
  2.8334      2.7941      2.7530      2.7148      2.6841      2.6643      2.6574      2.6643      2.6841      2.7148    
  2.7530      2.7941      2.8334      2.8658      2.8871      2.8945      2.8871      2.8658      2.8334      2.7941    
  2.7530      2.7148      2.6841      2.6643      2.7359      2.8213      2.9170      3.0178      3.1174      3.2091    
  3.2855      3.3406      3.3694      3.3694      3.3406      3.2855      3.2091      3.1174      3.0178      2.9170    
  2.8213      2.7359      2.6643      2.6083      2.5684      2.5433      2.5307      2.5271      2.5288      2.5324    
  2.5349      2.5349      2.5324      2.5288      2.5271      2.5307      2.5433      2.5684      2.6083      2.6643    
  2.9771      3.1464      3.3219      3.4951      3.6558      3.7942      3.9008      3.9681      3.9911      3.9681    
  3.9008      3.7942      3.6558      3.4951      3.3219      3.1464      2.9771      2.8213      2.6841      2.5684    
  2.4751      2.4032      2.3507      2.3145      2.2915      2.2790      2.2750      2.2790      2.2915      2.3145    
  2.3507      2.4032      2.4751      2.5684      2.6841      2.8213      3.3966      3.6584      3.9199      4.1675    
  4.3872      4.5656      4.6915      4.7566      4.7566      4.6915      4.5656      4.3872      4.1675      3.9199    
  3.6584      3.3966      3.1464      2.9170      2.7148      2.5433      2.4032      2.2932      2.2106      2.1523    
  2.1155      2.0977      2.0977      2.1155      2.1523      2.2106      2.2932      2.4032      2.5433      2.7148    
  2.9170      3.1464      4.0159      4.3791      4.7304      5.0509      5.3222      5.5285      5.6575      5.7014    
  5.6575      5.5285      5.3222      5.0509      4.7304      4.3791      4.0159      3.6584      3.3219      3.0178    
  2.7530      2.5307      2.3507      2.2106      2.1069      2.0360      1.9947      1.9812      1.9947      2.0360    
  2.1069      2.2106      2.3507      2.5307      2.7530      3.0178      3.3219      3.6584      4.8545      5.3235    
  5.7618      6.1456      6.4535      6.6685      6.7790      6.7790      6.6685      6.4535      6.1456      5.7618    
  5.3235      4.8545      4.3791      3.9199      3.4951      3.1174      2.7941      2.5271      2.3145      2.1523    
  2.0360      1.9610      1.9244      1.9244      1.9610      2.0360      2.1523      2.3145      2.5271      2.7941    
  3.1174      3.4951      3.9199      4.3791      5.9196      6.4883      6.9995      7.4261      7.7463      7.9445    
  8.0115      7.9445      7.7463      7.4261      6.9995      6.4883      5.9196      5.3235      4.7304      4.1675    
  3.6558      3.2091      2.8334      2.5288      2.2915      2.1155      1.9947      1.9244      1.9013      1.9244    
  1.9947      2.1155      2.2915      2.5288      2.8334      3.2091      3.6558      4.1675      4.7304      5.3235    
  7.1936      7.8406      8.3961      8.8329      9.1305      9.2801      9.2801      9.1305      8.8329      8.3961    
  7.8406      7.1936      6.4883      5.7618      5.0509      4.3872      3.7942      3.2855      2.8658      2.5324    
  2.2790      2.0977      1.9812      1.9244      1.9244      1.9812      2.0977      2.2790      2.5324      2.8658    
  3.2855      3.7942      4.3872      5.0509      5.7618      6.4883      8.6241      9.3027      9.8311      10.194    
  10.401      10.467      10.401      10.194      9.8311      9.3027      8.6241      7.8406      6.9995      6.1456    
  5.3222      4.5656      3.9008      3.3406      2.8871      2.5349      2.2750      2.0977      1.9947      1.9610    
  1.9947      2.0977      2.2750      2.5349      2.8871      3.3406      3.9008      4.5656      5.3222      6.1456    
  6.9995      7.8406      10.060      10.612      10.960      11.144      11.218      11.218      11.144      10.960    
  10.612      10.060      9.3027      8.3961      7.4261      6.4535      5.5285      4.6915      3.9681      3.3694    
  2.8945      2.5349      2.2790      2.1155      2.0360      2.0360      2.1155      2.2790      2.5349      2.8945    
  3.3694      3.9681      4.6915      5.5285      6.4535      7.4261      8.3961      9.3027      11.108      11.332    
  11.368      11.326      11.300      11.326      11.368      11.332      11.108      10.612      9.8311      8.8329    
  7.7463      6.6685      5.6575      4.7566      3.9911      3.3694      2.8871      2.5324      2.2915      2.1523    
  2.1069      2.1523      2.2915      2.5324      2.8871      3.3694      3.9911      4.7566      5.6575      6.6685    
  7.7463      8.8329      9.8311      10.612      11.329      11.073      10.746      10.529      10.529      10.746    
  11.073      11.329      11.332      10.960      10.194      9.1305      7.9445      6.7790      5.7014      4.7566    
  3.9681      3.3406      2.8658      2.5288      2.3145      2.2106      2.2106      2.3145      2.5288      2.8658    
  3.3406      3.9681      4.7566      5.7014      6.7790      7.9445      9.1305      10.194      10.960      11.332    
  10.406      9.6231      9.0057      8.7726      9.0057      9.6231      10.406      11.073      11.368      11.144    
  10.401      9.2801      8.0115      6.7790      5.6575      4.6915      3.9008      3.2855      2.8334      2.5271    
  2.3507      2.2932      2.3507      2.5271      2.8334      3.2855      3.9008      4.6915      5.6575      6.7790    
  8.0115      9.2801      10.401      11.144      11.368      11.073      8.2628      7.0518      6.3419      6.3419    
  7.0518      8.2628      9.6231      10.746      11.326      11.218      10.467      9.2801      7.9445      6.6685    
  5.5285      4.5656      3.7942      3.2091      2.7941      2.5307      2.4032      2.4032      2.5307      2.7941    
  3.2091      3.7942      4.5656      5.5285      6.6685      7.9445      9.2801      10.467      11.218      11.326    
  10.746      9.6231      5.1327      3.7345      3.2232      3.7345      5.1327      7.0518      9.0057      10.529    
  11.300      11.218      10.401      9.1305      7.7463      6.4535      5.3222      4.3872      3.6558      3.1174    
  2.7530      2.5433      2.4751      2.5433      2.7530      3.1174      3.6558      4.3872      5.3222      6.4535    
  7.7463      9.1305      10.401      11.218      11.300      10.529      9.0057      7.0518      1.5427     0.29238    
 0.29238      1.5427      3.7345      6.3419      8.7726      10.529      11.326      11.144      10.194      8.8329    
  7.4261      6.1456      5.0509      4.1675      3.4951      3.0178      2.7148      2.5684      2.5684      2.7148    
  3.0178      3.4951      4.1675      5.0509      6.1456      7.4261      8.8329      10.194      11.144      11.326    
  10.529      8.7726      6.3419      3.7345     -1.7951     -2.5511     -1.7951     0.29238      3.2232      6.3419    
  9.0057      10.746      11.368      10.960      9.8311      8.3961      6.9995      5.7618      4.7304      3.9199    
  3.3219      2.9170      2.6841      2.6083      2.6841      2.9170      3.3219      3.9199      4.7304      5.7618    
  6.9995      8.3961      9.8311      10.960      11.368      10.746      9.0057      6.3419      3.2232     0.29237    
 -4.1590     -4.1590     -2.5511     0.29238      3.7345      7.0518      9.6231      11.073      11.332      10.612    
  9.3027      7.8406      6.4883      5.3235      4.3791      3.6584      3.1464      2.8213      2.6643      2.6643    
  2.8213      3.1464      3.6584      4.3791      5.3235      6.4883      7.8406      9.3027      10.612      11.332    
  11.073      9.6231      7.0518      3.7345     0.29237     -2.5511     -4.1590     -2.5511     0.29237      3.7345    
  7.0518      9.6231      11.073      11.332      10.612      9.3027      7.8406      6.4883      5.3235      4.3791    
  3.6584      3.1464      2.8213      2.6643      2.6643      2.8213      3.1464      3.6584      4.3791      5.3235    
  6.4883      7.8406      9.3027      10.612      11.332      11.073      9.6231      7.0518      3.7345     0.29238    
 -2.5511     -4.1590     -2.5511     -.37349      2.6898      5.9616      8.7764      10.647      11.365      11.016    
  9.9119      8.4753      7.0672      5.8173      4.7746      3.9548      3.3497      2.9399      2.7043      2.6276    
  2.7043      2.9399      3.3497      3.9548      4.7746      5.8173      7.0672      8.4753      9.9119      11.016    
  11.365      10.647      8.7764      5.9616      2.6898     -.37348     -2.5511     -3.3390     0.29237      2.6898    
  5.5599      8.2685      10.278      11.277      11.229      10.346      8.9958      7.5687      6.2640      5.1461    
  4.2426      3.5543      3.0656      2.7554      2.6055      2.6055      2.7554      3.0656      3.5543      4.2426    
  5.1461      6.2640      7.5687      8.9958      10.346      11.229      11.277      10.278      8.2685      5.5599    
  2.6898     0.29238     -1.0709     -1.0709      3.7345      5.9616      8.2685      10.134      11.194      11.316    
  10.613      9.3748      7.9671      6.6393      5.4729      4.5063      3.7493      3.1916      2.8140      2.5969    
  2.5262      2.5969      2.8140      3.1916      3.7493      4.5063      5.4729      6.6393      7.9671      9.3748    
  10.613      11.316      11.194      10.134      8.2685      5.9616      3.7345      2.1259      1.5397      2.1259    
  7.0518      8.7764      10.278      11.194      11.338      10.737      9.6019      8.2431      6.9226      5.7363    
  4.7307      3.9233      3.3103      2.8755      2.5994      2.4659      2.4659      2.5994      2.8755      3.3103    
  3.9233      4.7307      5.7363      6.9226      8.2431      9.6019      10.737      11.338      11.194      10.278    
  8.7764      7.0518      5.5527      4.6835      4.6835      5.5527      9.6231      10.647      11.277      11.316    
  10.737      9.6771      8.3842      7.0988      5.9211      4.9019      4.0654      3.4136      2.9343      2.6097    
  2.4229      2.3620      2.4229      2.6097      2.9343      3.4136      4.0654      4.9019      5.9211      7.0988    
  8.3842      9.6771      10.737      11.316      11.277      10.647      9.6231      8.5213      7.6836      7.3718    
  7.6836      8.5213      11.073      11.365      11.229      10.613      9.6019      8.3842      7.1585      6.0163    
  5.0093      4.1661      3.4938      2.9848      2.6238      2.3942      2.2830      2.2830      2.3942      2.6238    
  2.9848      3.4938      4.1661      5.0093      6.0163      7.1585      8.3842      9.6019      10.613      11.229    
  11.365      11.073      10.525      9.9625      9.6124      9.6124      9.9625      10.525      11.332      11.016    
  10.346      9.3748      8.2431      7.0988      6.0163      5.0459      4.2183      3.5448      3.0219      2.6375    
  2.3767      2.2261      2.1770      2.2261      2.3767      2.6375      3.0219      3.5448      4.2183      5.0459    
  6.0163      7.0988      8.2431      9.3748      10.346      11.016      11.332      11.344      11.177      10.991    
  10.913      10.991      11.177      11.344      10.612      9.9119      8.9958      7.9671      6.9226      5.9211    
  5.0093      4.2183      3.5622      3.0415      2.6473      2.3671      2.1883      2.1014      2.1014      2.1883    
  2.3671      2.6473      3.0415      3.5622      4.2183      5.0093      5.9211      6.9226      7.9671      8.9958    
  9.9119      10.612      11.057      11.276      11.346      11.354      11.354      11.346      11.276      11.057    
  9.3027      8.4753      7.5687      6.6393      5.7363      4.9019      4.1661      3.5448      3.0415      2.6509    
  2.3630      2.1668      2.0531      2.0159      2.0531      2.1668      2.3630      2.6509      3.0415      3.5448    
  4.1661      4.9019      5.7363      6.6393      7.5687      8.4753      9.3027      9.9799      10.469      10.778    
  10.939      10.988      10.939      10.778      10.469      9.9799      7.8406      7.0672      6.2640      5.4729    
  4.7307      4.0654      3.4938      3.0219      2.6473      2.3630      2.1598      2.0296      1.9661      1.9661    
  2.0296      2.1598      2.3630      2.6473      3.0219      3.4938      4.0654      4.7307      5.4729      6.2640    
  7.0672      7.8406      8.5435      9.1371      9.5870      9.8815      10.025      10.025      9.8815      9.5870    
  9.1371      8.5435      6.4883      5.8173      5.1461      4.5063      3.9233      3.4136      2.9848      2.6375    
  2.3671      2.1668      2.0296      1.9497      1.9235      1.9497      2.0296      2.1668      2.3671      2.6375    
  2.9848      3.4136      3.9233      4.5063      5.1461      5.8173      6.4883      7.1244      7.6921      8.1624    
  8.5130      8.7288      8.8014      8.7288      8.5130      8.1624      7.6921      7.1244      5.3235      4.7746    
  4.2426      3.7493      3.3103      2.9343      2.6238      2.3767      2.1883      2.0531      1.9661      1.9235    
  1.9235      1.9661      2.0531      2.1883      2.3767      2.6238      2.9343      3.3103      3.7493      4.2426    
  4.7746      5.3235      5.8627      6.3640      6.8006      7.1490      7.3914      7.5155      7.5155      7.3914    
  7.1490      6.8006      6.3640      5.8627      4.3791      3.9548      3.5543      3.1916      2.8755      2.6097    
  2.3942      2.2261      2.1014      2.0159      1.9661      1.9497      1.9661      2.0159      2.1014      2.2261    
  2.3942      2.6097      2.8755      3.1916      3.5543      3.9548      4.3791      4.8090      5.2231      5.5991    
  5.9162      6.1564      6.3061      6.3570      6.3061      6.1564      5.9162      5.5991      5.2231      4.8090    
  3.6584      3.3497      3.0656      2.8140      2.5994      2.4229      2.2830      2.1770      2.1014      2.0531    
  2.0296      2.0296      2.0531      2.1014      2.1770      2.2830      2.4229      2.5994      2.8140      3.0656    
  3.3497      3.6584      3.9800      4.2996      4.6009      4.8670      5.0822      5.2336      5.3117      5.3117    
  5.2336      5.0822      4.8670      4.6009      4.2996      3.9800      3.1464      2.9399      2.7554      2.5969    
  2.4659      2.3620      2.2830      2.2261      2.1883      2.1668      2.1598      2.1668      2.1883      2.2261    
  2.2830      2.3620      2.4659      2.5969      2.7554      2.9399      3.1464      3.3680      3.5955      3.8178    
  4.0226      4.1977      4.3319      4.4163      4.4450      4.4163      4.3319      4.1977      4.0226      3.8178    
  3.5955      3.3680      2.8213      2.7043      2.6055      2.5262      2.4659      2.4229      2.3942      2.3767    
  2.3671      2.3630      2.3630      2.3671      2.3767      2.3942      2.4229      2.4659      2.5262      2.6055    
  2.7043      2.8213      2.9534      3.0954      3.2406      3.3808      3.5074      3.6116      3.6859      3.7245    
  3.7245      3.6859      3.6116      3.5074      3.3808      3.2406      3.0954      2.9534      2.6643      2.6276    
  2.6055      2.5969      2.5994      2.6097      2.6238      2.6375      2.6473      2.6509      2.6473      2.6375    
  2.6238      2.6097      2.5994      2.5969      2.6055      2.6276      2.6643      2.7151      2.7780      2.8498    
  2.9255      2.9996      3.0659      3.1184      3.1522      3.1638      3.1522      3.1184      3.0659      2.9996    
  2.9255      2.8498      2.7780      2.7151      2.6643      2.7043      2.7554      2.8140      2.8755      2.9343    
  2.9848      3.0219      3.0415      3.0415      3.0219      2.9848      2.9343      2.8755      2.8140      2.7554    
  2.7043      2.6643      2.6375      2.6247      2.6250      2.6366      2.6559      2.6790      2.7015      2.7192    
  2.7290      2.7290      2.7192      2.7015      2.6790      2.6559      2.6366      2.6250      2.6247      2.6375    
  2.8213      2.9399      3.0656      3.1916      3.3103      3.4136      3.4938      3.5448      3.5622      3.5448    
  3.4938      3.4136      3.3103      3.1916      3.0656      2.9399      2.8213      2.7151      2.6247      2.5519    
  2.4969      2.4582      2.4333      2.4190      2.4119      2.4090      2.4082      2.4090      2.4119      2.4190    
  2.4333      2.4582      2.4969      2.5519      2.6247      2.7151      3.1464      3.3497      3.5543      3.7493    
  3.9233      4.0654      4.1661      4.2183      4.2183      4.1661      4.0654      3.9233      3.7493      3.5543    
  3.3497      3.1464      2.9534      2.7780      2.6250      2.4969      2.3938      2.3144      2.2561      2.2161    
  2.1913      2.1796      2.1796      2.1913      2.2161      2.2561      2.3144      2.3938      2.4969      2.6250    
  2.7780      2.9534      3.6584      3.9548      4.2426      4.5063      4.7307      4.9019      5.0093      5.0459    
  5.0093      4.9019      4.7307      4.5063      4.2426      3.9548      3.6584      3.3680      3.0954      2.8498    
  2.6366      2.4582      2.3144      2.2030      2.1211      2.0655      2.0333      2.0228      2.0333      2.0655    
  2.1211      2.2030      2.3144      2.4582      2.6366      2.8498      3.0954      3.3680      4.3791      4.7746    
  5.1461      5.4729      5.7363      5.9211      6.0163      6.0163      5.9211      5.7363      5.4729      5.1461    
  4.7746      4.3791      3.9800      3.5955      3.2406      2.9255      2.6559      2.4333      2.2561      2.1211    
  2.0243      1.9621      1.9316      1.9316      1.9621      2.0243      2.1211      2.2561      2.4333      2.6559    
  2.9255      3.2406      3.5955      3.9800      5.3235      5.8173      6.2640      6.6393      6.9226      7.0988    
  7.1585      7.0988      6.9226      6.6393      6.2640      5.8173      5.3235      4.8090      4.2996      3.8178    
  3.3808      2.9996      2.6790      2.4190      2.2161      2.0655      1.9621      1.9018      1.8820      1.9018    
  1.9621      2.0655      2.2161      2.4190      2.6790      2.9996      3.3808      3.8178      4.2996      4.8090    
  6.4883      7.0672      7.5687      7.9671      8.2431      8.3842      8.3842      8.2431      7.9671      7.5687    
  7.0672      6.4883      5.8627      5.2231      4.6009      4.0226      3.5074      3.0659      2.7015      2.4119    
  2.1913      2.0333      1.9316      1.8820      1.8820      1.9316      2.0333      2.1913      2.4119      2.7015    
  3.0659      3.5074      4.0226      4.6009      5.2231      5.8627      7.8406      8.4753      8.9958      9.3748    
  9.6019      9.6771      9.6019      9.3748      8.9958      8.4753      7.8406      7.1244      6.3640      5.5991    
  4.8670      4.1977      3.6116      3.1184      2.7192      2.4090      2.1796      2.0228      1.9316      1.9018    
  1.9316      2.0228      2.1796      2.4090      2.7192      3.1184      3.6116      4.1977      4.8670      5.5991    
  6.3640      7.1244      9.3027      9.9119      10.346      10.613      10.737      10.737      10.613      10.346    
  9.9119      9.3027      8.5435      7.6921      6.8006      5.9162      5.0822      4.3319      3.6859      3.1522    
  2.7290      2.4082      2.1796      2.0333      1.9621      1.9621      2.0333      2.1796      2.4082      2.7290    
  3.1522      3.6859      4.3319      5.0822      5.9162      6.8006      7.6921      8.5435      10.612      11.016    
  11.229      11.316      11.338      11.316      11.229      11.016      10.612      9.9799      9.1371      8.1624    
  7.1490      6.1564      5.2336      4.4163      3.7245      3.1638      2.7290      2.4090      2.1913      2.0655    
  2.0243      2.0655      2.1913      2.4090      2.7290      3.1638      3.7245      4.4163      5.2336      6.1564    
  7.1490      8.1624      9.1371      9.9799      11.332      11.365      11.277      11.194      11.194      11.277    
  11.365      11.332      11.057      10.469      9.5870      8.5130      7.3914      6.3061      5.3117      4.4450    
  3.7245      3.1522      2.7192      2.4119      2.2161      2.1211      2.1211      2.2161      2.4119      2.7192    
  3.1522      3.7245      4.4450      5.3117      6.3061      7.3914      8.5130      9.5870      10.469      11.057    
  11.073      10.647      10.278      10.134      10.278      10.647      11.073      11.344      11.276      10.778    
  9.8815      8.7288      7.5155      6.3570      5.3117      4.4163      3.6859      3.1184      2.7015      2.4190    
  2.2561      2.2030      2.2561      2.4190      2.7015      3.1184      3.6859      4.4163      5.3117      6.3570    
  7.5155      8.7288      9.8815      10.778      11.276      11.344      9.6231      8.7764      8.2685      8.2685    
  8.7764      9.6231      10.525      11.177      11.346      10.939      10.025      8.8014      7.5155      6.3061    
  5.2336      4.3319      3.6116      3.0659      2.6790      2.4333      2.3144      2.3144      2.4333      2.6790    
  3.0659      3.6116      4.3319      5.2336      6.3061      7.5155      8.8014      10.025      10.939      11.346    
  11.177      10.525      7.0518      5.9616      5.5599      5.9616      7.0518      8.5213      9.9625      10.991    
  11.354      10.988      10.025      8.7288      7.3914      6.1564      5.0822      4.1977      3.5074      2.9996    
  2.6559      2.4582      2.3938      2.4582      2.6559      2.9996      3.5074      4.1977      5.0822      6.1564    
  7.3914      8.7288      10.025      10.988      11.354      10.991      9.9625      8.5213      3.7345      2.6898    