    1    1    1    1
  0.3125000E+02  0.3535534E-09  0.3535534E-09  0.3535534E-09  0.5000000E-15
  1.000000000000000E-004
  CAR 
 fcc Si DOS                              
      4    286     12
 
  0.0000000E+00  0.0000000E+00  0.0000000E+00  0.1079797E-03
    1       -6.548027   1.000000
    2        7.093847   0.000000
    3        7.093849   0.000000
    4        7.093849   0.000000
    5       12.096254   0.000000
    6       12.096254   0.000000
    7       12.096254   0.000000
    8       12.927341   0.000000
    9       15.825365   0.000000
   10       15.847296   0.000000
   11       15.847296   0.000000
   12       20.085168   0.000000
 
  0.4761905E-01  0.0000000E+00  0.0000000E+00  0.8638376E-03
    1       -6.512742   1.000000
    2        6.837328   0.000000
    3        7.061106   0.000000
    4        7.061108   0.000000
    5       12.006431   0.000000
    6       12.162217   0.000000
    7       12.162217   0.000000
    8       13.086400   0.000000
    9       15.669911   0.000000
   10       15.669911   0.000000
   11       16.104333   0.000000
   12       19.756168   0.000000
 
  0.9523810E-01  0.0000000E+00  0.0000000E+00  0.8638376E-03
    1       -6.406889   1.000000
    2        6.174194   0.000000
    3        6.971620   0.000000
    4        6.971622   0.000000
    5       11.749035   0.000000
    6       12.347085   0.000000
    7       12.347085   0.000000
    8       13.554860   0.000000
    9       15.326119   0.000000
   10       15.326119   0.000000
   11       16.797242   0.000000
   12       19.176879   0.000000
 
  0.1428571E+00  0.0000000E+00  0.0000000E+00  0.8638376E-03
    1       -6.231790   1.000000
    2        5.287898   0.000000
    3        6.844188   0.000000
    4        6.844190   0.000000
    5       11.421405   0.000000
    6       12.567566   0.000000
    7       12.567566   0.000000
    8       14.197835   0.000000
    9       15.002549   0.000000
   10       15.002549   0.000000
   11       17.415595   0.000000
   12       18.992792   0.000000
 
  0.1904762E+00  0.0000000E+00  0.0000000E+00  0.8638376E-03
    1       -5.989587   1.000000
    2        4.307718   0.000000
    3        6.700157   0.000000
    4        6.700159   0.000000
    5       11.102157   0.000000
    6       12.674052   0.000000
    7       12.674052   0.000000
    8       14.873379   0.000000
    9       14.918973   0.000000
   10       14.918973   0.000000
   11       17.297166   0.000000
   12       19.888327   0.000000
 
  0.2380952E+00  0.0000000E+00  0.0000000E+00  0.8638376E-03
    1       -5.684365   1.000000
    2        3.309705  -0.027166
    3        6.557207   0.000000
    4        6.557209   0.000000
    5       10.820261   0.000000
    6       12.557990   0.000000
    7       12.557991   0.000000
    8       15.203702   0.000000
    9       15.203702   0.000000
   10       15.389275   0.000000
   11       17.105659   0.000000
   12       21.294032   0.000000
 
  0.2857143E+00  0.0000000E+00  0.0000000E+00  0.8638376E-03
    1       -5.322688   1.000000
    2        2.339297   0.773609
    3        6.427764   0.000000
    4        6.427766   0.000000
    5       10.593418   0.000000
    6       12.302462   0.000000
    7       12.302462   0.000000
    8       15.459416   0.000000
    9       15.791838   0.000000
   10       15.791839   0.000000
   11       17.411738   0.000000
   12       22.891210   0.000000
 
  0.3333333E+00  0.0000000E+00  0.0000000E+00  0.8638376E-03
    1       -4.917364   1.000000
    2        1.430339   1.000000
    3        6.319454   0.000000
    4        6.319455   0.000000
    5       10.413248   0.000000
    6       12.028024   0.000000
    7       12.028025   0.000000
    8       15.231113   0.000000
    9       16.561650   0.000000
   10       16.561650   0.000000
   11       18.102266   0.000000
   12       24.566040   0.000000
 
  0.3809524E+00  0.0000000E+00  0.0000000E+00  0.8638376E-03
    1       -4.493756   1.000000
    2        0.620229   1.000000
    3        6.235689   0.000000
    4        6.235691   0.000000
    5       10.277372   0.000000
    6       11.782659   0.000000
    7       11.782659   0.000000
    8       14.975343   0.000000
    9       17.364477   0.000000
   10       17.364478   0.000000
   11       18.882922   0.000000
   12       24.942172   0.000000
 
  0.4285714E+00  0.0000000E+00  0.0000000E+00  0.8638376E-03
    1       -4.103537   1.000000
    2       -0.030949   1.000000
    3        6.179813   0.000000
    4        6.179815   0.000000
    5       10.191363   0.000000
    6       11.613649   0.000000
    7       11.613649   0.000000
    8       14.783150   0.000000
    9       18.147667   0.000000
   10       18.147668   0.000000
   11       19.591533   0.000000
   12       23.879484   0.000000
 
  0.4761905E+00  0.0000000E+00  0.0000000E+00  0.8638376E-03
    1       -3.847677   1.000000
    2       -0.418074   1.000000
    3        6.151801   0.000000
    4        6.151803   0.000000
    5       10.150607   0.000000
    6       11.526407   0.000000
    7       11.526407   0.000000
    8       14.682360   0.000000
    9       18.700455   0.000000
   10       18.700455   0.000000
   11       20.044757   0.000000
   12       23.183906   0.000000
 
  0.4761905E-01  0.4761905E-01  0.0000000E+00  0.6478782E-03
    1       -6.500903   1.000000
    2        6.913436   0.000000
    3        6.969520   0.000000
    4        6.969521   0.000000
    5       11.835891   0.000000
    6       12.274085   0.000000
    7       12.274086   0.000000
    8       13.112238   0.000000
    9       15.396295   0.000000
   10       15.878271   0.000000
   11       16.190352   0.000000
   12       20.110929   0.000000
 
  0.9523810E-01  0.4761905E-01  0.0000000E+00  0.2591513E-02
    1       -6.418530   1.000000
    2        6.397809   0.000000
    3        6.830120   0.000000
    4        6.956463   0.000000
    5       11.626877   0.000000
    6       12.380595   0.000000
    7       12.499545   0.000000
    8       13.433553   0.000000
    9       14.984730   0.000000
   10       15.781640   0.000000
   11       16.739726   0.000000
   12       19.570937   0.000000
 
  0.1428571E+00  0.4761905E-01  0.0000000E+00  0.2591513E-02
    1       -6.266495   1.000000
    2        5.586909   0.000000
    3        6.666557   0.000000
    4        6.888826   0.000000
    5       11.438662   0.000000
    6       12.446035   0.000000
    7       12.764258   0.000000
    8       13.796453   0.000000
    9       14.789280   0.000000
   10       15.548678   0.000000
   11       17.476547   0.000000
   12       19.118536   0.000000
 
  0.1904762E+00  0.4761905E-01  0.0000000E+00  0.2591513E-02
    1       -6.046601   1.000000
    2        4.641666   0.000000
    3        6.500685   0.000000
    4        6.767962   0.000000
    5       11.214279   0.000000
    6       12.517516   0.000000
    7       12.944589   0.000000
    8       13.827672   0.000000
    9       15.195049   0.000000
   10       15.434850   0.000000
   11       17.639147   0.000000
   12       19.570357   0.000000
 
  0.2380952E+00  0.4761905E-01  0.0000000E+00  0.2591513E-02
    1       -5.762071   1.000000
    2        3.653614   0.000000
    3        6.349094   0.000000
    4        6.618568   0.000000
    5       10.988366   0.000000
    6       12.399472   0.000000
    7       12.910672   0.000000
    8       14.031962   0.000000
    9       15.632505   0.000000
   10       15.780189   0.000000
   11       17.371540   0.000000
   12       20.840938   0.000000
 
  0.2857143E+00  0.4761905E-01  0.0000000E+00  0.2591513E-02
    1       -5.418592   1.000000
    2        2.676149   0.316571
    3        6.222794   0.000000
    4        6.460659   0.000000
    5       10.781721   0.000000
    6       12.117884   0.000000
    7       12.687385   0.000000
    8       14.540852   0.000000
    9       16.042764   0.000000
   10       16.138185   0.000000
   11       17.495839   0.000000
   12       22.361052   0.000000
 
  0.3333333E+00  0.4761905E-01  0.0000000E+00  0.2591513E-02
    1       -5.026553   1.000000
    2        1.747351   1.013307
    3        6.127729   0.000000
    4        6.307932   0.000000
    5       10.609712   0.000000
    6       11.819735   0.000000
    7       12.391018   0.000000
    8       15.116927   0.000000
    9       15.992188   0.000000
   10       16.832900   0.000000
   11       18.144495   0.000000
   12       23.993172   0.000000
 
  0.3809524E+00  0.4761905E-01  0.0000000E+00  0.2591513E-02
    1       -4.605771   1.000000
    2        0.902437   1.000000
    3        6.068524   0.000000
    4        6.170187   0.000000
    5       10.477628   0.000000
    6       11.578746   0.000000
    7       12.109474   0.000000
    8       15.272616   0.000000
    9       16.391004   0.000000
   10       17.612014   0.000000
   11       18.947338   0.000000
   12       24.868737   0.000000
 
  0.4285714E+00  0.4761905E-01  0.0000000E+00  0.2591513E-02
    1       -4.196971   1.000000
    2        0.191850   1.000000
    3        6.044897   0.000000
    4        6.053047   0.000000
    5       10.389695   0.000000
    6       11.411321   0.000000
    7       11.876039   0.000000
    8       15.137347   0.000000
    9       17.166346   0.000000
   10       18.327618   0.000000
   11       19.724062   0.000000
   12       23.827949   0.000000
 
  0.4761905E+00  0.4761905E-01  0.0000000E+00  0.2591513E-02
    1       -3.882833   1.000000
    2       -0.296279   1.000000
    3        5.960832   0.000000
    4        6.056123   0.000000
    5       10.344730   0.000000
    6       11.332672   0.000000
    7       11.709663   0.000000
    8       15.029214   0.000000
    9       17.908147   0.000000
   10       18.777230   0.000000
   11       20.322131   0.000000
   12       23.187193   0.000000
 
 -0.4761905E+00  0.4761905E-01  0.0000000E+00  0.2591513E-02
    1       -3.788982   1.000000
    2       -0.433768   1.000000
    3        5.897231   0.000000
    4        6.099824   0.000000
    5       10.339171   0.000000
    6       11.343570   0.000000
    7       11.626091   0.000000
    8       15.002624   0.000000
    9       18.347567   0.000000
   10       18.645424   0.000000
   11       20.546140   0.000000
   12       22.863913   0.000000
 
 -0.4285714E+00  0.4761905E-01  0.0000000E+00  0.2591513E-02
    1       -3.969702   1.000000
    2       -0.165672   1.000000
    3        5.865552   0.000000
    4        6.172987   0.000000
    5       10.370967   0.000000
    6       11.448045   0.000000
    7       11.631153   0.000000
    8       15.065748   0.000000
    9       18.003541   0.000000
   10       18.228120   0.000000
   11       20.281475   0.000000
   12       23.051228   0.000000
 
 -0.3809524E+00  0.4761905E-01  0.0000000E+00  0.2591513E-02
    1       -4.328112   1.000000
    2        0.409889   1.000000
    3        5.868575   0.000000
    4        6.272090   0.000000
    5       10.442182   0.000000
    6       11.636228   0.000000
    7       11.723937   0.000000
    8       15.204381   0.000000
    9       17.166880   0.000000
   10       17.675014   0.000000
   11       19.636802   0.000000
   12       23.862588   0.000000
 
 -0.3333333E+00  0.4761905E-01  0.0000000E+00  0.2591513E-02
    1       -4.747480   1.000000
    2        1.172843   1.000000
    3        5.908405   0.000000
    4        6.393213   0.000000
    5       10.555714   0.000000
    6       11.896442   0.000000
    7       11.900303   0.000000
    8       15.363811   0.000000
    9       16.305410   0.000000
   10       17.013544   0.000000
   11       18.836857   0.000000
   12       24.843132   0.000000
 
 -0.2857143E+00  0.4761905E-01  0.0000000E+00  0.2591513E-02
    1       -5.161793   1.000000
    2        2.049991   1.061233
    3        5.986108   0.000000
    4        6.530497   0.000000
    5       10.709650   0.000000
    6       12.136393   0.000000
    7       12.211012   0.000000
    8       15.345946   0.000000
    9       15.491812   0.000000
   10       16.579789   0.000000
   11       18.031504   0.000000
   12       23.398563   0.000000
 
 -0.2380952E+00  0.4761905E-01  0.0000000E+00  0.2591513E-02
    1       -5.539281   1.000000
    2        2.998280  -0.038892
    3        6.100251   0.000000
    4        6.677077   0.000000
    5       10.904153   0.000000
    6       12.394950   0.000000
    7       12.522997   0.000000
    8       14.824268   0.000000
    9       14.964808   0.000000
   10       16.472296   0.000000
   11       17.433548   0.000000
   12       21.801313   0.000000
 
 -0.1904762E+00  0.4761905E-01  0.0000000E+00  0.2591513E-02
    1       -5.863894   1.000000
    2        3.982527   0.000000
    3        6.248390   0.000000
    4        6.822698   0.000000
    5       11.142430   0.000000
    6       12.575140   0.000000
    7       12.735326   0.000000
    8       14.425283   0.000000
    9       14.535862   0.000000
   10       16.074379   0.000000
   11       17.477661   0.000000
   12       20.350260   0.000000
 
 -0.1428571E+00  0.4761905E-01  0.0000000E+00  0.2591513E-02
    1       -6.127362   1.000000
    2        4.959445   0.000000
    3        6.422965   0.000000
    4        6.952617   0.000000
    5       11.406545   0.000000
    6       12.533675   0.000000
    7       12.710747   0.000000
    8       14.227027   0.000000
    9       14.438843   0.000000
   10       15.625116   0.000000
   11       17.708372   0.000000
   12       19.261264   0.000000
 
 -0.9523810E-01  0.4761905E-01  0.0000000E+00  0.2591513E-02
    1       -6.324872   1.000000
    2        5.858648   0.000000
    3        6.616849   0.000000
    4        7.047652   0.000000
    5       11.675492   0.000000
    6       12.345975   0.000000
    7       12.514855   0.000000
    8       13.832646   0.000000
    9       14.784590   0.000000
   10       15.546447   0.000000
   11       17.250651   0.000000
   12       19.188875   0.000000
 
 -0.4761905E-01  0.4761905E-01  0.0000000E+00  0.1295756E-02
    1       -6.453846   1.000000
    2        6.539335   0.000000
    3        6.837639   0.000000
    4        7.087987   0.000000
    5       11.874422   0.000000
    6       12.191662   0.000000
    7       12.335729   0.000000
    8       13.354399   0.000000
    9       15.252588   0.000000
   10       15.674310   0.000000
   11       16.518005   0.000000
   12       19.601490   0.000000
 
  0.9523810E-01  0.9523810E-01  0.0000000E+00  0.6478782E-03
    1       -6.359705   1.000000
    2        6.436496   0.000000
    3        6.647415   0.000000
    4        6.647416   0.000000
    5       11.249607   0.000000
    6       12.765328   0.000000
    7       12.765328   0.000000
    8       13.368458   0.000000
    9       14.663539   0.000000
   10       16.011696   0.000000
   11       17.090273   0.000000
   12       20.238359   0.000000
 
  0.1428571E+00  0.9523810E-01  0.0000000E+00  0.2591513E-02
    1       -6.231074   1.000000
    2        5.814629   0.000000
    3        6.449903   0.000000
    4        6.601648   0.000000
    5       11.012209   0.000000
    6       12.900446   0.000000
    7       13.083338   0.000000
    8       13.225312   0.000000
    9       14.797469   0.000000
   10       15.985359   0.000000
   11       17.756164   0.000000
   12       19.725742   0.000000
 
  0.1904762E+00  0.9523810E-01  0.0000000E+00  0.2591513E-02
    1       -6.034061   1.000000
    2        4.951481   0.000000
    3        6.259927   0.000000
    4        6.519513   0.000000
    5       10.922401   0.000000
    6       12.859179   0.000000
    7       12.925922   0.000000
    8       13.345682   0.000000
    9       15.426761   0.000000
   10       15.925804   0.000000
   11       18.291925   0.000000
   12       19.592478   0.000000
 
  0.2380952E+00  0.9523810E-01  0.0000000E+00  0.2591513E-02
    1       -5.771445   1.000000
    2        4.005143   0.000000
    3        6.092596   0.000000
    4        6.367451   0.000000
    5       10.866452   0.000000
    6       12.459726   0.000000
    7       13.101455   0.000000
    8       13.402945   0.000000
    9       16.062604   0.000000
   10       16.168138   0.000000
   11       18.085497   0.000000
   12       20.550627   0.000000
 
  0.2857143E+00  0.9523810E-01  0.0000000E+00  0.2591513E-02
    1       -5.447944   1.000000
    2        3.042877  -0.059721
    3        5.958927   0.000000
    4        6.176924   0.000000
    5       10.764905   0.000000
    6       12.105411   0.000000
    7       13.239228   0.000000
    8       13.511838   0.000000
    9       16.499242   0.000000
   10       16.706205   0.000000
   11       17.951838   0.000000
   12       21.938006   0.000000
 
  0.3333333E+00  0.9523810E-01  0.0000000E+00  0.2591513E-02
    1       -5.072116   1.000000
    2        2.110415   1.035107
    3        5.864904   0.000000
    4        5.974710   0.000000
    5       10.628003   0.000000
    6       11.824661   0.000000
    7       12.955195   0.000000
    8       14.115968   0.000000
    9       16.679795   0.000000
   10       17.143935   0.000000
   11       18.457681   0.000000
   12       23.483799   0.000000
 
  0.3809524E+00  0.9523810E-01  0.0000000E+00  0.2591513E-02
    1       -4.660021   1.000000
    2        1.244999   1.000000
    3        5.777965   0.000000
    4        5.814005   0.000000
    5       10.502612   0.000000
    6       11.607567   0.000000
    7       12.647376   0.000000
    8       14.831183   0.000000
    9       16.463798   0.000000
   10       17.871844   0.000000
   11       19.260465   0.000000
   12       24.870317   0.000000
 
  0.4285714E+00  0.9523810E-01  0.0000000E+00  0.2591513E-02
    1       -4.243627   1.000000
    2        0.491248   1.000000
    3        5.598179   0.000000
    4        5.806675   0.000000
    5       10.421125   0.000000
    6       11.447719   0.000000
    7       12.369939   0.000000
    8       15.496093   0.000000
    9       16.405047   0.000000
   10       18.526048   0.000000
   11       20.078161   0.000000
   12       23.862134   0.000000
 
  0.4761905E+00  0.9523810E-01  0.0000000E+00  0.2591513E-02
    1       -3.888636   1.000000
    2       -0.076919   1.000000
    3        5.443957   0.000000
    4        5.841824   0.000000
    5       10.406987   0.000000
    6       11.343007   0.000000
    7       12.147163   0.000000
    8       15.750788   0.000000
    9       16.849968   0.000000
   10       18.870499   0.000000
   11       20.761337   0.000000
   12       23.280617   0.000000
 
 -0.4761905E+00  0.9523810E-01  0.0000000E+00  0.2591513E-02
    1       -3.710600   1.000000
    2       -0.340461   1.000000
    3        5.321801   0.000000
    4        5.916592   0.000000
    5       10.461568   0.000000
    6       11.293503   0.000000
    7       11.998468   0.000000
    8       15.772093   0.000000
    9       17.458723   0.000000
   10       18.627072   0.000000
   11       21.112345   0.000000
   12       22.772173   0.000000
 
 -0.4285714E+00  0.9523810E-01  0.0000000E+00  0.2591513E-02
    1       -3.803892   1.000000
    2       -0.203479   1.000000
    3        5.237369   0.000000
    4        6.026705   0.000000
    5       10.578815   0.000000
    6       11.301951   0.000000
    7       11.925205   0.000000
    8       15.802682   0.000000
    9       17.735020   0.000000
   10       17.902869   0.000000
   11       21.144566   0.000000
   12       22.488739   0.000000
 
 -0.3809524E+00  0.9523810E-01  0.0000000E+00  0.2591513E-02
    1       -4.115057   1.000000
    2        0.279856   1.000000
    3        5.195494   0.000000
    4        6.166555   0.000000
    5       10.741996   0.000000
    6       11.386693   0.000000
    7       11.934282   0.000000
    8       15.836867   0.000000
    9       17.018131   0.000000
   10       17.546047   0.000000
   11       20.824741   0.000000
   12       22.773850   0.000000
 
 -0.3333333E+00  0.9523810E-01  0.0000000E+00  0.2591513E-02
    1       -4.520859   1.000000
    2        0.982875   1.000000
    3        5.200025   0.000000
    4        6.328758   0.000000
    5       10.918330   0.000000
    6       11.568370   0.000000
    7       12.031069   0.000000
    8       15.728353   0.000000
    9       16.112010   0.000000
   10       17.250884   0.000000
   11       20.101668   0.000000
   12       23.638225   0.000000
 
 -0.2857143E+00  0.9523810E-01  0.0000000E+00  0.2591513E-02
    1       -4.939052   1.000000
    2        1.816875   1.027011
    3        5.254353   0.000000
    4        6.503760   0.000000
    5       11.093881   0.000000
    6       11.850153   0.000000
    7       12.209902   0.000000
    8       15.251734   0.000000
    9       15.312518   0.000000
   10       17.253981   0.000000
   11       19.253224   0.000000
   12       23.572534   0.000000
 
 -0.2380952E+00  0.9523810E-01  0.0000000E+00  0.2591513E-02
    1       -5.329018   1.000000
    2        2.728323   0.242045
    3        5.361287   0.000000
    4        6.680010   0.000000
    5       11.267893   0.000000
    6       12.191336   0.000000
    7       12.450191   0.000000
    8       14.520307   0.000000
    9       14.737055   0.000000
   10       17.480835   0.000000
   11       18.426418   0.000000
   12       22.106068   0.000000
 
 -0.1904762E+00  0.9523810E-01  0.0000000E+00  0.2591513E-02
    1       -5.670955   1.000000
    2        3.674034   0.000000
    3        5.525904   0.000000
    4        6.842336   0.000000
    5       11.446793   0.000000
    6       12.501382   0.000000
    7       12.677083   0.000000
    8       13.998131   0.000000
    9       14.239762   0.000000
   10       17.292687   0.000000
   11       18.153205   0.000000
   12       20.698134   0.000000
 
 -0.1428571E+00  0.9523810E-01  0.0000000E+00  0.2591513E-02
    1       -5.954390   1.000000
    2        4.593954   0.000000
    3        5.761812   0.000000
    4        6.971485   0.000000
    5       11.600115   0.000000
    6       12.614810   0.000000
    7       12.682454   0.000000
    8       13.919356   0.000000
    9       14.018921   0.000000
   10       16.540803   0.000000
   11       18.421192   0.000000
   12       19.534803   0.000000
 
 -0.9523810E-01  0.9523810E-01  0.0000000E+00  0.1295756E-02
    1       -6.173428   1.000000
    2        5.366432   0.000000
    3        6.121966   0.000000
    4        7.045884   0.000000
    5       11.677503   0.000000
    6       12.487627   0.000000
    7       12.562518   0.000000
    8       14.016117   0.000000
    9       14.269397   0.000000
   10       15.888284   0.000000
   11       17.992496   0.000000
   12       19.238968   0.000000
 
  0.1428571E+00  0.1428571E+00  0.0000000E+00  0.6478782E-03
    1       -6.125866   1.000000
    2        5.777047   0.000000
    3        6.223618   0.000000
    4        6.223620   0.000000
    5       10.579895   0.000000
    6       12.609921   0.000000
    7       13.464841   0.000000
    8       13.464841   0.000000
    9       15.018284   0.000000
   10       16.231698   0.000000
   11       18.281883   0.000000
   12       20.493193   0.000000
 
  0.1904762E+00  0.1428571E+00  0.0000000E+00  0.2591513E-02
    1       -5.952191   1.000000
    2        5.152340   0.000000
    3        6.009455   0.000000
    4        6.112022   0.000000
    5       10.365741   0.000000
    6       12.087859   0.000000
    7       13.654372   0.000000
    8       13.812088   0.000000
    9       15.624462   0.000000
   10       16.298203   0.000000
   11       18.972777   0.000000
   12       20.128191   0.000000
 
  0.2380952E+00  0.1428571E+00  0.0000000E+00  0.2591513E-02
    1       -5.712270   1.000000
    2        4.308794   0.000000
    3        5.823920   0.000000
    4        5.971529   0.000000
    5       10.341122   0.000000
    6       11.723431   0.000000
    7       13.626091   0.000000
    8       13.991709   0.000000
    9       16.441174   0.000000
   10       16.451512   0.000000
   11       19.090765   0.000000
   12       20.513611   0.000000
 
  0.2857143E+00  0.1428571E+00  0.0000000E+00  0.2591513E-02
    1       -5.410045   1.000000
    2        3.401762  -0.002780
    3        5.677337   0.000000
    4        5.756513   0.000000
    5       10.316155   0.000000
    6       11.633574   0.000000
    7       13.597461   0.000000
    8       13.924489   0.000000
    9       16.844034   0.000000
   10       17.250647   0.000000
   11       18.777366   0.000000
   12       21.702543   0.000000
 
  0.3333333E+00  0.1428571E+00  0.0000000E+00  0.2591513E-02
    1       -5.053047   1.000000
    2        2.492831   0.579902
    3        5.504429   0.000000
    4        5.574995   0.000000
    5       10.183925   0.000000
    6       11.770216   0.000000
    7       13.671204   0.000000
    8       13.705258   0.000000
    9       17.440577   0.000000
   10       17.615793   0.000000
   11       18.916105   0.000000
   12       23.101898   0.000000
 
  0.3809524E+00  0.1428571E+00  0.0000000E+00  0.2591513E-02
    1       -4.654093   1.000000
    2        1.627709   1.000000
    3        5.247262   0.000000
    4        5.521049   0.000000
    5       10.035666   0.000000
    6       11.918211   0.000000
    7       13.352324   0.000000
    8       14.061038   0.000000
    9       17.471054   0.000000
   10       18.131409   0.000000
   11       19.636970   0.000000
   12       24.593921   0.000000
 
  0.4285714E+00  0.1428571E+00  0.0000000E+00  0.2591513E-02
    1       -4.238804   1.000000
    2        0.850783   1.000000
    3        5.004411   0.000000
    4        5.516424   0.000000
    5        9.940112   0.000000
    6       11.968038   0.000000
    7       13.052474   0.000000
    8       14.659304   0.000000
    9       17.270231   0.000000
   10       18.742535   0.000000
   11       20.464561   0.000000
   12       23.980915   0.000000
 
  0.4761905E+00  0.1428571E+00  0.0000000E+00  0.2591513E-02
    1       -3.859211   1.000000
    2        0.225828   1.000000
    3        4.788939   0.000000
    4        5.560120   0.000000
    5        9.920646   0.000000
    6       11.951372   0.000000
    7       12.785306   0.000000
    8       15.378348   0.000000
    9       17.146773   0.000000
   10       18.984154   0.000000
   11       21.151076   0.000000
   12       23.444798   0.000000
 
 -0.4761905E+00  0.1428571E+00  0.0000000E+00  0.2591513E-02
    1       -3.613614   1.000000
    2       -0.142674   1.000000
    3        4.610609   0.000000
    4        5.650089   0.000000
    5        9.989715   0.000000
    6       11.917796   0.000000
    7       12.578548   0.000000
    8       16.033369   0.000000
    9       17.178064   0.000000
   10       18.631447   0.000000
   11       21.346016   0.000000
   12       23.036121   0.000000
 
 -0.4285714E+00  0.1428571E+00  0.0000000E+00  0.2591513E-02
    1       -3.615664   1.000000
    2       -0.138335   1.000000
    3        4.476494   0.000000
    4        5.782061   0.000000
    5       10.144420   0.000000
    6       11.890176   0.000000
    7       12.441895   0.000000
    8       16.331631   0.000000
    9       17.425677   0.000000
   10       17.847652   0.000000
   11       21.160446   0.000000
   12       22.970498   0.000000
 
 -0.3809524E+00  0.1428571E+00  0.0000000E+00  0.2591513E-02
    1       -3.863871   1.000000
    2        0.237444   1.000000
    3        4.392716   0.000000
    4        5.950041   0.000000
    5       10.382350   0.000000
    6       11.885235   0.000000
    7       12.383765   0.000000
    8       16.237495   0.000000
    9       16.925737   0.000000
   10       17.690001   0.000000
   11       21.261127   0.000000
   12       22.671093   0.000000
 
 -0.3333333E+00  0.1428571E+00  0.0000000E+00  0.2591513E-02
    1       -4.244166   1.000000
    2        0.866743   1.000000
    3        4.365093   0.000000
    4        6.145455   0.000000
    5       10.696933   0.000000
    6       11.909244   0.000000
    7       12.408986   0.000000
    8       15.828855   0.000000
    9       15.988670   0.000000
   10       17.897093   0.000000
   11       21.290543   0.000000
   12       22.635630   0.000000
 
 -0.2857143E+00  0.1428571E+00  0.0000000E+00  0.2591513E-02
    1       -4.659279   1.000000
    2        1.643540   1.000000
    3        4.400183   0.000000
    4        6.356198   0.000000
    5       11.071992   0.000000
    6       11.956171   0.000000
    7       12.516258   0.000000
    8       15.093634   0.000000
    9       15.223734   0.000000
   10       18.159727   0.000000
   11       20.585657   0.000000
   12       23.136460   0.000000
 
 -0.2380952E+00  0.1428571E+00  0.0000000E+00  0.2591513E-02
    1       -5.057531   1.000000
    2        2.497190   0.586206
    3        4.509446   0.000000
    4        6.566740   0.000000
    5       11.482702   0.000000
    6       12.019049   0.000000
    7       12.711705   0.000000
    8       14.307526   0.000000
    9       14.595703   0.000000
   10       18.481720   0.000000
   11       19.704590   0.000000
   12       21.999739   0.000000
 
 -0.1904762E+00  0.1428571E+00  0.0000000E+00  0.2591513E-02
    1       -5.413829   1.000000
    2        3.356090  -0.002992
    3        4.722421   0.000000
    4        6.756424   0.000000
    5       11.832547   0.000000
    6       12.103917   0.000000
    7       12.967719   0.000000
    8       13.666493   0.000000
    9       14.096871   0.000000
   10       18.445066   0.000000
   11       19.165577   0.000000
   12       20.657560   0.000000
 
 -0.1428571E+00  0.1428571E+00  0.0000000E+00  0.1295756E-02
    1       -5.715273   1.000000
    2        4.093454   0.000000
    3        5.123055   0.000000
    4        6.900018   0.000000
    5       11.822710   0.000000
    6       12.369021   0.000000
    7       12.976589   0.000000
    8       13.506710   0.000000
    9       13.893519   0.000000
   10       17.538148   0.000000
   11       19.410190   0.000000