 vasp.5.4.4.18Apr17-6-g9f103f2a35 (build Mar 30 2023 15:39:25) complex          
  
 executed on             LinuxIFC date 2023.04.28  16:59:52
 running on   12 total cores
 distrk:  each k-point on   12 cores,    1 groups
 distr:  one band on NCORES_PER_BAND=   1 cores,   12 groups


--------------------------------------------------------------------------------------------------------


 INCAR:
 POTCAR:    PAW_PBE Si 05Jan2001                  

 ----------------------------------------------------------------------------- 
|                                                                             |
|           W    W    AA    RRRRR   N    N  II  N    N   GGGG   !!!           |
|           W    W   A  A   R    R  NN   N  II  NN   N  G    G  !!!           |
|           W    W  A    A  R    R  N N  N  II  N N  N  G       !!!           |
|           W WW W  AAAAAA  RRRRR   N  N N  II  N  N N  G  GGG   !            |
|           WW  WW  A    A  R   R   N   NN  II  N   NN  G    G                |
|           W    W  A    A  R    R  N    N  II  N    N   GGGG   !!!           |
|                                                                             |
|      For optimal performance we recommend to set                            |
|        NCORE= 4 - approx SQRT( number of cores)                             |
|      NCORE specifies how many cores store one orbital (NPAR=cpu/NCORE).     |
|      This setting can  greatly improve the performance of VASP for DFT.     |
|      The default,   NCORE=1            might be grossly inefficient         |
|      on modern multi-core architectures or massively parallel machines.     |
|      Do your own testing !!!!                                               |
|      Unfortunately you need to use the default for GW and RPA calculations. |
|      (for HF NCORE is supported but not extensively tested yet)             |
|                                                                             |
 ----------------------------------------------------------------------------- 

 POTCAR:    PAW_PBE Si 05Jan2001                  
   SHA256 =  79d9987ad8750f624c4d6acb2a16d13abf6a777132adc04dc6c8399be72b42bb Si
   COPYR  = (c) Copyright 05Jan2001 Georg Kresse                                
   COPYR  = This file is part of the software VASP. Any use, copying, and all ot
   COPYR  = If you do not have a valid VASP license, you may not use, copy or di
   VRHFIN =Si: s2p2                                                             
   LEXCH  = PE                                                                  
   EATOM  =   103.0669 eV,    7.5752 Ry                                         
                                                                                
   TITEL  = PAW_PBE Si 05Jan2001                                                
   LULTRA =        F    use ultrasoft PP ?                                      
   IUNSCR =        1    unscreen: 0-lin 1-nonlin 2-no                           
   RPACOR =    1.500    partial core radius                                     
   POMASS =   28.085; ZVAL   =    4.000    mass and valenz                      
   RCORE  =    1.900    outmost cutoff radius                                   
   RWIGS  =    2.480; RWIGS  =    1.312    wigner-seitz radius (au A)           
   ENMAX  =  245.345; ENMIN  =  184.009 eV                                      
   ICORE  =        2    local potential                                         
   LCOR   =        T    correct aug charges                                     
   LPAW   =        T    paw PP                                                  
   EAUG   =  322.069                                                            
   DEXC   =    0.000                                                            
   RMAX   =    1.950    core radius for proj-oper                               
   RAUG   =    1.300    factor for augmentation sphere                          
   RDEP   =    1.993    radius for radial grids                                 
   RDEPT  =    1.837    core radius for aug-charge                              
                                                                                
   Atomic configuration                                                         
    6 entries                                                                   
     n  l   j            E        occ.                                          
     1  0  0.50     -1785.8828   2.0000                                         
     2  0  0.50      -139.4969   2.0000                                         
     2  1  1.50       -95.5546   6.0000                                         
     3  0  0.50       -10.8127   2.0000                                         
     3  1  0.50        -4.0811   2.0000                                         
     3  2  1.50        -4.0817   0.0000                                         
   Description                                                                  
     l       E           TYP  RCUT    TYP  RCUT                                 
     0    -10.8127223     23  1.900                                             
     0     -7.6451159     23  1.900                                             
     1     -4.0811372     23  1.900                                             
     1      2.4879257     23  1.900                                             
     2     -4.0817478      7  1.900                                             
  local pseudopotential read in
  partial core-charges read in
  partial kinetic energy density read in
  atomic valenz-charges read in
  non local Contribution for L=           0  read in
    real space projection operators read in
  non local Contribution for L=           0  read in
    real space projection operators read in
  non local Contribution for L=           1  read in
    real space projection operators read in
  non local Contribution for L=           1  read in
    real space projection operators read in
    PAW grid and wavefunctions read in
 
   number of l-projection  operators is LMAX  =           4
   number of lm-projection operators is LMMAX =           8
 
  PAW_PBE Si 05Jan2001                  :
 energy of atom  1       EATOM= -103.0669
 kinetic energy error for atom=    0.0061 (will be added to EATOM!!)
 
 
 POSCAR: fcc:                                    
  positions in direct lattice
  No initial velocities read in
 exchange correlation table for  LEXCH =        8
   RHO(1)=    0.500       N(1)  =     2000
   RHO(2)=  100.500       N(2)  =     4000
 


--------------------------------------------------------------------------------------------------------


 ion  position               nearest neighbor table
   1  0.000  0.000  0.000-
 
  LATTYP: Found a face centered cubic cell.
 ALAT       =     5.0000000000
  
  Lattice vectors:
  
 A1 = (   2.5000000000,   2.5000000000,   0.0000000000)
 A2 = (   0.0000000000,   2.5000000000,   2.5000000000)
 A3 = (   2.5000000000,   0.0000000000,   2.5000000000)


Analysis of symmetry for initial positions (statically):
=====================================================================
 Subroutine PRICEL returns:
 Original cell was already a primitive cell.
 

 Routine SETGRP: Setting up the symmetry group for a 
 face centered cubic supercell.


 Subroutine GETGRP returns: Found 48 space group operations
 (whereof 48 operations were pure point group operations)
 out of a pool of 48 trial point group operations.


The static configuration has the point symmetry O_h .


Analysis of symmetry for dynamics (positions and initial velocities):
=====================================================================
 Subroutine PRICEL returns:
 Original cell was already a primitive cell.
 

 Routine SETGRP: Setting up the symmetry group for a 
 face centered cubic supercell.


 Subroutine GETGRP returns: Found 48 space group operations
 (whereof 48 operations were pure point group operations)
 out of a pool of 48 trial point group operations.


The dynamic configuration has the point symmetry O_h .


 Subroutine INISYM returns: Found 48 space group operations
 (whereof 48 operations are pure point group operations),
 and found     1 'primitive' translations

 
 
 KPOINTS: k-points                                

Automatic generation of k-mesh.
Space group operators:
 irot       det(A)        alpha          n_x          n_y          n_z        tau_x        tau_y        tau_z
    1     1.000000     0.000000     1.000000     0.000000     0.000000     0.000000     0.000000     0.000000
    2    -1.000000     0.000000     1.000000     0.000000     0.000000     0.000000     0.000000     0.000000
    3     1.000000   120.000000    -0.577350    -0.577350    -0.577350     0.000000     0.000000     0.000000
    4    -1.000000   120.000000    -0.577350    -0.577350    -0.577350     0.000000     0.000000     0.000000
    5     1.000000   120.000000     0.577350     0.577350     0.577350     0.000000     0.000000     0.000000
    6    -1.000000   120.000000     0.577350     0.577350     0.577350     0.000000     0.000000     0.000000
    7     1.000000    90.000000     0.000000    -1.000000     0.000000     0.000000     0.000000     0.000000
    8    -1.000000    90.000000     0.000000    -1.000000     0.000000     0.000000     0.000000     0.000000
    9     1.000000   180.000000     0.707107     0.707107     0.000000     0.000000     0.000000     0.000000
   10    -1.000000   180.000000     0.707107     0.707107     0.000000     0.000000     0.000000     0.000000
   11     1.000000    90.000000     1.000000     0.000000     0.000000     0.000000     0.000000     0.000000
   12    -1.000000    90.000000     1.000000     0.000000     0.000000     0.000000     0.000000     0.000000
   13     1.000000   180.000000     0.000000     1.000000     0.000000     0.000000     0.000000     0.000000
   14    -1.000000   180.000000     0.000000     1.000000     0.000000     0.000000     0.000000     0.000000
   15     1.000000   120.000000     0.577350     0.577350    -0.577350     0.000000     0.000000     0.000000
   16    -1.000000   120.000000     0.577350     0.577350    -0.577350     0.000000     0.000000     0.000000
   17     1.000000   120.000000     0.577350    -0.577350    -0.577350     0.000000     0.000000     0.000000
   18    -1.000000   120.000000     0.577350    -0.577350    -0.577350     0.000000     0.000000     0.000000
   19     1.000000    90.000000     0.000000     1.000000     0.000000     0.000000     0.000000     0.000000
   20    -1.000000    90.000000     0.000000     1.000000     0.000000     0.000000     0.000000     0.000000
   21     1.000000    90.000000     0.000000     0.000000    -1.000000     0.000000     0.000000     0.000000
   22    -1.000000    90.000000     0.000000     0.000000    -1.000000     0.000000     0.000000     0.000000
   23     1.000000   180.000000     0.000000     0.707107     0.707107     0.000000     0.000000     0.000000
   24    -1.000000   180.000000     0.000000     0.707107     0.707107     0.000000     0.000000     0.000000
   25     1.000000   120.000000    -0.577350     0.577350     0.577350     0.000000     0.000000     0.000000
   26    -1.000000   120.000000    -0.577350     0.577350     0.577350     0.000000     0.000000     0.000000
   27     1.000000   120.000000    -0.577350     0.577350    -0.577350     0.000000     0.000000     0.000000
   28    -1.000000   120.000000    -0.577350     0.577350    -0.577350     0.000000     0.000000     0.000000
   29     1.000000   180.000000     0.000000     0.000000     1.000000     0.000000     0.000000     0.000000
   30    -1.000000   180.000000     0.000000     0.000000     1.000000     0.000000     0.000000     0.000000
   31     1.000000    90.000000    -1.000000     0.000000     0.000000     0.000000     0.000000     0.000000
   32    -1.000000    90.000000    -1.000000     0.000000     0.000000     0.000000     0.000000     0.000000
   33     1.000000   180.000000     0.707107     0.000000     0.707107     0.000000     0.000000     0.000000
   34    -1.000000   180.000000     0.707107     0.000000     0.707107     0.000000     0.000000     0.000000
   35     1.000000    90.000000     0.000000     0.000000     1.000000     0.000000     0.000000     0.000000
   36    -1.000000    90.000000     0.000000     0.000000     1.000000     0.000000     0.000000     0.000000
   37     1.000000   120.000000    -0.577350    -0.577350     0.577350     0.000000     0.000000     0.000000
   38    -1.000000   120.000000    -0.577350    -0.577350     0.577350     0.000000     0.000000     0.000000
   39     1.000000   180.000000     1.000000     0.000000     0.000000     0.000000     0.000000     0.000000
   40    -1.000000   180.000000     1.000000     0.000000     0.000000     0.000000     0.000000     0.000000
   41     1.000000   120.000000     0.577350    -0.577350     0.577350     0.000000     0.000000     0.000000
   42    -1.000000   120.000000     0.577350    -0.577350     0.577350     0.000000     0.000000     0.000000
   43     1.000000   180.000000     0.707107    -0.707107     0.000000     0.000000     0.000000     0.000000
   44    -1.000000   180.000000     0.707107    -0.707107     0.000000     0.000000     0.000000     0.000000
   45     1.000000   180.000000     0.707107     0.000000    -0.707107     0.000000     0.000000     0.000000
   46    -1.000000   180.000000     0.707107     0.000000    -0.707107     0.000000     0.000000     0.000000
   47     1.000000   180.000000     0.000000    -0.707107     0.707107     0.000000     0.000000     0.000000
   48    -1.000000   180.000000     0.000000    -0.707107     0.707107     0.000000     0.000000     0.000000
 
 Subroutine IBZKPT returns following result:
 ===========================================
 
 Found    286 irreducible k-points:
 
 Following reciprocal coordinates:
            Coordinates               Weight
  0.000000  0.000000  0.000000      1.000000
  0.047619  0.000000  0.000000      8.000000
  0.095238  0.000000  0.000000      8.000000
  0.142857  0.000000  0.000000      8.000000
  0.190476  0.000000  0.000000      8.000000
  0.238095  0.000000  0.000000      8.000000
  0.285714  0.000000  0.000000      8.000000
  0.333333  0.000000  0.000000      8.000000
  0.380952  0.000000  0.000000      8.000000
  0.428571  0.000000  0.000000      8.000000
  0.476190  0.000000  0.000000      8.000000
  0.047619  0.047619  0.000000      6.000000
  0.095238  0.047619  0.000000     24.000000
  0.142857  0.047619  0.000000     24.000000
  0.190476  0.047619  0.000000     24.000000
  0.238095  0.047619  0.000000     24.000000
  0.285714  0.047619  0.000000     24.000000
  0.333333  0.047619  0.000000     24.000000
  0.380952  0.047619  0.000000     24.000000
  0.428571  0.047619  0.000000     24.000000
  0.476190  0.047619  0.000000     24.000000
 -0.476190  0.047619  0.000000     24.000000
 -0.428571  0.047619  0.000000     24.000000
 -0.380952  0.047619  0.000000     24.000000
 -0.333333  0.047619  0.000000     24.000000
 -0.285714  0.047619  0.000000     24.000000
 -0.238095  0.047619  0.000000     24.000000
 -0.190476  0.047619  0.000000     24.000000
 -0.142857  0.047619  0.000000     24.000000
 -0.095238  0.047619  0.000000     24.000000
 -0.047619  0.047619  0.000000     12.000000
  0.095238  0.095238  0.000000      6.000000
  0.142857  0.095238  0.000000     24.000000
  0.190476  0.095238  0.000000     24.000000
  0.238095  0.095238  0.000000     24.000000
  0.285714  0.095238  0.000000     24.000000
  0.333333  0.095238  0.000000     24.000000
  0.380952  0.095238  0.000000     24.000000
  0.428571  0.095238  0.000000     24.000000
  0.476190  0.095238  0.000000     24.000000
 -0.476190  0.095238  0.000000     24.000000
 -0.428571  0.095238  0.000000     24.000000
 -0.380952  0.095238  0.000000     24.000000
 -0.333333  0.095238  0.000000     24.000000
 -0.285714  0.095238  0.000000     24.000000
 -0.238095  0.095238  0.000000     24.000000
 -0.190476  0.095238  0.000000     24.000000
 -0.142857  0.095238  0.000000     24.000000
 -0.095238  0.095238  0.000000     12.000000
  0.142857  0.142857  0.000000      6.000000
  0.190476  0.142857  0.000000     24.000000
  0.238095  0.142857  0.000000     24.000000
  0.285714  0.142857  0.000000     24.000000
  0.333333  0.142857  0.000000     24.000000
  0.380952  0.142857  0.000000     24.000000
  0.428571  0.142857  0.000000     24.000000
  0.476190  0.142857  0.000000     24.000000
 -0.476190  0.142857  0.000000     24.000000
 -0.428571  0.142857  0.000000     24.000000
 -0.380952  0.142857  0.000000     24.000000
 -0.333333  0.142857  0.000000     24.000000
 -0.285714  0.142857  0.000000     24.000000
 -0.238095  0.142857  0.000000     24.000000
 -0.190476  0.142857  0.000000     24.000000
 -0.142857  0.142857  0.000000     12.000000
  0.190476  0.190476  0.000000      6.000000
  0.238095  0.190476  0.000000     24.000000
  0.285714  0.190476  0.000000     24.000000
  0.333333  0.190476  0.000000     24.000000
  0.380952  0.190476  0.000000     24.000000
  0.428571  0.190476  0.000000     24.000000
  0.476190  0.190476  0.000000     24.000000
 -0.476190  0.190476  0.000000     24.000000
 -0.428571  0.190476  0.000000     24.000000
 -0.380952  0.190476  0.000000     24.000000
 -0.333333  0.190476  0.000000     24.000000
 -0.285714  0.190476  0.000000     24.000000
 -0.238095  0.190476  0.000000     24.000000
 -0.190476  0.190476  0.000000     12.000000
  0.238095  0.238095  0.000000      6.000000
  0.285714  0.238095  0.000000     24.000000
  0.333333  0.238095  0.000000     24.000000
  0.380952  0.238095  0.000000     24.000000
  0.428571  0.238095  0.000000     24.000000
  0.476190  0.238095  0.000000     24.000000
 -0.476190  0.238095  0.000000     24.000000
 -0.428571  0.238095  0.000000     24.000000
 -0.380952  0.238095  0.000000     24.000000
 -0.333333  0.238095  0.000000     24.000000
 -0.285714  0.238095  0.000000     24.000000
 -0.238095  0.238095  0.000000     12.000000
  0.285714  0.285714  0.000000      6.000000
  0.333333  0.285714  0.000000     24.000000
  0.380952  0.285714  0.000000     24.000000
  0.428571  0.285714  0.000000     24.000000
  0.476190  0.285714  0.000000     24.000000
 -0.476190  0.285714  0.000000     24.000000
 -0.428571  0.285714  0.000000     24.000000
 -0.380952  0.285714  0.000000     24.000000
 -0.333333  0.285714  0.000000     24.000000
 -0.285714  0.285714  0.000000     12.000000
  0.333333  0.333333  0.000000      6.000000
  0.380952  0.333333  0.000000     24.000000
  0.428571  0.333333  0.000000     24.000000
  0.476190  0.333333  0.000000     24.000000
 -0.476190  0.333333  0.000000     24.000000
 -0.428571  0.333333  0.000000     24.000000
 -0.380952  0.333333  0.000000     24.000000
 -0.333333  0.333333  0.000000     12.000000
  0.380952  0.380952  0.000000      6.000000
  0.428571  0.380952  0.000000     24.000000
  0.476190  0.380952  0.000000     24.000000
 -0.476190  0.380952  0.000000     24.000000
 -0.428571  0.380952  0.000000     24.000000
 -0.380952  0.380952  0.000000     12.000000
  0.428571  0.428571  0.000000      6.000000
  0.476190  0.428571  0.000000     24.000000
 -0.476190  0.428571  0.000000     24.000000
 -0.428571  0.428571  0.000000     12.000000
  0.476190  0.476190  0.000000      6.000000
 -0.476190  0.476190  0.000000     12.000000
  0.142857  0.095238  0.047619     24.000000
  0.190476  0.095238  0.047619     48.000000
  0.238095  0.095238  0.047619     48.000000
  0.285714  0.095238  0.047619     48.000000
  0.333333  0.095238  0.047619     48.000000
  0.380952  0.095238  0.047619     48.000000
  0.428571  0.095238  0.047619     48.000000
  0.476190  0.095238  0.047619     48.000000
 -0.476190  0.095238  0.047619     48.000000
  0.190476  0.142857  0.047619     24.000000
  0.238095  0.142857  0.047619     48.000000
  0.285714  0.142857  0.047619     48.000000
  0.333333  0.142857  0.047619     48.000000
  0.380952  0.142857  0.047619     48.000000
  0.428571  0.142857  0.047619     48.000000
  0.476190  0.142857  0.047619     48.000000
 -0.476190  0.142857  0.047619     48.000000
 -0.428571  0.142857  0.047619     48.000000
 -0.380952  0.142857  0.047619     48.000000
 -0.333333  0.142857  0.047619     48.000000
 -0.285714  0.142857  0.047619     48.000000
 -0.238095  0.142857  0.047619     48.000000
 -0.190476  0.142857  0.047619     48.000000
 -0.142857  0.142857  0.047619     48.000000
 -0.095238  0.142857  0.047619     24.000000
  0.238095  0.190476  0.047619     24.000000
  0.285714  0.190476  0.047619     48.000000
  0.333333  0.190476  0.047619     48.000000
  0.380952  0.190476  0.047619     48.000000
  0.428571  0.190476  0.047619     48.000000
  0.476190  0.190476  0.047619     48.000000
 -0.476190  0.190476  0.047619     48.000000
 -0.428571  0.190476  0.047619     48.000000
 -0.380952  0.190476  0.047619     48.000000
 -0.333333  0.190476  0.047619     48.000000
 -0.285714  0.190476  0.047619     48.000000
 -0.238095  0.190476  0.047619     48.000000
 -0.190476  0.190476  0.047619     48.000000
 -0.142857  0.190476  0.047619     24.000000
  0.285714  0.238095  0.047619     24.000000
  0.333333  0.238095  0.047619     48.000000
  0.380952  0.238095  0.047619     48.000000
  0.428571  0.238095  0.047619     48.000000
  0.476190  0.238095  0.047619     48.000000
 -0.476190  0.238095  0.047619     48.000000
 -0.428571  0.238095  0.047619     48.000000
 -0.380952  0.238095  0.047619     48.000000
 -0.333333  0.238095  0.047619     48.000000
 -0.285714  0.238095  0.047619     48.000000
 -0.238095  0.238095  0.047619     48.000000
 -0.190476  0.238095  0.047619     24.000000
  0.333333  0.285714  0.047619     24.000000
  0.380952  0.285714  0.047619     48.000000
  0.428571  0.285714  0.047619     48.000000
  0.476190  0.285714  0.047619     48.000000
 -0.476190  0.285714  0.047619     48.000000
 -0.428571  0.285714  0.047619     48.000000
 -0.380952  0.285714  0.047619     48.000000
 -0.333333  0.285714  0.047619     48.000000
 -0.285714  0.285714  0.047619     48.000000
 -0.238095  0.285714  0.047619     24.000000
  0.380952  0.333333  0.047619     24.000000
  0.428571  0.333333  0.047619     48.000000
  0.476190  0.333333  0.047619     48.000000
 -0.476190  0.333333  0.047619     48.000000
 -0.428571  0.333333  0.047619     48.000000
 -0.380952  0.333333  0.047619     48.000000
 -0.333333  0.333333  0.047619     48.000000
 -0.285714  0.333333  0.047619     24.000000
  0.428571  0.380952  0.047619     24.000000
  0.476190  0.380952  0.047619     48.000000
 -0.476190  0.380952  0.047619     48.000000
 -0.428571  0.380952  0.047619     48.000000
 -0.380952  0.380952  0.047619     48.000000
 -0.333333  0.380952  0.047619     24.000000
  0.476190  0.428571  0.047619     24.000000
 -0.476190  0.428571  0.047619     48.000000
 -0.428571  0.428571  0.047619     48.000000
 -0.380952  0.428571  0.047619     24.000000
 -0.476190  0.476190  0.047619     24.000000
 -0.428571  0.476190  0.047619     24.000000
  0.285714  0.190476  0.095238     24.000000
  0.333333  0.190476  0.095238     48.000000
  0.380952  0.190476  0.095238     48.000000
  0.428571  0.190476  0.095238     48.000000
  0.476190  0.190476  0.095238     48.000000
 -0.476190  0.190476  0.095238     48.000000
 -0.428571  0.190476  0.095238     48.000000
  0.333333  0.238095  0.095238     24.000000
  0.380952  0.238095  0.095238     48.000000
  0.428571  0.238095  0.095238     48.000000
  0.476190  0.238095  0.095238     48.000000
 -0.476190  0.238095  0.095238     48.000000
 -0.428571  0.238095  0.095238     48.000000
 -0.380952  0.238095  0.095238     48.000000
 -0.333333  0.238095  0.095238     48.000000
 -0.285714  0.238095  0.095238     48.000000
 -0.238095  0.238095  0.095238     48.000000
 -0.190476  0.238095  0.095238     48.000000
 -0.142857  0.238095  0.095238     24.000000
  0.380952  0.285714  0.095238     24.000000
  0.428571  0.285714  0.095238     48.000000
  0.476190  0.285714  0.095238     48.000000
 -0.476190  0.285714  0.095238     48.000000
 -0.428571  0.285714  0.095238     48.000000
 -0.380952  0.285714  0.095238     48.000000
 -0.333333  0.285714  0.095238     48.000000
 -0.285714  0.285714  0.095238     48.000000
 -0.238095  0.285714  0.095238     48.000000
 -0.190476  0.285714  0.095238     24.000000
  0.428571  0.333333  0.095238     24.000000
  0.476190  0.333333  0.095238     48.000000
 -0.476190  0.333333  0.095238     48.000000
 -0.428571  0.333333  0.095238     48.000000
 -0.380952  0.333333  0.095238     48.000000
 -0.333333  0.333333  0.095238     48.000000
 -0.285714  0.333333  0.095238     48.000000
 -0.238095  0.333333  0.095238     24.000000
  0.476190  0.380952  0.095238     24.000000
 -0.476190  0.380952  0.095238     48.000000
 -0.428571  0.380952  0.095238     48.000000
 -0.380952  0.380952  0.095238     48.000000
 -0.333333  0.380952  0.095238     48.000000
 -0.285714  0.380952  0.095238     24.000000
 -0.476190  0.428571  0.095238     24.000000
 -0.428571  0.428571  0.095238     48.000000
 -0.380952  0.428571  0.095238     48.000000
 -0.333333  0.428571  0.095238     24.000000
 -0.428571  0.476190  0.095238     24.000000
 -0.380952  0.476190  0.095238     24.000000
  0.428571  0.285714  0.142857     24.000000
  0.476190  0.285714  0.142857     48.000000
 -0.476190  0.285714  0.142857     48.000000
 -0.428571  0.285714  0.142857     48.000000
 -0.380952  0.285714  0.142857     48.000000
  0.476190  0.333333  0.142857     24.000000
 -0.476190  0.333333  0.142857     48.000000
 -0.428571  0.333333  0.142857     48.000000
 -0.380952  0.333333  0.142857     48.000000
 -0.333333  0.333333  0.142857     48.000000
 -0.285714  0.333333  0.142857     48.000000
 -0.238095  0.333333  0.142857     48.000000
 -0.190476  0.333333  0.142857     24.000000
 -0.476190  0.380952  0.142857     24.000000
 -0.428571  0.380952  0.142857     48.000000
 -0.380952  0.380952  0.142857     48.000000
 -0.333333  0.380952  0.142857     48.000000
 -0.285714  0.380952  0.142857     48.000000
 -0.238095  0.380952  0.142857     24.000000
 -0.428571  0.428571  0.142857     24.000000
 -0.380952  0.428571  0.142857     48.000000
 -0.333333  0.428571  0.142857     48.000000
 -0.285714  0.428571  0.142857     24.000000
 -0.380952  0.476190  0.142857     24.000000
 -0.333333  0.476190  0.142857     24.000000
 -0.428571  0.380952  0.190476     24.000000
 -0.380952  0.380952  0.190476     48.000000
 -0.333333  0.380952  0.190476     48.000000
 -0.380952  0.428571  0.190476     24.000000
 -0.333333  0.428571  0.190476     48.000000
 -0.285714  0.428571  0.190476     48.000000
 -0.238095  0.428571  0.190476     24.000000
 -0.333333  0.476190  0.190476     24.000000
 -0.285714  0.476190  0.190476     24.000000
 -0.285714  0.476190  0.238095     24.000000
 
 Following cartesian coordinates:
            Coordinates               Weight
  0.000000  0.000000  0.000000      1.000000
  0.047619  0.047619 -0.047619      8.000000
  0.095238  0.095238 -0.095238      8.000000
  0.142857  0.142857 -0.142857      8.000000
  0.190476  0.190476 -0.190476      8.000000
  0.238095  0.238095 -0.238095      8.000000
  0.285714  0.285714 -0.285714      8.000000
  0.333333  0.333333 -0.333333      8.000000
  0.380952  0.380952 -0.380952      8.000000
  0.428571  0.428571 -0.428571      8.000000
  0.476190  0.476190 -0.476190      8.000000
  0.000000  0.095238  0.000000      6.000000
  0.047619  0.142857 -0.047619     24.000000
  0.095238  0.190476 -0.095238     24.000000
  0.142857  0.238095 -0.142857     24.000000
  0.190476  0.285714 -0.190476     24.000000
  0.238095  0.333333 -0.238095     24.000000
  0.285714  0.380952 -0.285714     24.000000
  0.333333  0.428571 -0.333333     24.000000
  0.380952  0.476190 -0.380952     24.000000
  0.428571  0.523810 -0.428571     24.000000
 -0.523810 -0.428571  0.523810     24.000000
 -0.476190 -0.380952  0.476190     24.000000
 -0.428571 -0.333333  0.428571     24.000000
 -0.380952 -0.285714  0.380952     24.000000
 -0.333333 -0.238095  0.333333     24.000000
 -0.285714 -0.190476  0.285714     24.000000
 -0.238095 -0.142857  0.238095     24.000000
 -0.190476 -0.095238  0.190476     24.000000
 -0.142857 -0.047619  0.142857     24.000000
 -0.095238  0.000000  0.095238     12.000000
  0.000000  0.190476  0.000000      6.000000
  0.047619  0.238095 -0.047619     24.000000
  0.095238  0.285714 -0.095238     24.000000
  0.142857  0.333333 -0.142857     24.000000
  0.190476  0.380952 -0.190476     24.000000
  0.238095  0.428571 -0.238095     24.000000
  0.285714  0.476190 -0.285714     24.000000
  0.333333  0.523810 -0.333333     24.000000
  0.380952  0.571429 -0.380952     24.000000
 -0.571429 -0.380952  0.571429     24.000000
 -0.523810 -0.333333  0.523810     24.000000
 -0.476190 -0.285714  0.476190     24.000000
 -0.428571 -0.238095  0.428571     24.000000
 -0.380952 -0.190476  0.380952     24.000000
 -0.333333 -0.142857  0.333333     24.000000
 -0.285714 -0.095238  0.285714     24.000000
 -0.238095 -0.047619  0.238095     24.000000
 -0.190476  0.000000  0.190476     12.000000
  0.000000  0.285714  0.000000      6.000000
  0.047619  0.333333 -0.047619     24.000000
  0.095238  0.380952 -0.095238     24.000000
  0.142857  0.428571 -0.142857     24.000000
  0.190476  0.476190 -0.190476     24.000000
  0.238095  0.523810 -0.238095     24.000000
  0.285714  0.571429 -0.285714     24.000000
  0.333333  0.619048 -0.333333     24.000000
 -0.619048 -0.333333  0.619048     24.000000
 -0.571429 -0.285714  0.571429     24.000000
 -0.523810 -0.238095  0.523810     24.000000
 -0.476190 -0.190476  0.476190     24.000000
 -0.428571 -0.142857  0.428571     24.000000
 -0.380952 -0.095238  0.380952     24.000000
 -0.333333 -0.047619  0.333333     24.000000
 -0.285714  0.000000  0.285714     12.000000
  0.000000  0.380952  0.000000      6.000000
  0.047619  0.428571 -0.047619     24.000000
  0.095238  0.476190 -0.095238     24.000000
  0.142857  0.523810 -0.142857     24.000000
  0.190476  0.571429 -0.190476     24.000000
  0.238095  0.619048 -0.238095     24.000000
  0.285714  0.666667 -0.285714     24.000000
 -0.666667 -0.285714  0.666667     24.000000
 -0.619048 -0.238095  0.619048     24.000000
 -0.571429 -0.190476  0.571429     24.000000
 -0.523810 -0.142857  0.523810     24.000000
 -0.476190 -0.095238  0.476190     24.000000
 -0.428571 -0.047619  0.428571     24.000000
 -0.380952  0.000000  0.380952     12.000000
  0.000000  0.476190  0.000000      6.000000
  0.047619  0.523810 -0.047619     24.000000
  0.095238  0.571429 -0.095238     24.000000
  0.142857  0.619048 -0.142857     24.000000
  0.190476  0.666667 -0.190476     24.000000
  0.238095  0.714286 -0.238095     24.000000
 -0.714286 -0.238095  0.714286     24.000000
 -0.666667 -0.190476  0.666667     24.000000
 -0.619048 -0.142857  0.619048     24.000000
 -0.571429 -0.095238  0.571429     24.000000
 -0.523810 -0.047619  0.523810     24.000000
 -0.476190  0.000000  0.476190     12.000000
  0.000000  0.571429  0.000000      6.000000
  0.047619  0.619048 -0.047619     24.000000
  0.095238  0.666667 -0.095238     24.000000
  0.142857  0.714286 -0.142857     24.000000
  0.190476  0.761905 -0.190476     24.000000
 -0.761905 -0.190476  0.761905     24.000000
 -0.714286 -0.142857  0.714286     24.000000
 -0.666667 -0.095238  0.666667     24.000000
 -0.619048 -0.047619  0.619048     24.000000
 -0.571429  0.000000  0.571429     12.000000
  0.000000  0.666667  0.000000      6.000000
  0.047619  0.714286 -0.047619     24.000000
  0.095238  0.761905 -0.095238     24.000000
  0.142857  0.809524 -0.142857     24.000000
 -0.809524 -0.142857  0.809524     24.000000
 -0.761905 -0.095238  0.761905     24.000000
 -0.714286 -0.047619  0.714286     24.000000
 -0.666667  0.000000  0.666667     12.000000
  0.000000  0.761905  0.000000      6.000000
  0.047619  0.809524 -0.047619     24.000000
  0.095238  0.857143 -0.095238     24.000000
 -0.857143 -0.095238  0.857143     24.000000
 -0.809524 -0.047619  0.809524     24.000000
 -0.761905  0.000000  0.761905     12.000000
  0.000000  0.857143  0.000000      6.000000
  0.047619  0.904762 -0.047619     24.000000
 -0.904762 -0.047619  0.904762     24.000000
 -0.857143  0.000000  0.857143     12.000000
  0.000000  0.952381  0.000000      6.000000
 -0.952381  0.000000  0.952381     12.000000
  0.095238  0.190476 -0.000000     24.000000
  0.142857  0.238095 -0.047619     48.000000
  0.190476  0.285714 -0.095238     48.000000
  0.238095  0.333333 -0.142857     48.000000
  0.285714  0.380952 -0.190476     48.000000
  0.333333  0.428571 -0.238095     48.000000
  0.380952  0.476190 -0.285714     48.000000
  0.428571  0.523810 -0.333333     48.000000
 -0.523810 -0.428571  0.619048     48.000000
  0.095238  0.285714 -0.000000     24.000000
  0.142857  0.333333 -0.047619     48.000000
  0.190476  0.380952 -0.095238     48.000000
  0.238095  0.428571 -0.142857     48.000000
  0.285714  0.476190 -0.190476     48.000000
  0.333333  0.523810 -0.238095     48.000000
  0.380952  0.571429 -0.285714     48.000000
 -0.571429 -0.380952  0.666667     48.000000
 -0.523810 -0.333333  0.619048     48.000000
 -0.476190 -0.285714  0.571429     48.000000
 -0.428571 -0.238095  0.523810     48.000000
 -0.380952 -0.190476  0.476190     48.000000
 -0.333333 -0.142857  0.428571     48.000000
 -0.285714 -0.095238  0.380952     48.000000
 -0.238095 -0.047619  0.333333     48.000000
 -0.190476  0.000000  0.285714     24.000000
  0.095238  0.380952  0.000000     24.000000
  0.142857  0.428571 -0.047619     48.000000
  0.190476  0.476190 -0.095238     48.000000
  0.238095  0.523810 -0.142857     48.000000
  0.285714  0.571429 -0.190476     48.000000
  0.333333  0.619048 -0.238095     48.000000
 -0.619048 -0.333333  0.714286     48.000000
 -0.571429 -0.285714  0.666667     48.000000
 -0.523810 -0.238095  0.619048     48.000000
 -0.476190 -0.190476  0.571429     48.000000
 -0.428571 -0.142857  0.523810     48.000000
 -0.380952 -0.095238  0.476190     48.000000
 -0.333333 -0.047619  0.428571     48.000000
 -0.285714  0.000000  0.380952     24.000000
  0.095238  0.476190  0.000000     24.000000
  0.142857  0.523810 -0.047619     48.000000
  0.190476  0.571429 -0.095238     48.000000
  0.238095  0.619048 -0.142857     48.000000
  0.285714  0.666667 -0.190476     48.000000
 -0.666667 -0.285714  0.761905     48.000000
 -0.619048 -0.238095  0.714286     48.000000
 -0.571429 -0.190476  0.666667     48.000000
 -0.523810 -0.142857  0.619048     48.000000
 -0.476190 -0.095238  0.571429     48.000000
 -0.428571 -0.047619  0.523810     48.000000
 -0.380952  0.000000  0.476190     24.000000
  0.095238  0.571429  0.000000     24.000000
  0.142857  0.619048 -0.047619     48.000000
  0.190476  0.666667 -0.095238     48.000000
  0.238095  0.714286 -0.142857     48.000000
 -0.714286 -0.238095  0.809524     48.000000
 -0.666667 -0.190476  0.761905     48.000000
 -0.619048 -0.142857  0.714286     48.000000
 -0.571429 -0.095238  0.666667     48.000000
 -0.523810 -0.047619  0.619048     48.000000
 -0.476190  0.000000  0.571429     24.000000
  0.095238  0.666667 -0.000000     24.000000
  0.142857  0.714286 -0.047619     48.000000
  0.190476  0.761905 -0.095238     48.000000
 -0.761905 -0.190476  0.857143     48.000000
 -0.714286 -0.142857  0.809524     48.000000
 -0.666667 -0.095238  0.761905     48.000000
 -0.619048 -0.047619  0.714286     48.000000
 -0.571429  0.000000  0.666667     24.000000
  0.095238  0.761905  0.000000     24.000000
  0.142857  0.809524 -0.047619     48.000000
 -0.809524 -0.142857  0.904762     48.000000
 -0.761905 -0.095238  0.857143     48.000000
 -0.714286 -0.047619  0.809524     48.000000
 -0.666667  0.000000  0.761905     24.000000
  0.095238  0.857143  0.000000     24.000000
 -0.857143 -0.095238  0.952381     48.000000
 -0.809524 -0.047619  0.904762     48.000000
 -0.761905  0.000000  0.857143     24.000000
 -0.904762 -0.047619  1.000000     24.000000
 -0.857143  0.000000  0.952381     24.000000
  0.190476  0.380952  0.000000     24.000000
  0.238095  0.428571 -0.047619     48.000000
  0.285714  0.476190 -0.095238     48.000000
  0.333333  0.523810 -0.142857     48.000000
  0.380952  0.571429 -0.190476     48.000000
 -0.571429 -0.380952  0.761905     48.000000
 -0.523810 -0.333333  0.714286     48.000000
  0.190476  0.476190  0.000000     24.000000
  0.238095  0.523810 -0.047619     48.000000
  0.285714  0.571429 -0.095238     48.000000
  0.333333  0.619048 -0.142857     48.000000
 -0.619048 -0.333333  0.809524     48.000000
 -0.571429 -0.285714  0.761905     48.000000
 -0.523810 -0.238095  0.714286     48.000000
 -0.476190 -0.190476  0.666667     48.000000
 -0.428571 -0.142857  0.619048     48.000000
 -0.380952 -0.095238  0.571429     48.000000
 -0.333333 -0.047619  0.523810     48.000000
 -0.285714  0.000000  0.476190     24.000000
  0.190476  0.571429 -0.000000     24.000000
  0.238095  0.619048 -0.047619     48.000000
  0.285714  0.666667 -0.095238     48.000000
 -0.666667 -0.285714  0.857143     48.000000
 -0.619048 -0.238095  0.809524     48.000000
 -0.571429 -0.190476  0.761905     48.000000
 -0.523810 -0.142857  0.714286     48.000000
 -0.476190 -0.095238  0.666667     48.000000
 -0.428571 -0.047619  0.619048     48.000000
 -0.380952  0.000000  0.571429     24.000000
  0.190476  0.666667 -0.000000     24.000000
  0.238095  0.714286 -0.047619     48.000000
 -0.714286 -0.238095  0.904762     48.000000
 -0.666667 -0.190476  0.857143     48.000000
 -0.619048 -0.142857  0.809524     48.000000
 -0.571429 -0.095238  0.761905     48.000000
 -0.523810 -0.047619  0.714286     48.000000
 -0.476190  0.000000  0.666667     24.000000
  0.190476  0.761905  0.000000     24.000000
 -0.761905 -0.190476  0.952381     48.000000
 -0.714286 -0.142857  0.904762     48.000000
 -0.666667 -0.095238  0.857143     48.000000
 -0.619048 -0.047619  0.809524     48.000000
 -0.571429  0.000000  0.761905     24.000000
 -0.809524 -0.142857  1.000000     24.000000
 -0.761905 -0.095238  0.952381     48.000000
 -0.714286 -0.047619  0.904762     48.000000
 -0.666667  0.000000  0.857143     24.000000
 -0.809524 -0.047619  1.000000     24.000000
 -0.761905  0.000000  0.952381     24.000000
  0.285714  0.571429  0.000000     24.000000
  0.333333  0.619048 -0.047619     48.000000
 -0.619048 -0.333333  0.904762     48.000000
 -0.571429 -0.285714  0.857143     48.000000
 -0.523810 -0.238095  0.809524     48.000000
  0.285714  0.666667  0.000000     24.000000
 -0.666667 -0.285714  0.952381     48.000000
 -0.619048 -0.238095  0.904762     48.000000
 -0.571429 -0.190476  0.857143     48.000000
 -0.523810 -0.142857  0.809524     48.000000
 -0.476190 -0.095238  0.761905     48.000000
 -0.428571 -0.047619  0.714286     48.000000
 -0.380952 -0.000000  0.666667     24.000000
 -0.714286 -0.238095  1.000000     24.000000
 -0.666667 -0.190476  0.952381     48.000000
 -0.619048 -0.142857  0.904762     48.000000
 -0.571429 -0.095238  0.857143     48.000000
 -0.523810 -0.047619  0.809524     48.000000
 -0.476190  0.000000  0.761905     24.000000
 -0.714286 -0.142857  1.000000     24.000000
 -0.666667 -0.095238  0.952381     48.000000
 -0.619048 -0.047619  0.904762     48.000000
 -0.571429  0.000000  0.857143     24.000000
 -0.714286 -0.047619  1.000000     24.000000
 -0.666667 -0.000000  0.952381     24.000000
 -0.619048 -0.238095  1.000000     24.000000
 -0.571429 -0.190476  0.952381     48.000000
 -0.523810 -0.142857  0.904762     48.000000
 -0.619048 -0.142857  1.000000     24.000000
 -0.571429 -0.095238  0.952381     48.000000
 -0.523810 -0.047619  0.904762     48.000000
 -0.476190  0.000000  0.857143     24.000000
 -0.619048 -0.047619  1.000000     24.000000
 -0.571429  0.000000  0.952381     24.000000
 -0.523810 -0.047619  1.000000     24.000000
 
 TETIRR: Found   1276 inequivalent tetrahedra from    55566


--------------------------------------------------------------------------------------------------------




 Dimension of arrays:
   k-points           NKPTS =    286   k-points in BZ     NKDIM =    286   number of bands    NBANDS=     12
   number of dos      NEDOS =    301   number of ions     NIONS =      1
   non local maximal  LDIM  =      4   non local SUM 2l+1 LMDIM =      8
   total plane-waves  NPLWV =   5832
   max r-space proj   IRMAX =      1   max aug-charges    IRDMAX=   6439
   dimension x,y,z NGX =    18 NGY =   18 NGZ =   18
   dimension x,y,z NGXF=    36 NGYF=   36 NGZF=   36
   support grid    NGXF=    36 NGYF=   36 NGZF=   36
   ions per type =               1
   NGX,Y,Z   is equivalent  to a cutoff of   8.46,  8.46,  8.46 a.u.
   NGXF,Y,Z  is equivalent  to a cutoff of  16.93, 16.93, 16.93 a.u.

 SYSTEM =  fcc Si DOS                              
 POSCAR =  fcc:                                    

 Startparameter for this run:
   NWRITE =      2    write-flag & timer
   PREC   = accura    normal or accurate (medium, high low for compatibility)
   ISTART =      0    job   : 0-new  1-cont  2-samecut
   ICHARG =      2    charge: 1-file 2-atom 10-const
   ISPIN  =      1    spin polarized calculation?
   LNONCOLLINEAR =      F non collinear calculations
   LSORBIT =      F    spin-orbit coupling
   INIWAV =      1    electr: 0-lowe 1-rand  2-diag
   LASPH  =      F    aspherical Exc in radial PAW
   METAGGA=      F    non-selfconsistent MetaGGA calc.

 Electronic Relaxation 1
   ENCUT  =  240.0 eV  17.64 Ry    4.20 a.u.   4.47  4.47  4.47*2*pi/ulx,y,z
   ENINI  =  240.0     initial cutoff
   ENAUG  =  322.1 eV  augmentation charge cutoff
   NELM   =     60;   NELMIN=  2; NELMDL= -5     # of ELM steps 
   EDIFF  = 0.1E-05   stopping-criterion for ELM
   LREAL  =      F    real-space projection
   NLSPLINE    = F    spline interpolate recip. space projectors
   LCOMPAT=      F    compatible to vasp.4.4
   GGA_COMPAT  = T    GGA compatible to vasp.4.4-vasp.4.6
   LMAXPAW     = -100 max onsite density
   LMAXMIX     =    2 max onsite mixed and CHGCAR
   VOSKOWN=      0    Vosko Wilk Nusair interpolation
   ROPT   =    0.00000
 Ionic relaxation
   EDIFFG = -.1E-05   stopping-criterion for IOM
   NSW    =      0    number of steps for IOM
   NBLOCK =      1;   KBLOCK =      1    inner block; outer block 
   IBRION =     -1    ionic relax: 0-MD 1-quasi-New 2-CG
   NFREE  =      0    steps in history (QN), initial steepest desc. (CG)
   ISIF   =      2    stress and relaxation
   IWAVPR =     10    prediction:  0-non 1-charg 2-wave 3-comb
   ISYM   =      2    0-nonsym 1-usesym 2-fastsym
   LCORR  =      T    Harris-Foulkes like correction to forces

   POTIM  = 0.5000    time-step for ionic-motion
   TEIN   =    0.0    initial temperature
   TEBEG  =    0.0;   TEEND  =   0.0 temperature during run
   SMASS  =  -3.00    Nose mass-parameter (am)
   estimated Nose-frequenzy (Omega)   =  0.10E-29 period in steps =****** mass=  -0.286E-27a.u.
   SCALEE = 1.0000    scale energy and forces
   NPACO  =    256;   APACO  = 16.0  distance and # of slots for P.C.
   PSTRESS=    0.0 pullay stress

  Mass of Ions in am
   POMASS =  28.09
  Ionic Valenz
   ZVAL   =   4.00
  Atomic Wigner-Seitz radii
   RWIGS  =  -1.00
  virtual crystal weights 
   VCA    =   1.00
   NELECT =       4.0000    total number of electrons
   NUPDOWN=      -1.0000    fix difference up-down

 DOS related values:
   EMIN   =  10.00;   EMAX   =-10.00  energy-range for DOS
   EFERMI =   0.00
   ISMEAR =    -5;   SIGMA  =   0.10  broadening in eV -4-tet -1-fermi 0-gaus

 Electronic relaxation 2 (details)
   IALGO  =     38    algorithm
   LDIAG  =      T    sub-space diagonalisation (order eigenvalues)
   LSUBROT=      F    optimize rotation matrix (better conditioning)
   TURBO    =      0    0=normal 1=particle mesh
   IRESTART =      0    0=no restart 2=restart with 2 vectors
   NREBOOT  =      0    no. of reboots
   NMIN     =      0    reboot dimension
   EREF     =   0.00    reference energy to select bands
   IMIX   =      4    mixing-type and parameters
     AMIX     =   0.40;   BMIX     =  1.00
     AMIX_MAG =   1.60;   BMIX_MAG =  1.00
     AMIN     =   0.10
     WC   =   100.;   INIMIX=   1;  MIXPRE=   1;  MAXMIX= -45

 Intra band minimization:
   WEIMIN = 0.0000     energy-eigenvalue tresh-hold
   EBREAK =  0.21E-08  absolut break condition
   DEPER  =   0.30     relativ break condition  

   TIME   =   0.40     timestep for ELM

  volume/ion in A,a.u.               =      31.25       210.89
  Fermi-wavevector in a.u.,A,eV,Ry     =   0.825046  1.559111  9.261498  0.680701
  Thomas-Fermi vector in A             =   1.936837
 
 Write flags
   LWAVE        =      T    write WAVECAR
   LDOWNSAMPLE  =      F    k-point downsampling of WAVECAR
   LCHARG       =      T    write CHGCAR
   LVTOT        =      F    write LOCPOT, total local potential
   LVHAR        =      F    write LOCPOT, Hartree potential only
   LELF         =      F    write electronic localiz. function (ELF)
   LORBIT       =     11    0 simple, 1 ext, 2 COOP (PROOUT), +10 PAW based schemes


 Dipole corrections
   LMONO  =      F    monopole corrections only (constant potential shift)
   LDIPOL =      F    correct potential (dipole corrections)
   IDIPOL =      0    1-x, 2-y, 3-z, 4-all directions 
   EPSILON=  1.0000000 bulk dielectric constant

 Exchange correlation treatment:
   GGA     =    --    GGA type
   LEXCH   =     8    internal setting for exchange type
   VOSKOWN=      0    Vosko Wilk Nusair interpolation
   LHFCALC =     F    Hartree Fock is set to
   LHFONE  =     F    Hartree Fock one center treatment
   AEXX    =    0.0000 exact exchange contribution

 Linear response parameters
   LEPSILON=     F    determine dielectric tensor
   LRPA    =     F    only Hartree local field effects (RPA)
   LNABLA  =     F    use nabla operator in PAW spheres
   LVEL    =     F    velocity operator in full k-point grid
   LINTERFAST=   F  fast interpolation
   KINTER  =     0    interpolate to denser k-point grid
   CSHIFT  =0.1000    complex shift for real part using Kramers Kronig
   OMEGAMAX=  -1.0    maximum frequency
   DEG_THRESHOLD= 0.2000000E-02 threshold for treating states as degnerate
   RTIME   =   -0.100 relaxation time in fs
  (WPLASMAI=    0.000 imaginary part of plasma frequency in eV, 0.658/RTIME)
   DFIELD  = 0.0000000 0.0000000 0.0000000 field for delta impulse in time
 
 Orbital magnetization related:
   ORBITALMAG=     F  switch on orbital magnetization
   LCHIMAG   =     F  perturbation theory with respect to B field
   DQ        =  0.001000  dq finite difference perturbation B field
   LLRAUG    =     F  two centre corrections for induced B field



--------------------------------------------------------------------------------------------------------


 Static calculation
 charge density and potential will be updated during run
 non-spin polarized calculation
 Variant of blocked Davidson
 Davidson routine will perform the subspace rotation
 perform sub-space diagonalisation
    after iterative eigenvector-optimisation
 modified Broyden-mixing scheme, WC =      100.0
 initial mixing is a Kerker type mixing with AMIX =  0.4000 and BMIX =      1.0000
 Hartree-type preconditioning will be used
 using additional bands           10
 reciprocal scheme for non local part
 use partial core corrections
 calculate Harris-corrections to forces 
   (improved forces if not selfconsistent)
 use gradient corrections 
 use of overlap-Matrix (Vanderbilt PP)
 Fermi weights with tetrahedron method with Bloechl corrections


--------------------------------------------------------------------------------------------------------


  energy-cutoff  :      240.00
  volume of cell :       31.25
      direct lattice vectors                 reciprocal lattice vectors
     2.500000000  2.500000000  0.000000000     0.200000000  0.200000000 -0.200000000
     0.000000000  2.500000000  2.500000000    -0.200000000  0.200000000  0.200000000
     2.500000000  0.000000000  2.500000000     0.200000000 -0.200000000  0.200000000

  length of vectors
     3.535533906  3.535533906  3.535533906     0.346410162  0.346410162  0.346410162


 
 k-points in units of 2pi/SCALE and weight: k-points                                
   0.00000000  0.00000000  0.00000000       0.000
   0.04761905  0.04761905 -0.04761905       0.001
   0.09523810  0.09523810 -0.09523810       0.001
   0.14285714  0.14285714 -0.14285714       0.001
   0.19047619  0.19047619 -0.19047619       0.001
   0.23809524  0.23809524 -0.23809524       0.001
   0.28571429  0.28571429 -0.28571429       0.001
   0.33333333  0.33333333 -0.33333333       0.001
   0.38095238  0.38095238 -0.38095238       0.001
   0.42857143  0.42857143 -0.42857143       0.001
   0.47619048  0.47619048 -0.47619048       0.001
   0.00000000  0.09523810  0.00000000       0.001
   0.04761905  0.14285714 -0.04761905       0.003
   0.09523810  0.19047619 -0.09523810       0.003
   0.14285714  0.23809524 -0.14285714       0.003
   0.19047619  0.28571429 -0.19047619       0.003
   0.23809524  0.33333333 -0.23809524       0.003
   0.28571429  0.38095238 -0.28571429       0.003
   0.33333333  0.42857143 -0.33333333       0.003
   0.38095238  0.47619048 -0.38095238       0.003
   0.42857143  0.52380952 -0.42857143       0.003
  -0.52380952 -0.42857143  0.52380952       0.003
  -0.47619048 -0.38095238  0.47619048       0.003
  -0.42857143 -0.33333333  0.42857143       0.003
  -0.38095238 -0.28571429  0.38095238       0.003
  -0.33333333 -0.23809524  0.33333333       0.003
  -0.28571429 -0.19047619  0.28571429       0.003
  -0.23809524 -0.14285714  0.23809524       0.003
  -0.19047619 -0.09523810  0.19047619       0.003
  -0.14285714 -0.04761905  0.14285714       0.003
  -0.09523810  0.00000000  0.09523810       0.001
   0.00000000  0.19047619  0.00000000       0.001
   0.04761905  0.23809524 -0.04761905       0.003
   0.09523810  0.28571429 -0.09523810       0.003
   0.14285714  0.33333333 -0.14285714       0.003
   0.19047619  0.38095238 -0.19047619       0.003
   0.23809524  0.42857143 -0.23809524       0.003
   0.28571429  0.47619048 -0.28571429       0.003
   0.33333333  0.52380952 -0.33333333       0.003
   0.38095238  0.57142857 -0.38095238       0.003
  -0.57142857 -0.38095238  0.57142857       0.003
  -0.52380952 -0.33333333  0.52380952       0.003
  -0.47619048 -0.28571429  0.47619048       0.003
  -0.42857143 -0.23809524  0.42857143       0.003
  -0.38095238 -0.19047619  0.38095238       0.003
  -0.33333333 -0.14285714  0.33333333       0.003
  -0.28571429 -0.09523810  0.28571429       0.003
  -0.23809524 -0.04761905  0.23809524       0.003
  -0.19047619  0.00000000  0.19047619       0.001
   0.00000000  0.28571429  0.00000000       0.001
   0.04761905  0.33333333 -0.04761905       0.003
   0.09523810  0.38095238 -0.09523810       0.003
   0.14285714  0.42857143 -0.14285714       0.003
   0.19047619  0.47619048 -0.19047619       0.003
   0.23809524  0.52380952 -0.23809524       0.003
   0.28571429  0.57142857 -0.28571429       0.003
   0.33333333  0.61904762 -0.33333333       0.003
  -0.61904762 -0.33333333  0.61904762       0.003
  -0.57142857 -0.28571429  0.57142857       0.003
  -0.52380952 -0.23809524  0.52380952       0.003
  -0.47619048 -0.19047619  0.47619048       0.003
  -0.42857143 -0.14285714  0.42857143       0.003
  -0.38095238 -0.09523810  0.38095238       0.003
  -0.33333333 -0.04761905  0.33333333       0.003
  -0.28571429  0.00000000  0.28571429       0.001
   0.00000000  0.38095238  0.00000000       0.001
   0.04761905  0.42857143 -0.04761905       0.003
   0.09523810  0.47619048 -0.09523810       0.003
   0.14285714  0.52380952 -0.14285714       0.003
   0.19047619  0.57142857 -0.19047619       0.003
   0.23809524  0.61904762 -0.23809524       0.003
   0.28571429  0.66666667 -0.28571429       0.003
  -0.66666667 -0.28571429  0.66666667       0.003
  -0.61904762 -0.23809524  0.61904762       0.003
  -0.57142857 -0.19047619  0.57142857       0.003
  -0.52380952 -0.14285714  0.52380952       0.003
  -0.47619048 -0.09523810  0.47619048       0.003
  -0.42857143 -0.04761905  0.42857143       0.003
  -0.38095238  0.00000000  0.38095238       0.001
   0.00000000  0.47619048  0.00000000       0.001
   0.04761905  0.52380952 -0.04761905       0.003
   0.09523810  0.57142857 -0.09523810       0.003
   0.14285714  0.61904762 -0.14285714       0.003
   0.19047619  0.66666667 -0.19047619       0.003
   0.23809524  0.71428571 -0.23809524       0.003
  -0.71428571 -0.23809524  0.71428571       0.003
  -0.66666667 -0.19047619  0.66666667       0.003
  -0.61904762 -0.14285714  0.61904762       0.003
  -0.57142857 -0.09523810  0.57142857       0.003
  -0.52380952 -0.04761905  0.52380952       0.003
  -0.47619048  0.00000000  0.47619048       0.001
   0.00000000  0.57142857  0.00000000       0.001
   0.04761905  0.61904762 -0.04761905       0.003
   0.09523810  0.66666667 -0.09523810       0.003
   0.14285714  0.71428571 -0.14285714       0.003
   0.19047619  0.76190476 -0.19047619       0.003
  -0.76190476 -0.19047619  0.76190476       0.003
  -0.71428571 -0.14285714  0.71428571       0.003
  -0.66666667 -0.09523810  0.66666667       0.003
  -0.61904762 -0.04761905  0.61904762       0.003
  -0.57142857  0.00000000  0.57142857       0.001
   0.00000000  0.66666667  0.00000000       0.001
   0.04761905  0.71428571 -0.04761905       0.003
   0.09523810  0.76190476 -0.09523810       0.003
   0.14285714  0.80952381 -0.14285714       0.003
  -0.80952381 -0.14285714  0.80952381       0.003
  -0.76190476 -0.09523810  0.76190476       0.003
  -0.71428571 -0.04761905  0.71428571       0.003
  -0.66666667  0.00000000  0.66666667       0.001
   0.00000000  0.76190476  0.00000000       0.001
   0.04761905  0.80952381 -0.04761905       0.003
   0.09523810  0.85714286 -0.09523810       0.003
  -0.85714286 -0.09523810  0.85714286       0.003
  -0.80952381 -0.04761905  0.80952381       0.003
  -0.76190476  0.00000000  0.76190476       0.001
   0.00000000  0.85714286  0.00000000       0.001
   0.04761905  0.90476190 -0.04761905       0.003
  -0.90476190 -0.04761905  0.90476190       0.003
  -0.85714286  0.00000000  0.85714286       0.001
   0.00000000  0.95238095  0.00000000       0.001
  -0.95238095  0.00000000  0.95238095       0.001
   0.09523810  0.19047619 -0.00000000       0.003
   0.14285714  0.23809524 -0.04761905       0.005
   0.19047619  0.28571429 -0.09523810       0.005
   0.23809524  0.33333333 -0.14285714       0.005
   0.28571429  0.38095238 -0.19047619       0.005
   0.33333333  0.42857143 -0.23809524       0.005
   0.38095238  0.47619048 -0.28571429       0.005
   0.42857143  0.52380952 -0.33333333       0.005
  -0.52380952 -0.42857143  0.61904762       0.005
   0.09523810  0.28571429 -0.00000000       0.003
   0.14285714  0.33333333 -0.04761905       0.005
   0.19047619  0.38095238 -0.09523810       0.005
   0.23809524  0.42857143 -0.14285714       0.005
   0.28571429  0.47619048 -0.19047619       0.005
   0.33333333  0.52380952 -0.23809524       0.005
   0.38095238  0.57142857 -0.28571429       0.005
  -0.57142857 -0.38095238  0.66666667       0.005
  -0.52380952 -0.33333333  0.61904762       0.005
  -0.47619048 -0.28571429  0.57142857       0.005
  -0.42857143 -0.23809524  0.52380952       0.005
  -0.38095238 -0.19047619  0.47619048       0.005
  -0.33333333 -0.14285714  0.42857143       0.005
  -0.28571429 -0.09523810  0.38095238       0.005
  -0.23809524 -0.04761905  0.33333333       0.005
  -0.19047619  0.00000000  0.28571429       0.003
   0.09523810  0.38095238  0.00000000       0.003
   0.14285714  0.42857143 -0.04761905       0.005
   0.19047619  0.47619048 -0.09523810       0.005
   0.23809524  0.52380952 -0.14285714       0.005
   0.28571429  0.57142857 -0.19047619       0.005
   0.33333333  0.61904762 -0.23809524       0.005
  -0.61904762 -0.33333333  0.71428571       0.005
  -0.57142857 -0.28571429  0.66666667       0.005
  -0.52380952 -0.23809524  0.61904762       0.005
  -0.47619048 -0.19047619  0.57142857       0.005
  -0.42857143 -0.14285714  0.52380952       0.005
  -0.38095238 -0.09523810  0.47619048       0.005
  -0.33333333 -0.04761905  0.42857143       0.005
  -0.28571429  0.00000000  0.38095238       0.003
   0.09523810  0.47619048  0.00000000       0.003
   0.14285714  0.52380952 -0.04761905       0.005
   0.19047619  0.57142857 -0.09523810       0.005
   0.23809524  0.61904762 -0.14285714       0.005
   0.28571429  0.66666667 -0.19047619       0.005
  -0.66666667 -0.28571429  0.76190476       0.005
  -0.61904762 -0.23809524  0.71428571       0.005
  -0.57142857 -0.19047619  0.66666667       0.005
  -0.52380952 -0.14285714  0.61904762       0.005
  -0.47619048 -0.09523810  0.57142857       0.005
  -0.42857143 -0.04761905  0.52380952       0.005
  -0.38095238  0.00000000  0.47619048       0.003
   0.09523810  0.57142857  0.00000000       0.003
   0.14285714  0.61904762 -0.04761905       0.005
   0.19047619  0.66666667 -0.09523810       0.005
   0.23809524  0.71428571 -0.14285714       0.005
  -0.71428571 -0.23809524  0.80952381       0.005
  -0.66666667 -0.19047619  0.76190476       0.005
  -0.61904762 -0.14285714  0.71428571       0.005
  -0.57142857 -0.09523810  0.66666667       0.005
  -0.52380952 -0.04761905  0.61904762       0.005
  -0.47619048  0.00000000  0.57142857       0.003
   0.09523810  0.66666667 -0.00000000       0.003
   0.14285714  0.71428571 -0.04761905       0.005
   0.19047619  0.76190476 -0.09523810       0.005
  -0.76190476 -0.19047619  0.85714286       0.005
  -0.71428571 -0.14285714  0.80952381       0.005
  -0.66666667 -0.09523810  0.76190476       0.005
  -0.61904762 -0.04761905  0.71428571       0.005
  -0.57142857  0.00000000  0.66666667       0.003
   0.09523810  0.76190476  0.00000000       0.003
   0.14285714  0.80952381 -0.04761905       0.005
  -0.80952381 -0.14285714  0.90476190       0.005
  -0.76190476 -0.09523810  0.85714286       0.005
  -0.71428571 -0.04761905  0.80952381       0.005
  -0.66666667  0.00000000  0.76190476       0.003
   0.09523810  0.85714286  0.00000000       0.003
  -0.85714286 -0.09523810  0.95238095       0.005
  -0.80952381 -0.04761905  0.90476190       0.005
  -0.76190476  0.00000000  0.85714286       0.003
  -0.90476190 -0.04761905  1.00000000       0.003
  -0.85714286  0.00000000  0.95238095       0.003
   0.19047619  0.38095238  0.00000000       0.003
   0.23809524  0.42857143 -0.04761905       0.005
   0.28571429  0.47619048 -0.09523810       0.005
   0.33333333  0.52380952 -0.14285714       0.005
   0.38095238  0.57142857 -0.19047619       0.005
  -0.57142857 -0.38095238  0.76190476       0.005
  -0.52380952 -0.33333333  0.71428571       0.005
   0.19047619  0.47619048  0.00000000       0.003
   0.23809524  0.52380952 -0.04761905       0.005
   0.28571429  0.57142857 -0.09523810       0.005
   0.33333333  0.61904762 -0.14285714       0.005
  -0.61904762 -0.33333333  0.80952381       0.005
  -0.57142857 -0.28571429  0.76190476       0.005
  -0.52380952 -0.23809524  0.71428571       0.005
  -0.47619048 -0.19047619  0.66666667       0.005
  -0.42857143 -0.14285714  0.61904762       0.005
  -0.38095238 -0.09523810  0.57142857       0.005
  -0.33333333 -0.04761905  0.52380952       0.005
  -0.28571429  0.00000000  0.47619048       0.003
   0.19047619  0.57142857 -0.00000000       0.003
   0.23809524  0.61904762 -0.04761905       0.005
   0.28571429  0.66666667 -0.09523810       0.005
  -0.66666667 -0.28571429  0.85714286       0.005
  -0.61904762 -0.23809524  0.80952381       0.005
  -0.57142857 -0.19047619  0.76190476       0.005
  -0.52380952 -0.14285714  0.71428571       0.005
  -0.47619048 -0.09523810  0.66666667       0.005
  -0.42857143 -0.04761905  0.61904762       0.005
  -0.38095238  0.00000000  0.57142857       0.003
   0.19047619  0.66666667 -0.00000000       0.003
   0.23809524  0.71428571 -0.04761905       0.005
  -0.71428571 -0.23809524  0.90476190       0.005
  -0.66666667 -0.19047619  0.85714286       0.005
  -0.61904762 -0.14285714  0.80952381       0.005
  -0.57142857 -0.09523810  0.76190476       0.005
  -0.52380952 -0.04761905  0.71428571       0.005
  -0.47619048  0.00000000  0.66666667       0.003
   0.19047619  0.76190476  0.00000000       0.003
  -0.76190476 -0.19047619  0.95238095       0.005
  -0.71428571 -0.14285714  0.90476190       0.005
  -0.66666667 -0.09523810  0.85714286       0.005
  -0.61904762 -0.04761905  0.80952381       0.005
  -0.57142857  0.00000000  0.76190476       0.003
  -0.80952381 -0.14285714  1.00000000       0.003
  -0.76190476 -0.09523810  0.95238095       0.005
  -0.71428571 -0.04761905  0.90476190       0.005
  -0.66666667  0.00000000  0.85714286       0.003
  -0.80952381 -0.04761905  1.00000000       0.003
  -0.76190476  0.00000000  0.95238095       0.003
   0.28571429  0.57142857  0.00000000       0.003
   0.33333333  0.61904762 -0.04761905       0.005
  -0.61904762 -0.33333333  0.90476190       0.005
  -0.57142857 -0.28571429  0.85714286       0.005
  -0.52380952 -0.23809524  0.80952381       0.005
   0.28571429  0.66666667  0.00000000       0.003
  -0.66666667 -0.28571429  0.95238095       0.005
  -0.61904762 -0.23809524  0.90476190       0.005
  -0.57142857 -0.19047619  0.85714286       0.005
  -0.52380952 -0.14285714  0.80952381       0.005
  -0.47619048 -0.09523810  0.76190476       0.005
  -0.42857143 -0.04761905  0.71428571       0.005
  -0.38095238 -0.00000000  0.66666667       0.003
  -0.71428571 -0.23809524  1.00000000       0.003
  -0.66666667 -0.19047619  0.95238095       0.005
  -0.61904762 -0.14285714  0.90476190       0.005
  -0.57142857 -0.09523810  0.85714286       0.005
  -0.52380952 -0.04761905  0.80952381       0.005
  -0.47619048  0.00000000  0.76190476       0.003
  -0.71428571 -0.14285714  1.00000000       0.003
  -0.66666667 -0.09523810  0.95238095       0.005
  -0.61904762 -0.04761905  0.90476190       0.005
  -0.57142857  0.00000000  0.85714286       0.003
  -0.71428571 -0.04761905  1.00000000       0.003
  -0.66666667 -0.00000000  0.95238095       0.003
  -0.61904762 -0.23809524  1.00000000       0.003
  -0.57142857 -0.19047619  0.95238095       0.005
  -0.52380952 -0.14285714  0.90476190       0.005
  -0.61904762 -0.14285714  1.00000000       0.003
  -0.57142857 -0.09523810  0.95238095       0.005
  -0.52380952 -0.04761905  0.90476190       0.005
  -0.47619048  0.00000000  0.85714286       0.003
  -0.61904762 -0.04761905  1.00000000       0.003
  -0.57142857  0.00000000  0.95238095       0.003
  -0.52380952 -0.04761905  1.00000000       0.003
 
 k-points in reciprocal lattice and weights: k-points                                
   0.00000000  0.00000000  0.00000000       0.000
   0.04761905  0.00000000  0.00000000       0.001
   0.09523810  0.00000000  0.00000000       0.001
   0.14285714  0.00000000  0.00000000       0.001
   0.19047619  0.00000000  0.00000000       0.001
   0.23809524  0.00000000  0.00000000       0.001
   0.28571429  0.00000000  0.00000000       0.001
   0.33333333  0.00000000  0.00000000       0.001
   0.38095238  0.00000000  0.00000000       0.001
   0.42857143  0.00000000  0.00000000       0.001
   0.47619048  0.00000000  0.00000000       0.001
   0.04761905  0.04761905  0.00000000       0.001
   0.09523810  0.04761905  0.00000000       0.003
   0.14285714  0.04761905  0.00000000       0.003
   0.19047619  0.04761905  0.00000000       0.003
   0.23809524  0.04761905  0.00000000       0.003
   0.28571429  0.04761905  0.00000000       0.003
   0.33333333  0.04761905  0.00000000       0.003
   0.38095238  0.04761905  0.00000000       0.003
   0.42857143  0.04761905  0.00000000       0.003
   0.47619048  0.04761905  0.00000000       0.003
  -0.47619048  0.04761905  0.00000000       0.003
  -0.42857143  0.04761905  0.00000000       0.003
  -0.38095238  0.04761905  0.00000000       0.003
  -0.33333333  0.04761905  0.00000000       0.003
  -0.28571429  0.04761905  0.00000000       0.003
  -0.23809524  0.04761905  0.00000000       0.003
  -0.19047619  0.04761905  0.00000000       0.003
  -0.14285714  0.04761905  0.00000000       0.003
  -0.09523810  0.04761905  0.00000000       0.003
  -0.04761905  0.04761905  0.00000000       0.001
   0.09523810  0.09523810  0.00000000       0.001
   0.14285714  0.09523810  0.00000000       0.003
   0.19047619  0.09523810  0.00000000       0.003
   0.23809524  0.09523810  0.00000000       0.003
   0.28571429  0.09523810  0.00000000       0.003
   0.33333333  0.09523810  0.00000000       0.003
   0.38095238  0.09523810  0.00000000       0.003
   0.42857143  0.09523810  0.00000000       0.003
   0.47619048  0.09523810  0.00000000       0.003
  -0.47619048  0.09523810  0.00000000       0.003
  -0.42857143  0.09523810  0.00000000       0.003
  -0.38095238  0.09523810  0.00000000       0.003
  -0.33333333  0.09523810  0.00000000       0.003
  -0.28571429  0.09523810  0.00000000       0.003
  -0.23809524  0.09523810  0.00000000       0.003
  -0.19047619  0.09523810  0.00000000       0.003
  -0.14285714  0.09523810  0.00000000       0.003
  -0.09523810  0.09523810  0.00000000       0.001
   0.14285714  0.14285714  0.00000000       0.001
   0.19047619  0.14285714  0.00000000       0.003
   0.23809524  0.14285714  0.00000000       0.003
   0.28571429  0.14285714  0.00000000       0.003
   0.33333333  0.14285714  0.00000000       0.003
   0.38095238  0.14285714  0.00000000       0.003
   0.42857143  0.14285714  0.00000000       0.003
   0.47619048  0.14285714  0.00000000       0.003
  -0.47619048  0.14285714  0.00000000       0.003
  -0.42857143  0.14285714  0.00000000       0.003
  -0.38095238  0.14285714  0.00000000       0.003
  -0.33333333  0.14285714  0.00000000       0.003
  -0.28571429  0.14285714  0.00000000       0.003
  -0.23809524  0.14285714  0.00000000       0.003
  -0.19047619  0.14285714  0.00000000       0.003
  -0.14285714  0.14285714  0.00000000       0.001
   0.19047619  0.19047619  0.00000000       0.001
   0.23809524  0.19047619  0.00000000       0.003
   0.28571429  0.19047619  0.00000000       0.003
   0.33333333  0.19047619  0.00000000       0.003
   0.38095238  0.19047619  0.00000000       0.003
   0.42857143  0.19047619  0.00000000       0.003
   0.47619048  0.19047619  0.00000000       0.003
  -0.47619048  0.19047619  0.00000000       0.003
  -0.42857143  0.19047619  0.00000000       0.003
  -0.38095238  0.19047619  0.00000000       0.003
  -0.33333333  0.19047619  0.00000000       0.003
  -0.28571429  0.19047619  0.00000000       0.003
  -0.23809524  0.19047619  0.00000000       0.003
  -0.19047619  0.19047619  0.00000000       0.001
   0.23809524  0.23809524  0.00000000       0.001
   0.28571429  0.23809524  0.00000000       0.003
   0.33333333  0.23809524  0.00000000       0.003
   0.38095238  0.23809524  0.00000000       0.003
   0.42857143  0.23809524  0.00000000       0.003
   0.47619048  0.23809524  0.00000000       0.003
  -0.47619048  0.23809524  0.00000000       0.003
  -0.42857143  0.23809524  0.00000000       0.003
  -0.38095238  0.23809524  0.00000000       0.003
  -0.33333333  0.23809524  0.00000000       0.003
  -0.28571429  0.23809524  0.00000000       0.003
  -0.23809524  0.23809524  0.00000000       0.001
   0.28571429  0.28571429  0.00000000       0.001
   0.33333333  0.28571429  0.00000000       0.003
   0.38095238  0.28571429  0.00000000       0.003
   0.42857143  0.28571429  0.00000000       0.003
   0.47619048  0.28571429  0.00000000       0.003
  -0.47619048  0.28571429  0.00000000       0.003
  -0.42857143  0.28571429  0.00000000       0.003
  -0.38095238  0.28571429  0.00000000       0.003
  -0.33333333  0.28571429  0.00000000       0.003
  -0.28571429  0.28571429  0.00000000       0.001
   0.33333333  0.33333333  0.00000000       0.001
   0.38095238  0.33333333  0.00000000       0.003
   0.42857143  0.33333333  0.00000000       0.003
   0.47619048  0.33333333  0.00000000       0.003
  -0.47619048  0.33333333  0.00000000       0.003
  -0.42857143  0.33333333  0.00000000       0.003
  -0.38095238  0.33333333  0.00000000       0.003
  -0.33333333  0.33333333  0.00000000       0.001
   0.38095238  0.38095238  0.00000000       0.001
   0.42857143  0.38095238  0.00000000       0.003
   0.47619048  0.38095238  0.00000000       0.003
  -0.47619048  0.38095238  0.00000000       0.003
  -0.42857143  0.38095238  0.00000000       0.003
  -0.38095238  0.38095238  0.00000000       0.001
   0.42857143  0.42857143  0.00000000       0.001
   0.47619048  0.42857143  0.00000000       0.003
  -0.47619048  0.42857143  0.00000000       0.003
  -0.42857143  0.42857143  0.00000000       0.001
   0.47619048  0.47619048  0.00000000       0.001
  -0.47619048  0.47619048  0.00000000       0.001
   0.14285714  0.09523810  0.04761905       0.003
   0.19047619  0.09523810  0.04761905       0.005
   0.23809524  0.09523810  0.04761905       0.005
   0.28571429  0.09523810  0.04761905       0.005
   0.33333333  0.09523810  0.04761905       0.005
   0.38095238  0.09523810  0.04761905       0.005
   0.42857143  0.09523810  0.04761905       0.005
   0.47619048  0.09523810  0.04761905       0.005
  -0.47619048  0.09523810  0.04761905       0.005
   0.19047619  0.14285714  0.04761905       0.003
   0.23809524  0.14285714  0.04761905       0.005
   0.28571429  0.14285714  0.04761905       0.005
   0.33333333  0.14285714  0.04761905       0.005
   0.38095238  0.14285714  0.04761905       0.005
   0.42857143  0.14285714  0.04761905       0.005
   0.47619048  0.14285714  0.04761905       0.005
  -0.47619048  0.14285714  0.04761905       0.005
  -0.42857143  0.14285714  0.04761905       0.005
  -0.38095238  0.14285714  0.04761905       0.005
  -0.33333333  0.14285714  0.04761905       0.005
  -0.28571429  0.14285714  0.04761905       0.005
  -0.23809524  0.14285714  0.04761905       0.005
  -0.19047619  0.14285714  0.04761905       0.005
  -0.14285714  0.14285714  0.04761905       0.005
  -0.09523810  0.14285714  0.04761905       0.003
   0.23809524  0.19047619  0.04761905       0.003
   0.28571429  0.19047619  0.04761905       0.005
   0.33333333  0.19047619  0.04761905       0.005
   0.38095238  0.19047619  0.04761905       0.005
   0.42857143  0.19047619  0.04761905       0.005
   0.47619048  0.19047619  0.04761905       0.005
  -0.47619048  0.19047619  0.04761905       0.005
  -0.42857143  0.19047619  0.04761905       0.005
  -0.38095238  0.19047619  0.04761905       0.005
  -0.33333333  0.19047619  0.04761905       0.005
  -0.28571429  0.19047619  0.04761905       0.005
  -0.23809524  0.19047619  0.04761905       0.005
  -0.19047619  0.19047619  0.04761905       0.005
  -0.14285714  0.19047619  0.04761905       0.003
   0.28571429  0.23809524  0.04761905       0.003
   0.33333333  0.23809524  0.04761905       0.005
   0.38095238  0.23809524  0.04761905       0.005
   0.42857143  0.23809524  0.04761905       0.005
   0.47619048  0.23809524  0.04761905       0.005
  -0.47619048  0.23809524  0.04761905       0.005
  -0.42857143  0.23809524  0.04761905       0.005
  -0.38095238  0.23809524  0.04761905       0.005
  -0.33333333  0.23809524  0.04761905       0.005
  -0.28571429  0.23809524  0.04761905       0.005
  -0.23809524  0.23809524  0.04761905       0.005
  -0.19047619  0.23809524  0.04761905       0.003
   0.33333333  0.28571429  0.04761905       0.003
   0.38095238  0.28571429  0.04761905       0.005
   0.42857143  0.28571429  0.04761905       0.005
   0.47619048  0.28571429  0.04761905       0.005
  -0.47619048  0.28571429  0.04761905       0.005
  -0.42857143  0.28571429  0.04761905       0.005
  -0.38095238  0.28571429  0.04761905       0.005
  -0.33333333  0.28571429  0.04761905       0.005
  -0.28571429  0.28571429  0.04761905       0.005
  -0.23809524  0.28571429  0.04761905       0.003
   0.38095238  0.33333333  0.04761905       0.003
   0.42857143  0.33333333  0.04761905       0.005
   0.47619048  0.33333333  0.04761905       0.005
  -0.47619048  0.33333333  0.04761905       0.005
  -0.42857143  0.33333333  0.04761905       0.005
  -0.38095238  0.33333333  0.04761905       0.005
  -0.33333333  0.33333333  0.04761905       0.005
  -0.28571429  0.33333333  0.04761905       0.003
   0.42857143  0.38095238  0.04761905       0.003
   0.47619048  0.38095238  0.04761905       0.005
  -0.47619048  0.38095238  0.04761905       0.005
  -0.42857143  0.38095238  0.04761905       0.005
  -0.38095238  0.38095238  0.04761905       0.005
  -0.33333333  0.38095238  0.04761905       0.003
   0.47619048  0.42857143  0.04761905       0.003
  -0.47619048  0.42857143  0.04761905       0.005
  -0.42857143  0.42857143  0.04761905       0.005
  -0.38095238  0.42857143  0.04761905       0.003
  -0.47619048  0.47619048  0.04761905       0.003
  -0.42857143  0.47619048  0.04761905       0.003
   0.28571429  0.19047619  0.09523810       0.003
   0.33333333  0.19047619  0.09523810       0.005
   0.38095238  0.19047619  0.09523810       0.005
   0.42857143  0.19047619  0.09523810       0.005
   0.47619048  0.19047619  0.09523810       0.005
  -0.47619048  0.19047619  0.09523810       0.005
  -0.42857143  0.19047619  0.09523810       0.005
   0.33333333  0.23809524  0.09523810       0.003
   0.38095238  0.23809524  0.09523810       0.005
   0.42857143  0.23809524  0.09523810       0.005
   0.47619048  0.23809524  0.09523810       0.005
  -0.47619048  0.23809524  0.09523810       0.005
  -0.42857143  0.23809524  0.09523810       0.005
  -0.38095238  0.23809524  0.09523810       0.005
  -0.33333333  0.23809524  0.09523810       0.005
  -0.28571429  0.23809524  0.09523810       0.005
  -0.23809524  0.23809524  0.09523810       0.005
  -0.19047619  0.23809524  0.09523810       0.005
  -0.14285714  0.23809524  0.09523810       0.003
   0.38095238  0.28571429  0.09523810       0.003
   0.42857143  0.28571429  0.09523810       0.005
   0.47619048  0.28571429  0.09523810       0.005
  -0.47619048  0.28571429  0.09523810       0.005
  -0.42857143  0.28571429  0.09523810       0.005
  -0.38095238  0.28571429  0.09523810       0.005
  -0.33333333  0.28571429  0.09523810       0.005
  -0.28571429  0.28571429  0.09523810       0.005
  -0.23809524  0.28571429  0.09523810       0.005
  -0.19047619  0.28571429  0.09523810       0.003
   0.42857143  0.33333333  0.09523810       0.003
   0.47619048  0.33333333  0.09523810       0.005
  -0.47619048  0.33333333  0.09523810       0.005
  -0.42857143  0.33333333  0.09523810       0.005
  -0.38095238  0.33333333  0.09523810       0.005
  -0.33333333  0.33333333  0.09523810       0.005
  -0.28571429  0.33333333  0.09523810       0.005
  -0.23809524  0.33333333  0.09523810       0.003
   0.47619048  0.38095238  0.09523810       0.003
  -0.47619048  0.38095238  0.09523810       0.005
  -0.42857143  0.38095238  0.09523810       0.005
  -0.38095238  0.38095238  0.09523810       0.005
  -0.33333333  0.38095238  0.09523810       0.005
  -0.28571429  0.38095238  0.09523810       0.003
  -0.47619048  0.42857143  0.09523810       0.003
  -0.42857143  0.42857143  0.09523810       0.005
  -0.38095238  0.42857143  0.09523810       0.005
  -0.33333333  0.42857143  0.09523810       0.003
  -0.42857143  0.47619048  0.09523810       0.003
  -0.38095238  0.47619048  0.09523810       0.003
   0.42857143  0.28571429  0.14285714       0.003
   0.47619048  0.28571429  0.14285714       0.005
  -0.47619048  0.28571429  0.14285714       0.005
  -0.42857143  0.28571429  0.14285714       0.005
  -0.38095238  0.28571429  0.14285714       0.005
   0.47619048  0.33333333  0.14285714       0.003
  -0.47619048  0.33333333  0.14285714       0.005
  -0.42857143  0.33333333  0.14285714       0.005
  -0.38095238  0.33333333  0.14285714       0.005
  -0.33333333  0.33333333  0.14285714       0.005
  -0.28571429  0.33333333  0.14285714       0.005
  -0.23809524  0.33333333  0.14285714       0.005
  -0.19047619  0.33333333  0.14285714       0.003
  -0.47619048  0.38095238  0.14285714       0.003
  -0.42857143  0.38095238  0.14285714       0.005
  -0.38095238  0.38095238  0.14285714       0.005
  -0.33333333  0.38095238  0.14285714       0.005
  -0.28571429  0.38095238  0.14285714       0.005
  -0.23809524  0.38095238  0.14285714       0.003
  -0.42857143  0.42857143  0.14285714       0.003
  -0.38095238  0.42857143  0.14285714       0.005
  -0.33333333  0.42857143  0.14285714       0.005
  -0.28571429  0.42857143  0.14285714       0.003
  -0.38095238  0.47619048  0.14285714       0.003
  -0.33333333  0.47619048  0.14285714       0.003
  -0.42857143  0.38095238  0.19047619       0.003
  -0.38095238  0.38095238  0.19047619       0.005
  -0.33333333  0.38095238  0.19047619       0.005
  -0.38095238  0.42857143  0.19047619       0.003
  -0.33333333  0.42857143  0.19047619       0.005
  -0.28571429  0.42857143  0.19047619       0.005
  -0.23809524  0.42857143  0.19047619       0.003
  -0.33333333  0.47619048  0.19047619       0.003
  -0.28571429  0.47619048  0.19047619       0.003
  -0.28571429  0.47619048  0.23809524       0.003
 
 position of ions in fractional coordinates (direct lattice) 
   0.00000000  0.00000000  0.00000000
 
 position of ions in cartesian coordinates  (Angst):
   0.00000000  0.00000000  0.00000000
 


--------------------------------------------------------------------------------------------------------


 k-point  1 :   0.0000 0.0000 0.0000  plane waves:     259
 k-point  2 :   0.0476 0.0000 0.0000  plane waves:     271
 k-point  3 :   0.0952 0.0000 0.0000  plane waves:     271
 k-point  4 :   0.1429 0.0000 0.0000  plane waves:     271
 k-point  5 :   0.1905 0.0000 0.0000  plane waves:     271
 k-point  6 :   0.2381 0.0000 0.0000  plane waves:     274
 k-point  7 :   0.2857 0.0000 0.0000  plane waves:     268
 k-point  8 :   0.3333 0.0000 0.0000  plane waves:     256
 k-point  9 :   0.3810 0.0000 0.0000  plane waves:     269
 k-point 10 :   0.4286 0.0000 0.0000  plane waves:     269
 k-point 11 :   0.4762 0.0000 0.0000  plane waves:     266
 k-point 12 :   0.0476 0.0476 0.0000  plane waves:     267
 k-point 13 :   0.0952 0.0476 0.0000  plane waves:     269
 k-point 14 :   0.1429 0.0476 0.0000  plane waves:     271
 k-point 15 :   0.1905 0.0476 0.0000  plane waves:     274
 k-point 16 :   0.2381 0.0476 0.0000  plane waves:     272
 k-point 17 :   0.2857 0.0476 0.0000  plane waves:     269
 k-point 18 :   0.3333 0.0476 0.0000  plane waves:     269
 k-point 19 :   0.3810 0.0476 0.0000  plane waves:     265
 k-point 20 :   0.4286 0.0476 0.0000  plane waves:     265
 k-point 21 :   0.4762 0.0476 0.0000  plane waves:     265
 k-point 22 :  -0.4762 0.0476 0.0000  plane waves:     266
 k-point 23 :  -0.4286 0.0476 0.0000  plane waves:     266
 k-point 24 :  -0.3810 0.0476 0.0000  plane waves:     265
 k-point 25 :  -0.3333 0.0476 0.0000  plane waves:     263
 k-point 26 :  -0.2857 0.0476 0.0000  plane waves:     265
 k-point 27 :  -0.2381 0.0476 0.0000  plane waves:     273
 k-point 28 :  -0.1905 0.0476 0.0000  plane waves:     273
 k-point 29 :  -0.1429 0.0476 0.0000  plane waves:     274
 k-point 30 :  -0.0952 0.0476 0.0000  plane waves:     269
 k-point 31 :  -0.0476 0.0476 0.0000  plane waves:     271
 k-point 32 :   0.0952 0.0952 0.0000  plane waves:     267
 k-point 33 :   0.1429 0.0952 0.0000  plane waves:     271
 k-point 34 :   0.1905 0.0952 0.0000  plane waves:     272
 k-point 35 :   0.2381 0.0952 0.0000  plane waves:     274
 k-point 36 :   0.2857 0.0952 0.0000  plane waves:     273
 k-point 37 :   0.3333 0.0952 0.0000  plane waves:     269
 k-point 38 :   0.3810 0.0952 0.0000  plane waves:     267
 k-point 39 :   0.4286 0.0952 0.0000  plane waves:     268
 k-point 40 :   0.4762 0.0952 0.0000  plane waves:     263
 k-point 41 :  -0.4762 0.0952 0.0000  plane waves:     259
 k-point 42 :  -0.4286 0.0952 0.0000  plane waves:     260
 k-point 43 :  -0.3810 0.0952 0.0000  plane waves:     260
 k-point 44 :  -0.3333 0.0952 0.0000  plane waves:     264
 k-point 45 :  -0.2857 0.0952 0.0000  plane waves:     267
 k-point 46 :  -0.2381 0.0952 0.0000  plane waves:     269
 k-point 47 :  -0.1905 0.0952 0.0000  plane waves:     270
[...]
      1      -2.9719      2.00000
      2       0.6516      2.00000
      3       2.4377      1.57233
      4       4.1026      0.00000
      5      10.3535      0.00000
      6      12.1819      0.00000
      7      14.1216      0.00000
      8      14.9108      0.00000
      9      17.8714      0.00000
     10      20.8190      0.00000
     11      22.2296      0.00000
     12      23.4035      0.00000

 k-point   262 :      -0.2857    0.3333    0.1429
  band No.  band energies     occupation 
      1      -3.1214      2.00000
      2       0.8571      2.00000
      3       2.3901      1.64462
      4       4.2492      0.00000
      5      10.4829      0.00000
      6      12.1645      0.00000
      7      13.6204      0.00000
      8      15.3451      0.00000
      9      17.6817      0.00000
     10      20.5357      0.00000
     11      22.0635      0.00000
     12      24.1454      0.00000

 k-point   263 :      -0.2381    0.3333    0.1429
  band No.  band energies     occupation 
      1      -3.4231      2.00000
      2       1.2409      2.00000
      3       2.4588      1.26804
      4       4.4828      0.00000
      5      10.6122      0.00000
      6      12.0949      0.00000
      7      12.9403      0.00000
      8      16.0013      0.00000
      9      17.2986      0.00000
     10      20.4499      0.00000
     11      22.1245      0.00000
     12      24.0488      0.00000

 k-point   264 :      -0.1905    0.3333    0.1429
  band No.  band energies     occupation 
      1      -3.7893      2.00000
      2       1.6135      2.00000
      3       2.7514      0.01842
      4       4.7788      0.00000
      5      10.6940      0.00000
      6      11.7188      0.00000
      7      12.7501      0.00000
      8      16.4619      0.00000
      9      16.7096      0.00000
     10      20.6240      0.00000
     11      22.2719      0.00000
     12      23.0838      0.00000

 k-point   265 :      -0.4762    0.3810    0.1429
  band No.  band energies     occupation 
      1      -3.4819      2.00000
      2       1.4440      2.00000
      3       3.0681     -0.01607
      4       3.9701      0.00000
      5       9.7360      0.00000
      6      10.2901      0.00000
      7      14.2752      0.00000
      8      17.5067      0.00000
      9      17.9586      0.00000
     10      21.8991      0.00000
     11      22.5045      0.00000
     12      23.3976      0.00000

 k-point   266 :      -0.4286    0.3810    0.1429
  band No.  band energies     occupation 
      1      -3.1468      2.00000
      2       1.1725      2.00000
      3       2.6534      0.37317
      4       3.7308      0.00000
      5       9.8857      0.00000
      6      10.9581      0.00000
      7      13.9892      0.00000
      8      16.8134      0.00000
      9      18.4428      0.00000
     10      21.9783      0.00000
     11      22.4890      0.00000
     12      23.7854      0.00000

 k-point   267 :      -0.3810    0.3810    0.1429
  band No.  band energies     occupation 
      1      -2.8879      2.00000
      2       0.9788      2.00000
      3       2.2698      2.12798
      4       3.6591      0.00000
      5       9.9907      0.00000
      6      11.7736      0.00000
      7      13.7930      0.00000
      8      15.9317      0.00000
      9      18.6186      0.00000
     10      21.9611      0.00000
     11      22.5255      0.00000
     12      23.5742      0.00000

 k-point   268 :      -0.3333    0.3810    0.1429
  band No.  band energies     occupation 
      1      -2.7797      2.00000
      2       0.9468      2.00000
      3       1.9651      2.00000
      4       3.7247      0.00000
      5      10.1312      0.00000
      6      12.4603      0.00000
      7      13.7760      0.00000
      8      15.0685      0.00000
      9      18.5344      0.00000
     10      21.3806      0.00000
     11      22.9138      0.00000
     12      23.7527      0.00000

 k-point   269 :      -0.2857    0.3810    0.1429
  band No.  band energies     occupation 
      1      -2.8626      2.00000
      2       1.0963      2.00000
      3       1.7982      2.00000
      4       3.8979      0.00000
      5      10.3077      0.00000
      6      12.7707      0.00000
      7      13.5729      0.00000
      8      14.8468      0.00000
      9      18.2491      0.00000
     10      20.7909      0.00000
     11      23.0218      0.00000
     12      24.4435      0.00000

 k-point   270 :      -0.2381    0.3810    0.1429
  band No.  band energies     occupation 
      1      -3.1010      2.00000
      2       1.2350      2.00000
      3       1.9444      2.00000
      4       4.1577      0.00000
      5      10.4944      0.00000
      6      12.7819      0.00000
      7      12.8877      0.00000
      8      15.4759      0.00000
      9      17.7645      0.00000
     10      20.4809      0.00000
     11      22.8316      0.00000
     12      24.2772      0.00000

 k-point   271 :      -0.4286    0.4286    0.1429
  band No.  band energies     occupation 
      1      -2.9842      2.00000
      2       1.0055      2.00000
      3       2.8879     -0.13092
      4       3.4880      0.00000
      5       9.4762      0.00000
      6      10.1124      0.00000
      7      14.9973      0.00000
      8      17.2172      0.00000
      9      18.9864      0.00000
     10      22.4885      0.00000
     11      22.9684      0.00000
     12      23.3218      0.00000

 k-point   272 :      -0.3810    0.4286    0.1429
  band No.  band energies     occupation 
      1      -2.7516      2.00000
      2       0.9290      2.00000
      3       2.4166      1.71440
      4       3.3553      0.00000
      5       9.7167      0.00000
      6      10.8383      0.00000
      7      14.7101      0.00000
      8      16.2573      0.00000
      9      19.3116      0.00000
     10      22.4589      0.00000
     11      22.8303      0.00000
     12      23.7580      0.00000

 k-point   273 :      -0.3333    0.4286    0.1429
  band No.  band energies     occupation 
      1      -2.6432      2.00000
      2       1.0235      2.00000
      3       1.9021      2.00000
      4       3.4295      0.00000
      5       9.8890      0.00000
      6      11.7399      0.00000
      7      14.4639      0.00000
      8      15.2712      0.00000
      9      19.2645      0.00000
     10      21.7132      0.00000
     11      23.4899      0.00000
     12      24.1161      0.00000

 k-point   274 :      -0.2857    0.4286    0.1429
  band No.  band energies     occupation 
      1      -2.6872      2.00000
      2       1.2981      2.00000
      3       1.4745      2.00000
      4       3.6193      0.00000
      5      10.0883      0.00000
      6      12.5721      0.00000
      7      14.0363      0.00000
      8      14.6706      0.00000
      9      18.8785      0.00000
     10      21.1307      0.00000
     11      23.8628      0.00000
     12      24.1812      0.00000

 k-point   275 :      -0.3810    0.4762    0.1429
  band No.  band energies     occupation 
      1      -2.6568      2.00000
      2       0.7061      2.00000
      3       2.7973      0.16990
      4       3.2414      0.00000
      5       9.3477      0.00000
      6      10.0231      0.00000
      7      15.7758      0.00000
      8      16.5530      0.00000
      9      19.7757      0.00000
     10      22.5607      0.00000
     11      22.9209      0.00000
     12      23.2172      0.00000

 k-point   276 :      -0.3333    0.4762    0.1429
  band No.  band energies     occupation 
      1      -2.5938      2.00000
      2       0.8283      2.00000
      3       2.3225      1.93556
      4       3.2362      0.00000
      5       9.6594      0.00000
      6      10.7966      0.00000
      7      15.4337      0.00000
      8      15.5560      0.00000
      9      19.7589      0.00000
     10      22.1259      0.00000
     11      23.3307      0.00000
     12      23.7500      0.00000

 k-point   277 :      -0.4286    0.3810    0.1905
  band No.  band energies     occupation 
      1      -3.2984      2.00000
      2       1.3267      2.00000
      3       2.4783      1.17737
      4       3.9910      0.00000
      5      10.5166      0.00000
      6      11.4852      0.00000
      7      13.1289      0.00000
      8      16.5189      0.00000
      9      17.8702      0.00000
     10      21.1936      0.00000
     11      22.5482      0.00000
     12      24.0300      0.00000

 k-point   278 :      -0.3810    0.3810    0.1905
  band No.  band energies     occupation 
      1      -2.9971      2.00000
      2       1.1286      2.00000
      3       2.1818      2.13258
      4       3.7238      0.00000
      5      10.6201      0.00000
      6      12.0520      0.00000
      7      13.0859      0.00000
      8      15.7200      0.00000
      9      18.3355      0.00000
     10      21.3345      0.00000
     11      22.6819      0.00000
     12      24.1341      0.00000

 k-point   279 :      -0.3333    0.3810    0.1905
  band No.  band energies     occupation 
      1      -2.8137      2.00000
      2       0.9708      2.00000
      3       2.0628      2.00001
      4       3.5813      0.00000
      5      10.6472      0.00000
      6      12.3264      0.00000
      7      13.4589      0.00000
      8      14.9296      0.00000
      9      18.5610      0.00000
     10      21.7504      0.00000
     11      22.5338      0.00000
     12      23.6693      0.00000

 k-point   280 :      -0.3810    0.4286    0.1905
  band No.  band energies     occupation 
      1      -2.8685      2.00000
      2       1.1212      2.00000
      3       2.2947      2.04173
      4       3.3456      0.00000
      5      10.3739      0.00000
      6      11.3244      0.00000
      7      13.7165      0.00000
      8      16.0028      0.00000
      9      18.9656      0.00000
     10      22.0951      0.00000
     11      23.1454      0.00000
     12      23.5890      0.00000

 k-point   281 :      -0.3333    0.4286    0.1905
  band No.  band energies     occupation 
      1      -2.6843      2.00000
      2       1.1482      2.00000
      3       1.9498      2.00000
      4       3.1687      0.00000
      5      10.5977      0.00000
      6      12.0163      0.00000
      7      13.5319      0.00000
      8      15.0670      0.00000
      9      19.3055      0.00000
     10      22.5043      0.00000
     11      22.7787      0.00000
     12      23.8475      0.00000

 k-point   282 :      -0.2857    0.4286    0.1905
  band No.  band energies     occupation 
      1      -2.6454      2.00000
      2       1.2699      2.00000
      3       1.6778      2.00000
      4       3.1993      0.00000
      5      10.7149      0.00000
      6      12.6270      0.00000
      7      13.3228      0.00000
      8      14.4907      0.00000
      9      19.2946      0.00000
     10      22.0816      0.00000
     11      23.1599      0.00000
     12      23.9765      0.00000

 k-point   283 :      -0.2381    0.4286    0.1905
  band No.  band energies     occupation 
      1      -2.7623      2.00000
      2       1.2639      2.00000
      3       1.7583      2.00000
      4       3.3961      0.00000
      5      10.7578      0.00000
      6      12.6440      0.00000
      7      12.9499      0.00000
      8      14.9170      0.00000
      9      18.9266      0.00000
     10      21.5765      0.00000
     11      23.4484      0.00000
     12      23.9044      0.00000

 k-point   284 :      -0.3333    0.4762    0.1905
  band No.  band energies     occupation 
      1      -2.6033      2.00000
      2       1.0081      2.00000
      3       2.2022      2.03443
      4       2.9742      0.00000
      5      10.2953      0.00000
      6      11.2444      0.00000
      7      14.4260      0.00000
      8      15.2648      0.00000
      9      19.7890      0.00000
     10      22.8123      0.00000
     11      22.9844      0.00000
     12      23.5720      0.00000

 k-point   285 :      -0.2857    0.4762    0.1905
  band No.  band energies     occupation 
      1      -2.5674      2.00000
      2       1.2037      2.00000
      3       1.8257      2.00000
      4       2.9652      0.00000
      5      10.5827      0.00000
      6      11.9986      0.00000
      7      13.9803      0.00000
      8      14.5415      0.00000
      9      19.7823      0.00000
     10      22.4342      0.00000
     11      23.2944      0.00000
     12      24.0872      0.00000

 k-point   286 :      -0.2857    0.4762    0.2381
  band No.  band energies     occupation 
      1      -2.5700      2.00000
      2       1.3844      2.00000
      3       1.6648      2.00000
      4       2.8738      0.00000
      5      10.9073      0.00000
      6      12.5718      0.00000
      7      13.1919      0.00000
      8      14.3486      0.00000
      9      19.7909      0.00000
     10      22.7621      0.00000
     11      23.0819      0.00000
     12      23.9430      0.00000


--------------------------------------------------------------------------------------------------------


 soft charge-density along one line, spin component           1
         0         1         2         3         4         5         6         7         8         9
 total charge-density along one line
 
 pseudopotential strength for first ion, spin component:           1
 18.881  26.346   0.000   0.000   0.000   0.000   0.000   0.000
 26.346  36.767   0.000   0.000   0.000   0.000   0.000   0.000
  0.000   0.000   4.226  -0.000  -0.000   7.880  -0.000  -0.000
  0.000   0.000  -0.000   4.226  -0.000  -0.000   7.880  -0.000
  0.000   0.000  -0.000  -0.000   4.226  -0.000  -0.000   7.880
  0.000   0.000   7.880  -0.000  -0.000  14.703  -0.000  -0.000
  0.000   0.000  -0.000   7.880  -0.000  -0.000  14.703  -0.000
  0.000   0.000  -0.000  -0.000   7.880  -0.000  -0.000  14.703
 total augmentation occupancy for first ion, spin component:           1
  2.278  -0.345   0.000   0.000   0.000   0.000   0.000   0.000
 -0.345   0.365   0.000   0.000   0.000   0.000   0.000   0.000
  0.000   0.000   1.118   0.000  -0.000  -0.177   0.000  -0.000
  0.000   0.000   0.000   1.118   0.000   0.000  -0.177   0.000
  0.000   0.000  -0.000   0.000   1.118  -0.000  -0.000  -0.177
  0.000   0.000  -0.177  -0.000  -0.000   0.031   0.000   0.000
  0.000   0.000   0.000  -0.177   0.000   0.000   0.031   0.000
  0.000   0.000  -0.000  -0.000  -0.177   0.000   0.000   0.031


------------------------ aborting loop because EDIFF is reached ----------------------------------------


 


 total charge     
 
# of ion       s       p       d       tot
------------------------------------------
    1        0.950   0.498   0.000   1.448
 
    CHARGE:  cpu time    0.0400: real time    0.0401
    FORLOC:  cpu time    0.0001: real time    0.0001
    FORNL :  cpu time    0.0091: real time    0.0091
    STRESS:  cpu time    0.2326: real time    0.2328
    FORCOR:  cpu time    0.0036: real time    0.0036
    FORHAR:  cpu time    0.0008: real time    0.0008
    MIXING:  cpu time    0.0002: real time    0.0002
    OFIELD:  cpu time    0.0000: real time    0.0000

  FORCE on cell =-STRESS in cart. coord.  units (eV):
  Direction    XX          YY          ZZ          XY          YZ          ZX
  --------------------------------------------------------------------------------------
  Alpha Z     1.07722     1.07722     1.07722
  Ewald     -35.21122   -35.21122   -35.21122    -0.00000     0.00000     0.00000
  Hartree     1.24931     1.24931     1.24931     0.00000     0.00000     0.00000
  E(xc)     -11.11258   -11.11258   -11.11258    -0.00000    -0.00000    -0.00000
  Local     -13.24386   -13.24386   -13.24386     0.00001     0.00001     0.00001
  n-local    38.67186    40.22301    38.96395     1.26045    -0.86752    -1.30622
  augment    -6.91228    -6.91228    -6.91228    -0.00001    -0.00001    -0.00001
  Kinetic    17.93542    28.84743    20.09374     5.57992    -4.53514    -8.09938
  Fock        0.00000     0.00000     0.00000     0.00000     0.00000     0.00000
  -------------------------------------------------------------------------------------
  Total      -2.57495    -2.57495    -2.57495    -0.00000     0.00000    -0.00000
  in kB    -132.01659  -132.01659  -132.01659    -0.00000     0.00000    -0.00000
  external pressure =     -132.02 kB  Pullay stress =        0.00 kB


 VOLUME and BASIS-vectors are now :
 -----------------------------------------------------------------------------
  energy-cutoff  :      240.00
  volume of cell :       31.25
      direct lattice vectors                 reciprocal lattice vectors
     2.500000000  2.500000000  0.000000000     0.200000000  0.200000000 -0.200000000
     0.000000000  2.500000000  2.500000000    -0.200000000  0.200000000  0.200000000
     2.500000000  0.000000000  2.500000000     0.200000000 -0.200000000  0.200000000

  length of vectors
     3.535533906  3.535533906  3.535533906     0.346410162  0.346410162  0.346410162


 FORCES acting on ions
    electron-ion (+dipol)            ewald-force                    non-local-force                 convergence-correction
 -----------------------------------------------------------------------------------------------
   0.833E-15 0.982E-15 0.115E-15   0.106E-15 -.272E-15 0.112E-15   0.000E+00 0.000E+00 0.000E+00   0.322E-16 0.308E-15 -.596E-16
 -----------------------------------------------------------------------------------------------
   0.833E-15 0.982E-15 0.115E-15   0.106E-15 -.272E-15 0.112E-15   0.000E+00 0.000E+00 0.000E+00   0.322E-16 0.308E-15 -.596E-16
 
 
 POSITION                                       TOTAL-FORCE (eV/Angst)
 -----------------------------------------------------------------------------------
      0.00000      0.00000      0.00000         0.000000     -0.000000     -0.000000
 -----------------------------------------------------------------------------------
    total drift:                                0.000000      0.000000      0.000000


--------------------------------------------------------------------------------------------------------



  FREE ENERGIE OF THE ION-ELECTRON SYSTEM (eV)
  ---------------------------------------------------
  free  energy   TOTEN  =        -3.57607480 eV

  energy  without entropy=       -3.57607480  energy(sigma->0) =       -3.57607480
 


--------------------------------------------------------------------------------------------------------


    POTLOK:  cpu time    0.0052: real time    0.0052


--------------------------------------------------------------------------------------------------------


 writing wavefunctions
     LOOP+:  cpu time   10.9135: real time   11.0339
    4ORBIT:  cpu time    0.0000: real time    0.0000
 


 total charge     
 
# of ion       s       p       d       tot
------------------------------------------
    1        0.950   0.498   0.000   1.448
 
 BZINTS: Fermi energy:  2.549645;  4.000000 electrons
         Band energy:  -5.539014;  BLOECHL correction: -0.019178

 total amount of memory used by VASP MPI-rank0    37244. kBytes
=======================================================================

   base      :      30000. kBytes
   nonl-proj :       5276. kBytes
   fftplans  :        161. kBytes
   grid      :        432. kBytes
   one-center:          3. kBytes
   wavefun   :       1372. kBytes
 
  
  
 General timing and accounting informations for this job:
 ========================================================
  
                  Total CPU time used (sec):       12.932
                            User time (sec):       12.481
                          System time (sec):        0.452
                         Elapsed time (sec):       13.485
  
                   Maximum memory used (kb):       63544.
                   Average memory used (kb):           0.
  
                          Minor page faults:        25617
                          Major page faults:            0
                 Voluntary context switches:         1269
