cd Si                                   
   5.50000000000000     
     0.000000    0.500000    0.500000
     0.500000    0.000000    0.500000
     0.500000    0.500000    0.000000
   Si
     2
Direct
  0.875000  0.875000  0.875000
  0.125000  0.125000  0.125000
 
   40   40   40
  22.790      22.758      22.640      22.378      21.876      21.027      19.838      18.456      17.144      16.197    
  15.852      16.197      17.144      18.456      19.838      21.027      21.876      22.378      22.640      22.758    
  22.790      22.758      22.640      22.378      21.876      21.027      19.838      18.456      17.144      16.197    
  15.852      16.197      17.144      18.456      19.838      21.027      21.876      22.378      22.640      22.758    
  22.758      22.963      23.013      22.760      22.034      20.782      19.126      17.357      15.862      15.004    
  15.004      15.862      17.357      19.126      20.782      22.034      22.760      23.013      22.963      22.758    
  22.468      22.120      21.703      21.177      20.494      19.608      18.558      17.487      16.599      16.094    
  16.094      16.599      17.487      18.558      19.608      20.494      21.177      21.703      22.120      22.468    
  22.640      23.013      23.065      22.557      21.358      19.532      17.357      15.276      13.774      13.226    
  13.774      15.276      17.357      19.532      21.358      22.557      23.065      23.013      22.640      22.120    
  21.533      20.912      20.252      19.531      18.739      17.878      17.000      16.219      15.674      15.478    
  15.674      16.219      17.000      17.878      18.739      19.531      20.252      20.912      21.533      22.120    
  22.378      22.760      22.557      21.552      19.720      17.283      14.689      12.504      11.254      11.254    
  12.504      14.689      17.283      19.720      21.552      22.557      22.760      22.378      21.703      20.912    
  20.083      19.252      18.424      17.591      16.760      15.963      15.254      14.710      14.413      14.413    
  14.710      15.254      15.963      16.760      17.591      18.424      19.252      20.083      20.912      21.703    
  21.876      22.034      21.358      19.720      17.245      14.327      11.557      9.5672      8.8433      9.5672    
  11.557      14.327      17.245      19.720      21.358      22.034      21.876      21.177      20.252      19.252    
  18.253      17.290      16.374      15.507      14.705      14.001      13.441      13.079      12.953      13.079    
  13.441      14.001      14.705      15.507      16.374      17.290      18.253      19.252      20.252      21.177    
  21.027      20.782      19.532      17.283      14.327      11.208      8.5965      7.1081      7.1081      8.5965    
  11.208      14.327      17.283      19.532      20.782      21.027      20.494      19.531      18.424      17.290    
  16.198      15.179      14.247      13.411      12.686      12.099      11.682      11.465      11.465      11.682    
  12.099      12.686      13.411      14.247      15.179      16.198      17.290      18.424      19.531      20.494    
  19.838      19.126      17.357      14.689      11.557      8.5965      6.4765      5.7064      6.4765      8.5965    
  11.557      14.689      17.357      19.126      19.838      19.608      18.739      17.591      16.374      15.179    
  14.064      13.055      12.166      11.405      10.785      10.322      10.035      9.9380      10.035      10.322    
  10.785      11.405      12.166      13.055      14.064      15.179      16.374      17.591      18.739      19.608    
  18.456      17.357      15.276      12.504      9.5672      7.1081      5.7064      5.7064      7.1081      9.5672    
  12.504      15.276      17.357      18.456      18.558      17.878      16.760      15.507      14.247      13.055    
  11.975      11.027      10.220      9.5610      9.0554      8.7116      8.5374      8.5374      8.7116      9.0554    
  9.5610      10.220      11.027      11.975      13.055      14.247      15.507      16.760      17.878      18.558    
  17.144      15.862      13.774      11.254      8.8433      7.1081      6.4765      7.1081      8.8433      11.254    
  13.774      15.862      17.144      17.487      17.000      15.963      14.705      13.411      12.166      11.027    
  10.024      9.1696      8.4686      7.9214      7.5286      7.2918      7.2127      7.2918      7.5286      7.9214    
  8.4686      9.1696      10.024      11.027      12.166      13.411      14.705      15.963      17.000      17.487    
  16.197      15.004      13.226      11.254      9.5672      8.5965      8.5965      9.5672      11.254      13.226    
  15.004      16.197      16.599      16.219      15.254      14.001      12.686      11.405      10.220      9.1696    
  8.2711      7.5294      6.9426      6.5065      6.2177      6.0739      6.0739      6.2177      6.5065      6.9426    
  7.5294      8.2711      9.1696      10.220      11.405      12.686      14.001      15.254      16.219      16.599    
  15.852      15.004      13.774      12.504      11.557      11.208      11.557      12.504      13.774      15.004    
  15.852      16.094      15.674      14.710      13.441      12.099      10.785      9.5610      8.4686      7.5294    
  6.7496      6.1260      5.6516      5.3188      5.1216      5.0563      5.1216      5.3188      5.6516      6.1260    
  6.7496      7.5294      8.4686      9.5610      10.785      12.099      13.441      14.710      15.674      16.094    
  16.197      15.862      15.276      14.689      14.327      14.327      14.689      15.276      15.862      16.197    
  16.094      15.477      14.413      13.079      11.682      10.322      9.0554      7.9213      6.9426      6.1260    
  5.4679      4.9589      4.5884      4.3470      4.2280      4.2280      4.3470      4.5884      4.9589      5.4679    
  6.1260      6.9426      7.9214      9.0554      10.322      11.682      13.079      14.413      15.478      16.094    
  17.144      17.357      17.357      17.283      17.245      17.283      17.357      17.357      17.144      16.599    
  15.674      14.413      12.953      11.465      10.035      8.7116      7.5286      6.5065      5.6516      4.9589    
  4.4173      4.0133      3.7344      3.5711      3.5173      3.5711      3.7344      4.0133      4.4173      4.9589    
  5.6516      6.5065      7.5286      8.7116      10.035      11.465      12.953      14.413      15.674      16.599    
  18.456      19.126      19.532      19.720      19.720      19.532      19.126      18.456      17.487      16.219    
  14.710      13.079      11.465      9.9380      8.5374      7.2918      6.2177      5.3188      4.5884      4.0133    
  3.5773      3.2651      3.0642      2.9658      2.9658      3.0641      3.2651      3.5773      4.0133      4.5884    
  5.3188      6.2177      7.2918      8.5374      9.9380      11.465      13.079      14.710      16.219      17.487    
  19.838      20.782      21.358      21.552      21.358      20.782      19.838      18.558      17.000      15.254    
  13.441      11.682      10.035      8.5374      7.2127      6.0739      5.1216      4.3470      3.7344      3.2651    
  2.9209      2.6862      2.5499      2.5052      2.5499      2.6862      2.9209      3.2651      3.7344      4.3470    
  5.1216      6.0739      7.2127      8.5374      10.035      11.682      13.441      15.254      17.000      18.558    
  21.027      22.034      22.557      22.557      22.034      21.027      19.608      17.878      15.963      14.001    
  12.099      10.322      8.7116      7.2918      6.0739      5.0563      4.2280      3.5711      3.0641      2.6862    
  2.4190      2.2485      2.1655      2.1655      2.2485      2.4190      2.6862      3.0641      3.5711      4.2280    
  5.0563      6.0739      7.2918      8.7116      10.322      12.099      14.001      15.963      17.878      19.608    
  21.876      22.760      23.065      22.760      21.876      20.494      18.739      16.760      14.705      12.686    
  10.785      9.0554      7.5286      6.2177      5.1216      4.2280      3.5173      2.9658      2.5499      2.2485    
  2.0449      1.9272      1.8887      1.9272      2.0449      2.2485      2.5499      2.9658      3.5173      4.2280    
  5.1216      6.2177      7.5286      9.0554      10.785      12.686      14.705      16.760      18.739      20.494    
  22.378      23.013      23.013      22.378      21.177      19.531      17.591      15.507      13.411      11.405    
  9.5610      7.9213      6.5065      5.3188      4.3470      3.5711      2.9658      2.5052      2.1655      1.9272    
  1.7759      1.7024      1.7024      1.7759      1.9272      2.1655      2.5052      2.9658      3.5711      4.3470    
  5.3188      6.5065      7.9214      9.5610      11.405      13.411      15.507      17.591      19.531      21.177    
  22.640      22.963      22.640      21.703      20.252      18.424      16.374      14.247      12.166      10.220    
  8.4686      6.9426      5.6516      4.5884      3.7344      3.0641      2.5499      2.1655      1.8887      1.7024    
  1.5950      1.5599      1.5950      1.7024      1.8887      2.1655      2.5499      3.0642      3.7344      4.5884    
  5.6516      6.9426      8.4686      10.220      12.166      14.247      16.374      18.424      20.252      21.703    
  22.758      22.758      22.120      20.912      19.252      17.290      15.179      13.055      11.027      9.1696    
  7.5294      6.1260      4.9589      4.0133      3.2651      2.6862      2.2485      1.9272      1.7024      1.5599    
  1.4908      1.4908      1.5599      1.7024      1.9272      2.2485      2.6862      3.2651      4.0133      4.9589    
  6.1260      7.5294      9.1696      11.027      13.055      15.179      17.290      19.252      20.912      22.120    
  22.790      22.468      21.533      20.083      18.253      16.198      14.064      11.975      10.024      8.2711    
  6.7496      5.4679      4.4173      3.5773      2.9209      2.4190      2.0449      1.7759      1.5950      1.4908    
  1.4567      1.4908      1.5950      1.7759      2.0449      2.4190      2.9209      3.5773      4.4173      5.4679    
  6.7496      8.2711      10.024      11.975      14.064      16.198      18.253      20.083      21.533      22.468    
  22.758      22.120      20.912      19.252      17.290      15.179      13.055      11.027      9.1696      7.5294    
  6.1260      4.9589      4.0133      3.2651      2.6862      2.2485      1.9272      1.7024      1.5599      1.4908    
  1.4908      1.5599      1.7024      1.9272      2.2485      2.6862      3.2651      4.0133      4.9589      6.1260    
  7.5294      9.1696      11.027      13.055      15.179      17.290      19.252      20.912      22.120      22.758    
  22.640      21.703      20.252      18.424      16.374      14.247      12.166      10.220      8.4686      6.9426    
  5.6516      4.5884      3.7344      3.0642      2.5499      2.1655      1.8887      1.7024      1.5950      1.5599    
  1.5950      1.7024      1.8887      2.1655      2.5499      3.0641      3.7344      4.5884      5.6516      6.9426    
  8.4686      10.220      12.166      14.247      16.374      18.424      20.252      21.703      22.640      22.963    
  22.378      21.177      19.531      17.591      15.507      13.411      11.405      9.5610      7.9214      6.5065    
  5.3188      4.3470      3.5711      2.9658      2.5052      2.1655      1.9272      1.7759      1.7024      1.7024    
  1.7759      1.9272      2.1655      2.5052      2.9658      3.5711      4.3470      5.3188      6.5065      7.9213    
  9.5610      11.405      13.411      15.507      17.591      19.531      21.177      22.378      23.013      23.013    
  21.876      20.494      18.739      16.760      14.705      12.686      10.785      9.0554      7.5286      6.2177    
  5.1216      4.2280      3.5173      2.9658      2.5499      2.2485      2.0449      1.9272      1.8887      1.9272    
  2.0449      2.2485      2.5499      2.9658      3.5173      4.2280      5.1216      6.2177      7.5286      9.0554    
  10.785      12.686      14.705      16.760      18.739      20.494      21.876      22.760      23.065      22.760    
  21.027      19.608      17.878      15.963      14.001      12.099      10.322      8.7116      7.2918      6.0739    
  5.0563      4.2280      3.5711      3.0641      2.6862      2.4190      2.2485      2.1655      2.1655      2.2485    
  2.4190      2.6862      3.0641      3.5711      4.2280      5.0563      6.0739      7.2918      8.7116      10.322    
  12.099      14.001      15.963      17.878      19.608      21.027      22.034      22.557      22.557      22.034    
  19.838      18.558      17.000      15.254      13.441      11.682      10.035      8.5374      7.2127      6.0739    
  5.1216      4.3470      3.7344      3.2651      2.9209      2.6862      2.5499      2.5052      2.5499      2.6862    
  2.9209      3.2651      3.7344      4.3470      5.1216      6.0739      7.2127      8.5374      10.035      11.682    
  13.441      15.254      17.000      18.558      19.838      20.782      21.358      21.552      21.358      20.782    
  18.456      17.487      16.219      14.710      13.079      11.465      9.9380      8.5374      7.2918      6.2177    
  5.3188      4.5884      4.0133      3.5773      3.2651      3.0641      2.9658      2.9658      3.0642      3.2651    
  3.5773      4.0133      4.5884      5.3188      6.2177      7.2918      8.5374      9.9380      11.465      13.079    
  14.710      16.219      17.487      18.456      19.126      19.532      19.720      19.720      19.532      19.126    
  17.144      16.599      15.674      14.413      12.953      11.465      10.035      8.7116      7.5286      6.5065    
  5.6516      4.9589      4.4173      4.0133      3.7344      3.5711      3.5173      3.5711      3.7344      4.0133    
  4.4173      4.9589      5.6516      6.5065      7.5286      8.7116      10.035      11.465      12.953      14.413    
  15.674      16.599      17.144      17.357      17.357      17.283      17.245      17.283      17.357      17.357    
  16.197      16.094      15.478      14.413      13.079      11.682      10.322      9.0554      7.9214      6.9426    
  6.1260      5.4679      4.9589      4.5884      4.3470      4.2280      4.2280      4.3470      4.5884      4.9589    
  5.4679      6.1260      6.9426      7.9213      9.0554      10.322      11.682      13.079      14.413      15.477    
  16.094      16.197      15.862      15.276      14.689      14.327      14.327      14.689      15.276      15.862    
  15.852      16.094      15.674      14.710      13.441      12.099      10.785      9.5610      8.4686      7.5294    
  6.7496      6.1260      5.6516      5.3188      5.1216      5.0563      5.1216      5.3188      5.6516      6.1260    
  6.7496      7.5294      8.4686      9.5610      10.785      12.099      13.441      14.710      15.674      16.094    
  15.852      15.004      13.774      12.504      11.557      11.208      11.557      12.504      13.774      15.004    
  16.197      16.599      16.219      15.254      14.001      12.686      11.405      10.220      9.1696      8.2711    
  7.5294      6.9426      6.5065      6.2177      6.0739      6.0739      6.2177      6.5065      6.9426      7.5294    
  8.2711      9.1696      10.220      11.405      12.686      14.001      15.254      16.219      16.599      16.197    
  15.004      13.226      11.254      9.5672      8.5965      8.5965      9.5672      11.254      13.226      15.004    
  17.144      17.487      17.000      15.963      14.705      13.411      12.166      11.027      10.024      9.1696    
  8.4686      7.9214      7.5286      7.2918      7.2127      7.2918      7.5286      7.9214      8.4686      9.1696    
  10.024      11.027      12.166      13.411      14.705      15.963      17.000      17.487      17.144      15.862    
  13.774      11.254      8.8433      7.1081      6.4765      7.1081      8.8433      11.254      13.774      15.862    
  18.456      18.558      17.878      16.760      15.507      14.247      13.055      11.975      11.027      10.220    
  9.5610      9.0554      8.7116      8.5374      8.5374      8.7116      9.0554      9.5610      10.220      11.027    
  11.975      13.055      14.247      15.507      16.760      17.878      18.558      18.456      17.357      15.276    
  12.504      9.5672      7.1081      5.7064      5.7064      7.1081      9.5672      12.504      15.276      17.357    
  19.838      19.608      18.739      17.591      16.374      15.179      14.064      13.055      12.166      11.405    
  10.785      10.322      10.035      9.9380      10.035      10.322      10.785      11.405      12.166      13.055    
  14.064      15.179      16.374      17.591      18.739      19.608      19.838      19.126      17.357      14.689    
  11.557      8.5965      6.4765      5.7064      6.4765      8.5965      11.557      14.689      17.357      19.126    
  21.027      20.494      19.531      18.424      17.290      16.198      15.179      14.247      13.411      12.686    
  12.099      11.682      11.465      11.465      11.682      12.099      12.686      13.411      14.247      15.179    
  16.198      17.290      18.424      19.531      20.494      21.027      20.782      19.532      17.283      14.327    
  11.208      8.5965      7.1081      7.1081      8.5965      11.208      14.327      17.283      19.532      20.782    
  21.876      21.177      20.252      19.252      18.253      17.290      16.374      15.507      14.705      14.001    
  13.441      13.079      12.953      13.079      13.441      14.001      14.705      15.507      16.374      17.290    
  18.253      19.252      20.252      21.177      21.876      22.034      21.358      19.720      17.245      14.327    
  11.557      9.5672      8.8433      9.5672      11.557      14.327      17.245      19.720      21.358      22.034    
  22.378      21.703      20.912      20.083      19.252      18.424      17.591      16.760      15.963      15.254    
  14.710      14.413      14.413      14.710      15.254      15.963      16.760      17.591      18.424      19.252    
  20.083      20.912      21.703      22.378      22.760      22.557      21.552      19.720      17.283      14.689    
  12.504      11.254      11.254      12.504      14.689      17.283      19.720      21.552      22.557      22.760    
  22.640      22.120      21.533      20.912      20.252      19.531      18.739      17.878      17.000      16.219    
  15.674      15.478      15.674      16.219      17.000      17.878      18.739      19.531      20.252      20.912    
  21.533      22.120      22.640      23.013      23.065      22.557      21.358      19.532      17.357      15.276    
  13.774      13.226      13.774      15.276      17.357      19.532      21.358      22.557      23.065      23.013    
  22.758      22.468      22.120      21.703      21.177      20.494      19.608      18.558      17.487      16.599    
  16.094      16.094      16.599      17.487      18.558      19.608      20.494      21.177      21.703      22.120    
  22.468      22.758      22.963      23.013      22.760      22.034      20.782      19.126      17.357      15.862    
  15.004      15.004      15.862      17.357      19.126      20.782      22.034      22.760      23.013      22.963    
  22.758      22.963      23.013      22.760      22.034      20.782      19.126      17.357      15.862      15.004    
  15.004      15.862      17.357      19.126      20.782      22.034      22.760      23.013      22.963      22.758    
  22.468      22.120      21.703      21.177      20.494      19.608      18.558      17.487      16.599      16.094    
  16.094      16.599      17.487      18.558      19.608      20.494      21.177      21.703      22.120      22.468    
  22.963      23.341      23.382      22.841      21.584      19.680      17.419      15.259      13.701      13.133    
  13.701      15.259      17.419      19.680      21.584      22.841      23.382      23.341      22.963      22.436    
  21.839      21.208      20.538      19.805      18.997      18.114      17.210      16.405      15.842      15.639    
  15.842      16.405      17.210      18.114      18.997      19.805      20.538      21.208      21.839      22.436    
  23.013      23.382      23.116      21.991      19.987      17.345      14.544      12.192      10.848      10.848    
  12.192      14.544      17.345      19.987      21.991      23.116      23.382      23.013      22.318      21.502    
  20.648      19.792      18.937      18.076      17.215      16.383      15.639      15.066      14.752      14.752    
  15.066      15.639      16.383      17.215      18.076      18.937      19.792      20.648      21.502      22.318    
  22.760      22.841      21.991      20.084      17.267      13.980      10.877      8.6544      7.8468      8.6544    
  10.877      13.980      17.267      20.084      21.991      22.841      22.760      22.062      21.097      20.054    
  19.010      18.004      17.045      16.135      15.290      14.544      13.950      13.564      13.429      13.564    
  13.950      14.544      15.290      16.135      17.045      18.004      19.010      20.054      21.097      22.062    
  22.034      21.584      19.987      17.267      13.768      10.115      7.0753      5.3477      5.3477      7.0753    
  10.115      13.768      17.267      19.987      21.584      22.034      21.576      20.589      19.424      18.227    
  17.073      15.996      15.007      14.117      13.343      12.713      12.263      12.028      12.028      12.263    
  12.713      13.343      14.117      15.007      15.996      17.073      18.227      19.424      20.589      21.576    
  20.782      19.680      17.345      13.980      10.115      6.5008      3.9282      2.9961      3.9282      6.5008    
  10.115      13.980      17.345      19.680      20.782      20.758      19.938      18.739      17.449      16.177    
  14.987      13.909      12.955      12.136      11.465      10.963      10.650      10.544      10.650      10.963    
  11.465      12.136      12.955      13.909      14.987      16.177      17.449      18.739      19.938      20.758    
  19.126      17.419      14.544      10.877      7.0753      3.9282      2.1448      2.1448      3.9282      7.0753    
  10.877      14.544      17.419      19.126      19.612      19.104      17.992      16.670      15.327      14.049    
  12.887      11.864      10.991      10.274      9.7223      9.3458      9.1545      9.1545      9.3458      9.7223    
  10.274      10.991      11.864      12.887      14.049      15.327      16.670      17.992      19.104      19.612    
  17.357      15.259      12.192      8.6544      5.3477      2.9961      2.1448      2.9961      5.3477      8.6544    
  12.192      15.259      17.357      18.280      18.122      17.193      15.898      14.527      13.194      11.966    
  10.880      9.9520      9.1873      8.5880      8.1565      7.8957      7.8084      7.8957      8.1565      8.5880    
  9.1873      9.9520      10.880      11.966      13.194      14.527      15.898      17.193      18.122      18.280    
  15.862      13.701      10.848      7.8468      5.3477      3.9282      3.9282      5.3477      7.8468      10.848    
  13.701      15.862      17.014      17.121      16.387      15.163      13.793      12.432      11.159      10.021    
  9.0429      8.2322      7.5884      7.1084      6.7897      6.6307      6.6307      6.7897      7.1084      7.5884    
  8.2322      9.0429      10.021      11.159      12.432      13.793      15.163      16.387      17.121      17.014    
  15.004      13.133      10.848      8.6544      7.0753      6.5008      7.0753      8.6544      10.848      13.133    
  15.004      16.102      16.293      15.675      14.517      13.152      11.776      10.471      9.2936      8.2730    
  7.4208      6.7364      6.2140      5.8466      5.6284      5.5561      5.6284      5.8466      6.2140      6.7364    
  7.4208      8.2730      9.2936      10.471      11.776      13.152      14.517      15.675      16.293      16.102    
  15.004      13.701      12.192      10.877      10.115      10.115      10.877      12.192      13.701      15.004    
  15.769      15.822      15.179      14.027      12.646      11.248      9.9147      8.7023      7.6442      6.7546    
  6.0337      5.4739      5.0652      4.7984      4.6667      4.6667      4.7984      5.0652      5.4739      6.0337    
  6.7546      7.6442      8.7023      9.9147      11.248      12.646      14.027      15.179      15.822      15.769    
  15.862      15.259      14.544      13.980      13.768      13.980      14.544      15.259      15.862      16.102    
  15.822      15.001      13.760      12.320      10.875      9.5019      8.2512      7.1556      6.2299      5.4746    
  4.8811      4.4368      4.1294      3.9490      3.8896      3.9490      4.1294      4.4368      4.8811      5.4746    
  6.2299      7.1556      8.2512      9.5019      10.875      12.320      13.760      15.001      15.822      16.102    
  17.357      17.419      17.345      17.267      17.267      17.345      17.419      17.357      17.014      16.293    
  15.179      13.760      12.207      10.681      9.2470      7.9459      6.8064      5.8416      5.0510      4.4247    
  3.9479      3.6056      3.3848      3.2767      3.2767      3.3848      3.6056      3.9479      4.4247      5.0510    
  5.8416      6.8064      7.9459      9.2470      10.681      12.207      13.760      15.179      16.293      17.014    
  19.126      19.680      19.987      20.084      19.987      19.680      19.126      18.280      17.121      15.675    
  14.027      12.320      10.681      9.1606      7.7917      6.5967      5.5853      4.7548      4.0936      3.5847    
  3.2102      2.9544      2.8057      2.7569      2.8057      2.9544      3.2102      3.5847      4.0936      4.7548    
  5.5853      6.5967      7.7917      9.1606      10.681      12.320      14.027      15.675      17.121      18.280    
  20.782      21.584      21.991      21.991      21.584      20.782      19.612      18.122      16.387      14.517    
  12.646      10.875      9.2470      7.7917      6.5267      5.4578      4.5797      3.8784      3.3345      2.9278    
  2.6396      2.4555      2.3659      2.3659      2.4555      2.6396      2.9278      3.3345      3.8784      4.5797    
  5.4578      6.5267      7.7917      9.2470      10.875      12.646      14.517      16.387      18.122      19.612    
  22.034      22.841      23.116      22.841      22.034      20.758      19.104      17.193      15.163      13.152    
  11.248      9.5019      7.9459      6.5967      5.4578      4.5218      3.7724      3.1882      2.7463      2.4254    
  2.2083      2.0828      2.0418      2.0828      2.2083      2.4254      2.7463      3.1882      3.7724      4.5218    
  5.4578      6.5967      7.9459      9.5019      11.248      13.152      15.163      17.193      19.104      20.758    
  22.760      23.382      23.382      22.760      21.576      19.938      17.992      15.898      13.793      11.776    
  9.9147      8.2512      6.8064      5.5853      4.5797      3.7724      3.1401      2.6575      2.3010      2.0507    
  1.8917      1.8145      1.8145      1.8917      2.0507      2.3010      2.6575      3.1401      3.7724      4.5797    
  5.5853      6.8064      8.2512      9.9147      11.776      13.793      15.898      17.992      19.938      21.576    
  23.013      23.341      23.013      22.062      20.589      18.739      16.670      14.527      12.432      10.471    
  8.7023      7.1556      5.8416      4.7548      3.8784      3.1882      2.6575      2.2603      1.9740      1.7813    
  1.6701      1.6338      1.6701      1.7813      1.9740      2.2603      2.6575      3.1882      3.8784      4.7548    
  5.8416      7.1556      8.7023      10.471      12.432      14.528      16.670      18.739      20.589      22.062    
  22.963      22.963      22.318      21.097      19.424      17.449      15.327      13.194      11.159      9.2936    
  7.6442      6.2299      5.0510      4.0936      3.3345      2.7463      2.3010      1.9740      1.7451      1.6001    
  1.5297      1.5297      1.6001      1.7452      1.9740      2.3010      2.7463      3.3345      4.0936      5.0510    
  6.2299      7.6442      9.2936      11.159      13.194      15.327      17.449      19.424      21.097      22.318    
  22.758      22.436      21.502      20.054      18.227      16.177      14.049      11.966      10.021      8.2730    
  6.7546      5.4746      4.4247      3.5847      2.9278      2.4254      2.0507      1.7813      1.6001      1.4957    
  1.4616      1.4957      1.6001      1.7813      2.0507      2.4254      2.9278      3.5847      4.4247      5.4746    
  6.7546      8.2730      10.021      11.966      14.049      16.177      18.227      20.054      21.502      22.436    
  22.468      21.839      20.648      19.010      17.073      14.987      12.887      10.880      9.0429      7.4208    
  6.0337      4.8811      3.9479      3.2102      2.6396      2.2083      1.8917      1.6701      1.5297      1.4616    
  1.4615      1.5297      1.6701      1.8917      2.2083      2.6396      3.2102      3.9479      4.8811      6.0337    
  7.4208      9.0429      10.880      12.887      14.987      17.073      19.010      20.648      21.839      22.468    
  22.120      21.208      19.792      18.004      15.996      13.909      11.864      9.9520      8.2322      6.7364    