<?xml version="1.0" encoding="ISO-8859-1"?>
<modeling>
 <generator>
  <i name="program" type="string">vasp </i>
  <i name="version" type="string">5.4.4.18Apr17-6-g9f103f2a35  </i>
  <i name="subversion" type="string">(build Mar 30 2023 15:39:25) complex            parallel </i>
  <i name="platform" type="string">LinuxIFC </i>
  <i name="date" type="string">2023 05 02 </i>
  <i name="time" type="string">16:58:59 </i>
 </generator>
 <incar>
  <i type="string" name="SYSTEM"> cd Si</i>
  <i type="int" name="ISTART">     0</i>
  <i type="string" name="PREC">accurate</i>
  <i type="int" name="ICHARG">     2</i>
  <i type="int" name="IBRION">     2</i>
  <i name="EDIFF">      0.00000100</i>
  <i name="EDIFFG">     -0.00000100</i>
  <i type="int" name="NSW">    10</i>
  <i type="int" name="ISIF">     2</i>
  <i name="ENCUT">    240.00000000</i>
  <i type="int" name="ISMEAR">     0</i>
  <i name="SIGMA">      0.10000000</i>
  <v type="int" name="KPOINT_BSE">    -1     0     0     0</v>
 </incar>
 <structure name="primitive_cell" >
  <crystal>
   <varray name="basis" >
    <v>       0.00000000       2.75000000       2.75000000 </v>
    <v>       2.75000000       0.00000000       2.75000000 </v>
    <v>       2.75000000       2.75000000       0.00000000 </v>
   </varray>
   <i name="volume">     41.59375000 </i>
   <varray name="rec_basis" >
    <v>      -0.18181818       0.18181818       0.18181818 </v>
    <v>       0.18181818      -0.18181818       0.18181818 </v>
    <v>       0.18181818       0.18181818      -0.18181818 </v>
   </varray>
  </crystal>
  <varray name="positions" >
   <v>      -0.12500000      -0.12500000      -0.12500000 </v>
   <v>       0.12500000       0.12500000       0.12500000 </v>
  </varray>
 </structure>
 <varray name="primitive_index" >
  <v type="int" >        1 </v>
  <v type="int" >        2 </v>
 </varray>
 <kpoints>
  <generation param="Monkhorst-Pack">
   <v type="int" name="divisions">      21       21       21 </v>
   <v name="usershift">      0.00000000       0.00000000       0.00000000 </v>
   <v name="genvec1">      0.04761905       0.00000000       0.00000000 </v>
   <v name="genvec2">      0.00000000       0.04761905       0.00000000 </v>
   <v name="genvec3">      0.00000000       0.00000000       0.04761905 </v>
   <v name="shift">      0.00000000       0.00000000       0.00000000 </v>
  </generation>
  <varray name="kpointlist" >
   <v>       0.00000000       0.00000000       0.00000000 </v>
   <v>       0.04761905       0.00000000       0.00000000 </v>
   <v>       0.09523810       0.00000000       0.00000000 </v>
   <v>       0.14285714       0.00000000       0.00000000 </v>
   <v>       0.19047619       0.00000000       0.00000000 </v>
   <v>       0.23809524       0.00000000       0.00000000 </v>
   <v>       0.28571429       0.00000000       0.00000000 </v>
   <v>       0.33333333       0.00000000       0.00000000 </v>
   <v>       0.38095238       0.00000000       0.00000000 </v>
   <v>       0.42857143       0.00000000       0.00000000 </v>
   <v>       0.47619048       0.00000000       0.00000000 </v>
   <v>       0.04761905       0.04761905       0.00000000 </v>
   <v>       0.09523810       0.04761905       0.00000000 </v>
   <v>       0.14285714       0.04761905       0.00000000 </v>
   <v>       0.19047619       0.04761905       0.00000000 </v>
   <v>       0.23809524       0.04761905       0.00000000 </v>
   <v>       0.28571429       0.04761905       0.00000000 </v>
   <v>       0.33333333       0.04761905       0.00000000 </v>
   <v>       0.38095238       0.04761905       0.00000000 </v>
   <v>       0.42857143       0.04761905       0.00000000 </v>
   <v>       0.47619048       0.04761905       0.00000000 </v>
   <v>      -0.47619048       0.04761905       0.00000000 </v>
   <v>      -0.42857143       0.04761905       0.00000000 </v>
   <v>      -0.38095238       0.04761905       0.00000000 </v>
   <v>      -0.33333333       0.04761905       0.00000000 </v>
   <v>      -0.28571429       0.04761905       0.00000000 </v>
   <v>      -0.23809524       0.04761905       0.00000000 </v>
   <v>      -0.19047619       0.04761905       0.00000000 </v>
   <v>      -0.14285714       0.04761905       0.00000000 </v>
   <v>      -0.09523810       0.04761905       0.00000000 </v>
   <v>      -0.04761905       0.04761905       0.00000000 </v>
   <v>       0.09523810       0.09523810       0.00000000 </v>
   <v>       0.14285714       0.09523810       0.00000000 </v>
   <v>       0.19047619       0.09523810       0.00000000 </v>
   <v>       0.23809524       0.09523810       0.00000000 </v>
   <v>       0.28571429       0.09523810       0.00000000 </v>
   <v>       0.33333333       0.09523810       0.00000000 </v>
   <v>       0.38095238       0.09523810       0.00000000 </v>
   <v>       0.42857143       0.09523810       0.00000000 </v>
   <v>       0.47619048       0.09523810       0.00000000 </v>
   <v>      -0.47619048       0.09523810       0.00000000 </v>
   <v>      -0.42857143       0.09523810       0.00000000 </v>
   <v>      -0.38095238       0.09523810       0.00000000 </v>
   <v>      -0.33333333       0.09523810       0.00000000 </v>
   <v>      -0.28571429       0.09523810       0.00000000 </v>
   <v>      -0.23809524       0.09523810       0.00000000 </v>
   <v>      -0.19047619       0.09523810       0.00000000 </v>
   <v>      -0.14285714       0.09523810       0.00000000 </v>
   <v>      -0.09523810       0.09523810       0.00000000 </v>
   <v>       0.14285714       0.14285714       0.00000000 </v>
   <v>       0.19047619       0.14285714       0.00000000 </v>
   <v>       0.23809524       0.14285714       0.00000000 </v>
   <v>       0.28571429       0.14285714       0.00000000 </v>
   <v>       0.33333333       0.14285714       0.00000000 </v>
   <v>       0.38095238       0.14285714       0.00000000 </v>
   <v>       0.42857143       0.14285714       0.00000000 </v>
   <v>       0.47619048       0.14285714       0.00000000 </v>
   <v>      -0.47619048       0.14285714       0.00000000 </v>
   <v>      -0.42857143       0.14285714       0.00000000 </v>
   <v>      -0.38095238       0.14285714       0.00000000 </v>
   <v>      -0.33333333       0.14285714       0.00000000 </v>
   <v>      -0.28571429       0.14285714       0.00000000 </v>
   <v>      -0.23809524       0.14285714       0.00000000 </v>
   <v>      -0.19047619       0.14285714       0.00000000 </v>
   <v>      -0.14285714       0.14285714       0.00000000 </v>
   <v>       0.19047619       0.19047619       0.00000000 </v>
   <v>       0.23809524       0.19047619       0.00000000 </v>
   <v>       0.28571429       0.19047619       0.00000000 </v>
   <v>       0.33333333       0.19047619       0.00000000 </v>
   <v>       0.38095238       0.19047619       0.00000000 </v>
   <v>       0.42857143       0.19047619       0.00000000 </v>
   <v>       0.47619048       0.19047619       0.00000000 </v>
   <v>      -0.47619048       0.19047619       0.00000000 </v>
   <v>      -0.42857143       0.19047619       0.00000000 </v>
   <v>      -0.38095238       0.19047619       0.00000000 </v>
   <v>      -0.33333333       0.19047619       0.00000000 </v>
   <v>      -0.28571429       0.19047619       0.00000000 </v>
   <v>      -0.23809524       0.19047619       0.00000000 </v>
   <v>      -0.19047619       0.19047619       0.00000000 </v>
   <v>       0.23809524       0.23809524       0.00000000 </v>
   <v>       0.28571429       0.23809524       0.00000000 </v>
   <v>       0.33333333       0.23809524       0.00000000 </v>
   <v>       0.38095238       0.23809524       0.00000000 </v>
   <v>       0.42857143       0.23809524       0.00000000 </v>
   <v>       0.47619048       0.23809524       0.00000000 </v>
   <v>      -0.47619048       0.23809524       0.00000000 </v>
   <v>      -0.42857143       0.23809524       0.00000000 </v>
   <v>      -0.38095238       0.23809524       0.00000000 </v>
   <v>      -0.33333333       0.23809524       0.00000000 </v>
   <v>      -0.28571429       0.23809524       0.00000000 </v>
   <v>      -0.23809524       0.23809524       0.00000000 </v>
   <v>       0.28571429       0.28571429       0.00000000 </v>
   <v>       0.33333333       0.28571429       0.00000000 </v>
   <v>       0.38095238       0.28571429       0.00000000 </v>
   <v>       0.42857143       0.28571429       0.00000000 </v>
   <v>       0.47619048       0.28571429       0.00000000 </v>
   <v>      -0.47619048       0.28571429       0.00000000 </v>
   <v>      -0.42857143       0.28571429       0.00000000 </v>
   <v>      -0.38095238       0.28571429       0.00000000 </v>
   <v>      -0.33333333       0.28571429       0.00000000 </v>
   <v>      -0.28571429       0.28571429       0.00000000 </v>
   <v>       0.33333333       0.33333333       0.00000000 </v>
   <v>       0.38095238       0.33333333       0.00000000 </v>
   <v>       0.42857143       0.33333333       0.00000000 </v>
   <v>       0.47619048       0.33333333       0.00000000 </v>
   <v>      -0.47619048       0.33333333       0.00000000 </v>
   <v>      -0.42857143       0.33333333       0.00000000 </v>
   <v>      -0.38095238       0.33333333       0.00000000 </v>
   <v>      -0.33333333       0.33333333       0.00000000 </v>
   <v>       0.38095238       0.38095238       0.00000000 </v>
   <v>       0.42857143       0.38095238       0.00000000 </v>
   <v>       0.47619048       0.38095238       0.00000000 </v>
   <v>      -0.47619048       0.38095238       0.00000000 </v>
   <v>      -0.42857143       0.38095238       0.00000000 </v>
   <v>      -0.38095238       0.38095238       0.00000000 </v>
   <v>       0.42857143       0.42857143       0.00000000 </v>
   <v>       0.47619048       0.42857143       0.00000000 </v>
   <v>      -0.47619048       0.42857143       0.00000000 </v>
   <v>      -0.42857143       0.42857143       0.00000000 </v>
   <v>       0.47619048       0.47619048       0.00000000 </v>
   <v>      -0.47619048       0.47619048       0.00000000 </v>
   <v>       0.14285714       0.09523810       0.04761905 </v>
   <v>       0.19047619       0.09523810       0.04761905 </v>
   <v>       0.23809524       0.09523810       0.04761905 </v>
   <v>       0.28571429       0.09523810       0.04761905 </v>
   <v>       0.33333333       0.09523810       0.04761905 </v>
   <v>       0.38095238       0.09523810       0.04761905 </v>
   <v>       0.42857143       0.09523810       0.04761905 </v>
   <v>       0.47619048       0.09523810       0.04761905 </v>
   <v>      -0.47619048       0.09523810       0.04761905 </v>
   <v>       0.19047619       0.14285714       0.04761905 </v>
   <v>       0.23809524       0.14285714       0.04761905 </v>
   <v>       0.28571429       0.14285714       0.04761905 </v>
   <v>       0.33333333       0.14285714       0.04761905 </v>
   <v>       0.38095238       0.14285714       0.04761905 </v>
   <v>       0.42857143       0.14285714       0.04761905 </v>
   <v>       0.47619048       0.14285714       0.04761905 </v>
   <v>      -0.47619048       0.14285714       0.04761905 </v>
   <v>      -0.42857143       0.14285714       0.04761905 </v>
   <v>      -0.38095238       0.14285714       0.04761905 </v>
   <v>      -0.33333333       0.14285714       0.04761905 </v>
   <v>      -0.28571429       0.14285714       0.04761905 </v>
   <v>      -0.23809524       0.14285714       0.04761905 </v>
   <v>      -0.19047619       0.14285714       0.04761905 </v>
   <v>      -0.14285714       0.14285714       0.04761905 </v>
   <v>      -0.09523810       0.14285714       0.04761905 </v>
   <v>       0.23809524       0.19047619       0.04761905 </v>
   <v>       0.28571429       0.19047619       0.04761905 </v>
   <v>       0.33333333       0.19047619       0.04761905 </v>
   <v>       0.38095238       0.19047619       0.04761905 </v>
   <v>       0.42857143       0.19047619       0.04761905 </v>
   <v>       0.47619048       0.19047619       0.04761905 </v>
   <v>      -0.47619048       0.19047619       0.04761905 </v>
   <v>      -0.42857143       0.19047619       0.04761905 </v>
   <v>      -0.38095238       0.19047619       0.04761905 </v>
   <v>      -0.33333333       0.19047619       0.04761905 </v>
   <v>      -0.28571429       0.19047619       0.04761905 </v>
   <v>      -0.23809524       0.19047619       0.04761905 </v>
   <v>      -0.19047619       0.19047619       0.04761905 </v>
   <v>      -0.14285714       0.19047619       0.04761905 </v>
   <v>       0.28571429       0.23809524       0.04761905 </v>
   <v>       0.33333333       0.23809524       0.04761905 </v>
   <v>       0.38095238       0.23809524       0.04761905 </v>
   <v>       0.42857143       0.23809524       0.04761905 </v>
   <v>       0.47619048       0.23809524       0.04761905 </v>
   <v>      -0.47619048       0.23809524       0.04761905 </v>
   <v>      -0.42857143       0.23809524       0.04761905 </v>
   <v>      -0.38095238       0.23809524       0.04761905 </v>
   <v>      -0.33333333       0.23809524       0.04761905 </v>
   <v>      -0.28571429       0.23809524       0.04761905 </v>
   <v>      -0.23809524       0.23809524       0.04761905 </v>
   <v>      -0.19047619       0.23809524       0.04761905 </v>
   <v>       0.33333333       0.28571429       0.04761905 </v>
   <v>       0.38095238       0.28571429       0.04761905 </v>
   <v>       0.42857143       0.28571429       0.04761905 </v>
   <v>       0.47619048       0.28571429       0.04761905 </v>
   <v>      -0.47619048       0.28571429       0.04761905 </v>
   <v>      -0.42857143       0.28571429       0.04761905 </v>
   <v>      -0.38095238       0.28571429       0.04761905 </v>
   <v>      -0.33333333       0.28571429       0.04761905 </v>
   <v>      -0.28571429       0.28571429       0.04761905 </v>
   <v>      -0.23809524       0.28571429       0.04761905 </v>
   <v>       0.38095238       0.33333333       0.04761905 </v>
   <v>       0.42857143       0.33333333       0.04761905 </v>
   <v>       0.47619048       0.33333333       0.04761905 </v>
   <v>      -0.47619048       0.33333333       0.04761905 </v>
   <v>      -0.42857143       0.33333333       0.04761905 </v>
   <v>      -0.38095238       0.33333333       0.04761905 </v>
   <v>      -0.33333333       0.33333333       0.04761905 </v>
   <v>      -0.28571429       0.33333333       0.04761905 </v>
   <v>       0.42857143       0.38095238       0.04761905 </v>
   <v>       0.47619048       0.38095238       0.04761905 </v>
   <v>      -0.47619048       0.38095238       0.04761905 </v>
   <v>      -0.42857143       0.38095238       0.04761905 </v>
   <v>      -0.38095238       0.38095238       0.04761905 </v>
   <v>      -0.33333333       0.38095238       0.04761905 </v>
   <v>       0.47619048       0.42857143       0.04761905 </v>
   <v>      -0.47619048       0.42857143       0.04761905 </v>
   <v>      -0.42857143       0.42857143       0.04761905 </v>
   <v>      -0.38095238       0.42857143       0.04761905 </v>
   <v>      -0.47619048       0.47619048       0.04761905 </v>
   <v>      -0.42857143       0.47619048       0.04761905 </v>
   <v>       0.28571429       0.19047619       0.09523810 </v>
   <v>       0.33333333       0.19047619       0.09523810 </v>
   <v>       0.38095238       0.19047619       0.09523810 </v>
   <v>       0.42857143       0.19047619       0.09523810 </v>
   <v>       0.47619048       0.19047619       0.09523810 </v>
   <v>      -0.47619048       0.19047619       0.09523810 </v>
   <v>      -0.42857143       0.19047619       0.09523810 </v>
   <v>       0.33333333       0.23809524       0.09523810 </v>
   <v>       0.38095238       0.23809524       0.09523810 </v>
   <v>       0.42857143       0.23809524       0.09523810 </v>
   <v>       0.47619048       0.23809524       0.09523810 </v>
   <v>      -0.47619048       0.23809524       0.09523810 </v>
   <v>      -0.42857143       0.23809524       0.09523810 </v>
   <v>      -0.38095238       0.23809524       0.09523810 </v>
   <v>      -0.33333333       0.23809524       0.09523810 </v>
   <v>      -0.28571429       0.23809524       0.09523810 </v>
   <v>      -0.23809524       0.23809524       0.09523810 </v>
   <v>      -0.19047619       0.23809524       0.09523810 </v>
   <v>      -0.14285714       0.23809524       0.09523810 </v>
   <v>       0.38095238       0.28571429       0.09523810 </v>
   <v>       0.42857143       0.28571429       0.09523810 </v>
   <v>       0.47619048       0.28571429       0.09523810 </v>
   <v>      -0.47619048       0.28571429       0.09523810 </v>
   <v>      -0.42857143       0.28571429       0.09523810 </v>
   <v>      -0.38095238       0.28571429       0.09523810 </v>
   <v>      -0.33333333       0.28571429       0.09523810 </v>
   <v>      -0.28571429       0.28571429       0.09523810 </v>
   <v>      -0.23809524       0.28571429       0.09523810 </v>
   <v>      -0.19047619       0.28571429       0.09523810 </v>
   <v>       0.42857143       0.33333333       0.09523810 </v>
   <v>       0.47619048       0.33333333       0.09523810 </v>
   <v>      -0.47619048       0.33333333       0.09523810 </v>
   <v>      -0.42857143       0.33333333       0.09523810 </v>
   <v>      -0.38095238       0.33333333       0.09523810 </v>
   <v>      -0.33333333       0.33333333       0.09523810 </v>
   <v>      -0.28571429       0.33333333       0.09523810 </v>
   <v>      -0.23809524       0.33333333       0.09523810 </v>
   <v>       0.47619048       0.38095238       0.09523810 </v>
   <v>      -0.47619048       0.38095238       0.09523810 </v>
   <v>      -0.42857143       0.38095238       0.09523810 </v>
   <v>      -0.38095238       0.38095238       0.09523810 </v>
   <v>      -0.33333333       0.38095238       0.09523810 </v>
   <v>      -0.28571429       0.38095238       0.09523810 </v>
   <v>      -0.47619048       0.42857143       0.09523810 </v>
   <v>      -0.42857143       0.42857143       0.09523810 </v>
   <v>      -0.38095238       0.42857143       0.09523810 </v>
   <v>      -0.33333333       0.42857143       0.09523810 </v>
   <v>      -0.42857143       0.47619048       0.09523810 </v>
   <v>      -0.38095238       0.47619048       0.09523810 </v>
   <v>       0.42857143       0.28571429       0.14285714 </v>
   <v>       0.47619048       0.28571429       0.14285714 </v>
   <v>      -0.47619048       0.28571429       0.14285714 </v>
   <v>      -0.42857143       0.28571429       0.14285714 </v>
   <v>      -0.38095238       0.28571429       0.14285714 </v>
   <v>       0.47619048       0.33333333       0.14285714 </v>
   <v>      -0.47619048       0.33333333       0.14285714 </v>
   <v>      -0.42857143       0.33333333       0.14285714 </v>
   <v>      -0.38095238       0.33333333       0.14285714 </v>
   <v>      -0.33333333       0.33333333       0.14285714 </v>
   <v>      -0.28571429       0.33333333       0.14285714 </v>
   <v>      -0.23809524       0.33333333       0.14285714 </v>
   <v>      -0.19047619       0.33333333       0.14285714 </v>
   <v>      -0.47619048       0.38095238       0.14285714 </v>
   <v>      -0.42857143       0.38095238       0.14285714 </v>
   <v>      -0.38095238       0.38095238       0.14285714 </v>
   <v>      -0.33333333       0.38095238       0.14285714 </v>
   <v>      -0.28571429       0.38095238       0.14285714 </v>
   <v>      -0.23809524       0.38095238       0.14285714 </v>
   <v>      -0.42857143       0.42857143       0.14285714 </v>
   <v>      -0.38095238       0.42857143       0.14285714 </v>
   <v>      -0.33333333       0.42857143       0.14285714 </v>
   <v>      -0.28571429       0.42857143       0.14285714 </v>
   <v>      -0.38095238       0.47619048       0.14285714 </v>
   <v>      -0.33333333       0.47619048       0.14285714 </v>
   <v>      -0.42857143       0.38095238       0.19047619 </v>
   <v>      -0.38095238       0.38095238       0.19047619 </v>
   <v>      -0.33333333       0.38095238       0.19047619 </v>
   <v>      -0.38095238       0.42857143       0.19047619 </v>
   <v>      -0.33333333       0.42857143       0.19047619 </v>
   <v>      -0.28571429       0.42857143       0.19047619 </v>
   <v>      -0.23809524       0.42857143       0.19047619 </v>
   <v>      -0.33333333       0.47619048       0.19047619 </v>
   <v>      -0.28571429       0.47619048       0.19047619 </v>
   <v>      -0.28571429       0.47619048       0.23809524 </v>
  </varray>
  <varray name="weights" >
   <v>       0.00010798 </v>
   <v>       0.00086384 </v>
   <v>       0.00086384 </v>
   <v>       0.00086384 </v>
   <v>       0.00086384 </v>
   <v>       0.00086384 </v>
   <v>       0.00086384 </v>
   <v>       0.00086384 </v>
   <v>       0.00086384 </v>
   <v>       0.00086384 </v>
   <v>       0.00086384 </v>
   <v>       0.00064788 </v>
   <v>       0.00259151 </v>
   <v>       0.00259151 </v>
   <v>       0.00259151 </v>
   <v>       0.00259151 </v>
   <v>       0.00259151 </v>
   <v>       0.00259151 </v>
   <v>       0.00259151 </v>
   <v>       0.00259151 </v>
   <v>       0.00259151 </v>
   <v>       0.00259151 </v>
   <v>       0.00259151 </v>
   <v>       0.00259151 </v>
   <v>       0.00259151 </v>
   <v>       0.00259151 </v>
   <v>       0.00259151 </v>
   <v>       0.00259151 </v>
   <v>       0.00259151 </v>
   <v>       0.00259151 </v>
   <v>       0.00129576 </v>
   <v>       0.00064788 </v>
   <v>       0.00259151 </v>
   <v>       0.00259151 </v>
   <v>       0.00259151 </v>
   <v>       0.00259151 </v>
   <v>       0.00259151 </v>
   <v>       0.00259151 </v>
   <v>       0.00259151 </v>
   <v>       0.00259151 </v>
   <v>       0.00259151 </v>
   <v>       0.00259151 </v>
   <v>       0.00259151 </v>
   <v>       0.00259151 </v>
   <v>       0.00259151 </v>
   <v>       0.00259151 </v>
   <v>       0.00259151 </v>
   <v>       0.00259151 </v>
   <v>       0.00129576 </v>
   <v>       0.00064788 </v>
   <v>       0.00259151 </v>
   <v>       0.00259151 </v>
   <v>       0.00259151 </v>
   <v>       0.00259151 </v>
   <v>       0.00259151 </v>
   <v>       0.00259151 </v>
   <v>       0.00259151 </v>
   <v>       0.00259151 </v>
   <v>       0.00259151 </v>
   <v>       0.00259151 </v>
   <v>       0.00259151 </v>
   <v>       0.00259151 </v>
   <v>       0.00259151 </v>
   <v>       0.00259151 </v>
   <v>       0.00129576 </v>
   <v>       0.00064788 </v>
   <v>       0.00259151 </v>
   <v>       0.00259151 </v>
   <v>       0.00259151 </v>
   <v>       0.00259151 </v>
   <v>       0.00259151 </v>
   <v>       0.00259151 </v>
   <v>       0.00259151 </v>
   <v>       0.00259151 </v>
   <v>       0.00259151 </v>
   <v>       0.00259151 </v>
   <v>       0.00259151 </v>
   <v>       0.00259151 </v>
   <v>       0.00129576 </v>
   <v>       0.00064788 </v>
   <v>       0.00259151 </v>
   <v>       0.00259151 </v>
   <v>       0.00259151 </v>
   <v>       0.00259151 </v>
   <v>       0.00259151 </v>
   <v>       0.00259151 </v>
   <v>       0.00259151 </v>
   <v>       0.00259151 </v>
   <v>       0.00259151 </v>
   <v>       0.00259151 </v>
   <v>       0.00129576 </v>
   <v>       0.00064788 </v>
   <v>       0.00259151 </v>
   <v>       0.00259151 </v>
   <v>       0.00259151 </v>
   <v>       0.00259151 </v>
   <v>       0.00259151 </v>
   <v>       0.00259151 </v>
   <v>       0.00259151 </v>
   <v>       0.00259151 </v>
   <v>       0.00129576 </v>
   <v>       0.00064788 </v>
   <v>       0.00259151 </v>
   <v>       0.00259151 </v>
   <v>       0.00259151 </v>
   <v>       0.00259151 </v>
   <v>       0.00259151 </v>
   <v>       0.00259151 </v>
   <v>       0.00129576 </v>
   <v>       0.00064788 </v>
   <v>       0.00259151 </v>
   <v>       0.00259151 </v>
   <v>       0.00259151 </v>
   <v>       0.00259151 </v>
   <v>       0.00129576 </v>
   <v>       0.00064788 </v>
   <v>       0.00259151 </v>
   <v>       0.00259151 </v>
   <v>       0.00129576 </v>
   <v>       0.00064788 </v>
   <v>       0.00129576 </v>
   <v>       0.00259151 </v>
   <v>       0.00518303 </v>
   <v>       0.00518303 </v>
   <v>       0.00518303 </v>
   <v>       0.00518303 </v>
   <v>       0.00518303 </v>
   <v>       0.00518303 </v>
   <v>       0.00518303 </v>
   <v>       0.00518303 </v>
   <v>       0.00259151 </v>
   <v>       0.00518303 </v>
   <v>       0.00518303 </v>
   <v>       0.00518303 </v>
   <v>       0.00518303 </v>
   <v>       0.00518303 </v>
   <v>       0.00518303 </v>
   <v>       0.00518303 </v>
   <v>       0.00518303 </v>
   <v>       0.00518303 </v>
   <v>       0.00518303 </v>
   <v>       0.00518303 </v>
   <v>       0.00518303 </v>
   <v>       0.00518303 </v>
   <v>       0.00518303 </v>
   <v>       0.00259151 </v>
   <v>       0.00259151 </v>
   <v>       0.00518303 </v>
   <v>       0.00518303 </v>
   <v>       0.00518303 </v>
   <v>       0.00518303 </v>
   <v>       0.00518303 </v>
   <v>       0.00518303 </v>
   <v>       0.00518303 </v>
   <v>       0.00518303 </v>
   <v>       0.00518303 </v>
   <v>       0.00518303 </v>
   <v>       0.00518303 </v>
   <v>       0.00518303 </v>
   <v>       0.00259151 </v>
   <v>       0.00259151 </v>
   <v>       0.00518303 </v>
   <v>       0.00518303 </v>
   <v>       0.00518303 </v>
   <v>       0.00518303 </v>
   <v>       0.00518303 </v>
   <v>       0.00518303 </v>
   <v>       0.00518303 </v>
   <v>       0.00518303 </v>
   <v>       0.00518303 </v>
   <v>       0.00518303 </v>
   <v>       0.00259151 </v>
   <v>       0.00259151 </v>
   <v>       0.00518303 </v>
   <v>       0.00518303 </v>
   <v>       0.00518303 </v>
   <v>       0.00518303 </v>
   <v>       0.00518303 </v>
   <v>       0.00518303 </v>
   <v>       0.00518303 </v>
   <v>       0.00518303 </v>
   <v>       0.00259151 </v>
   <v>       0.00259151 </v>
   <v>       0.00518303 </v>
   <v>       0.00518303 </v>
   <v>       0.00518303 </v>
   <v>       0.00518303 </v>
   <v>       0.00518303 </v>
   <v>       0.00518303 </v>
   <v>       0.00259151 </v>
   <v>       0.00259151 </v>
   <v>       0.00518303 </v>
   <v>       0.00518303 </v>
   <v>       0.00518303 </v>
   <v>       0.00518303 </v>
   <v>       0.00259151 </v>
   <v>       0.00259151 </v>
   <v>       0.00518303 </v>
   <v>       0.00518303 </v>
   <v>       0.00259151 </v>
   <v>       0.00259151 </v>
   <v>       0.00259151 </v>
   <v>       0.00259151 </v>
   <v>       0.00518303 </v>
   <v>       0.00518303 </v>
   <v>       0.00518303 </v>
   <v>       0.00518303 </v>
   <v>       0.00518303 </v>
   <v>       0.00518303 </v>
   <v>       0.00259151 </v>
   <v>       0.00518303 </v>
   <v>       0.00518303 </v>
   <v>       0.00518303 </v>
   <v>       0.00518303 </v>
   <v>       0.00518303 </v>
   <v>       0.00518303 </v>
   <v>       0.00518303 </v>
   <v>       0.00518303 </v>
   <v>       0.00518303 </v>
   <v>       0.00518303 </v>
   <v>       0.00259151 </v>
   <v>       0.00259151 </v>
   <v>       0.00518303 </v>
   <v>       0.00518303 </v>
   <v>       0.00518303 </v>
   <v>       0.00518303 </v>
   <v>       0.00518303 </v>
   <v>       0.00518303 </v>
   <v>       0.00518303 </v>
   <v>       0.00518303 </v>
   <v>       0.00259151 </v>
   <v>       0.00259151 </v>
   <v>       0.00518303 </v>
   <v>       0.00518303 </v>
   <v>       0.00518303 </v>
   <v>       0.00518303 </v>
   <v>       0.00518303 </v>
   <v>       0.00518303 </v>
   <v>       0.00259151 </v>
   <v>       0.00259151 </v>
   <v>       0.00518303 </v>
   <v>       0.00518303 </v>
   <v>       0.00518303 </v>
   <v>       0.00518303 </v>
   <v>       0.00259151 </v>
   <v>       0.00259151 </v>
   <v>       0.00518303 </v>
   <v>       0.00518303 </v>
   <v>       0.00259151 </v>
   <v>       0.00259151 </v>
   <v>       0.00259151 </v>
   <v>       0.00259151 </v>
   <v>       0.00518303 </v>
   <v>       0.00518303 </v>
   <v>       0.00518303 </v>
   <v>       0.00518303 </v>
   <v>       0.00259151 </v>
   <v>       0.00518303 </v>
   <v>       0.00518303 </v>
   <v>       0.00518303 </v>
   <v>       0.00518303 </v>
   <v>       0.00518303 </v>
   <v>       0.00518303 </v>
   <v>       0.00259151 </v>
   <v>       0.00259151 </v>
   <v>       0.00518303 </v>
   <v>       0.00518303 </v>
   <v>       0.00518303 </v>
   <v>       0.00518303 </v>
   <v>       0.00259151 </v>
   <v>       0.00259151 </v>
   <v>       0.00518303 </v>
   <v>       0.00518303 </v>
   <v>       0.00259151 </v>
   <v>       0.00259151 </v>
   <v>       0.00259151 </v>
   <v>       0.00259151 </v>
   <v>       0.00518303 </v>
   <v>       0.00518303 </v>
   <v>       0.00259151 </v>
   <v>       0.00518303 </v>
   <v>       0.00518303 </v>
   <v>       0.00259151 </v>
   <v>       0.00259151 </v>
   <v>       0.00259151 </v>
   <v>       0.00259151 </v>
  </varray>
 </kpoints>
 <parameters>
  <separator name="general" >
   <i type="string" name="SYSTEM">cd Si</i>
   <i type="logical" name="LCOMPAT"> F  </i>
  </separator>
  <separator name="electronic" >
   <i type="string" name="PREC">accura</i>
   <i name="ENMAX">    240.00000000</i>
   <i name="ENAUG">    322.06900000</i>
   <i name="EDIFF">      0.00000100</i>
   <i type="int" name="IALGO">    38</i>
   <i type="int" name="IWAVPR">    11</i>
   <i type="int" name="NBANDS">    12</i>
   <i name="NELECT">      8.00000000</i>
   <i type="int" name="TURBO">     0</i>
   <i type="int" name="IRESTART">     0</i>
   <i type="int" name="NREBOOT">     0</i>
   <i type="int" name="NMIN">     0</i>
   <i name="EREF">      0.00000000</i>
   <separator name="electronic smearing" >
    <i type="int" name="ISMEAR">     0</i>
    <i name="SIGMA">      0.10000000</i>
    <i name="KSPACING">      0.50000000</i>
    <i type="logical" name="KGAMMA"> T  </i>
   </separator>
   <separator name="electronic projectors" >
    <i type="logical" name="LREAL"> F  </i>
    <v name="ROPT">      0.00000000</v>
    <i type="int" name="LMAXPAW">  -100</i>
    <i type="int" name="LMAXMIX">     2</i>
    <i type="logical" name="NLSPLINE"> F  </i>
   </separator>
   <separator name="electronic startup" >
    <i type="int" name="ISTART">     0</i>
    <i type="int" name="ICHARG">     2</i>
    <i type="int" name="INIWAV">     1</i>
   </separator>
   <separator name="electronic spin" >
    <i type="int" name="ISPIN">     1</i>
    <i type="logical" name="LNONCOLLINEAR"> F  </i>
    <v name="MAGMOM">      1.00000000      1.00000000</v>
    <i name="NUPDOWN">     -1.00000000</i>
    <i type="logical" name="LSORBIT"> F  </i>
    <v name="SAXIS">      0.00000000      0.00000000      1.00000000</v>
    <i type="logical" name="LSPIRAL"> F  </i>
    <v name="QSPIRAL">      0.00000000      0.00000000      0.00000000</v>
    <i type="logical" name="LZEROZ"> F  </i>
   </separator>
   <separator name="electronic exchange-correlation" >
    <i type="logical" name="LASPH"> F  </i>
    <i type="logical" name="LMETAGGA"> F  </i>
   </separator>
   <separator name="electronic convergence" >
    <i type="int" name="NELM">    60</i>
    <i type="int" name="NELMDL">    -5</i>
    <i type="int" name="NELMIN">     2</i>
    <i name="ENINI">    240.00000000</i>
    <separator name="electronic convergence detail" >
     <i type="logical" name="LDIAG"> T  </i>
     <i type="logical" name="LSUBROT"> F  </i>
     <i name="WEIMIN">      0.00100000</i>
     <i name="EBREAK">      0.00000000</i>
     <i name="DEPER">      0.30000000</i>
     <i type="int" name="NRMM">     4</i>
     <i name="TIME">      0.40000000</i>
    </separator>
   </separator>
   <separator name="electronic mixer" >
    <i name="AMIX">      0.40000000</i>
    <i name="BMIX">      1.00000000</i>
    <i name="AMIN">      0.10000000</i>
    <i name="AMIX_MAG">      1.60000000</i>
    <i name="BMIX_MAG">      1.00000000</i>
    <separator name="electronic mixer details" >
     <i type="int" name="IMIX">     4</i>
     <i type="logical" name="MIXFIRST"> F  </i>
     <i type="int" name="MAXMIX">   -45</i>
     <i name="WC">    100.00000000</i>
     <i type="int" name="INIMIX">     1</i>
     <i type="int" name="MIXPRE">     1</i>
     <i type="int" name="MREMOVE">     5</i>
    </separator>
   </separator>
   <separator name="electronic dipolcorrection" >
    <i type="logical" name="LDIPOL"> F  </i>
    <i type="logical" name="LMONO"> F  </i>
    <i type="int" name="IDIPOL">     0</i>
    <i name="EPSILON">      1.00000000</i>
    <v name="DIPOL">   -100.00000000   -100.00000000   -100.00000000</v>
    <i name="EFIELD">      0.00000000</i>
   </separator>
  </separator>
  <separator name="grids" >
   <i type="int" name="NGX">    20</i>
   <i type="int" name="NGY">    20</i>
   <i type="int" name="NGZ">    20</i>
   <i type="int" name="NGXF">    40</i>
   <i type="int" name="NGYF">    40</i>
   <i type="int" name="NGZF">    40</i>
   <i type="logical" name="ADDGRID"> F  </i>
  </separator>
  <separator name="ionic" >
   <i type="int" name="NSW">    10</i>
   <i type="int" name="IBRION">     2</i>
   <i type="int" name="MDALGO">     0</i>
   <i type="int" name="ISIF">     2</i>
   <i name="PSTRESS">      0.00000000</i>
   <i name="EDIFFG">     -0.00000100</i>
   <i type="int" name="NFREE">     1</i>
   <i name="POTIM">      0.50000000</i>
   <i name="SMASS">     -3.00000000</i>
   <i name="SCALEE">      1.00000000</i>
  </separator>
  <separator name="ionic md" >
   <i name="TEBEG">      0.00010000</i>
   <i name="TEEND">      0.00010000</i>
   <i type="int" name="NBLOCK">     1</i>
   <i type="int" name="KBLOCK">    10</i>
   <i type="int" name="NPACO">   256</i>
   <i name="APACO">     16.00000000</i>
  </separator>
  <separator name="symmetry" >
   <i type="int" name="ISYM">     2</i>
   <i name="SYMPREC">      0.00001000</i>
  </separator>
  <separator name="dos" >
   <i type="int" name="LORBIT">     0</i>
   <v name="RWIGS">     -1.00000000</v>
   <i type="int" name="NEDOS">   301</i>
   <i name="EMIN">     10.00000000</i>
   <i name="EMAX">    -10.00000000</i>
   <i name="EFERMI">      0.00000000</i>
  </separator>
  <separator name="writing" >
   <i type="int" name="NWRITE">     2</i>
   <i type="logical" name="LWAVE"> T  </i>
   <i type="logical" name="LDOWNSAMPLE"> F  </i>
   <i type="logical" name="LCHARG"> T  </i>
   <i type="logical" name="LPARD"> F  </i>
   <i type="logical" name="LVTOT"> F  </i>
   <i type="logical" name="LVHAR"> F  </i>
   <i type="logical" name="LELF"> F  </i>
   <i type="logical" name="LOPTICS"> F  </i>
   <v name="STM">      0.00000000      0.00000000      0.00000000      0.00000000      0.00000000      0.00000000      0.00000000</v>
  </separator>
  <separator name="performance" >
   <i type="int" name="NPAR">    12</i>
   <i type="int" name="NSIM">     4</i>
   <i type="int" name="NBLK">    -1</i>
   <i type="logical" name="LPLANE"> T  </i>
   <i type="logical" name="LSCALAPACK"> T  </i>
   <i type="logical" name="LSCAAWARE"> F  </i>
   <i type="logical" name="LSCALU"> F  </i>
   <i type="logical" name="LASYNC"> F  </i>
   <i type="logical" name="LORBITALREAL"> F  </i>
  </separator>
  <separator name="miscellaneous" >
   <i type="int" name="IDIOT">     3</i>
   <i type="int" name="ISPECIAL">     0</i>
   <i type="logical" name="LMUSIC"> F  </i>
   <v name="POMASS">     28.08500000</v>
   <v name="DARWINR">      0.00000000</v>
   <v name="DARWINV">      1.00000000</v>
   <i type="logical" name="LCORR"> T  </i>
  </separator>
  <i type="logical" name="GGA_COMPAT"> T  </i>
  <i type="logical" name="LBERRY"> F  </i>
  <i type="int" name="ICORELEVEL">     0</i>
  <i type="logical" name="LDAU"> F  </i>
  <i type="int" name="I_CONSTRAINED_M">     0</i>
  <separator name="electronic exchange-correlation" >
   <i type="string" name="GGA">--</i>
   <i type="int" name="VOSKOWN">     0</i>
   <i type="logical" name="LHFCALC"> F  </i>
   <i type="string" name="PRECFOCK"></i>
   <i type="logical" name="LSYMGRAD"> F  </i>
   <i type="logical" name="LHFONE"> F  </i>
   <i type="logical" name="LRHFCALC"> F  </i>
   <i type="logical" name="LTHOMAS"> F  </i>
   <i type="logical" name="LMODELHF"> F  </i>
   <i name="ENCUT4O">     -1.00000000</i>
   <i type="int" name="EXXOEP">     0</i>
   <i type="int" name="FOURORBIT">     0</i>
   <i name="AEXX">      0.00000000</i>
   <i name="HFALPHA">      0.00000000</i>
   <i name="MCALPHA">      0.00000000</i>
   <i name="ALDAX">      1.00000000</i>
   <i name="AGGAX">      1.00000000</i>
   <i name="ALDAC">      1.00000000</i>
   <i name="AGGAC">      1.00000000</i>
   <i type="int" name="NKREDX">     1</i>
   <i type="int" name="NKREDY">     1</i>
   <i type="int" name="NKREDZ">     1</i>
   <i type="logical" name="SHIFTRED"> F  </i>
   <i type="logical" name="ODDONLY"> F  </i>
   <i type="logical" name="EVENONLY"> F  </i>
   <i type="int" name="LMAXFOCK">     0</i>
   <i type="int" name="NMAXFOCKAE">     0</i>
   <i type="logical" name="LFOCKAEDFT"> F  </i>
   <i name="HFSCREEN">      0.00000000</i>
   <i name="HFSCREENC">      0.00000000</i>
   <i type="int" name="NBANDSGWLOW">     0</i>
  </separator>
  <separator name="vdW DFT" >
   <i type="logical" name="LUSE_VDW"> F  </i>
   <i name="Zab_VDW">     -0.84910000</i>
   <i name="PARAM1">      0.12340000</i>
   <i name="PARAM2">      1.00000000</i>
   <i name="PARAM3">      0.00000000</i>
  </separator>
  <separator name="model GW" >
   <i type="int" name="MODEL_GW">     0</i>
   <i name="MODEL_EPS0">     12.47812500</i>
   <i name="MODEL_ALPHA">      1.00000000</i>
  </separator>
  <separator name="linear response parameters" >
   <i type="logical" name="LEPSILON"> F  </i>
   <i type="logical" name="LRPA"> F  </i>
   <i type="logical" name="LNABLA"> F  </i>
   <i type="logical" name="LVEL"> F  </i>
   <i type="int" name="KINTER">     0</i>
   <i name="CSHIFT">      0.10000000</i>
   <i name="OMEGAMAX">     -1.00000000</i>
   <i name="DEG_THRESHOLD">      0.00200000</i>
   <i name="RTIME">     -0.10000000</i>
   <i name="WPLASMAI">      0.00000000</i>
   <v name="DFIELD">      0.00000000      0.00000000      0.00000000</v>
   <v name="WPLASMA">      0.00000000      0.00000000      0.00000000      0.00000000      0.00000000      0.00000000      0.00000000      0.00000000      0.00000000</v>
  </separator>
  <separator name="orbital magnetization" >
   <i type="logical" name="NUCIND"> F  </i>
   <v name="MAGPOS">      0.00000000      0.00000000      0.00000000</v>
   <i type="logical" name="LNICSALL"> T  </i>
   <i type="logical" name="ORBITALMAG"> F  </i>
   <i type="logical" name="LMAGBLOCH"> F  </i>
   <i type="logical" name="LCHIMAG"> F  </i>
   <i type="logical" name="LGAUGE"> T  </i>
   <i type="int" name="MAGATOM">     0</i>
   <v name="MAGDIPOL">      0.00000000      0.00000000      0.00000000</v>
   <v name="AVECCONST">      0.00000000      0.00000000      0.00000000</v>
  </separator>
  <separator name="response functions" >
   <i type="logical" name="LADDER"> F  </i>
   <i type="logical" name="LRPAFORCE"> F  </i>
   <i type="logical" name="LFXC"> F  </i>
   <i type="logical" name="LHARTREE"> T  </i>
   <i type="int" name="IBSE">     0</i>
   <v type="int" name="KPOINT">    -1     0     0     0</v>
   <i type="logical" name="LTCTE"> F  </i>
   <i type="logical" name="LTETE"> F  </i>
   <i type="logical" name="LTRIPLET"> F  </i>
   <i type="logical" name="LFXCEPS"> F  </i>
   <i type="logical" name="LFXHEG"> F  </i>
   <i type="int" name="NATURALO">     2</i>
   <i type="logical" name="L2ORDER"> F  </i>
   <i type="logical" name="LMP2LT"> F  </i>
   <i type="logical" name="LUSEW"> F  </i>
   <i name="ENCUTGW">     -2.00000000</i>
   <i name="ENCUTGWSOFT">     -2.00000000</i>
   <i name="ENCUTLF">     -1.00000000</i>
   <i type="int" name="LMAXMP2">    -1</i>
   <i name="SCISSOR">      0.00000000</i>
   <i type="int" name="NOMEGA">     0</i>
   <i type="int" name="NOMEGAR">     0</i>
   <i type="int" name="NBANDSGW">    -1</i>
   <i type="int" name="NBANDSO">    -1</i>
   <i type="int" name="NBANDSV">    -1</i>
   <i type="int" name="NELM">     1</i>
   <i type="int" name="NELMHF">     1</i>
   <i type="int" name="DIM">     3</i>
   <i type="int" name="ANTIRES">     0</i>
   <i name="OMEGAMAX">    -30.00000000</i>
   <i name="OMEGAMIN">    -30.00000000</i>
   <i name="OMEGATL">   -200.00000000</i>
   <i type="int" name="OMEGAGRID">   140</i>
   <i name="CSHIFT">     -0.10000000</i>
   <i type="logical" name="SELFENERGY"> F  </i>
   <i type="logical" name="LSPECTRAL"> F  </i>
   <i type="logical" name="LSPECTRALGW"> F  </i>
   <i type="logical" name="LSINGLES"> F  </i>
   <i type="logical" name="LFERMIGW"> F  </i>
   <i type="logical" name="ODDONLYGW"> F  </i>
   <i type="logical" name="EVENONLYGW"> F  </i>
   <i type="int" name="NKREDLFX">     1</i>
   <i type="int" name="NKREDLFY">     1</i>
   <i type="int" name="NKREDLFZ">     1</i>
   <i type="int" name="MAXMEM">  2800</i>
   <i type="int" name="TELESCOPE">     0</i>
   <i type="int" name="TAUPAR">     1</i>
   <i type="int" name="OMEGAPAR">    -1</i>
   <i name="LAMBDA">      1.00000000</i>
  </separator>
  <separator name="External order field" >
   <i name="OFIELD_KAPPA">      0.00000000</i>
   <v name="OFIELD_K">      0.00000000      0.00000000      0.00000000</v>
   <i name="OFIELD_Q6_NEAR">      0.00000000</i>
   <i name="OFIELD_Q6_FAR">      0.00000000</i>
   <i name="OFIELD_A">      0.00000000</i>
  </separator>
 </parameters>
 <atominfo>
  <atoms>       2 </atoms>
  <types>       1 </types>
  <array name="atoms" >
   <dimension dim="1">ion</dimension>
   <field type="string">element</field>
   <field type="int">atomtype</field>
   <set>
    <rc><c>Si</c><c>   1</c></rc>
    <rc><c>Si</c><c>   1</c></rc>
   </set>
  </array>
  <array name="atomtypes" >
   <dimension dim="1">type</dimension>
   <field type="int">atomspertype</field>
   <field type="string">element</field>
   <field>mass</field>
   <field>valence</field>
   <field type="string">pseudopotential</field>
   <set>
    <rc><c>   2</c><c>Si</c><c>     28.08500000</c><c>      4.00000000</c><c>  PAW_PBE Si 05Jan2001                  </c></rc>
   </set>
  </array>
 </atominfo>
 <structure name="initialpos" >
  <crystal>
   <varray name="basis" >
    <v>       0.00000000       2.75000000       2.75000000 </v>
    <v>       2.75000000       0.00000000       2.75000000 </v>
    <v>       2.75000000       2.75000000       0.00000000 </v>
   </varray>
   <i name="volume">     41.59375000 </i>
   <varray name="rec_basis" >
    <v>      -0.18181818       0.18181818       0.18181818 </v>
    <v>       0.18181818      -0.18181818       0.18181818 </v>
    <v>       0.18181818       0.18181818      -0.18181818 </v>
   </varray>
  </crystal>
  <varray name="positions" >
   <v>       0.87500000       0.87500000       0.87500000 </v>
   <v>       0.12500000       0.12500000       0.12500000 </v>
  </varray>
 </structure>
 <calculation>
  <scstep>
   <time name="dav">    0.84    0.84</time>
   <time name="total">    0.85    0.85</time>
   <energy>
    <i name="alphaZ">      3.23732588 </i>
    <i name="ewald">   -225.65453461 </i>
    <i name="hartreedc">    -11.58535014 </i>
    <i name="XCdc">    -18.75122067 </i>
    <i name="pawpsdc">    176.24759923 </i>
    <i name="pawaedc">   -141.06103558 </i>
    <i name="eentropy">     -0.00100817 </i>
    <i name="bandstr">      5.94196518 </i>
    <i name="atom">    206.12155316 </i>
    <i name="e_fr_energy">     -5.50470572 </i>
    <i name="e_wo_entrp">     -5.50369755 </i>
    <i name="e_0_energy">     -5.50420163 </i>
   </energy>
  </scstep>
  <scstep>
   <time name="dav">    1.30    1.31</time>
   <time name="total">    1.31    1.31</time>
   <energy>
    <i name="e_fr_energy">    -10.94590291 </i>
    <i name="e_wo_entrp">    -10.94590291 </i>
    <i name="e_0_energy">    -10.94590291 </i>
   </energy>
  </scstep>
  <scstep>
   <time name="dav">    0.99    1.00</time>
   <time name="total">    0.99    1.00</time>
   <energy>
    <i name="e_fr_energy">    -10.98105313 </i>
    <i name="e_wo_entrp">    -10.98105313 </i>
    <i name="e_0_energy">    -10.98105313 </i>
   </energy>
  </scstep>
  <scstep>
   <time name="dav">    1.63    1.63</time>
   <time name="total">    1.63    1.63</time>
   <energy>
    <i name="e_fr_energy">    -10.98113732 </i>
    <i name="e_wo_entrp">    -10.98113732 </i>
    <i name="e_0_energy">    -10.98113732 </i>
   </energy>
  </scstep>
  <scstep>
   <time name="dav">    1.00    1.00</time>
   <time name="total">    1.05    1.05</time>
   <energy>
    <i name="e_fr_energy">    -10.98113734 </i>
    <i name="e_wo_entrp">    -10.98113734 </i>
    <i name="e_0_energy">    -10.98113734 </i>
   </energy>
  </scstep>
  <scstep>
   <time name="dav">    1.06    1.06</time>
   <time name="total">    1.12    1.12</time>
   <energy>
    <i name="e_fr_energy">    -10.87280698 </i>
    <i name="e_wo_entrp">    -10.87280698 </i>
    <i name="e_0_energy">    -10.87280698 </i>
   </energy>
  </scstep>
  <scstep>
   <time name="dav">    1.20    1.20</time>
   <time name="total">    1.26    1.26</time>
   <energy>
    <i name="e_fr_energy">    -10.82229600 </i>
    <i name="e_wo_entrp">    -10.82229599 </i>
    <i name="e_0_energy">    -10.82229599 </i>
   </energy>
  </scstep>
  <scstep>
   <time name="dav">    0.93    0.94</time>
   <time name="total">    0.99    1.00</time>
   <energy>
    <i name="e_fr_energy">    -10.82333195 </i>
    <i name="e_wo_entrp">    -10.82333194 </i>
    <i name="e_0_energy">    -10.82333195 </i>
   </energy>
  </scstep>
  <scstep>
   <time name="dav">    1.44    1.44</time>
   <time name="total">    1.50    1.50</time>
   <energy>
    <i name="e_fr_energy">    -10.82354892 </i>
    <i name="e_wo_entrp">    -10.82354892 </i>
    <i name="e_0_energy">    -10.82354892 </i>
   </energy>
  </scstep>
  <scstep>
   <time name="dav">    1.27    1.27</time>
   <time name="total">    1.33    1.33</time>
   <energy>
    <i name="e_fr_energy">    -10.82356068 </i>
    <i name="e_wo_entrp">    -10.82356068 </i>
    <i name="e_0_energy">    -10.82356068 </i>
   </energy>
  </scstep>
  <scstep>
   <time name="dav">    1.40    1.40</time>
   <time name="total">    1.46    1.46</time>
   <energy>
    <i name="e_fr_energy">    -10.82356233 </i>
    <i name="e_wo_entrp">    -10.82356233 </i>
    <i name="e_0_energy">    -10.82356233 </i>
   </energy>
  </scstep>
  <scstep>
   <time name="dav">    1.22    1.22</time>
   <time name="total">    1.22    1.23</time>
   <energy>
    <i name="alphaZ">      3.23732588 </i>
    <i name="ewald">   -225.65453461 </i>
    <i name="hartreedc">    -15.36617384 </i>
    <i name="XCdc">    -18.12832886 </i>
    <i name="pawpsdc">    964.88496109 </i>
    <i name="pawaedc">   -929.89679356 </i>
    <i name="eentropy">     -0.00000000 </i>
    <i name="bandstr">      3.97842810 </i>
    <i name="atom">    206.12155316 </i>
    <i name="e_fr_energy">    -10.82356265 </i>
    <i name="e_wo_entrp">    -10.82356265 </i>
    <i name="e_0_energy">    -10.82356265 </i>
   </energy>
  </scstep>
  <structure>
   <crystal>
    <varray name="basis" >
     <v>       0.00000000       2.75000000       2.75000000 </v>
     <v>       2.75000000       0.00000000       2.75000000 </v>
     <v>       2.75000000       2.75000000       0.00000000 </v>
    </varray>
    <i name="volume">     41.59375000 </i>
    <varray name="rec_basis" >
     <v>      -0.18181818       0.18181818       0.18181818 </v>
     <v>       0.18181818      -0.18181818       0.18181818 </v>
     <v>       0.18181818       0.18181818      -0.18181818 </v>
    </varray>
   </crystal>
   <varray name="positions" >
    <v>       0.87500000       0.87500000       0.87500000 </v>
    <v>       0.12500000       0.12500000       0.12500000 </v>
   </varray>
  </structure>
  <varray name="forces" >
   <v>      -0.00000000      -0.00000000      -0.00000000 </v>
   <v>       0.00000000       0.00000000       0.00000000 </v>
  </varray>
  <varray name="stress" >
   <v>     -16.42025426      -0.00000000      -0.00000000 </v>
   <v>       0.00000000     -16.42025426      -0.00000000 </v>
   <v>      -0.00000000       0.00000000     -16.42025426 </v>
  </varray>
  <energy>
   <i name="e_fr_energy">    -10.82356265 </i>
   <i name="e_wo_entrp">    -10.82356265 </i>
   <i name="e_0_energy">     -0.00000000 </i>
  </energy>
  <time name="totalsc">   15.32   15.70</time>
  <eigenvalues>
   <array>
    <dimension dim="1">band</dimension>
    <dimension dim="2">kpoint</dimension>
    <dimension dim="3">spin</dimension>
    <field>eigene</field>
    <field>occ</field>
    <set>
     <set comment="spin 1">
      <set comment="kpoint 1">
       <r>   -6.2528    1.0000 </r>
       <r>    5.4593    1.0000 </r>
       <r>    5.4593    1.0000 </r>
       <r>    5.4593    1.0000 </r>
       <r>    8.0111    0.0000 </r>
       <r>    8.0111    0.0000 </r>
       <r>    8.0111    0.0000 </r>
       <r>    8.3877    0.0000 </r>
       <r>   13.2308    0.0000 </r>
       <r>   13.2308    0.0000 </r>
       <r>   13.2603    0.0000 </r>
       <r>   16.6042    0.0000 </r>
      </set>
      <set comment="kpoint 2">
       <r>   -6.2239    1.0000 </r>
       <r>    5.1282    1.0000 </r>
       <r>    5.4119    1.0000 </r>
       <r>    5.4119    1.0000 </r>
       <r>    8.0386    0.0000 </r>
       <r>    8.0823    0.0000 </r>
       <r>    8.0823    0.0000 </r>
       <r>    8.6429    0.0000 </r>
       <r>   13.1308    0.0000 </r>
       <r>   13.1308    0.0000 </r>
       <r>   13.3878    0.0000 </r>
       <r>   16.4885    0.0000 </r>
      </set>
      <set comment="kpoint 3">
       <r>   -6.1378    1.0000 </r>
       <r>    4.3972    1.0000 </r>
       <r>    5.2845    1.0000 </r>
       <r>    5.2845    1.0000 </r>
       <r>    7.9466    0.0000 </r>
       <r>    8.2703    0.0000 </r>
       <r>    8.2703    0.0000 </r>
       <r>    9.3305    0.0000 </r>
       <r>   12.9031    0.0000 </r>
       <r>   12.9031    0.0000 </r>
       <r>   13.7398    0.0000 </r>
       <r>   16.2170    0.0000 </r>
      </set>
      <set comment="kpoint 4">
       <r>   -5.9953    1.0000 </r>
       <r>    3.5404    1.0000 </r>
       <r>    5.1147    1.0000 </r>
       <r>    5.1147    1.0000 </r>
       <r>    7.7798    0.0000 </r>
       <r>    8.5166    0.0000 </r>
       <r>    8.5166    0.0000 </r>
       <r>   10.1626    0.0000 </r>
       <r>   12.6771    0.0000 </r>
       <r>   12.6771    0.0000 </r>
       <r>   14.1990    0.0000 </r>
       <r>   15.9893    0.0000 </r>
      </set>
      <set comment="kpoint 5">
       <r>   -5.7982    1.0000 </r>
       <r>    2.6628    1.0000 </r>
       <r>    4.9330    1.0000 </r>
       <r>    4.9331    1.0000 </r>
       <r>    7.5898    0.0000 </r>
       <r>    8.7526    0.0000 </r>
       <r>    8.7526    0.0000 </r>
       <r>   11.0212    0.0000 </r>
       <r>   12.5612    0.0000 </r>
       <r>   12.5612    0.0000 </r>
       <r>   14.4657    0.0000 </r>
       <r>   16.1442    0.0000 </r>
      </set>
      <set comment="kpoint 6">
       <r>   -5.5495    1.0000 </r>
       <r>    1.8033    1.0000 </r>
       <r>    4.7608    1.0000 </r>
       <r>    4.7608    1.0000 </r>
       <r>    7.4046    0.0000 </r>
       <r>    8.9166    0.0000 </r>
       <r>    8.9166    0.0000 </r>
       <r>   11.8678    0.0000 </r>
       <r>   12.6294    0.0000 </r>
       <r>   12.6294    0.0000 </r>
       <r>   14.3806    0.0000 </r>
       <r>   16.8513    0.0000 </r>
      </set>
      <set comment="kpoint 7">
       <r>   -5.2548    1.0000 </r>
       <r>    0.9856    1.0000 </r>
       <r>    4.6094    1.0000 </r>
       <r>    4.6094    1.0000 </r>
       <r>    7.2354    0.0000 </r>
       <r>    8.9828    0.0000 </r>
       <r>    8.9828    0.0000 </r>
       <r>   12.6424    0.0000 </r>
       <r>   12.9279    0.0000 </r>
       <r>   12.9279    0.0000 </r>
       <r>   14.2294    0.0000 </r>
       <r>   17.8082    0.0000 </r>
      </set>
      <set comment="kpoint 8">
       <r>   -4.9242    1.0000 </r>
       <r>    0.2289    1.0000 </r>
       <r>    4.4846    1.0000 </r>
       <r>    4.4846    1.0000 </r>
       <r>    7.0932    0.0000 </r>
       <r>    8.9692    0.0000 </r>
       <r>    8.9692    0.0000 </r>
       <r>   13.1621    0.0000 </r>
       <r>   13.4374    0.0000 </r>
       <r>   13.4374    0.0000 </r>
       <r>   14.3391    0.0000 </r>
       <r>   18.7329    0.0000 </r>
      </set>
      <set comment="kpoint 9">
       <r>   -4.5779    1.0000 </r>
       <r>   -0.4420    1.0000 </r>
       <r>    4.3894    1.0000 </r>
       <r>    4.3894    1.0000 </r>
       <r>    6.9838    0.0000 </r>
       <r>    8.9174    0.0000 </r>
       <r>    8.9174    0.0000 </r>
       <r>   13.2494    0.0000 </r>
       <r>   14.1038    0.0000 </r>
       <r>   14.1038    0.0000 </r>
       <r>   14.9242    0.0000 </r>
       <r>   18.9208    0.0000 </r>
      </set>
      <set comment="kpoint 10">
       <r>   -4.2575    1.0000 </r>
       <r>   -0.9795    1.0000 </r>
       <r>    4.3254    1.0000 </r>
       <r>    4.3254    1.0000 </r>
       <r>    6.9098    0.0000 </r>
       <r>    8.8643    0.0000 </r>
       <r>    8.8643    0.0000 </r>
       <r>   13.1896    0.0000 </r>
       <r>   14.8906    0.0000 </r>
       <r>   14.8906    0.0000 </r>
       <r>   15.6979    0.0000 </r>
       <r>   17.8721    0.0000 </r>
      </set>
      <set comment="kpoint 11">
       <r>   -4.0459    1.0000 </r>
       <r>   -1.2995    1.0000 </r>
       <r>    4.2940    1.0000 </r>
       <r>    4.2940    1.0000 </r>
       <r>    6.8714    0.0000 </r>
       <r>    8.8335    0.0000 </r>
       <r>    8.8335    0.0000 </r>
       <r>   13.1424    0.0000 </r>
       <r>   15.7557    0.0000 </r>
       <r>   15.7557    0.0000 </r>
       <r>   16.3796    0.0000 </r>
       <r>   16.8958    0.0000 </r>
      </set>
      <set comment="kpoint 12">
       <r>   -6.2143    1.0000 </r>
       <r>    5.1875    1.0000 </r>
       <r>    5.3071    1.0000 </r>
       <r>    5.3071    1.0000 </r>
       <r>    7.9184    0.0000 </r>
       <r>    8.2122    0.0000 </r>
       <r>    8.2122    0.0000 </r>
       <r>    8.6524    0.0000 </r>
       <r>   12.9330    0.0000 </r>
       <r>   13.2738    0.0000 </r>
       <r>   13.4299    0.0000 </r>
       <r>   16.6753    0.0000 </r>
      </set>
      <set comment="kpoint 13">
       <r>   -6.1472    1.0000 </r>
       <r>    4.6093    1.0000 </r>
       <r>    5.1409    1.0000 </r>
       <r>    5.2540    1.0000 </r>
       <r>    7.9079    0.0000 </r>
       <r>    8.2596    0.0000 </r>
       <r>    8.4443    0.0000 </r>
       <r>    9.1681    0.0000 </r>
       <r>   12.6362    0.0000 </r>
       <r>   13.2255    0.0000 </r>
       <r>   13.7083    0.0000 </r>
       <r>   16.4796    0.0000 </r>
      </set>
      <set comment="kpoint 14">
       <r>   -6.0234    1.0000 </r>
       <r>    3.8028    1.0000 </r>
       <r>    4.9501    1.0000 </r>
       <r>    5.1401    1.0000 </r>
       <r>    7.9409    0.0000 </r>
       <r>    8.2548    0.0000 </r>
       <r>    8.7224    0.0000 </r>
       <r>    9.9268    0.0000 </r>
       <r>   12.3669    0.0000 </r>
       <r>   13.0769    0.0000 </r>
       <r>   14.1508    0.0000 </r>
       <r>   16.1982    0.0000 </r>
      </set>
      <set comment="kpoint 15">
       <r>   -5.8443    1.0000 </r>
       <r>    2.9412    1.0000 </r>
       <r>    4.7607    1.0000 </r>
       <r>    4.9735    1.0000 </r>
       <r>    7.8286    0.0000 </r>
       <r>    8.4228    0.0000 </r>
       <r>    8.9840    0.0000 </r>
       <r>   10.6782    0.0000 </r>
       <r>   12.2543    0.0000 </r>
       <r>   12.9695    0.0000 </r>
       <r>   14.5456    0.0000 </r>
       <r>   16.1433    0.0000 </r>
      </set>
      <set comment="kpoint 16">
       <r>   -5.6125    1.0000 </r>
       <r>    2.0826    1.0000 </r>
       <r>    4.5904    1.0000 </r>
       <r>    4.7876    1.0000 </r>
       <r>    7.6616    0.0000 </r>
       <r>    8.6232    0.0000 </r>
       <r>    9.1704    0.0000 </r>
       <r>   11.2794    0.0000 </r>
       <r>   12.4752    0.0000 </r>
       <r>   13.0113    0.0000 </r>
       <r>   14.5863    0.0000 </r>
       <r>   16.6342    0.0000 </r>
      </set>
      <set comment="kpoint 17">
       <r>   -5.3324    1.0000 </r>
       <r>    1.2551    1.0000 </r>
       <r>    4.4479    1.0000 </r>
       <r>    4.6055    1.0000 </r>
       <r>    7.4958    0.0000 </r>
       <r>    8.7542    0.0000 </r>
       <r>    9.2461    0.0000 </r>
       <r>   11.7274    0.0000 </r>
       <r>   13.0377    0.0000 </r>
       <r>   13.2588    0.0000 </r>
       <r>   14.4203    0.0000 </r>
       <r>   17.5099    0.0000 </r>
      </set>
      <set comment="kpoint 18">
       <r>   -5.0123    1.0000 </r>
       <r>    0.4800    1.0000 </r>
       <r>    4.3383    1.0000 </r>
       <r>    4.4401    1.0000 </r>
       <r>    7.3492    0.0000 </r>
       <r>    8.7990    0.0000 </r>
       <r>    9.2254    0.0000 </r>
       <r>   12.2076    0.0000 </r>
       <r>   13.6399    0.0000 </r>
       <r>   13.7225    0.0000 </r>
       <r>   14.3844    0.0000 </r>
       <r>   18.4400    0.0000 </r>
      </set>
      <set comment="kpoint 19">
       <r>   -4.6680    1.0000 </r>
       <r>   -0.2208    1.0000 </r>
       <r>    4.2634    1.0000 </r>
       <r>    4.2983    1.0000 </r>
       <r>    7.2308    0.0000 </r>
       <r>    8.7912    0.0000 </r>
       <r>    9.1458    0.0000 </r>
       <r>   12.7432    0.0000 </r>
       <r>   13.8366    0.0000 </r>
       <r>   14.3586    0.0000 </r>
       <r>   14.9134    0.0000 </r>
       <r>   18.7756    0.0000 </r>
      </set>
      <set comment="kpoint 20">
       <r>   -4.3319    1.0000 </r>
       <r>   -0.8080    1.0000 </r>
       <r>    4.1845    1.0000 </r>
       <r>    4.2246    1.0000 </r>
       <r>    7.1457    0.0000 </r>
       <r>    8.7719    0.0000 </r>
       <r>    9.0542    0.0000 </r>
       <r>   13.1316    0.0000 </r>
       <r>   14.0987    0.0000 </r>
       <r>   15.1246    0.0000 </r>
       <r>   15.7147    0.0000 </r>
       <r>   17.7341    0.0000 </r>
      </set>
      <set comment="kpoint 21">
       <r>   -4.0718    1.0000 </r>
       <r>   -1.2121    1.0000 </r>
       <r>    4.1013    1.0000 </r>
       <r>    4.2209    1.0000 </r>
       <r>    7.0946    0.0000 </r>
       <r>    8.7702    0.0000 </r>
       <r>    8.9738    0.0000 </r>
       <r>   13.2256    0.0000 </r>
       <r>   14.7413    0.0000 </r>
       <r>   15.9273    0.0000 </r>
       <r>   16.4617    0.0000 </r>
       <r>   16.7710    0.0000 </r>
      </set>
      <set comment="kpoint 22">
       <r>   -3.9936    1.0000 </r>
       <r>   -1.3262    1.0000 </r>
       <r>    4.0506    1.0000 </r>
       <r>    4.2509    1.0000 </r>
       <r>    7.0809    0.0000 </r>
       <r>    8.7994    0.0000 </r>
       <r>    8.9206    0.0000 </r>
       <r>   13.2402    0.0000 </r>
       <r>   15.3958    0.0000 </r>
       <r>   15.5971    0.0000 </r>
       <r>   16.4414    0.0000 </r>
       <r>   17.0632    0.0000 </r>
      </set>
      <set comment="kpoint 23">
       <r>   -4.1441    1.0000 </r>
       <r>   -1.1037    1.0000 </r>
       <r>    4.0344    1.0000 </r>
       <r>    4.3138    1.0000 </r>
       <r>    7.1038    0.0000 </r>
       <r>    8.8620    0.0000 </r>
       <r>    8.8986    0.0000 </r>
       <r>   13.2536    0.0000 </r>
       <r>   14.7016    0.0000 </r>
       <r>   15.1319    0.0000 </r>
       <r>   16.5216    0.0000 </r>
       <r>   16.8963    0.0000 </r>
      </set>
      <set comment="kpoint 24">
       <r>   -4.4400    1.0000 </r>
       <r>   -0.6276    1.0000 </r>
       <r>    4.0536    1.0000 </r>
       <r>    4.4078    1.0000 </r>
       <r>    7.1647    0.0000 </r>
       <r>    8.9028    0.0000 </r>
       <r>    8.9523    0.0000 </r>
       <r>   13.2166    0.0000 </r>
       <r>   13.8864    0.0000 </r>
       <r>   14.5203    0.0000 </r>
       <r>   15.6873    0.0000 </r>
       <r>   17.8202    0.0000 </r>
      </set>
      <set comment="kpoint 25">
       <r>   -4.7842    1.0000 </r>
       <r>    0.0032    1.0000 </r>
       <r>    4.1089    1.0000 </r>
       <r>    4.5302    1.0000 </r>
       <r>    7.2590    0.0000 </r>
       <r>    8.9143    0.0000 </r>
       <r>    9.0469    0.0000 </r>
       <r>   12.9465    0.0000 </r>
       <r>   13.1860    0.0000 </r>
       <r>   14.1923    0.0000 </r>
       <r>   14.8630    0.0000 </r>
       <r>   18.5941    0.0000 </r>
      </set>
      <set comment="kpoint 26">
       <r>   -5.1229    1.0000 </r>
       <r>    0.7318    1.0000 </r>
       <r>    4.2014    1.0000 </r>
       <r>    4.6777    1.0000 </r>
       <r>    7.3864    0.0000 </r>
       <r>    8.9025    0.0000 </r>
       <r>    9.1137    0.0000 </r>
       <r>   12.4331    0.0000 </r>
       <r>   12.6391    0.0000 </r>
       <r>   13.9805    0.0000 </r>
       <r>   14.3604    0.0000 </r>
       <r>   18.1173    0.0000 </r>
      </set>
      <set comment="kpoint 27">
       <r>   -5.4309    1.0000 </r>
       <r>    1.5262    1.0000 </r>
       <r>    4.3299    1.0000 </r>
       <r>    4.8450    1.0000 </r>
       <r>    7.5421    0.0000 </r>
       <r>    8.8265    0.0000 </r>
       <r>    9.1045    0.0000 </r>
       <r>   11.8498    0.0000 </r>
       <r>   12.2956    0.0000 </r>
       <r>   13.4089    0.0000 </r>
       <r>   14.4940    0.0000 </r>
       <r>   17.1853    0.0000 </r>
      </set>
      <set comment="kpoint 28">
       <r>   -5.6956    1.0000 </r>
       <r>    2.3650    1.0000 </r>
       <r>    4.4922    1.0000 </r>
       <r>    5.0232    1.0000 </r>
       <r>    7.7164    0.0000 </r>
       <r>    8.6666    0.0000 </r>
       <r>    8.9762    0.0000 </r>
       <r>   11.2091    0.0000 </r>
       <r>   12.1844    0.0000 </r>
       <r>   13.0343    0.0000 </r>
       <r>   14.6253    0.0000 </r>
       <r>   16.4043    0.0000 </r>
      </set>
      <set comment="kpoint 29">
       <r>   -5.9102    1.0000 </r>
       <r>    3.2245    1.0000 </r>
       <r>    4.6846    1.0000 </r>
       <r>    5.1981    1.0000 </r>
       <r>    7.8990    0.0000 </r>
       <r>    8.4461    0.0000 </r>
       <r>    8.7343    0.0000 </r>
       <r>   10.4883    0.0000 </r>
       <r>   12.2825    0.0000 </r>
       <r>   12.9373    0.0000 </r>
       <r>   14.4448    0.0000 </r>
       <r>   16.1177    0.0000 </r>
      </set>
      <set comment="kpoint 30">
       <r>   -6.0710    1.0000 </r>
       <r>    4.0627    1.0000 </r>
       <r>    4.9021    1.0000 </r>
       <r>    5.3433    1.0000 </r>
       <r>    8.0640    0.0000 </r>
       <r>    8.2299    0.0000 </r>
       <r>    8.4336    0.0000 </r>
       <r>    9.7271    0.0000 </r>
       <r>   12.5314    0.0000 </r>
       <r>   13.0262    0.0000 </r>
       <r>   13.9922    0.0000 </r>
       <r>   16.2847    0.0000 </r>
      </set>
      <set comment="kpoint 31">
       <r>   -6.1760    1.0000 </r>
       <r>    4.7679    1.0000 </r>
       <r>    5.1532    1.0000 </r>
       <r>    5.4232    1.0000 </r>
       <r>    8.0906    0.0000 </r>
       <r>    8.1529    0.0000 </r>
       <r>    8.1648    0.0000 </r>
       <r>    9.0355    0.0000 </r>
       <r>   12.8443    0.0000 </r>
       <r>   13.1423    0.0000 </r>
       <r>   13.5909    0.0000 </r>
       <r>   16.5069    0.0000 </r>
      </set>
      <set comment="kpoint 32">
       <r>   -6.0992    1.0000 </r>
       <r>    4.5575    1.0000 </r>
       <r>    4.9488    1.0000 </r>
       <r>    4.9488    1.0000 </r>
       <r>    7.6749    0.0000 </r>
       <r>    8.7124    0.0000 </r>
       <r>    8.7124    0.0000 </r>
       <r>    9.2126    0.0000 </r>
       <r>   12.3091    0.0000 </r>
       <r>   13.4026    0.0000 </r>
       <r>   13.9025    0.0000 </r>
       <r>   16.8794    0.0000 </r>
      </set>
      <set comment="kpoint 33">
       <r>   -5.9943    1.0000 </r>
       <r>    3.9518    1.0000 </r>
       <r>    4.7424    1.0000 </r>
       <r>    4.8371    1.0000 </r>
       <r>    7.6243    0.0000 </r>
       <r>    8.7658    0.0000 </r>
       <r>    9.0227    0.0000 </r>
       <r>    9.7428    0.0000 </r>
       <r>   12.0532    0.0000 </r>
       <r>   13.4136    0.0000 </r>
       <r>   14.2871    0.0000 </r>
       <r>   16.6943    0.0000 </r>
      </set>
      <set comment="kpoint 34">
       <r>   -5.8335    1.0000 </r>
       <r>    3.1628    1.0000 </r>
       <r>    4.5448    1.0000 </r>
       <r>    4.7023    1.0000 </r>
       <r>    7.7142    0.0000 </r>
       <r>    8.6831    0.0000 </r>
       <r>    9.3192    0.0000 </r>
       <r>   10.2805    0.0000 </r>
       <r>   12.0753    0.0000 </r>
       <r>   13.3669    0.0000 </r>
       <r>   14.7480    0.0000 </r>
       <r>   16.4768    0.0000 </r>
      </set>
      <set comment="kpoint 35">
       <r>   -5.6191    1.0000 </r>
       <r>    2.3365    1.0000 </r>
       <r>    4.3719    1.0000 </r>
       <r>    4.5149    1.0000 </r>
       <r>    7.8066    0.0000 </r>
       <r>    8.6572    0.0000 </r>
       <r>    9.5431    0.0000 </r>
       <r>   10.5584    0.0000 </r>
       <r>   12.5163    0.0000 </r>
       <r>   13.3983    0.0000 </r>
       <r>   14.9934    0.0000 </r>
       <r>   16.6488    0.0000 </r>
      </set>
      <set comment="kpoint 36">
       <r>   -5.3547    1.0000 </r>
       <r>    1.5207    1.0000 </r>
       <r>    4.2315    1.0000 </r>
       <r>    4.3074    1.0000 </r>
       <r>    7.7992    0.0000 </r>
       <r>    8.7131    0.0000 </r>
       <r>    9.6517    0.0000 </r>
       <r>   10.7699    0.0000 </r>
       <r>   13.2314    0.0000 </r>
       <r>   13.6170    0.0000 </r>
       <r>   14.8941    0.0000 </r>
       <r>   17.3392    0.0000 </r>
      </set>
      <set comment="kpoint 37">
       <r>   -5.0468    1.0000 </r>
       <r>    0.7420    1.0000 </r>
       <r>    4.1048    1.0000 </r>
       <r>    4.1280    1.0000 </r>
       <r>    7.7181    0.0000 </r>
       <r>    8.7632    0.0000 </r>
       <r>    9.6429    0.0000 </r>
       <r>   11.1219    0.0000 </r>
       <r>   13.9968    0.0000 </r>
       <r>   14.0393    0.0000 </r>
       <r>   14.7309    0.0000 </r>
       <r>   18.1995    0.0000 </r>
      </set>
      <set comment="kpoint 38">
       <r>   -4.7082    1.0000 </r>
       <r>    0.0240    1.0000 </r>
       <r>    3.9199    1.0000 </r>
       <r>    4.0634    1.0000 </r>
       <r>    7.6236    0.0000 </r>
       <r>    8.7680    0.0000 </r>
       <r>    9.5558    0.0000 </r>
       <r>   11.6506    0.0000 </r>
       <r>   14.3137    0.0000 </r>
       <r>   14.6431    0.0000 </r>
       <r>   15.0699    0.0000 </r>
       <r>   18.6581    0.0000 </r>
      </set>
      <set comment="kpoint 39">
       <r>   -4.3637    1.0000 </r>
       <r>   -0.5999    1.0000 </r>
       <r>    3.7609    1.0000 </r>
       <r>    4.0389    1.0000 </r>
       <r>    7.5454    0.0000 </r>
       <r>    8.7539    0.0000 </r>
       <r>    9.4386    0.0000 </r>
       <r>   12.2958    0.0000 </r>
       <r>   14.2329    0.0000 </r>
       <r>   15.3805    0.0000 </r>
       <r>   15.8889    0.0000 </r>
       <r>   17.6306    0.0000 </r>
      </set>
      <set comment="kpoint 40">
       <r>   -4.0671    1.0000 </r>
       <r>   -1.0722    1.0000 </r>
       <r>    3.6329    1.0000 </r>
       <r>    4.0532    1.0000 </r>
       <r>    7.4947    0.0000 </r>
       <r>    8.7544    0.0000 </r>
       <r>    9.3205    0.0000 </r>
       <r>   12.9481    0.0000 </r>
       <r>   14.2376    0.0000 </r>
       <r>   16.1013    0.0000 </r>
       <r>   16.6368    0.0000 </r>
       <r>   16.7114    0.0000 </r>
      </set>
      <set comment="kpoint 41">
       <r>   -3.9168    1.0000 </r>
       <r>   -1.2927    1.0000 </r>
       <r>    3.5394    1.0000 </r>
       <r>    4.1055    1.0000 </r>
       <r>    7.4783    0.0000 </r>
       <r>    8.7846    0.0000 </r>
       <r>    9.2230    0.0000 </r>
       <r>   13.3809    0.0000 </r>
       <r>   14.4776    0.0000 </r>
       <r>   15.4829    0.0000 </r>
       <r>   16.4271    0.0000 </r>
       <r>   17.2661    0.0000 </r>
      </set>
      <set comment="kpoint 42">
       <r>   -3.9960    1.0000 </r>
       <r>   -1.1772    1.0000 </r>
       <r>    3.4833    1.0000 </r>
       <r>    4.1932    1.0000 </r>
       <r>    7.4977    0.0000 </r>
       <r>    8.8513    0.0000 </r>
       <r>    9.1535    0.0000 </r>
       <r>   13.4676    0.0000 </r>
       <r>   14.5592    0.0000 </r>
       <r>   14.7293    0.0000 </r>
       <r>   16.2111    0.0000 </r>
       <r>   17.8136    0.0000 </r>
      </set>
      <set comment="kpoint 43">
       <r>   -4.2576    1.0000 </r>
       <r>   -0.7741    1.0000 </r>
       <r>    3.4671    1.0000 </r>
       <r>    4.3135    1.0000 </r>
       <r>    7.5528    0.0000 </r>
       <r>    8.9510    0.0000 </r>
       <r>    9.1085    0.0000 </r>
       <r>   13.2545    0.0000 </r>
       <r>   13.7140    0.0000 </r>
       <r>   14.6034    0.0000 </r>
       <r>   16.7731    0.0000 </r>
       <r>   16.9544    0.0000 </r>
      </set>
      <set comment="kpoint 44">
       <r>   -4.5941    1.0000 </r>
       <r>   -0.1915    1.0000 </r>
       <r>    3.4939    1.0000 </r>
       <r>    4.4623    1.0000 </r>
       <r>    7.6398    0.0000 </r>
       <r>    9.0689    0.0000 </r>
       <r>    9.0760    0.0000 </r>
       <r>   12.7621    0.0000 </r>
       <r>   12.9854    0.0000 </r>
       <r>   14.5779    0.0000 </r>
       <r>   16.0523    0.0000 </r>
       <r>   17.6455    0.0000 </r>
      </set>
      <set comment="kpoint 45">
       <r>   -4.9384    1.0000 </r>
       <r>    0.4987    1.0000 </r>
       <r>    3.5647    1.0000 </r>
       <r>    4.6339    1.0000 </r>
       <r>    7.7567    0.0000 </r>
       <r>    9.0270    0.0000 </r>
       <r>    9.1718    0.0000 </r>
       <r>   12.1706    0.0000 </r>
       <r>   12.4059    0.0000 </r>
       <r>   14.7100    0.0000 </r>
       <r>   15.2076    0.0000 </r>
       <r>   18.0889    0.0000 </r>
      </set>
      <set comment="kpoint 46">
       <r>   -5.2581    1.0000 </r>
       <r>    1.2563    1.0000 </r>
       <r>    3.6826    1.0000 </r>
       <r>    4.8200    1.0000 </r>
       <r>    7.8988    0.0000 </r>
       <r>    8.9241    0.0000 </r>
       <r>    9.1992    0.0000 </r>
       <r>   11.6273    0.0000 </r>
       <r>   12.0289    0.0000 </r>
       <r>   14.4069    0.0000 </r>
       <r>   14.9188    0.0000 </r>
       <r>   17.4833    0.0000 </r>
      </set>
      <set comment="kpoint 47">
       <r>   -5.5376    1.0000 </r>
       <r>    2.0511    1.0000 </r>
       <r>    3.8528    1.0000 </r>
       <r>    5.0081    1.0000 </r>
       <r>    8.0561    0.0000 </r>
       <r>    8.7473    0.0000 </r>
       <r>    9.0825    0.0000 </r>
       <r>   11.1866    0.0000 </r>
       <r>   11.8832    0.0000 </r>
       <r>   13.7429    0.0000 </r>
       <r>   15.0501    0.0000 </r>
       <r>   16.7570    0.0000 </r>
      </set>
      <set comment="kpoint 48">
       <r>   -5.7689    1.0000 </r>
       <r>    2.8431    1.0000 </r>
       <r>    4.0888    1.0000 </r>
       <r>    5.1791    1.0000 </r>
       <r>    8.2103    0.0000 </r>
       <r>    8.5260    0.0000 </r>
       <r>    8.8064    0.0000 </r>
       <r>   10.7779    0.0000 </r>
       <r>   11.9529    0.0000 </r>
       <r>   13.2779    0.0000 </r>
       <r>   14.8733    0.0000 </r>
       <r>   16.4383    0.0000 </r>
      </set>
      <set comment="kpoint 49">
       <r>   -5.9476    1.0000 </r>
       <r>    3.5516    1.0000 </r>
       <r>    4.4299    1.0000 </r>
       <r>    5.3009    1.0000 </r>
       <r>    8.2909    0.0000 </r>
       <r>    8.3289    0.0000 </r>
       <r>    8.4935    0.0000 </r>
       <r>   10.2776    0.0000 </r>
       <r>   12.1889    0.0000 </r>
       <r>   13.0805    0.0000 </r>
       <r>   14.4177    0.0000 </r>
       <r>   16.4518    0.0000 </r>
      </set>
      <set comment="kpoint 50">
       <r>   -5.9082    1.0000 </r>
       <r>    3.7888    1.0000 </r>
       <r>    4.5231    1.0000 </r>
       <r>    4.5232    1.0000 </r>
       <r>    7.3515    0.0000 </r>
       <r>    9.3692    0.0000 </r>
       <r>    9.3692    0.0000 </r>
       <r>    9.6175    0.0000 </r>
       <r>   11.8717    0.0000 </r>
       <r>   13.6142    0.0000 </r>
       <r>   14.6016    0.0000 </r>
       <r>   17.2118    0.0000 </r>
      </set>
      <set comment="kpoint 51">
       <r>   -5.7659    1.0000 </r>
       <r>    3.2227    1.0000 </r>
       <r>    4.3181    1.0000 </r>
       <r>    4.3563    1.0000 </r>
       <r>    7.2913    0.0000 </r>
       <r>    9.3350    0.0000 </r>
       <r>    9.7110    0.0000 </r>
       <r>    9.9302    0.0000 </r>
       <r>   12.0123    0.0000 </r>
       <r>   13.6944    0.0000 </r>
       <r>   15.0462    0.0000 </r>
       <r>   17.0788    0.0000 </r>
      </set>
      <set comment="kpoint 52">
       <r>   -5.5692    1.0000 </r>
       <r>    2.4984    1.0000 </r>
       <r>    4.1394    1.0000 </r>
       <r>    4.1686    1.0000 </r>
       <r>    7.3959    0.0000 </r>
       <r>    9.2219    0.0000 </r>
       <r>    9.9898    0.0000 </r>
       <r>   10.0490    0.0000 </r>
       <r>   12.5697    0.0000 </r>
       <r>   13.7666    0.0000 </r>
       <r>   15.4543    0.0000 </r>
       <r>   16.9839    0.0000 </r>
      </set>
      <set comment="kpoint 53">
       <r>   -5.3212    1.0000 </r>
       <r>    1.7347    1.0000 </r>
       <r>    3.9396    1.0000 </r>
       <r>    3.9954    1.0000 </r>
       <r>    7.5361    0.0000 </r>
       <r>    9.2106    0.0000 </r>
       <r>   10.0420    0.0000 </r>
       <r>   10.1481    0.0000 </r>
       <r>   13.3577    0.0000 </r>
       <r>   13.9655    0.0000 </r>
       <r>   15.5322    0.0000 </r>
       <r>   17.3674    0.0000 </r>
      </set>
      <set comment="kpoint 54">
       <r>   -5.0271    1.0000 </r>
       <r>    0.9803    1.0000 </r>
       <r>    3.6997    1.0000 </r>
       <r>    3.8909    1.0000 </r>
       <r>    7.6081    0.0000 </r>
       <r>    9.2636    0.0000 </r>
       <r>   10.1662    0.0000 </r>
       <r>   10.1739    0.0000 </r>
       <r>   14.2192    0.0000 </r>
       <r>   14.3583    0.0000 </r>
       <r>   15.3646    0.0000 </r>
       <r>   18.0952    0.0000 </r>
      </set>
      <set comment="kpoint 55">
       <r>   -4.6968    1.0000 </r>
       <r>    0.2656    1.0000 </r>
       <r>    3.4709    1.0000 </r>
       <r>    3.8284    1.0000 </r>
       <r>    7.6082    0.0000 </r>
       <r>    9.2568    0.0000 </r>
       <r>   10.1001    0.0000 </r>
       <r>   10.5673    0.0000 </r>
       <r>   14.9330    0.0000 </r>
       <r>   14.9413    0.0000 </r>
       <r>   15.3181    0.0000 </r>
       <r>   18.5885    0.0000 </r>
      </set>
      <set comment="kpoint 56">
       <r>   -4.3497    1.0000 </r>
       <r>   -0.3770    1.0000 </r>
       <r>    3.2670    1.0000 </r>
       <r>    3.8083    1.0000 </r>
       <r>    7.5864    0.0000 </r>
       <r>    9.2032    0.0000 </r>
       <r>    9.9711    0.0000 </r>
       <r>   11.1923    0.0000 </r>
       <r>   14.8421    0.0000 </r>
       <r>   15.6512    0.0000 </r>
       <r>   16.0897    0.0000 </r>
       <r>   17.5626    0.0000 </r>
      </set>
      <set comment="kpoint 57">
       <r>   -4.0279    1.0000 </r>
       <r>   -0.8985    1.0000 </r>
       <r>    3.0951    1.0000 </r>
       <r>    3.8304    1.0000 </r>
       <r>    7.5776    0.0000 </r>
       <r>    9.1524    0.0000 </r>
       <r>    9.8309    0.0000 </r>
       <r>   11.9400    0.0000 </r>
       <r>   14.6407    0.0000 </r>
       <r>   16.2471    0.0000 </r>
       <r>   16.7454    0.0000 </r>
       <r>   16.8610    0.0000 </r>
      </set>
      <set comment="kpoint 58">
       <r>   -3.8157    1.0000 </r>
       <r>   -1.2102    1.0000 </r>
       <r>    2.9608    1.0000 </r>
       <r>    3.8939    1.0000 </r>
       <r>    7.5999    0.0000 </r>
       <r>    9.1302    0.0000 </r>
       <r>    9.7012    0.0000 </r>
       <r>   12.7446    0.0000 </r>
       <r>   14.3904    0.0000 </r>
       <r>   15.4078    0.0000 </r>
       <r>   16.6176    0.0000 </r>
       <r>   17.4882    0.0000 </r>
      </set>
      <set comment="kpoint 59">
       <r>   -3.8185    1.0000 </r>
       <r>   -1.2051    1.0000 </r>
       <r>    2.8681    1.0000 </r>
       <r>    3.9959    1.0000 </r>
       <r>    7.6575    0.0000 </r>
       <r>    9.1441    0.0000 </r>
       <r>    9.5918    0.0000 </r>
       <r>   13.4926    0.0000 </r>
       <r>   14.0441    0.0000 </r>
       <r>   14.4588    0.0000 </r>
       <r>   16.2698    0.0000 </r>
       <r>   18.4716    0.0000 </r>
      </set>
      <set comment="kpoint 60">
       <r>   -4.0345    1.0000 </r>
       <r>   -0.8856    1.0000 </r>
       <r>    2.8213    1.0000 </r>
       <r>    4.1335    1.0000 </r>
       <r>    7.7519    0.0000 </r>
       <r>    9.1967    0.0000 </r>
       <r>    9.5057    0.0000 </r>
       <r>   13.3027    0.0000 </r>
       <r>   13.5934    0.0000 </r>
       <r>   14.3441    0.0000 </r>
       <r>   16.3526    0.0000 </r>
       <r>   18.2782    0.0000 </r>
      </set>
      <set comment="kpoint 61">
       <r>   -4.3575    1.0000 </r>
       <r>   -0.3607    1.0000 </r>
       <r>    2.8244    1.0000 </r>
       <r>    4.3015    1.0000 </r>
       <r>    7.8755    0.0000 </r>
       <r>    9.2775    0.0000 </r>
       <r>    9.4312    0.0000 </r>
       <r>   12.6323    0.0000 </r>
       <r>   12.8409    0.0000 </r>
       <r>   14.8284    0.0000 </r>
       <r>   16.8572    0.0000 </r>
       <r>   17.3422    0.0000 </r>
      </set>
      <set comment="kpoint 62">
       <r>   -4.7040    1.0000 </r>
       <r>    0.2795    1.0000 </r>
       <r>    2.8831    1.0000 </r>
       <r>    4.4923    1.0000 </r>
       <r>    8.0203    0.0000 </r>
       <r>    9.3380    0.0000 </r>
       <r>    9.3607    0.0000 </r>
       <r>   11.9622    0.0000 </r>
       <r>   12.2418    0.0000 </r>
       <r>   15.1718    0.0000 </r>
       <r>   16.4212    0.0000 </r>
       <r>   17.5060    0.0000 </r>
      </set>
      <set comment="kpoint 63">
       <r>   -5.0334    1.0000 </r>
       <r>    0.9799    1.0000 </r>
       <r>    3.0073    1.0000 </r>
       <r>    4.6954    1.0000 </r>
       <r>    8.1748    0.0000 </r>
       <r>    9.1899    0.0000 </r>
       <r>    9.3831    0.0000 </r>
       <r>   11.4053    0.0000 </r>
       <r>   11.8422    0.0000 </r>
       <r>   15.3469    0.0000 </r>
       <r>   15.6151    0.0000 </r>
       <r>   17.5169    0.0000 </r>
      </set>
      <set comment="kpoint 64">
       <r>   -5.3264    1.0000 </r>
       <r>    1.6901    1.0000 </r>
       <r>    3.2198    1.0000 </r>
       <r>    4.8950    1.0000 </r>
       <r>    8.3180    0.0000 </r>
       <r>    8.9716    0.0000 </r>
       <r>    9.2462    0.0000 </r>
       <r>   11.0643    0.0000 </r>
       <r>   11.6819    0.0000 </r>
       <r>   14.6265    0.0000 </r>
       <r>   15.6013    0.0000 </r>
       <r>   16.9709    0.0000 </r>
      </set>
      <set comment="kpoint 65">
       <r>   -5.5734    1.0000 </r>
       <r>    2.3366    1.0000 </r>
       <r>    3.5675    1.0000 </r>
       <r>    5.0669    1.0000 </r>
       <r>    8.3871    0.0000 </r>
       <r>    8.7245    0.0000 </r>
       <r>    8.9656    0.0000 </r>
       <r>   10.9225    0.0000 </r>
       <r>   11.7364    0.0000 </r>
       <r>   13.8575    0.0000 </r>
       <r>   15.3591    0.0000 </r>
       <r>   16.6621    0.0000 </r>
      </set>
      <set comment="kpoint 66">
       <r>   -5.6420    1.0000 </r>
       <r>    2.9716    1.0000 </r>
       <r>    4.1046    1.0000 </r>
       <r>    4.1046    1.0000 </r>
       <r>    7.0126    0.0000 </r>
       <r>    9.3915    0.0000 </r>
       <r>   10.1108    0.0000 </r>
       <r>   10.1108    0.0000 </r>
       <r>   12.1635    0.0000 </r>
       <r>   13.9129    0.0000 </r>
       <r>   15.4547    0.0000 </r>
       <r>   17.6689    0.0000 </r>
      </set>
[...]
       <r>   15.6422    0.0000 </r>
       <r>   18.2699    0.0000 </r>
       <r>   19.4968    0.0000 </r>
      </set>
      <set comment="kpoint 279">
       <r>   -2.8746    1.0000 </r>
       <r>   -1.3992    1.0000 </r>
       <r>    1.4925    1.0000 </r>
       <r>    2.4840    1.0000 </r>
       <r>    9.0351    0.0000 </r>
       <r>    9.2809    0.0000 </r>
       <r>   10.6830    0.0000 </r>
       <r>   11.6894    0.0000 </r>
       <r>   13.8173    0.0000 </r>
       <r>   16.3012    0.0000 </r>
       <r>   17.5408    0.0000 </r>
       <r>   19.4837    0.0000 </r>
      </set>
      <set comment="kpoint 280">
       <r>   -2.9327    1.0000 </r>
       <r>   -1.3089    1.0000 </r>
       <r>    1.6864    1.0000 </r>
       <r>    2.3169    1.0000 </r>
       <r>    8.6222    0.0000 </r>
       <r>    8.9503    0.0000 </r>
       <r>   10.3679    0.0000 </r>
       <r>   12.7982    0.0000 </r>
       <r>   14.3911    0.0000 </r>
       <r>   16.0827    0.0000 </r>
       <r>   17.9724    0.0000 </r>
       <r>   19.3858    0.0000 </r>
      </set>
      <set comment="kpoint 281">
       <r>   -2.6357    1.0000 </r>
       <r>   -1.5926    1.0000 </r>
       <r>    1.5763    1.0000 </r>
       <r>    2.1821    1.0000 </r>
       <r>    8.8567    0.0000 </r>
       <r>    9.5796    0.0000 </r>
       <r>   10.2281    0.0000 </r>
       <r>   11.7829    0.0000 </r>
       <r>   14.7055    0.0000 </r>
       <r>   16.3697    0.0000 </r>
       <r>   17.6357    0.0000 </r>
       <r>   19.2961    0.0000 </r>
      </set>
      <set comment="kpoint 282">
       <r>   -2.5619    1.0000 </r>
       <r>   -1.6598    1.0000 </r>
       <r>    1.4910    1.0000 </r>
       <r>    2.2030    1.0000 </r>
       <r>    8.9989    0.0000 </r>
       <r>    9.8863    0.0000 </r>
       <r>   10.5704    0.0000 </r>
       <r>   10.9217    0.0000 </r>
       <r>   14.7053    0.0000 </r>
       <r>   16.2202    0.0000 </r>
       <r>   17.7672    0.0000 </r>
       <r>   19.3548    0.0000 </r>
      </set>
      <set comment="kpoint 283">
       <r>   -2.7891    1.0000 </r>
       <r>   -1.4404    1.0000 </r>
       <r>    1.4731    1.0000 </r>
       <r>    2.3489    1.0000 </r>
       <r>    9.1665    0.0000 </r>
       <r>    9.6382    0.0000 </r>
       <r>   10.0807    0.0000 </r>
       <r>   11.6433    0.0000 </r>
       <r>   14.3735    0.0000 </r>
       <r>   15.8167    0.0000 </r>
       <r>   18.2034    0.0000 </r>
       <r>   19.5382    0.0000 </r>
      </set>
      <set comment="kpoint 284">
       <r>   -2.3920    1.0000 </r>
       <r>   -1.8457    1.0000 </r>
       <r>    1.7733    1.0000 </r>
       <r>    1.9822    1.0000 </r>
       <r>    8.6505    0.0000 </r>
       <r>    8.7593    0.0000 </r>
       <r>   11.1119    0.0000 </r>
       <r>   11.9262    0.0000 </r>
       <r>   15.3843    0.0000 </r>
       <r>   16.2237    0.0000 </r>
       <r>   17.8365    0.0000 </r>
       <r>   18.6234    0.0000 </r>
      </set>
      <set comment="kpoint 285">
       <r>   -2.2821    1.0000 </r>
       <r>   -1.9328    1.0000 </r>
       <r>    1.6252    1.0000 </r>
       <r>    1.9997    1.0000 </r>
       <r>    8.8322    0.0000 </r>
       <r>    9.5560    0.0000 </r>
       <r>   10.9160    0.0000 </r>
       <r>   10.9940    0.0000 </r>
       <r>   15.4169    0.0000 </r>
       <r>   16.0824    0.0000 </r>
       <r>   17.9499    0.0000 </r>
       <r>   18.6734    0.0000 </r>
      </set>
      <set comment="kpoint 286">
       <r>   -2.3262    1.0000 </r>
       <r>   -1.8744    1.0000 </r>
       <r>    1.6330    1.0000 </r>
       <r>    1.9275    1.0000 </r>
       <r>    9.5989    0.0000 </r>
       <r>    9.6384    0.0000 </r>
       <r>   10.1659    0.0000 </r>
       <r>   10.8109    0.0000 </r>
       <r>   15.3971    0.0000 </r>
       <r>   16.1623    0.0000 </r>
       <r>   17.9010    0.0000 </r>
       <r>   18.6742    0.0000 </r>
      </set>
     </set>
    </set>
   </array>
  </eigenvalues>
  <separator name="orbital magnetization" >
   <v name="MAGDIPOLOUT">      0.00000000      0.00000000      0.00000000</v>
  </separator>
  <dos>
   <i name="efermi">      5.77991965 </i>
   <total>
    <array>
     <dimension dim="1">gridpoints</dimension>
     <dimension dim="2">spin</dimension>
     <field>energy</field>
     <field>total</field>
     <field>integrated</field>
     <set>
      <set comment="spin 1">
       <r>    -7.5810     0.0000     0.0000 </r>
       <r>    -7.4836     0.0000     0.0000 </r>
       <r>    -7.3862     0.0000     0.0000 </r>
       <r>    -7.2888     0.0000     0.0000 </r>
       <r>    -7.1914     0.0000     0.0000 </r>
       <r>    -7.0940     0.0000     0.0000 </r>
       <r>    -6.9966     0.0000     0.0000 </r>
       <r>    -6.8992     0.0000     0.0000 </r>
       <r>    -6.8018     0.0000     0.0000 </r>
       <r>    -6.7044     0.0000     0.0000 </r>
       <r>    -6.6070     0.0000     0.0000 </r>
       <r>    -6.5096     0.0000     0.0000 </r>
       <r>    -6.4122     0.0001     0.0000 </r>
       <r>    -6.3148     0.0044     0.0004 </r>
       <r>    -6.2174     0.0339     0.0037 </r>
       <r>    -6.1200     0.0952     0.0130 </r>
       <r>    -6.0226     0.1509     0.0277 </r>
       <r>    -5.9252     0.1917     0.0464 </r>
       <r>    -5.8278     0.2237     0.0682 </r>
       <r>    -5.7304     0.2564     0.0931 </r>
       <r>    -5.6330     0.2795     0.1204 </r>
       <r>    -5.5355     0.3062     0.1502 </r>
       <r>    -5.4381     0.3388     0.1832 </r>
       <r>    -5.3407     0.3394     0.2162 </r>
       <r>    -5.2433     0.3955     0.2548 </r>
       <r>    -5.1459     0.3942     0.2932 </r>
       <r>    -5.0485     0.4085     0.3330 </r>
       <r>    -4.9511     0.4740     0.3791 </r>
       <r>    -4.8537     0.4561     0.4236 </r>
       <r>    -4.7563     0.4753     0.4699 </r>
       <r>    -4.6589     0.5478     0.5232 </r>
       <r>    -4.5615     0.5477     0.5766 </r>
       <r>    -4.4641     0.5332     0.6285 </r>
       <r>    -4.3667     0.6322     0.6901 </r>
       <r>    -4.2693     0.6778     0.7561 </r>
       <r>    -4.1719     0.6337     0.8178 </r>
       <r>    -4.0745     0.7628     0.8921 </r>
       <r>    -3.9771     0.9206     0.9818 </r>
       <r>    -3.8797     0.8424     1.0639 </r>
       <r>    -3.7823     0.8429     1.1460 </r>
       <r>    -3.6849     0.9105     1.2346 </r>
       <r>    -3.5875     0.7683     1.3095 </r>
       <r>    -3.4901     0.7432     1.3819 </r>
       <r>    -3.3927     0.7635     1.4562 </r>
       <r>    -3.2953     0.6993     1.5244 </r>
       <r>    -3.1979     0.6211     1.5849 </r>
       <r>    -3.1005     0.6616     1.6493 </r>
       <r>    -3.0030     0.5819     1.7060 </r>
       <r>    -2.9056     0.4940     1.7541 </r>
       <r>    -2.8082     0.5775     1.8103 </r>
       <r>    -2.7108     0.4393     1.8531 </r>
       <r>    -2.6134     0.3578     1.8880 </r>
       <r>    -2.5160     0.4449     1.9313 </r>
       <r>    -2.4186     0.2987     1.9604 </r>
       <r>    -2.3212     0.1742     1.9774 </r>
       <r>    -2.2238     0.1877     1.9957 </r>
       <r>    -2.1264     0.1268     2.0080 </r>
       <r>    -2.0290     0.0906     2.0169 </r>
       <r>    -1.9316     0.1504     2.0315 </r>
       <r>    -1.8342     0.3142     2.0621 </r>
       <r>    -1.7368     0.3445     2.0957 </r>
       <r>    -1.6394     0.3047     2.1253 </r>
       <r>    -1.5420     0.4524     2.1694 </r>
       <r>    -1.4446     0.6282     2.2306 </r>
       <r>    -1.3472     0.6012     2.2892 </r>
       <r>    -1.2498     1.0816     2.3945 </r>
       <r>    -1.1524     1.5213     2.5427 </r>
       <r>    -1.0550     1.2590     2.6653 </r>
       <r>    -0.9576     0.9727     2.7601 </r>
       <r>    -0.8602     0.8480     2.8427 </r>
       <r>    -0.7628     0.7534     2.9161 </r>
       <r>    -0.6654     0.6857     2.9828 </r>
       <r>    -0.5680     0.6353     3.0447 </r>
       <r>    -0.4705     0.5372     3.0971 </r>
       <r>    -0.3731     0.5686     3.1524 </r>
       <r>    -0.2757     0.5026     3.2014 </r>
       <r>    -0.1783     0.4762     3.2478 </r>
       <r>    -0.0809     0.4446     3.2911 </r>
       <r>     0.0165     0.3915     3.3292 </r>
       <r>     0.1139     0.4174     3.3699 </r>
       <r>     0.2113     0.3849     3.4074 </r>
       <r>     0.3087     0.3634     3.4428 </r>
       <r>     0.4061     0.2854     3.4706 </r>
       <r>     0.5035     0.3545     3.5051 </r>
       <r>     0.6009     0.2850     3.5329 </r>
       <r>     0.6983     0.2910     3.5612 </r>
       <r>     0.7957     0.3144     3.5918 </r>
       <r>     0.8931     0.1979     3.6111 </r>
       <r>     0.9905     0.2348     3.6340 </r>
       <r>     1.0879     0.2596     3.6593 </r>
       <r>     1.1853     0.2769     3.6862 </r>
       <r>     1.2827     0.4422     3.7293 </r>
       <r>     1.3801     0.6728     3.7948 </r>
       <r>     1.4775     1.0041     3.8926 </r>
       <r>     1.5749     1.2067     4.0102 </r>
       <r>     1.6723     1.1981     4.1269 </r>
       <r>     1.7697     1.2072     4.2445 </r>
       <r>     1.8671     1.0357     4.3453 </r>
       <r>     1.9645     0.9875     4.4415 </r>
       <r>     2.0620     1.1227     4.5509 </r>
       <r>     2.1594     1.0396     4.6521 </r>
       <r>     2.2568     1.1480     4.7640 </r>
       <r>     2.3542     1.1883     4.8797 </r>
       <r>     2.4516     1.0785     4.9847 </r>
       <r>     2.5490     1.2380     5.1053 </r>
       <r>     2.6464     1.3867     5.2404 </r>
       <r>     2.7438     1.4560     5.3822 </r>
       <r>     2.8412     1.5893     5.5370 </r>
       <r>     2.9386     1.6250     5.6953 </r>
       <r>     3.0360     1.3897     5.8307 </r>
       <r>     3.1334     1.3559     5.9627 </r>
       <r>     3.2308     1.6709     6.1255 </r>
       <r>     3.3282     1.4216     6.2640 </r>
       <r>     3.4256     1.2726     6.3879 </r>
       <r>     3.5230     1.4173     6.5260 </r>
       <r>     3.6204     1.3242     6.6549 </r>
       <r>     3.7178     1.3550     6.7869 </r>
       <r>     3.8152     1.2999     6.9135 </r>
       <r>     3.9126     1.1909     7.0295 </r>
       <r>     4.0100     1.2212     7.1485 </r>
       <r>     4.1074     1.2817     7.2733 </r>
       <r>     4.2048     1.1954     7.3898 </r>
       <r>     4.3022     1.0632     7.4933 </r>
       <r>     4.3996     0.9284     7.5838 </r>
       <r>     4.4970     0.7642     7.6582 </r>
       <r>     4.5945     0.6753     7.7240 </r>
       <r>     4.6919     0.5622     7.7787 </r>
       <r>     4.7893     0.5186     7.8292 </r>
       <r>     4.8867     0.4197     7.8701 </r>
       <r>     4.9841     0.3460     7.9038 </r>
       <r>     5.0815     0.2854     7.9316 </r>
       <r>     5.1789     0.2753     7.9584 </r>
       <r>     5.2763     0.2139     7.9793 </r>
       <r>     5.3737     0.1281     7.9918 </r>
       <r>     5.4711     0.0655     7.9981 </r>
       <r>     5.5685     0.0178     7.9999 </r>
       <r>     5.6659     0.0014     8.0000 </r>
       <r>     5.7633     0.0000     8.0000 </r>
       <r>     5.8607     0.0000     8.0000 </r>
       <r>     5.9581     0.0003     8.0000 </r>
       <r>     6.0555     0.0065     8.0007 </r>
       <r>     6.1529     0.0415     8.0047 </r>
       <r>     6.2503     0.1214     8.0165 </r>
       <r>     6.3477     0.2132     8.0373 </r>
       <r>     6.4451     0.2950     8.0660 </r>
       <r>     6.5425     0.3917     8.1042 </r>
       <r>     6.6399     0.4666     8.1496 </r>
       <r>     6.7373     0.4623     8.1947 </r>
       <r>     6.8347     0.4899     8.2424 </r>
       <r>     6.9321     0.6169     8.3025 </r>
       <r>     7.0295     0.7474     8.3753 </r>
       <r>     7.1270     0.8995     8.4629 </r>
       <r>     7.2244     0.8875     8.5493 </r>
       <r>     7.3218     1.0131     8.6480 </r>
       <r>     7.4192     1.1130     8.7564 </r>
       <r>     7.5166     1.1635     8.8697 </r>
       <r>     7.6140     1.3901     9.0051 </r>
       <r>     7.7114     1.7089     9.1716 </r>
       <r>     7.8088     1.7726     9.3442 </r>
       <r>     7.9062     1.5405     9.4943 </r>
       <r>     8.0036     1.4248     9.6331 </r>
       <r>     8.1010     1.3586     9.7654 </r>
       <r>     8.1984     1.2812     9.8902 </r>
       <r>     8.2958     1.0802     9.9954 </r>
       <r>     8.3932     0.9390    10.0869 </r>
       <r>     8.4906     1.1250    10.1965 </r>
       <r>     8.5880     1.1706    10.3105 </r>
       <r>     8.6854     1.4568    10.4524 </r>
       <r>     8.7828     2.1310    10.6599 </r>
       <r>     8.8802     2.3311    10.8870 </r>
       <r>     8.9776     1.9529    11.0772 </r>
       <r>     9.0750     1.5550    11.2287 </r>
       <r>     9.1724     1.6123    11.3857 </r>
       <r>     9.2698     1.6821    11.5496 </r>
       <r>     9.3672     1.5390    11.6995 </r>
       <r>     9.4646     1.3619    11.8321 </r>
       <r>     9.5620     1.3279    11.9615 </r>
       <r>     9.6595     1.4726    12.1049 </r>
       <r>     9.7569     1.1770    12.2196 </r>
       <r>     9.8543     1.0735    12.3241 </r>
       <r>     9.9517     1.2773    12.4485 </r>
       <r>    10.0491     1.2642    12.5717 </r>
       <r>    10.1465     1.3494    12.7031 </r>
       <r>    10.2439     1.4165    12.8411 </r>
       <r>    10.3413     1.5253    12.9897 </r>
       <r>    10.4387     1.2367    13.1101 </r>
       <r>    10.5361     1.0869    13.2160 </r>
       <r>    10.6335     1.2244    13.3352 </r>
       <r>    10.7309     1.1852    13.4507 </r>
       <r>    10.8283     1.1494    13.5626 </r>
       <r>    10.9257     1.1769    13.6773 </r>
       <r>    11.0231     1.1721    13.7914 </r>
       <r>    11.1205     1.2690    13.9150 </r>
       <r>    11.2179     1.2715    14.0389 </r>
       <r>    11.3153     1.0121    14.1375 </r>
       <r>    11.4127     0.8188    14.2172 </r>
       <r>    11.5101     0.8780    14.3028 </r>
       <r>    11.6075     0.9212    14.3925 </r>
       <r>    11.7049     1.0736    14.4971 </r>
       <r>    11.8023     1.1467    14.6087 </r>
       <r>    11.8997     1.2252    14.7281 </r>
       <r>    11.9971     1.4958    14.8738 </r>
       <r>    12.0945     1.4190    15.0120 </r>
       <r>    12.1920     1.0722    15.1164 </r>
       <r>    12.2894     0.9782    15.2117 </r>
       <r>    12.3868     0.8564    15.2951 </r>
       <r>    12.4842     0.9298    15.3857 </r>
       <r>    12.5816     1.2619    15.5086 </r>
       <r>    12.6790     1.4153    15.6465 </r>
       <r>    12.7764     1.4083    15.7836 </r>
       <r>    12.8738     1.4472    15.9246 </r>
       <r>    12.9712     1.3443    16.0555 </r>
       <r>    13.0686     1.0605    16.1588 </r>
       <r>    13.1660     1.1321    16.2691 </r>
       <r>    13.2634     1.1444    16.3806 </r>
       <r>    13.3608     1.0210    16.4800 </r>
       <r>    13.4582     1.1551    16.5925 </r>
       <r>    13.5556     1.3776    16.7267 </r>
       <r>    13.6530     1.4556    16.8685 </r>
       <r>    13.7504     1.5678    17.0212 </r>
       <r>    13.8478     1.4434    17.1618 </r>
       <r>    13.9452     1.0916    17.2681 </r>
       <r>    14.0426     0.9303    17.3588 </r>
       <r>    14.1400     0.9749    17.4537 </r>
       <r>    14.2374     1.0374    17.5548 </r>
       <r>    14.3348     1.1176    17.6636 </r>
       <r>    14.4322     1.4664    17.8064 </r>
       <r>    14.5296     1.6887    17.9709 </r>
       <r>    14.6270     1.7435    18.1408 </r>
       <r>    14.7245     1.6089    18.2975 </r>
       <r>    14.8219     1.3563    18.4296 </r>
       <r>    14.9193     1.2544    18.5518 </r>
       <r>    15.0167     1.3037    18.6787 </r>
       <r>    15.1141     1.1806    18.7937 </r>
       <r>    15.2115     1.0158    18.8927 </r>
       <r>    15.3089     1.1403    19.0037 </r>
       <r>    15.4063     1.5753    19.1572 </r>
       <r>    15.5037     1.6207    19.3151 </r>
       <r>    15.6011     1.5119    19.4623 </r>
       <r>    15.6985     1.3369    19.5925 </r>
       <r>    15.7959     1.0748    19.6972 </r>
       <r>    15.8933     1.1655    19.8108 </r>
       <r>    15.9907     1.1766    19.9254 </r>
       <r>    16.0881     0.9859    20.0214 </r>
       <r>    16.1855     1.0402    20.1227 </r>
       <r>    16.2829     1.1429    20.2340 </r>
       <r>    16.3803     1.3831    20.3687 </r>
       <r>    16.4777     1.7103    20.5353 </r>
       <r>    16.5751     1.7419    20.7050 </r>
       <r>    16.6725     1.4169    20.8430 </r>
       <r>    16.7699     1.1128    20.9514 </r>
       <r>    16.8673     0.9980    21.0486 </r>
       <r>    16.9647     1.0234    21.1483 </r>
       <r>    17.0621     0.9286    21.2387 </r>
       <r>    17.1595     1.0330    21.3394 </r>
       <r>    17.2570     1.3203    21.4680 </r>
       <r>    17.3544     1.4257    21.6068 </r>
       <r>    17.4518     1.4689    21.7499 </r>
       <r>    17.5492     1.6055    21.9063 </r>
       <r>    17.6466     1.6572    22.0677 </r>
       <r>    17.7440     1.7732    22.2404 </r>
       <r>    17.8414     1.5008    22.3866 </r>
       <r>    17.9388     1.1373    22.4974 </r>
       <r>    18.0362     0.9520    22.5901 </r>
       <r>    18.1336     1.0578    22.6931 </r>
       <r>    18.2310     1.1330    22.8035 </r>
       <r>    18.3284     0.9595    22.8970 </r>
       <r>    18.4258     1.0529    22.9995 </r>
       <r>    18.5232     1.1366    23.1102 </r>
       <r>    18.6206     1.1032    23.2177 </r>
       <r>    18.7180     0.9808    23.3132 </r>
       <r>    18.8154     0.8448    23.3955 </r>
       <r>    18.9128     0.7203    23.4657 </r>
       <r>    19.0102     0.6141    23.5255 </r>
       <r>    19.1076     0.4792    23.5722 </r>
       <r>    19.2050     0.4206    23.6131 </r>
       <r>    19.3024     0.5773    23.6694 </r>
       <r>    19.3998     0.6118    23.7290 </r>
       <r>    19.4972     0.5543    23.7829 </r>
       <r>    19.5946     0.5955    23.8410 </r>
       <r>    19.6920     0.5010    23.8897 </r>
       <r>    19.7895     0.3238    23.9213 </r>
       <r>    19.8869     0.2804    23.9486 </r>
       <r>    19.9843     0.1680    23.9650 </r>
       <r>    20.0817     0.1395    23.9786 </r>
       <r>    20.1791     0.1191    23.9902 </r>
       <r>    20.2765     0.0593    23.9959 </r>
       <r>    20.3739     0.0315    23.9990 </r>
       <r>    20.4713     0.0096    23.9999 </r>
       <r>    20.5687     0.0006    24.0000 </r>
       <r>    20.6661     0.0000    24.0000 </r>
       <r>    20.7635     0.0000    24.0000 </r>
       <r>    20.8609     0.0000    24.0000 </r>
       <r>    20.9583     0.0000    24.0000 </r>
       <r>    21.0557     0.0000    24.0000 </r>
       <r>    21.1531     0.0000    24.0000 </r>
       <r>    21.2505     0.0000    24.0000 </r>
       <r>    21.3479     0.0000    24.0000 </r>
       <r>    21.4453     0.0000    24.0000 </r>
       <r>    21.5427     0.0000    24.0000 </r>
       <r>    21.6401     0.0000    24.0000 </r>
      </set>
     </set>
    </array>
   </total>
  </dos>
 </calculation>
 <structure name="finalpos" >
  <crystal>
   <varray name="basis" >
    <v>       0.00000000       2.75000000       2.75000000 </v>
    <v>       2.75000000       0.00000000       2.75000000 </v>
    <v>       2.75000000       2.75000000       0.00000000 </v>
   </varray>
   <i name="volume">     41.59375000 </i>
   <varray name="rec_basis" >
    <v>      -0.18181818       0.18181818       0.18181818 </v>
    <v>       0.18181818      -0.18181818       0.18181818 </v>
    <v>       0.18181818       0.18181818      -0.18181818 </v>
   </varray>
  </crystal>
  <varray name="positions" >
   <v>       0.87500000       0.87500000       0.87500000 </v>
   <v>       0.12500000       0.12500000       0.12500000 </v>
  </varray>
 </structure>
</modeling>
