   8   8   0   0
  0.3200611E+02  0.5174714E-09  0.5173615E-09  0.1104441E-08  0.5000000E-15
  1.000000000000000E-004
  CAR 
 BC3                                     
      7.51575240    -20.52378064  301     -2.85628491      1.00000000
    -20.524  0.0000E+00  0.0000E+00
    -20.430  0.0000E+00  0.0000E+00
    -20.337  0.0000E+00  0.0000E+00
    -20.243  0.0000E+00  0.0000E+00
    -20.150  0.0000E+00  0.0000E+00
    -20.056  0.0000E+00  0.0000E+00
    -19.963  0.0000E+00  0.0000E+00
    -19.870  0.0000E+00  0.0000E+00
    -19.776  0.9057E-14  0.8465E-15
    -19.683  0.9926E-10  0.9278E-11
    -19.589  0.2092E-06  0.1956E-07
    -19.496  0.8727E-04  0.8176E-05
    -19.402  0.7582E-02  0.7168E-03
    -19.309  0.1511E+00  0.1484E-01
    -19.215  0.8247E+00  0.9192E-01
    -19.122  0.1676E+01  0.2486E+00
    -19.028  0.2052E+01  0.4404E+00
    -18.935  0.2279E+01  0.6534E+00
    -18.841  0.2653E+01  0.9014E+00
    -18.748  0.3516E+01  0.1230E+01
    -18.654  0.4369E+01  0.1638E+01
    -18.561  0.3020E+01  0.1921E+01
    -18.468  0.7860E+00  0.1994E+01
    -18.374  0.6198E-01  0.2000E+01
    -18.281  0.1226E-02  0.2000E+01
    -18.187  0.5350E-05  0.2000E+01
    -18.094  0.4803E-08  0.2000E+01
    -18.000  0.8493E-12  0.2000E+01
    -17.907  0.0000E+00  0.2000E+01
    -17.813  0.0000E+00  0.2000E+01
    -17.720  0.0000E+00  0.2000E+01
    -17.626  0.0000E+00  0.2000E+01
    -17.533  0.1246E-14  0.2000E+01
    -17.439  0.1971E-10  0.2000E+01
    -17.346  0.5686E-07  0.2000E+01
    -17.253  0.3202E-04  0.2000E+01
    -17.159  0.3833E-02  0.2000E+01
    -17.066  0.1098E+00  0.2011E+01
    -16.972  0.8560E+00  0.2091E+01
    -16.879  0.2230E+01  0.2299E+01
    -16.785  0.3141E+01  0.2593E+01
    -16.692  0.3105E+01  0.2883E+01
    -16.598  0.2275E+01  0.3096E+01
    -16.505  0.1801E+01  0.3264E+01
    -16.411  0.1931E+01  0.3444E+01
    -16.318  0.2035E+01  0.3635E+01
    -16.224  0.1847E+01  0.3807E+01
    -16.131  0.2203E+01  0.4013E+01
    -16.037  0.2527E+01  0.4249E+01
    -15.944  0.2681E+01  0.4500E+01
    -15.851  0.3217E+01  0.4801E+01
    -15.757  0.3673E+01  0.5144E+01
    -15.664  0.2933E+01  0.5418E+01
    -15.570  0.2189E+01  0.5623E+01
    -15.477  0.1873E+01  0.5798E+01
    -15.383  0.1454E+01  0.5934E+01
    -15.290  0.6023E+00  0.5990E+01
    -15.196  0.1035E+00  0.6000E+01
    -15.103  0.5106E-02  0.6000E+01
    -15.009  0.5857E-04  0.6000E+01
    -14.916  0.1406E-06  0.6000E+01
    -14.822  0.6596E-10  0.6000E+01
    -14.729  0.5824E-14  0.6000E+01
    -14.635  0.0000E+00  0.6000E+01
    -14.542  0.0000E+00  0.6000E+01
    -14.449  0.0000E+00  0.6000E+01
    -14.355  0.0000E+00  0.6000E+01
    -14.262  0.0000E+00  0.6000E+01
    -14.168  0.0000E+00  0.6000E+01
    -14.075  0.3961E-13  0.6000E+01
    -13.981  0.3608E-09  0.6000E+01
    -13.888  0.6159E-06  0.6000E+01
    -13.794  0.2035E-03  0.6000E+01
    -13.701  0.1364E-01  0.6001E+01
    -13.607  0.2024E+00  0.6020E+01
    -13.514  0.8420E+00  0.6099E+01
    -13.420  0.1775E+01  0.6265E+01
    -13.327  0.2617E+01  0.6510E+01
    -13.234  0.2463E+01  0.6740E+01
    -13.140  0.2502E+01  0.6974E+01
    -13.047  0.3709E+01  0.7320E+01
    -12.953  0.3637E+01  0.7660E+01
    -12.860  0.1575E+01  0.7807E+01
    -12.766  0.9842E+00  0.7899E+01
    -12.673  0.1372E+01  0.8028E+01
    -12.579  0.1914E+01  0.8206E+01
    -12.486  0.1728E+01  0.8368E+01
    -12.392  0.9647E+00  0.8458E+01
    -12.299  0.6400E+00  0.8518E+01
    -12.205  0.1451E+01  0.8654E+01
    -12.112  0.2463E+01  0.8884E+01
    -12.018  0.1720E+01  0.9045E+01
    -11.925  0.1268E+01  0.9163E+01
    -11.832  0.1775E+01  0.9329E+01
    -11.738  0.2438E+01  0.9557E+01
    -11.645  0.1745E+01  0.9720E+01
    -11.551  0.1121E+01  0.9825E+01
    -11.458  0.1390E+01  0.9955E+01
    -11.364  0.1871E+01  0.1013E+02
    -11.271  0.1016E+01  0.1022E+02
    -11.177  0.3713E+00  0.1026E+02
    -11.084  0.5399E+00  0.1031E+02
    -10.990  0.9345E+00  0.1040E+02
    -10.897  0.6900E+00  0.1046E+02
    -10.803  0.4396E+00  0.1050E+02
    -10.710  0.1307E+00  0.1051E+02
    -10.616  0.1033E+00  0.1052E+02
    -10.523  0.5619E+00  0.1058E+02
    -10.430  0.1650E+01  0.1073E+02
    -10.336  0.1354E+01  0.1086E+02
    -10.243  0.8770E+00  0.1094E+02
    -10.149  0.1158E+01  0.1105E+02
    -10.056  0.1499E+01  0.1119E+02
     -9.962  0.1178E+01  0.1130E+02
     -9.869  0.1371E+01  0.1143E+02
     -9.775  0.2605E+01  0.1167E+02
     -9.682  0.2880E+01  0.1194E+02
     -9.588  0.2505E+01  0.1217E+02
     -9.495  0.1676E+01  0.1233E+02
     -9.401  0.1234E+01  0.1244E+02
     -9.308  0.6947E+00  0.1251E+02
     -9.215  0.1070E+01  0.1261E+02
     -9.121  0.3329E+01  0.1292E+02
     -9.028  0.4435E+01  0.1334E+02
     -8.934  0.2630E+01  0.1358E+02
     -8.841  0.8560E+00  0.1366E+02
     -8.747  0.1105E+01  0.1376E+02
     -8.654  0.2188E+01  0.1397E+02
     -8.560  0.2105E+01  0.1417E+02
     -8.467  0.1661E+01  0.1432E+02
     -8.373  0.2469E+01  0.1455E+02
     -8.280  0.3827E+01  0.1491E+02
     -8.186  0.2534E+01  0.1515E+02
     -8.093  0.1387E+01  0.1528E+02
     -7.999  0.2744E+01  0.1553E+02
     -7.906  0.3365E+01  0.1585E+02
     -7.813  0.2470E+01  0.1608E+02
     -7.719  0.2459E+01  0.1631E+02
     -7.626  0.2191E+01  0.1651E+02
     -7.532  0.1960E+01  0.1670E+02
     -7.439  0.2189E+01  0.1690E+02
     -7.345  0.2814E+01  0.1716E+02
     -7.252  0.4185E+01  0.1755E+02
     -7.158  0.4383E+01  0.1796E+02
     -7.065  0.3573E+01  0.1830E+02
     -6.971  0.4219E+01  0.1869E+02
     -6.878  0.4129E+01  0.1908E+02
     -6.784  0.2680E+01  0.1933E+02
     -6.691  0.1660E+01  0.1948E+02
     -6.597  0.2128E+01  0.1968E+02
     -6.504  0.1777E+01  0.1985E+02
     -6.411  0.1579E+01  0.2000E+02
     -6.317  0.2109E+01  0.2019E+02
     -6.224  0.1495E+01  0.2033E+02
     -6.130  0.1630E+01  0.2049E+02
     -6.037  0.2181E+01  0.2069E+02
     -5.943  0.3143E+01  0.2098E+02
     -5.850  0.4321E+01  0.2139E+02
     -5.756  0.7228E+01  0.2206E+02
     -5.663  0.8146E+01  0.2282E+02
     -5.569  0.5931E+01  0.2338E+02
     -5.476  0.4554E+01  0.2380E+02
     -5.382  0.2362E+01  0.2402E+02
     -5.289  0.1642E+01  0.2418E+02
     -5.196  0.2776E+01  0.2444E+02
     -5.102  0.3563E+01  0.2477E+02
     -5.009  0.2408E+01  0.2500E+02
     -4.915  0.1441E+01  0.2513E+02
     -4.822  0.2064E+01  0.2532E+02
     -4.728  0.3644E+01  0.2566E+02
     -4.635  0.3787E+01  0.2602E+02
     -4.541  0.3340E+01  0.2633E+02
     -4.448  0.2639E+01  0.2658E+02
     -4.354  0.3694E+01  0.2692E+02
     -4.261  0.5427E+01  0.2743E+02
     -4.167  0.4423E+01  0.2784E+02
     -4.074  0.4184E+01  0.2823E+02
     -3.980  0.4932E+01  0.2869E+02
     -3.887  0.3934E+01  0.2906E+02
     -3.794  0.1758E+01  0.2923E+02
     -3.700  0.1388E+01  0.2936E+02
     -3.607  0.1775E+01  0.2952E+02
     -3.513  0.1182E+01  0.2963E+02
     -3.420  0.9174E+00  0.2972E+02
     -3.326  0.1201E+01  0.2983E+02
     -3.233  0.1061E+01  0.2993E+02
     -3.139  0.5884E+00  0.2999E+02
     -3.046  0.1477E+00  0.3000E+02
     -2.952  0.1234E-01  0.3000E+02
     -2.859  0.2675E-03  0.3000E+02
     -2.765  0.2513E-03  0.3000E+02
     -2.672  0.1491E-01  0.3000E+02
     -2.578  0.1977E+00  0.3002E+02
     -2.485  0.6639E+00  0.3008E+02
     -2.392  0.9543E+00  0.3017E+02
     -2.298  0.1689E+01  0.3033E+02
     -2.205  0.2445E+01  0.3056E+02
     -2.111  0.2059E+01  0.3075E+02
     -2.018  0.1691E+01  0.3091E+02
     -1.924  0.2368E+01  0.3113E+02
     -1.831  0.2854E+01  0.3140E+02
     -1.737  0.1948E+01  0.3158E+02
     -1.644  0.6817E+00  0.3164E+02
     -1.550  0.7945E+00  0.3172E+02
     -1.457  0.7100E+00  0.3178E+02
     -1.363  0.5614E+00  0.3183E+02
     -1.270  0.9504E+00  0.3192E+02
     -1.177  0.4678E+00  0.3197E+02
     -1.083  0.5026E-01  0.3197E+02
     -0.990  0.1333E-02  0.3197E+02
     -0.896  0.1204E-01  0.3197E+02
     -0.803  0.1280E+00  0.3199E+02
     -0.709  0.2916E+00  0.3201E+02
     -0.616  0.1464E+00  0.3203E+02
     -0.522  0.1580E-01  0.3203E+02
     -0.429  0.1165E-02  0.3203E+02
     -0.335  0.4056E-01  0.3203E+02
     -0.242  0.4071E+00  0.3207E+02
     -0.148  0.8796E+00  0.3215E+02
     -0.055  0.4939E+00  0.3220E+02
      0.039  0.4036E+00  0.3224E+02
      0.132  0.3708E+00  0.3227E+02
      0.225  0.2772E+00  0.3230E+02
      0.319  0.1499E+01  0.3244E+02
      0.412  0.2988E+01  0.3272E+02
      0.506  0.2563E+01  0.3296E+02
      0.599  0.2098E+01  0.3315E+02
      0.693  0.2049E+01  0.3334E+02
      0.786  0.1857E+01  0.3352E+02
      0.880  0.1959E+01  0.3370E+02
      0.973  0.1592E+01  0.3385E+02
      1.067  0.9840E+00  0.3394E+02
      1.160  0.1392E+01  0.3407E+02
      1.254  0.1768E+01  0.3424E+02
      1.347  0.1291E+01  0.3436E+02
      1.441  0.1343E+01  0.3448E+02
      1.534  0.1697E+01  0.3464E+02
      1.627  0.1714E+01  0.3480E+02
      1.721  0.2266E+01  0.3501E+02
      1.814  0.2292E+01  0.3523E+02
      1.908  0.1398E+01  0.3536E+02
      2.001  0.1533E+01  0.3550E+02
      2.095  0.3145E+01  0.3579E+02
      2.188  0.2792E+01  0.3606E+02
      2.282  0.1387E+01  0.3619E+02
      2.375  0.1891E+01  0.3636E+02
      2.469  0.2795E+01  0.3662E+02
      2.562  0.2449E+01  0.3685E+02
      2.656  0.2241E+01  0.3706E+02
      2.749  0.1696E+01  0.3722E+02
      2.842  0.2005E+01  0.3741E+02
      2.936  0.2887E+01  0.3768E+02
      3.029  0.3123E+01  0.3797E+02
      3.123  0.2130E+01  0.3817E+02
      3.216  0.2447E+01  0.3840E+02
      3.310  0.3735E+01  0.3875E+02
      3.403  0.3580E+01  0.3908E+02
      3.497  0.2701E+01  0.3933E+02
      3.590  0.2628E+01  0.3958E+02
      3.684  0.3030E+01  0.3986E+02
      3.777  0.2684E+01  0.4011E+02
      3.871  0.3202E+01  0.4041E+02
      3.964  0.4680E+01  0.4085E+02
      4.058  0.5393E+01  0.4135E+02
      4.151  0.3613E+01  0.4169E+02
      4.244  0.2583E+01  0.4193E+02
      4.338  0.3765E+01  0.4228E+02
      4.431  0.3474E+01  0.4261E+02
      4.525  0.3516E+01  0.4294E+02
      4.618  0.4489E+01  0.4336E+02
      4.712  0.5093E+01  0.4383E+02
      4.805  0.4755E+01  0.4428E+02
      4.899  0.2610E+01  0.4452E+02
      4.992  0.2111E+01  0.4472E+02
      5.086  0.2975E+01  0.4500E+02
      5.179  0.3618E+01  0.4534E+02
      5.273  0.3771E+01  0.4569E+02
      5.366  0.2961E+01  0.4596E+02
      5.460  0.2578E+01  0.4621E+02
      5.553  0.2357E+01  0.4643E+02
      5.646  0.2850E+01  0.4669E+02
      5.740  0.2409E+01  0.4692E+02
      5.833  0.1705E+01  0.4708E+02
      5.927  0.1789E+01  0.4724E+02
      6.020  0.2532E+01  0.4748E+02
      6.114  0.2970E+01  0.4776E+02
      6.207  0.1757E+01  0.4792E+02
      6.301  0.6558E+00  0.4798E+02
      6.394  0.1653E+00  0.4800E+02
      6.488  0.1229E-01  0.4800E+02
      6.581  0.1914E-03  0.4800E+02
      6.675  0.5727E-06  0.4800E+02
      6.768  0.3175E-09  0.4800E+02
      6.861  0.3194E-13  0.4800E+02
      6.955  0.0000E+00  0.4800E+02
      7.048  0.0000E+00  0.4800E+02
      7.142  0.0000E+00  0.4800E+02
      7.235  0.0000E+00  0.4800E+02
      7.329  0.0000E+00  0.4800E+02
      7.422  0.0000E+00  0.4800E+02
      7.516  0.0000E+00  0.4800E+02
