    8    8    1    1
  0.3200611E+02  0.5174714E-09  0.5173615E-09  0.1104441E-08  0.5000000E-15
  1.000000000000000E-004
  CAR 
 BC3                                     
     30     43     24
 
  0.0000000E+00  0.0000000E+00  0.0000000E+00  0.6944444E-02
    1      -19.249256   1.000000
    2      -15.357554   1.000000
    3      -15.357519   1.000000
    4      -13.008011   1.000000
    5      -13.006636   1.000000
    6      -11.939195   1.000000
    7      -10.620638   1.000000
    8       -8.053735   1.000000
    9       -7.833900   1.000000
   10       -5.679997   1.000000
   11       -5.677953   1.000000
   12       -3.857076   1.000000
   13       -3.856992   1.000000
   14       -3.176806   0.999997
   15       -3.172261   0.999996
   16       -1.338666   0.000000
   17        0.392012   0.000000
   18        0.394275   0.000000
   19        1.054356   0.000000
   20        1.379923   0.000000
   21        2.869115   0.000000
   22        3.680004   0.000000
   23        5.606263   0.000000
   24        5.610967   0.000000
 
  0.8333333E-01 -0.1387779E-16  0.0000000E+00  0.2777778E-01
    1      -19.222150   1.000000
    2      -15.489656   1.000000
    3      -15.399855   1.000000
    4      -13.046736   1.000000
    5      -12.908626   1.000000
    6      -11.804636   1.000000
    7      -10.460387   1.000000
    8       -8.012495   1.000000
    9       -7.891317   1.000000
   10       -5.802875   1.000000
   11       -5.700817   1.000000
   12       -3.981813   1.000000
   13       -3.877663   1.000000
   14       -3.318589   1.000000
   15       -3.242206   1.000000
   16       -1.543495   0.000000
   17        0.452902   0.000000
   18        0.702527   0.000000
   19        1.177577   0.000000
   20        1.431669   0.000000
   21        2.924112   0.000000
   22        3.732365   0.000000
   23        5.679755   0.000000
   24        5.770523   0.000000
 
  0.1666667E+00 -0.2775558E-16  0.0000000E+00  0.2777778E-01
    1      -19.143124   1.000000
    2      -15.814568   1.000000
    3      -15.503997   1.000000
    4      -13.162979   1.000000
    5      -12.639674   1.000000
    6      -11.423446   1.000000
    7      -10.031333   1.000000
    8       -8.073611   1.000000
    9       -7.890140   1.000000
   10       -6.148723   1.000000
   11       -5.736774   1.000000
   12       -4.324136   1.000000
   13       -3.932015   1.000000
   14       -3.725484   1.000000
   15       -3.433974   1.000000
   16       -1.891227   0.000000
   17        0.616524   0.000000
   18        1.169511   0.000000
   19        1.586441   0.000000
   20        1.699526   0.000000
   21        3.091749   0.000000
   22        3.888238   0.000000
   23        5.833157   0.000000
   24        6.237281   0.000000
 
  0.2500000E+00 -0.2775558E-16  0.0000000E+00  0.2777778E-01
    1      -19.020182   1.000000
    2      -16.210989   1.000000
    3      -15.626246   1.000000
    4      -13.310491   1.000000
    5      -12.255336   1.000000
    6      -10.880870   1.000000
    7       -9.421992   1.000000
    8       -8.387321   1.000000
    9       -7.690932   1.000000
   10       -6.655612   1.000000
   11       -5.727796   1.000000
   12       -4.801469   1.000000
   13       -4.342956   1.000000
   14       -4.002134   1.000000
   15       -3.709339   1.000000
   16       -2.177918   0.000000
   17        0.845140   0.000000
   18        1.519558   0.000000
   19        1.843274   0.000000
   20        2.558218   0.000000
   21        3.390818   0.000000
   22        4.145420   0.000000
   23        5.477326   0.000000
   24        5.984008   0.000000
 
  0.3333333E+00 -0.5551115E-16  0.0000000E+00  0.2777778E-01
    1      -18.871748   1.000000
    2      -16.588053   1.000000
    3      -15.732284   1.000000
    4      -13.439338   1.000000
    5      -11.817631   1.000000
    6      -10.257590   1.000000
    7       -8.794161   1.000000
    8       -8.719434   1.000000
    9       -7.426464   1.000000
   10       -7.232792   1.000000
   11       -5.648804   1.000000
   12       -5.318620   1.000000
   13       -5.104312   1.000000
   14       -4.068145   1.000000
   15       -4.013701   1.000000
   16       -2.376135   0.000000
   17        1.081803   0.000000
   18        1.843794   0.000000
   19        2.201322   0.000000
   20        3.372454   0.000000
   21        3.934788   0.000000
   22        4.502363   0.000000
   23        4.631368   0.000000
   24        6.087330   0.000000
 
  0.4166667E+00 -0.8326673E-16  0.0000000E+00  0.2777778E-01
    1      -18.736557   1.000000
    2      -16.871041   1.000000
    3      -15.802271   1.000000
    4      -13.523743   1.000000
    5      -11.416643   1.000000
    6       -9.612600   1.000000
    7       -9.190355   1.000000
    8       -8.283760   1.000000
    9       -7.500639   1.000000
   10       -7.134175   1.000000
   11       -5.942973   1.000000
   12       -5.781488   1.000000
   13       -5.532766   1.000000
   14       -4.274730   1.000000
   15       -4.114270   1.000000
   16       -2.491904   0.000000
   17        1.262190   0.000000
   18        2.090571   0.000000
   19        2.659981   0.000000
   20        3.876458   0.000000
   21        3.950682   0.000000
   22        4.749903   0.000000
   23        4.958034   0.000000
   24        5.298562   0.000000
 
  0.5000000E+00 -0.5551115E-16  0.0000000E+00  0.1388889E-01
    1      -18.678141   1.000000
    2      -16.980256   1.000000
    3      -15.826553   1.000000
    4      -13.552860   1.000000
    5      -11.232041   1.000000
    6       -9.376076   1.000000
    7       -9.168474   1.000000
    8       -8.563080   1.000000
    9       -6.966936   1.000000
   10       -6.936832   1.000000
   11       -6.683639   1.000000
   12       -6.008375   1.000000
   13       -5.470341   1.000000
   14       -4.386613   1.000000
   15       -4.130767   1.000000
   16       -2.530027   0.000002
   17        1.329867   0.000000
   18        2.184747   0.000000
   19        3.217128   0.000000
   20        3.220226   0.000000
   21        4.477345   0.000000
   22        4.517417   0.000000
   23        5.498643   0.000000
   24        5.523629   0.000000
 
  0.3081488E-32  0.8333333E-01  0.0000000E+00  0.1388889E-01
    1      -19.222127   1.000000
    2      -15.489632   1.000000
    3      -15.399965   1.000000
    4      -13.046027   1.000000
    5      -12.909530   1.000000
    6      -11.804587   1.000000
    7      -10.460054   1.000000
    8       -8.012474   1.000000
    9       -7.891130   1.000000
   10       -5.801429   1.000000
   11       -5.702622   1.000000
   12       -3.981661   1.000000
   13       -3.877769   1.000000
   14       -3.315211   1.000000
   15       -3.245611   1.000000
   16       -1.543747   0.000000
   17        0.451300   0.000000
   18        0.704084   0.000000
   19        1.177883   0.000000
   20        1.431689   0.000000
   21        2.924133   0.000000
   22        3.732375   0.000000
   23        5.675369   0.000000
   24        5.774146   0.000000
 
  0.1666667E+00  0.8333333E-01  0.0000000E+00  0.1388889E-01
    1      -19.169077   1.000000
    2      -15.702706   1.000000
    3      -15.489743   1.000000
    4      -13.075030   1.000000
    5      -12.782176   1.000000
    6      -11.534171   1.000000
    7      -10.169364   1.000000
    8       -8.013778   1.000000
    9       -7.930712   1.000000
   10       -6.012757   1.000000
   11       -5.752292   1.000000
   12       -4.194494   1.000000
   13       -3.942355   1.000000
   14       -3.584813   1.000000
   15       -3.381113   1.000000
   16       -1.783516   0.000000
   17        0.485199   0.000000
   18        1.211116   0.000000
   19        1.429955   0.000000
   20        1.534914   0.000000
   21        3.034954   0.000000
   22        3.836509   0.000000
   23        5.835609   0.000000
   24        6.032521   0.000000
 
  0.2500000E+00  0.8333333E-01  0.0000000E+00  0.2777778E-01
    1      -19.067794   1.000000
    2      -16.037862   1.000000
    3      -15.633246   1.000000
    4      -13.145094   1.000000
    5      -12.530060   1.000000
    6      -11.042394   1.000000
    7       -9.661975   1.000000
    8       -8.276520   1.000000
    9       -7.769752   1.000000
   10       -6.382301   1.000000
   11       -5.809723   1.000000
   12       -4.571887   1.000000
   13       -4.074688   1.000000
   14       -4.064993   1.000000
   15       -3.636533   1.000000
   16       -2.010303   0.000000
   17        0.551692   0.000000
   18        1.701554   0.000000
   19        1.740733   0.000000
   20        2.112344   0.000000
   21        3.262249   0.000000
   22        4.043215   0.000000
   23        5.949318   0.000000
   24        6.062651   0.000000
 
  0.3333333E+00  0.8333333E-01  0.0000000E+00  0.2777778E-01
    1      -18.930755   1.000000
    2      -16.408510   1.000000
    3      -15.770372   1.000000
    4      -13.254429   1.000000
    5      -12.146304   1.000000
    6      -10.438503   1.000000
    7       -9.016063   1.000000
    8       -8.665537   1.000000
    9       -7.536819   1.000000
   10       -6.876184   1.000000
   11       -5.795779   1.000000
   12       -5.052726   1.000000
   13       -4.737668   1.000000
   14       -4.188661   1.000000
   15       -3.950060   1.000000
   16       -2.160059   0.000000
   17        0.682721   0.000000
   18        2.048220   0.000000
   19        2.076278   0.000000
   20        3.001989   0.000000
   21        3.644496   0.000000
   22        4.350629   0.000000
   23        5.082284   0.000000
   24        6.113216   0.000000
 
  0.4166667E+00  0.8333333E-01  0.0000000E+00  0.2777778E-01
    1      -18.784969   1.000000
    2      -16.733245   1.000000
    3      -15.871918   1.000000
    4      -13.347910   1.000000
    5      -11.719798   1.000000
    6       -9.805123   1.000000
    7       -9.105165   1.000000
    8       -8.339700   1.000000
    9       -7.375728   1.000000
   10       -7.252310   1.000000
   11       -5.748007   1.000000
   12       -5.542066   1.000000
   13       -5.473339   1.000000
   14       -4.282486   1.000000
   15       -4.255953   1.000000
   16       -2.250916   0.000000
   17        0.829258   0.000000
   18        2.396953   0.000000
   19        2.456643   0.000000
   20        3.711696   0.000000
   21        4.280749   0.000000
   22        4.337345   0.000000
   23        4.757485   0.000000
   24        5.603636   0.000000
 
  0.5000000E+00  0.8333333E-01  0.0000000E+00  0.2777778E-01
    1      -18.681975   1.000000
    2      -16.931669   1.000000
    3      -15.925122   1.000000
    4      -13.399352   1.000000
    5      -11.392654   1.000000
    6       -9.512570   1.000000
    7       -9.148366   1.000000
    8       -8.279448   1.000000
    9       -7.199345   1.000000
   10       -6.992593   1.000000
   11       -6.373430   1.000000
   12       -5.914654   1.000000
   13       -5.570223   1.000000
   14       -4.465088   1.000000
   15       -4.332191   1.000000
   16       -2.295138   0.000000
   17        0.925438   0.000000
   18        2.589839   0.000000
   19        2.965406   0.000000
   20        3.574084   0.000000
   21        4.258118   0.000000
   22        4.794923   0.000000
   23        5.262633   0.000000
   24        5.422973   0.000000
 
 -0.4166667E+00  0.8333333E-01  0.0000000E+00  0.2777778E-01
    1      -18.681919   1.000000
    2      -16.931818   1.000000
    3      -15.925006   1.000000
    4      -13.399473   1.000000
    5      -11.393019   1.000000
    6       -9.512258   1.000000
    7       -9.146880   1.000000
    8       -8.280730   1.000000
    9       -7.198817   1.000000
   10       -6.992492   1.000000
   11       -6.373763   1.000000
   12       -5.914814   1.000000
   13       -5.570673   1.000000
   14       -4.464913   1.000000
   15       -4.332028   1.000000
   16       -2.295352   0.000000
   17        0.925199   0.000000
   18        2.590231   0.000000
   19        2.965649   0.000000
   20        3.573793   0.000000
   21        4.258339   0.000000
   22        4.794787   0.000000
   23        5.262870   0.000000
   24        5.422982   0.000000
 
 -0.3333333E+00  0.8333333E-01  0.0000000E+00  0.2777778E-01
    1      -18.784843   1.000000
    2      -16.733650   1.000000
    3      -15.871580   1.000000
    4      -13.348262   1.000000
    5      -11.720471   1.000000
    6       -9.804090   1.000000
    7       -9.103678   1.000000
    8       -8.339379   1.000000
    9       -7.377154   1.000000
   10       -7.252149   1.000000
   11       -5.747080   1.000000
   12       -5.542404   1.000000
   13       -5.475108   1.000000
   14       -4.282018   1.000000
   15       -4.255714   1.000000
   16       -2.251528   0.000000
   17        0.828590   0.000000
   18        2.397990   0.000000
   19        2.456839   0.000000
   20        3.711982   0.000000
   21        4.280405   0.000000
   22        4.337540   0.000000
   23        4.757671   0.000000
   24        5.603304   0.000000
 
 -0.2500000E+00  0.8333333E-01  0.0000000E+00  0.2777778E-01
    1      -18.930620   1.000000
    2      -16.409097   1.000000
    3      -15.769856   1.000000
    4      -13.254963   1.000000
    5      -12.146873   1.000000
    6      -10.437658   1.000000
    7       -9.015011   1.000000
    8       -8.664282   1.000000
    9       -7.536676   1.000000
   10       -6.877921   1.000000
   11       -5.795920   1.000000
   12       -5.053154   1.000000
   13       -4.737932   1.000000
   14       -4.187962   1.000000
   15       -3.950211   1.000000
   16       -2.160952   0.000000
   17        0.681739   0.000000
   18        2.048370   0.000000
   19        2.077730   0.000000
   20        3.002422   0.000000
   21        3.644623   0.000000
   22        4.350762   0.000000
   23        5.081868   0.000000
   24        6.113825   0.000000
 
 -0.1666667E+00  0.8333333E-01  0.0000000E+00  0.2777778E-01
    1      -19.067685   1.000000
    2      -16.038518   1.000000
    3      -15.632683   1.000000
    4      -13.145637   1.000000
    5      -12.530452   1.000000
    6      -11.041904   1.000000
    7       -9.660938   1.000000
    8       -8.275500   1.000000
    9       -7.769647   1.000000
   10       -6.383332   1.000000
   11       -5.810353   1.000000
   12       -4.572324   1.000000
   13       -4.073738   1.000000
   14       -4.064266   1.000000
   15       -3.637670   1.000000
   16       -2.011250   0.000000
   17        0.550449   0.000000
   18        1.703266   0.000000
   19        1.740837   0.000000
   20        2.112765   0.000000
   21        3.262347   0.000000
   22        4.043298   0.000000
   23        5.948388   0.000000
   24        6.062802   0.000000
 
 -0.8333333E-01  0.8333333E-01  0.0000000E+00  0.2777778E-01
    1      -19.169008   1.000000
    2      -15.703150   1.000000
    3      -15.489436   1.000000
    4      -13.075003   1.000000
    5      -12.782803   1.000000
    6      -11.533964   1.000000
    7      -10.168535   1.000000
    8       -8.013182   1.000000
    9       -7.930649   1.000000
   10       -6.012274   1.000000
   11       -5.753839   1.000000
   12       -4.194686   1.000000
   13       -3.941985   1.000000
   14       -3.582093   1.000000
   15       -3.383921   1.000000
   16       -1.784217   0.000000
   17        0.483588   0.000000
   18        1.213065   0.000000
   19        1.430296   0.000000
   20        1.534976   0.000000
   21        3.035017   0.000000
   22        3.836548   0.000000
   23        5.832157   0.000000
   24        6.033201   0.000000
 
  0.1232595E-31  0.1666667E+00  0.0000000E+00  0.1388889E-01
    1      -19.143029   1.000000
    2      -15.814588   1.000000
    3      -15.504292   1.000000
    4      -13.162868   1.000000
    5      -12.640266   1.000000
    6      -11.423345   1.000000
    7      -10.030229   1.000000
    8       -8.073006   1.000000
    9       -7.890054   1.000000
   10       -6.147550   1.000000
   11       -5.739194   1.000000
   12       -4.323827   1.000000
   13       -3.932229   1.000000
   14       -3.722039   1.000000
   15       -3.437559   1.000000
   16       -1.891996   0.000000
   17        0.615121   0.000000
   18        1.170213   0.000000
   19        1.586522   0.000000
   20        1.701099   0.000000
   21        3.091840   0.000000
   22        3.888286   0.000000
   23        5.826936   0.000000
   24        6.241228   0.000000
 
  0.3333333E+00  0.1666667E+00  0.0000000E+00  0.1388889E-01
    1      -18.951497   1.000000
    2      -16.302503   1.000000
    3      -15.842449   1.000000
    4      -13.033920   1.000000
    5      -12.426387   1.000000
    6      -10.460540   1.000000
    7       -9.132309   1.000000
    8       -8.639517   1.000000
    9       -7.574425   1.000000
   10       -6.628591   1.000000
   11       -5.953679   1.000000
   12       -4.884131   1.000000
   13       -4.569194   1.000000
   14       -4.340960   1.000000
   15       -3.970645   1.000000
   16       -1.990540   0.000000
   17        0.422586   0.000000
   18        1.997268   0.000000
   19        2.455832   0.000000
   20        2.631756   0.000000
   21        3.549307   0.000000
   22        4.300473   0.000000
   23        5.612513   0.000000
   24        5.640438   0.000000
 
  0.4166667E+00  0.1666667E+00  0.0000000E+00  0.2777778E-01
    1      -18.813022   1.000000
    2      -16.579486   1.000000
    3      -16.026011   1.000000
    4      -13.004022   1.000000
    5      -12.146176   1.000000
    6       -9.829895   1.000000
    7       -9.085729   1.000000
    8       -8.504465   1.000000
    9       -7.316934   1.000000
   10       -6.971206   1.000000
   11       -6.026286   1.000000
   12       -5.279523   1.000000
   13       -5.172571   1.000000
   14       -4.582235   1.000000
   15       -4.346326   1.000000
   16       -1.906304   0.000000
   17        0.355401   0.000000
   18        2.355247   0.000000
   19        2.898051   0.000000
   20        3.454976   0.000000
   21        3.994006   0.000000
   22        4.658350   0.000000
   23        4.784818   0.000000
   24        5.383120   0.000000
 
  0.5000000E+00  0.1666667E+00  0.0000000E+00  0.2777778E-01
    1      -18.689499   1.000000
    2      -16.805431   1.000000
    3      -16.138432   1.000000
    4      -13.028747   1.000000
    5      -11.785521   1.000000
    6       -9.681899   1.000000
    7       -9.042163   1.000000
    8       -7.970380   1.000000
    9       -7.277187   1.000000
   10       -7.037116   1.000000
   11       -6.162396   1.000000
   12       -5.683324   1.000000
   13       -5.682052   1.000000
   14       -4.718411   1.000000
   15       -4.662187   1.000000
   16       -1.837637   0.000000
   17        0.340347   0.000000
   18        2.813929   0.000000
   19        3.206236   0.000000
   20        4.030738   0.000000
   21        4.101756   0.000000
   22        4.717675   0.000000
   23        5.115465   0.000000
   24        5.235853   0.000000
 
 -0.4166667E+00  0.1666667E+00  0.0000000E+00  0.2777778E-01
    1      -18.637123   1.000000
    2      -16.895547   1.000000
    3      -16.175394   1.000000
    4      -13.042716   1.000000
    5      -11.600158   1.000000
    6       -9.865393   1.000000
    7       -8.662551   1.000000
    8       -8.064771   1.000000
    9       -6.946081   1.000000
   10       -6.882045   1.000000
   11       -6.650230   1.000000
   12       -5.884736   1.000000
   13       -5.742427   1.000000
   14       -4.796628   1.000000
   15       -4.761335   1.000000
   16       -1.813530   0.000000
   17        0.341668   0.000000
   18        3.326061   0.000000
   19        3.368910   0.000000
   20        3.376791   0.000000
   21        4.611425   0.000000
   22        4.680486   0.000000
   23        5.186271   0.000000
   24        5.664498   0.000000
 
 -0.3333333E+00  0.1666667E+00  0.0000000E+00  0.2777778E-01
    1      -18.689302   1.000000
    2      -16.806068   1.000000
    3      -16.137973   1.000000
    4      -13.029266   1.000000
    5      -11.786128   1.000000
    6       -9.680480   1.000000
    7       -9.040497   1.000000
    8       -7.970459   1.000000
    9       -7.278139   1.000000
   10       -7.036813   1.000000
   11       -6.161407   1.000000
   12       -5.685813   1.000000
   13       -5.682636   1.000000
   14       -4.717914   1.000000
   15       -4.661844   1.000000
   16       -1.838386   0.000000
   17        0.340119   0.000000
   18        2.814367   0.000000
   19        3.207055   0.000000
   20        4.030104   0.000000
   21        4.102299   0.000000
   22        4.717993   0.000000
   23        5.115886   0.000000
   24        5.236278   0.000000
 
 -0.2500000E+00  0.1666667E+00  0.0000000E+00  0.2777778E-01
    1      -18.812748   1.000000
    2      -16.580547   1.000000
    3      -16.025211   1.000000
    4      -13.005057   1.000000
    5      -12.146628   1.000000
    6       -9.828473   1.000000
    7       -9.083951   1.000000
    8       -8.502581   1.000000
    9       -7.316618   1.000000
   10       -6.973939   1.000000
   11       -6.026152   1.000000
   12       -5.280350   1.000000
   13       -5.173603   1.000000
   14       -4.581319   1.000000
   15       -4.346643   1.000000
   16       -1.907633   0.000000
   17        0.354921   0.000000
   18        2.355592   0.000000
   19        2.899242   0.000000
   20        3.455991   0.000000
   21        3.994246   0.000000
   22        4.658668   0.000000
   23        4.784063   0.000000
   24        5.383974   0.000000
 
 -0.1666667E+00  0.1666667E+00  0.0000000E+00  0.2777778E-01
    1      -18.951245   1.000000
    2      -16.303562   1.000000
    3      -15.841698   1.000000
    4      -13.035166   1.000000
    5      -12.426556   1.000000
    6      -10.459695   1.000000
    7       -9.130218   1.000000
    8       -8.637730   1.000000
    9       -7.574173   1.000000
   10       -6.630375   1.000000
   11       -5.954949   1.000000
   12       -4.884791   1.000000
   13       -4.567974   1.000000
   14       -4.340040   1.000000
   15       -3.972492   1.000000
   16       -1.992128   0.000000
   17        0.421752   0.000000
   18        1.997522   0.000000
   19        2.456289   0.000000
   20        2.633937   0.000000
   21        3.549537   0.000000
   22        4.300686   0.000000
   23        5.612673   0.000000
   24        5.640495   0.000000
 
 -0.8333333E-01  0.1666667E+00  0.0000000E+00  0.2777778E-01
    1      -19.067611   1.000000
    2      -16.038430   1.000000
    3      -15.633042   1.000000
    4      -13.145697   1.000000
    5      -12.530502   1.000000
    6      -11.041982   1.000000
    7       -9.660163   1.000000
    8       -8.275234   1.000000
    9       -7.769580   1.000000
   10       -6.382297   1.000000
   11       -5.812128   1.000000
   12       -4.571973   1.000000
   13       -4.071651   1.000000
   14       -4.064649   1.000000
   15       -3.639885   1.000000
   16       -2.011689   0.000000
   17        0.550343   0.000000
   18        1.702347   0.000000
   19        1.740898   0.000000
   20        2.114391   0.000000
   21        3.262427   0.000000
   22        4.043335   0.000000
   23        5.950087   0.000000
   24        6.056784   0.000000
 
  0.0000000E+00  0.2500000E+00  0.0000000E+00  0.1388889E-01
    1      -19.019963   1.000000
    2      -16.211134   1.000000
    3      -15.626730   1.000000
    4      -13.310862   1.000000
    5      -12.255527   1.000000
    6      -10.880754   1.000000
    7       -9.419957   1.000000
    8       -8.386395   1.000000
    9       -7.690732   1.000000
   10       -6.654862   1.000000
   11       -5.730795   1.000000
   12       -4.801105   1.000000
   13       -4.339442   1.000000
   14       -4.002479   1.000000
   15       -3.713236   1.000000
   16       -2.179145   0.000000
   17        0.844009   0.000000
   18        1.520247   0.000000
   19        1.843459   0.000000
   20        2.560196   0.000000
   21        3.391087   0.000000
   22        4.145544   0.000000
   23        5.479102   0.000000
   24        5.976317   0.000000
 
  0.5000000E+00  0.2500000E+00  0.0000000E+00  0.1388889E-01
    1      -18.693190   1.000000
    2      -16.707471   1.000000
    3      -16.274981   1.000000
    4      -12.732578   1.000000
    5      -12.094992   1.000000
    6       -9.739303   1.000000
    7       -8.976958   1.000000
    8       -7.966027   1.000000
    9       -7.086187   1.000000
   10       -7.056781   1.000000
   11       -6.301307   1.000000
   12       -5.574237   1.000000
   13       -5.494027   1.000000
   14       -4.966433   1.000000
   15       -4.803646   1.000000
   16       -1.572838   0.000000
   17        0.038872   0.000000
   18        2.763540   0.000000
   19        3.611706   0.000000
   20        4.006172   0.000000
   21        4.412431   0.000000
   22        4.575033   0.000000
   23        4.597900   0.000000
   24        5.067082   0.000000
 
 -0.4166667E+00  0.2500000E+00  0.0000000E+00  0.2777778E-01
    1      -18.612980   1.000000
    2      -16.781181   1.000000
    3      -16.422726   1.000000
    4      -12.610620   1.000000
    5      -11.944459   1.000000
    6      -10.081409   1.000000
    7       -8.363054   1.000000
    8       -7.706047   1.000000
    9       -7.191319   1.000000
   10       -6.836275   1.000000
   11       -6.549003   1.000000
   12       -5.788594   1.000000
   13       -5.694738   1.000000
   14       -5.171165   1.000000
   15       -5.155578   1.000000
   16       -1.310939   0.000000
   17       -0.194897   0.000000
   18        3.272125   0.000000
   19        3.880959   0.000000
   20        4.002913   0.000000
   21        4.487342   0.000000
   22        4.555295   0.000000
   23        4.967307   0.000000
   24        5.197802   0.000000
 
 -0.3333333E+00  0.2500000E+00  0.0000000E+00  0.2777778E-01
    1      -18.612822   1.000000
    2      -16.781839   1.000000
    3      -16.422249   1.000000
    4      -12.611293   1.000000
    5      -11.944357   1.000000
    6      -10.080665   1.000000
    7       -8.361605   1.000000
    8       -7.706636   1.000000
    9       -7.191675   1.000000
   10       -6.835981   1.000000
   11       -6.547873   1.000000
   12       -5.790700   1.000000
   13       -5.695358   1.000000
   14       -5.170757   1.000000
   15       -5.155399   1.000000
   16       -1.311672   0.000000
   17       -0.194613   0.000000
   18        3.272853   0.000000
   19        3.880084   0.000000
   20        4.003327   0.000000
   21        4.487534   0.000000
   22        4.555971   0.000000
   23        4.967500   0.000000
   24        5.197248   0.000000
 
 -0.2500000E+00  0.2500000E+00  0.0000000E+00  0.2777778E-01
    1      -18.692818   1.000000
    2      -16.708787   1.000000
    3      -16.274121   1.000000
    4      -12.734328   1.000000
    5      -12.094492   1.000000
    6       -9.737535   1.000000
    7       -8.975729   1.000000
    8       -7.963306   1.000000
    9       -7.089069   1.000000
   10       -7.056277   1.000000
   11       -6.300240   1.000000
   12       -5.576258   1.000000
   13       -5.495075   1.000000
   14       -4.965647   1.000000
   15       -4.804615   1.000000
   16       -1.574432   0.000000
   17        0.039151   0.000000
   18        2.764126   0.000000
   19        3.612101   0.000000
   20        4.007927   0.000000
   21        4.412743   0.000000
   22        4.574793   0.000000
   23        4.597673   0.000000
   24        5.067627   0.000000
 
 -0.1666667E+00  0.2500000E+00  0.0000000E+00  0.2777778E-01
    1      -18.812609   1.000000
    2      -16.580593   1.000000
    3      -16.025501   1.000000
    4      -13.005656   1.000000
    5      -12.145930   1.000000
    6       -9.828714   1.000000
    7       -9.083967   1.000000
    8       -8.501379   1.000000
    9       -7.316486   1.000000
   10       -6.973082   1.000000
   11       -6.027762   1.000000
   12       -5.280057   1.000000
   13       -5.171702   1.000000
   14       -4.581767   1.000000
   15       -4.348913   1.000000
   16       -1.908176   0.000000
   17        0.355192   0.000000
   18        2.355696   0.000000
   19        2.898514   0.000000
   20        3.457081   0.000000
   21        3.994580   0.000000
   22        4.658745   0.000000
   23        4.785780   0.000000
   24        5.381795   0.000000
 
 -0.8333333E-01  0.2500000E+00  0.0000000E+00  0.2777778E-01
    1      -18.930413   1.000000
    2      -16.409126   1.000000
    3      -15.770432   1.000000
    4      -13.255414   1.000000
    5      -12.146453   1.000000
    6      -10.437904   1.000000
    7       -9.013222   1.000000
    8       -8.663941   1.000000
    9       -7.536488   1.000000
   10       -6.876761   1.000000
   11       -5.798624   1.000000
   12       -5.052718   1.000000
   13       -4.734837   1.000000
   14       -4.188585   1.000000
   15       -3.953716   1.000000
   16       -2.161827   0.000000
   17        0.681829   0.000000
   18        2.048534   0.000000
   19        2.077161   0.000000
   20        3.004068   0.000000
   21        3.644994   0.000000
   22        4.350874   0.000000
   23        5.083637   0.000000
   24        6.107128   0.000000
 
  0.1232595E-31  0.3333333E+00  0.0000000E+00  0.1388889E-01
    1      -18.871354   1.000000
    2      -16.588393   1.000000
    3      -15.732914   1.000000
    4      -13.440025   1.000000
    5      -11.817378   1.000000
    6      -10.257405   1.000000
    7       -8.793203   1.000000
    8       -8.716321   1.000000
    9       -7.426086   1.000000
   10       -7.232729   1.000000
   11       -5.652059   1.000000
   12       -5.318357   1.000000
   13       -5.100882   1.000000
   14       -4.068608   1.000000
   15       -4.017986   1.000000
   16       -2.377665   0.000000
   17        1.080949   0.000000
   18        1.844795   0.000000
   19        2.201655   0.000000
   20        3.373918   0.000000