<?xml version="1.0" encoding="ISO-8859-1"?>
<modeling>
 <generator>
  <i name="program" type="string">vasp </i>
  <i name="version" type="string">5.4.4.18Apr17-6-g9f103f2a35  </i>
  <i name="subversion" type="string">(build Mar 30 2023 15:39:25) complex            parallel </i>
  <i name="platform" type="string">LinuxIFC </i>
  <i name="date" type="string">2023 05 27 </i>
  <i name="time" type="string">00:01:44 </i>
 </generator>
 <incar>
  <i type="string" name="SYSTEM"> BC3</i>
  <i type="int" name="ISTART">     0</i>
  <i type="string" name="PREC">accurate</i>
  <i type="string" name="ALGO"> Normal</i>
  <i type="int" name="ICHARG">     2</i>
  <i type="int" name="IBRION">    -1</i>
  <i name="EDIFF">      0.00000100</i>
  <i name="EDIFFG">     -0.00100000</i>
  <i type="int" name="NSW">     0</i>
  <i name="ENCUT">    450.00000000</i>
  <i type="int" name="ISMEAR">     0</i>
  <i name="SIGMA">      0.10000000</i>
  <i type="logical" name="LCHARG"> T  </i>
  <v type="int" name="KPOINT_BSE">    -1     0     0     0</v>
 </incar>
 <structure name="primitive_cell" >
  <crystal>
   <varray name="basis" >
    <v>       5.17471375       0.00000000       0.00000000 </v>
    <v>       2.58735687       4.48016509       0.00000000 </v>
    <v>       0.00000000       0.00000000      11.04441191 </v>
   </varray>
   <i name="volume">    256.04891747 </i>
   <varray name="rec_basis" >
    <v>       0.19324740      -0.11160303       0.00000000 </v>
    <v>      -0.00000000       0.22320606       0.00000000 </v>
    <v>       0.00000000       0.00000000       0.09054353 </v>
   </varray>
  </crystal>
  <varray name="positions" >
   <v>       0.17460303       0.17456665       0.00000000 </v>
   <v>      -0.00004688      -0.47613354       0.00000000 </v>
   <v>      -0.00011937      -0.00001059       0.00000000 </v>
   <v>      -0.47609732      -0.00001059       0.00000000 </v>
   <v>       0.15859576      -0.31744087       0.00000000 </v>
   <v>      -0.31738219      -0.31744087       0.00000000 </v>
   <v>      -0.31745468       0.15868208       0.00000000 </v>
   <v>      -0.49210459      -0.49201811       0.00000000 </v>
  </varray>
 </structure>
 <varray name="primitive_index" >
  <v type="int" >        1 </v>
  <v type="int" >        6 </v>
  <v type="int" >        3 </v>
  <v type="int" >        4 </v>
  <v type="int" >        7 </v>
  <v type="int" >        8 </v>
  <v type="int" >        5 </v>
  <v type="int" >        2 </v>
 </varray>
 <kpoints>
  <generation param="Gamma">
   <v type="int" name="divisions">      12       12        1 </v>
   <v name="usershift">      0.00000000       0.00000000       0.00000000 </v>
   <v name="genvec1">      0.08333333       0.00000000       0.00000000 </v>
   <v name="genvec2">     -0.00000000       0.08333333       0.00000000 </v>
   <v name="genvec3">      0.00000000       0.00000000       1.00000000 </v>
   <v name="shift">      0.00000000       0.00000000       0.00000000 </v>
  </generation>
  <varray name="kpointlist" >
   <v>       0.00000000       0.00000000       0.00000000 </v>
   <v>       0.08333333      -0.00000000       0.00000000 </v>
   <v>       0.16666667      -0.00000000       0.00000000 </v>
   <v>       0.25000000      -0.00000000       0.00000000 </v>
   <v>       0.33333333      -0.00000000       0.00000000 </v>
   <v>       0.41666667      -0.00000000       0.00000000 </v>
   <v>       0.50000000      -0.00000000       0.00000000 </v>
   <v>       0.00000000       0.08333333       0.00000000 </v>
   <v>       0.16666667       0.08333333       0.00000000 </v>
   <v>       0.25000000       0.08333333       0.00000000 </v>
   <v>       0.33333333       0.08333333       0.00000000 </v>
   <v>       0.41666667       0.08333333       0.00000000 </v>
   <v>       0.50000000       0.08333333       0.00000000 </v>
   <v>      -0.41666667       0.08333333       0.00000000 </v>
   <v>      -0.33333333       0.08333333       0.00000000 </v>
   <v>      -0.25000000       0.08333333       0.00000000 </v>
   <v>      -0.16666667       0.08333333       0.00000000 </v>
   <v>      -0.08333333       0.08333333       0.00000000 </v>
   <v>       0.00000000       0.16666667       0.00000000 </v>
   <v>       0.33333333       0.16666667       0.00000000 </v>
   <v>       0.41666667       0.16666667       0.00000000 </v>
   <v>       0.50000000       0.16666667       0.00000000 </v>
   <v>      -0.41666667       0.16666667       0.00000000 </v>
   <v>      -0.33333333       0.16666667       0.00000000 </v>
   <v>      -0.25000000       0.16666667       0.00000000 </v>
   <v>      -0.16666667       0.16666667       0.00000000 </v>
   <v>      -0.08333333       0.16666667       0.00000000 </v>
   <v>       0.00000000       0.25000000       0.00000000 </v>
   <v>       0.50000000       0.25000000       0.00000000 </v>
   <v>      -0.41666667       0.25000000       0.00000000 </v>
   <v>      -0.33333333       0.25000000       0.00000000 </v>
   <v>      -0.25000000       0.25000000       0.00000000 </v>
   <v>      -0.16666667       0.25000000       0.00000000 </v>
   <v>      -0.08333333       0.25000000       0.00000000 </v>
   <v>       0.00000000       0.33333333       0.00000000 </v>
   <v>      -0.33333333       0.33333333       0.00000000 </v>
   <v>      -0.25000000       0.33333333       0.00000000 </v>
   <v>      -0.16666667       0.33333333       0.00000000 </v>
   <v>      -0.08333333       0.33333333       0.00000000 </v>
   <v>       0.00000000       0.41666667       0.00000000 </v>
   <v>      -0.16666667       0.41666667       0.00000000 </v>
   <v>      -0.08333333       0.41666667       0.00000000 </v>
   <v>       0.00000000       0.50000000       0.00000000 </v>
  </varray>
  <varray name="weights" >
   <v>       0.00694444 </v>
   <v>       0.02777778 </v>
   <v>       0.02777778 </v>
   <v>       0.02777778 </v>
   <v>       0.02777778 </v>
   <v>       0.02777778 </v>
   <v>       0.01388889 </v>
   <v>       0.01388889 </v>
   <v>       0.01388889 </v>
   <v>       0.02777778 </v>
   <v>       0.02777778 </v>
   <v>       0.02777778 </v>
   <v>       0.02777778 </v>
   <v>       0.02777778 </v>
   <v>       0.02777778 </v>
   <v>       0.02777778 </v>
   <v>       0.02777778 </v>
   <v>       0.02777778 </v>
   <v>       0.01388889 </v>
   <v>       0.01388889 </v>
   <v>       0.02777778 </v>
   <v>       0.02777778 </v>
   <v>       0.02777778 </v>
   <v>       0.02777778 </v>
   <v>       0.02777778 </v>
   <v>       0.02777778 </v>
   <v>       0.02777778 </v>
   <v>       0.01388889 </v>
   <v>       0.01388889 </v>
   <v>       0.02777778 </v>
   <v>       0.02777778 </v>
   <v>       0.02777778 </v>
   <v>       0.02777778 </v>
   <v>       0.02777778 </v>
   <v>       0.01388889 </v>
   <v>       0.01388889 </v>
   <v>       0.02777778 </v>
   <v>       0.02777778 </v>
   <v>       0.02777778 </v>
   <v>       0.01388889 </v>
   <v>       0.01388889 </v>
   <v>       0.02777778 </v>
   <v>       0.00694444 </v>
  </varray>
 </kpoints>
 <parameters>
  <separator name="general" >
   <i type="string" name="SYSTEM">BC3</i>
   <i type="logical" name="LCOMPAT"> F  </i>
  </separator>
  <separator name="electronic" >
   <i type="string" name="PREC">accura</i>
   <i name="ENMAX">    450.00000000</i>
   <i name="ENAUG">    644.87300000</i>
   <i name="EDIFF">      0.00000100</i>
   <i type="int" name="IALGO">    38</i>
   <i type="int" name="IWAVPR">    10</i>
   <i type="int" name="NBANDS">    24</i>
   <i name="NELECT">     30.00000000</i>
   <i type="int" name="TURBO">     0</i>
   <i type="int" name="IRESTART">     0</i>
   <i type="int" name="NREBOOT">     0</i>
   <i type="int" name="NMIN">     0</i>
   <i name="EREF">      0.00000000</i>
   <separator name="electronic smearing" >
    <i type="int" name="ISMEAR">     0</i>
    <i name="SIGMA">      0.10000000</i>
    <i name="KSPACING">      0.50000000</i>
    <i type="logical" name="KGAMMA"> T  </i>
   </separator>
   <separator name="electronic projectors" >
    <i type="logical" name="LREAL"> F  </i>
    <v name="ROPT">      0.00000000      0.00000000</v>
    <i type="int" name="LMAXPAW">  -100</i>
    <i type="int" name="LMAXMIX">     2</i>
    <i type="logical" name="NLSPLINE"> F  </i>
   </separator>
   <separator name="electronic startup" >
    <i type="int" name="ISTART">     0</i>
    <i type="int" name="ICHARG">     2</i>
    <i type="int" name="INIWAV">     1</i>
   </separator>
   <separator name="electronic spin" >
    <i type="int" name="ISPIN">     1</i>
    <i type="logical" name="LNONCOLLINEAR"> F  </i>
    <v name="MAGMOM">      1.00000000      1.00000000      1.00000000      1.00000000      1.00000000      1.00000000      1.00000000      1.00000000</v>
    <i name="NUPDOWN">     -1.00000000</i>
    <i type="logical" name="LSORBIT"> F  </i>
    <v name="SAXIS">      0.00000000      0.00000000      1.00000000</v>
    <i type="logical" name="LSPIRAL"> F  </i>
    <v name="QSPIRAL">      0.00000000      0.00000000      0.00000000</v>
    <i type="logical" name="LZEROZ"> F  </i>
   </separator>
   <separator name="electronic exchange-correlation" >
    <i type="logical" name="LASPH"> F  </i>
    <i type="logical" name="LMETAGGA"> F  </i>
   </separator>
   <separator name="electronic convergence" >
    <i type="int" name="NELM">    60</i>
    <i type="int" name="NELMDL">    -5</i>
    <i type="int" name="NELMIN">     2</i>
    <i name="ENINI">    450.00000000</i>
    <separator name="electronic convergence detail" >
     <i type="logical" name="LDIAG"> T  </i>
     <i type="logical" name="LSUBROT"> F  </i>
     <i name="WEIMIN">      0.00000000</i>
     <i name="EBREAK">      0.00000001</i>
     <i name="DEPER">      0.30000000</i>
     <i type="int" name="NRMM">     4</i>
     <i name="TIME">      0.40000000</i>
    </separator>
   </separator>
   <separator name="electronic mixer" >
    <i name="AMIX">      0.40000000</i>
    <i name="BMIX">      1.00000000</i>
    <i name="AMIN">      0.10000000</i>
    <i name="AMIX_MAG">      1.60000000</i>
    <i name="BMIX_MAG">      1.00000000</i>
    <separator name="electronic mixer details" >
     <i type="int" name="IMIX">     4</i>
     <i type="logical" name="MIXFIRST"> F  </i>
     <i type="int" name="MAXMIX">   -45</i>
     <i name="WC">    100.00000000</i>
     <i type="int" name="INIMIX">     1</i>
     <i type="int" name="MIXPRE">     1</i>
     <i type="int" name="MREMOVE">     5</i>
    </separator>
   </separator>
   <separator name="electronic dipolcorrection" >
    <i type="logical" name="LDIPOL"> F  </i>
    <i type="logical" name="LMONO"> F  </i>
    <i type="int" name="IDIPOL">     0</i>
    <i name="EPSILON">      1.00000000</i>
    <v name="DIPOL">   -100.00000000   -100.00000000   -100.00000000</v>
    <i name="EFIELD">      0.00000000</i>
   </separator>
  </separator>
  <separator name="grids" >
   <i type="int" name="NGX">    36</i>
   <i type="int" name="NGY">    36</i>
   <i type="int" name="NGZ">    80</i>
   <i type="int" name="NGXF">    72</i>
   <i type="int" name="NGYF">    72</i>
   <i type="int" name="NGZF">   160</i>
   <i type="logical" name="ADDGRID"> F  </i>
  </separator>
  <separator name="ionic" >
   <i type="int" name="NSW">     0</i>
   <i type="int" name="IBRION">    -1</i>
   <i type="int" name="MDALGO">     0</i>
   <i type="int" name="ISIF">     2</i>
   <i name="PSTRESS">      0.00000000</i>
   <i name="EDIFFG">     -0.00100000</i>
   <i type="int" name="NFREE">     0</i>
   <i name="POTIM">      0.50000000</i>
   <i name="SMASS">     -3.00000000</i>
   <i name="SCALEE">      1.00000000</i>
  </separator>
  <separator name="ionic md" >
   <i name="TEBEG">      0.00010000</i>
   <i name="TEEND">      0.00010000</i>
   <i type="int" name="NBLOCK">     1</i>
   <i type="int" name="KBLOCK">     1</i>
   <i type="int" name="NPACO">   256</i>
   <i name="APACO">     16.00000000</i>
  </separator>
  <separator name="symmetry" >
   <i type="int" name="ISYM">     2</i>
   <i name="SYMPREC">      0.00001000</i>
  </separator>
  <separator name="dos" >
   <i type="int" name="LORBIT">     0</i>
   <v name="RWIGS">     -1.00000000     -1.00000000</v>
   <i type="int" name="NEDOS">   301</i>
   <i name="EMIN">     10.00000000</i>
   <i name="EMAX">    -10.00000000</i>
   <i name="EFERMI">      0.00000000</i>
  </separator>
  <separator name="writing" >
   <i type="int" name="NWRITE">     2</i>
   <i type="logical" name="LWAVE"> T  </i>
   <i type="logical" name="LDOWNSAMPLE"> F  </i>
   <i type="logical" name="LCHARG"> T  </i>
   <i type="logical" name="LPARD"> F  </i>
   <i type="logical" name="LVTOT"> F  </i>
   <i type="logical" name="LVHAR"> F  </i>
   <i type="logical" name="LELF"> F  </i>
   <i type="logical" name="LOPTICS"> F  </i>
   <v name="STM">      0.00000000      0.00000000      0.00000000      0.00000000      0.00000000      0.00000000      0.00000000</v>
  </separator>
  <separator name="performance" >
   <i type="int" name="NPAR">    12</i>
   <i type="int" name="NSIM">     4</i>
   <i type="int" name="NBLK">    -1</i>
   <i type="logical" name="LPLANE"> T  </i>
   <i type="logical" name="LSCALAPACK"> T  </i>
   <i type="logical" name="LSCAAWARE"> F  </i>
   <i type="logical" name="LSCALU"> F  </i>
   <i type="logical" name="LASYNC"> F  </i>
   <i type="logical" name="LORBITALREAL"> F  </i>
  </separator>
  <separator name="miscellaneous" >
   <i type="int" name="IDIOT">     3</i>
   <i type="int" name="ISPECIAL">     0</i>
   <i type="logical" name="LMUSIC"> F  </i>
   <v name="POMASS">     10.81100000     12.01100000</v>
   <v name="DARWINR">      0.00000000      0.00000000</v>
   <v name="DARWINV">      1.00000000      1.00000000</v>
   <i type="logical" name="LCORR"> T  </i>
  </separator>
  <i type="logical" name="GGA_COMPAT"> T  </i>
  <i type="logical" name="LBERRY"> F  </i>
  <i type="int" name="ICORELEVEL">     0</i>
  <i type="logical" name="LDAU"> F  </i>
  <i type="int" name="I_CONSTRAINED_M">     0</i>
  <separator name="electronic exchange-correlation" >
   <i type="string" name="GGA">--</i>
   <i type="int" name="VOSKOWN">     0</i>
   <i type="logical" name="LHFCALC"> F  </i>
   <i type="string" name="PRECFOCK"></i>
   <i type="logical" name="LSYMGRAD"> F  </i>
   <i type="logical" name="LHFONE"> F  </i>
   <i type="logical" name="LRHFCALC"> F  </i>
   <i type="logical" name="LTHOMAS"> F  </i>
   <i type="logical" name="LMODELHF"> F  </i>
   <i name="ENCUT4O">     -1.00000000</i>
   <i type="int" name="EXXOEP">     0</i>
   <i type="int" name="FOURORBIT">     0</i>
   <i name="AEXX">      0.00000000</i>
   <i name="HFALPHA">      0.00000000</i>
   <i name="MCALPHA">      0.00000000</i>
   <i name="ALDAX">      1.00000000</i>
   <i name="AGGAX">      1.00000000</i>
   <i name="ALDAC">      1.00000000</i>
   <i name="AGGAC">      1.00000000</i>
   <i type="int" name="NKREDX">     1</i>
   <i type="int" name="NKREDY">     1</i>
   <i type="int" name="NKREDZ">     1</i>
   <i type="logical" name="SHIFTRED"> F  </i>
   <i type="logical" name="ODDONLY"> F  </i>
   <i type="logical" name="EVENONLY"> F  </i>
   <i type="int" name="LMAXFOCK">     0</i>
   <i type="int" name="NMAXFOCKAE">     0</i>
   <i type="logical" name="LFOCKAEDFT"> F  </i>
   <i name="HFSCREEN">      0.00000000</i>
   <i name="HFSCREENC">      0.00000000</i>
   <i type="int" name="NBANDSGWLOW">     0</i>
  </separator>
  <separator name="vdW DFT" >
   <i type="logical" name="LUSE_VDW"> F  </i>
   <i name="Zab_VDW">     -0.84910000</i>
   <i name="PARAM1">      0.12340000</i>
   <i name="PARAM2">      1.00000000</i>
   <i name="PARAM3">      0.00000000</i>
  </separator>
  <separator name="model GW" >
   <i type="int" name="MODEL_GW">     0</i>
   <i name="MODEL_EPS0">     19.20366881</i>
   <i name="MODEL_ALPHA">      1.00000000</i>
  </separator>
  <separator name="linear response parameters" >
   <i type="logical" name="LEPSILON"> F  </i>
   <i type="logical" name="LRPA"> F  </i>
   <i type="logical" name="LNABLA"> F  </i>
   <i type="logical" name="LVEL"> F  </i>
   <i type="int" name="KINTER">     0</i>
   <i name="CSHIFT">      0.10000000</i>
   <i name="OMEGAMAX">     -1.00000000</i>
   <i name="DEG_THRESHOLD">      0.00200000</i>
   <i name="RTIME">     -0.10000000</i>
   <i name="WPLASMAI">      0.00000000</i>
   <v name="DFIELD">      0.00000000      0.00000000      0.00000000</v>
   <v name="WPLASMA">      0.00000000      0.00000000      0.00000000      0.00000000      0.00000000      0.00000000      0.00000000      0.00000000      0.00000000</v>
  </separator>
  <separator name="orbital magnetization" >
   <i type="logical" name="NUCIND"> F  </i>
   <v name="MAGPOS">      0.00000000      0.00000000      0.00000000</v>
   <i type="logical" name="LNICSALL"> T  </i>
   <i type="logical" name="ORBITALMAG"> F  </i>
   <i type="logical" name="LMAGBLOCH"> F  </i>
   <i type="logical" name="LCHIMAG"> F  </i>
   <i type="logical" name="LGAUGE"> T  </i>
   <i type="int" name="MAGATOM">     0</i>
   <v name="MAGDIPOL">      0.00000000      0.00000000      0.00000000</v>
   <v name="AVECCONST">      0.00000000      0.00000000      0.00000000</v>
  </separator>
  <separator name="response functions" >
   <i type="logical" name="LADDER"> F  </i>
   <i type="logical" name="LRPAFORCE"> F  </i>
   <i type="logical" name="LFXC"> F  </i>
   <i type="logical" name="LHARTREE"> T  </i>
   <i type="int" name="IBSE">     0</i>
   <v type="int" name="KPOINT">    -1     0     0     0</v>
   <i type="logical" name="LTCTE"> F  </i>
   <i type="logical" name="LTETE"> F  </i>
   <i type="logical" name="LTRIPLET"> F  </i>
   <i type="logical" name="LFXCEPS"> F  </i>
   <i type="logical" name="LFXHEG"> F  </i>
   <i type="int" name="NATURALO">     2</i>
   <i type="logical" name="L2ORDER"> F  </i>
   <i type="logical" name="LMP2LT"> F  </i>
   <i type="logical" name="LUSEW"> F  </i>
   <i name="ENCUTGW">     -2.00000000</i>
   <i name="ENCUTGWSOFT">     -2.00000000</i>
   <i name="ENCUTLF">     -1.00000000</i>
   <i type="int" name="LMAXMP2">    -1</i>
   <i name="SCISSOR">      0.00000000</i>
   <i type="int" name="NOMEGA">     0</i>
   <i type="int" name="NOMEGAR">     0</i>
   <i type="int" name="NBANDSGW">    -1</i>
   <i type="int" name="NBANDSO">    -1</i>
   <i type="int" name="NBANDSV">    -1</i>
   <i type="int" name="NELM">     1</i>
   <i type="int" name="NELMHF">     1</i>
   <i type="int" name="DIM">     3</i>
   <i type="int" name="ANTIRES">     0</i>
   <i name="OMEGAMAX">    -30.00000000</i>
   <i name="OMEGAMIN">    -30.00000000</i>
   <i name="OMEGATL">   -200.00000000</i>
   <i type="int" name="OMEGAGRID">   140</i>
   <i name="CSHIFT">     -0.10000000</i>
   <i type="logical" name="SELFENERGY"> F  </i>
   <i type="logical" name="LSPECTRAL"> F  </i>
   <i type="logical" name="LSPECTRALGW"> F  </i>
   <i type="logical" name="LSINGLES"> F  </i>
   <i type="logical" name="LFERMIGW"> F  </i>
   <i type="logical" name="ODDONLYGW"> F  </i>
   <i type="logical" name="EVENONLYGW"> F  </i>
   <i type="int" name="NKREDLFX">     1</i>
   <i type="int" name="NKREDLFY">     1</i>
   <i type="int" name="NKREDLFZ">     1</i>
   <i type="int" name="MAXMEM">  2800</i>
   <i type="int" name="TELESCOPE">     0</i>
   <i type="int" name="TAUPAR">     1</i>
   <i type="int" name="OMEGAPAR">    -1</i>
   <i name="LAMBDA">      1.00000000</i>
  </separator>
  <separator name="External order field" >
   <i name="OFIELD_KAPPA">      0.00000000</i>
   <v name="OFIELD_K">      0.00000000      0.00000000      0.00000000</v>
   <i name="OFIELD_Q6_NEAR">      0.00000000</i>
   <i name="OFIELD_Q6_FAR">      0.00000000</i>
   <i name="OFIELD_A">      0.00000000</i>
  </separator>
 </parameters>
 <atominfo>
  <atoms>       8 </atoms>
  <types>       2 </types>
  <array name="atoms" >
   <dimension dim="1">ion</dimension>
   <field type="string">element</field>
   <field type="int">atomtype</field>
   <set>
    <rc><c>B </c><c>   1</c></rc>
    <rc><c>B </c><c>   1</c></rc>
    <rc><c>C </c><c>   2</c></rc>
    <rc><c>C </c><c>   2</c></rc>
    <rc><c>C </c><c>   2</c></rc>
    <rc><c>C </c><c>   2</c></rc>
    <rc><c>C </c><c>   2</c></rc>
    <rc><c>C </c><c>   2</c></rc>
   </set>
  </array>
  <array name="atomtypes" >
   <dimension dim="1">type</dimension>
   <field type="int">atomspertype</field>
   <field type="string">element</field>
   <field>mass</field>
   <field>valence</field>
   <field type="string">pseudopotential</field>
   <set>
    <rc><c>   2</c><c>B </c><c>     10.81100000</c><c>      3.00000000</c><c>  PAW_PBE B 06Sep2000                   </c></rc>
    <rc><c>   6</c><c>C </c><c>     12.01100000</c><c>      4.00000000</c><c>  PAW_PBE C 08Apr2002                   </c></rc>
   </set>
  </array>
 </atominfo>
 <structure name="initialpos" >
  <crystal>
   <varray name="basis" >
    <v>       5.17471375       0.00000000       0.00000000 </v>
    <v>       2.58735687       4.48016509       0.00000000 </v>
    <v>       0.00000000       0.00000000      11.04441191 </v>
   </varray>
   <i name="volume">    256.04891747 </i>
   <varray name="rec_basis" >
    <v>       0.19324740      -0.11160303       0.00000000 </v>
    <v>      -0.00000000       0.22320606       0.00000000 </v>
    <v>       0.00000000       0.00000000       0.09054353 </v>
   </varray>
  </crystal>
  <varray name="positions" >
   <v>       0.17460303       0.17456665       0.00000000 </v>
   <v>       0.50789541       0.50798189       0.00000000 </v>
   <v>       0.99988063       0.99998941       0.00000000 </v>
   <v>       0.52390268       0.99998941       0.00000000 </v>
   <v>       0.68254532       0.15868208       0.00000000 </v>
   <v>       0.99995312       0.52386646       0.00000000 </v>
   <v>       0.15859576       0.68255913       0.00000000 </v>
   <v>       0.68261781       0.68255913       0.00000000 </v>
  </varray>
 </structure>
 <calculation>
  <scstep>
   <time name="dav">    3.46    3.46</time>
   <time name="total">    3.55    3.55</time>
   <energy>
    <i name="alphaZ">     19.81068387 </i>
    <i name="ewald">   1439.15139366 </i>
    <i name="hartreedc">  -2228.67760933 </i>
    <i name="XCdc">     91.14356326 </i>
    <i name="pawpsdc">    738.13200929 </i>
    <i name="pawaedc">   -739.83780425 </i>
    <i name="eentropy">     -0.01068704 </i>
    <i name="bandstr">   -168.44543688 </i>
    <i name="atom">   1025.20389953 </i>
    <i name="e_fr_energy">    176.47001212 </i>
    <i name="e_wo_entrp">    176.48069916 </i>
    <i name="e_0_energy">    176.47535564 </i>
   </energy>
  </scstep>
  <scstep>
   <time name="dav">    4.32    4.32</time>
   <time name="total">    4.32    4.32</time>
   <energy>
    <i name="e_fr_energy">    -49.89734343 </i>
    <i name="e_wo_entrp">    -49.89734343 </i>
    <i name="e_0_energy">    -49.89734343 </i>
   </energy>
  </scstep>
  <scstep>
   <time name="dav">    4.23    4.23</time>
   <time name="total">    4.23    4.24</time>
   <energy>
    <i name="e_fr_energy">    -72.98673034 </i>
    <i name="e_wo_entrp">    -72.98673034 </i>
    <i name="e_0_energy">    -72.98673034 </i>
   </energy>
  </scstep>
  <scstep>
   <time name="dav">    4.65    4.65</time>
   <time name="total">    4.65    4.65</time>
   <energy>
    <i name="e_fr_energy">    -73.42877240 </i>
    <i name="e_wo_entrp">    -73.42877240 </i>
    <i name="e_0_energy">    -73.42877240 </i>
   </energy>
  </scstep>
  <scstep>
   <time name="dav">    4.29    4.29</time>
   <time name="total">    4.53    4.53</time>
   <energy>
    <i name="e_fr_energy">    -73.44200898 </i>
    <i name="e_wo_entrp">    -73.44200898 </i>
    <i name="e_0_energy">    -73.44200898 </i>
   </energy>
  </scstep>
  <scstep>
   <time name="dav">    4.67    4.67</time>
   <time name="total">    4.99    4.99</time>
   <energy>
    <i name="e_fr_energy">    -68.98969214 </i>
    <i name="e_wo_entrp">    -68.98969214 </i>
    <i name="e_0_energy">    -68.98969214 </i>
   </energy>
  </scstep>
  <scstep>
   <time name="dav">    4.49    4.49</time>
   <time name="total">    4.82    4.82</time>
   <energy>
    <i name="e_fr_energy">    -67.35678155 </i>
    <i name="e_wo_entrp">    -67.35678155 </i>
    <i name="e_0_energy">    -67.35678155 </i>
   </energy>
  </scstep>
  <scstep>
   <time name="dav">    4.66    4.66</time>
   <time name="total">    4.98    4.98</time>
   <energy>
    <i name="e_fr_energy">    -67.26639068 </i>
    <i name="e_wo_entrp">    -67.26639067 </i>
    <i name="e_0_energy">    -67.26639067 </i>
   </energy>
  </scstep>
  <scstep>
   <time name="dav">    4.18    4.19</time>
   <time name="total">    4.50    4.51</time>
   <energy>
    <i name="e_fr_energy">    -67.24060685 </i>
    <i name="e_wo_entrp">    -67.24060684 </i>
    <i name="e_0_energy">    -67.24060685 </i>
   </energy>
  </scstep>
  <scstep>
   <time name="dav">    4.22    4.22</time>
   <time name="total">    4.55    4.55</time>
   <energy>
    <i name="e_fr_energy">    -67.22218430 </i>
    <i name="e_wo_entrp">    -67.22218427 </i>
    <i name="e_0_energy">    -67.22218428 </i>
   </energy>
  </scstep>
  <scstep>
   <time name="dav">    3.54    3.54</time>
   <time name="total">    3.87    3.87</time>
   <energy>
    <i name="e_fr_energy">    -67.21472969 </i>
    <i name="e_wo_entrp">    -67.21472963 </i>
    <i name="e_0_energy">    -67.21472966 </i>
   </energy>
  </scstep>
  <scstep>
   <time name="dav">    3.99    3.99</time>
   <time name="total">    4.31    4.31</time>
   <energy>
    <i name="e_fr_energy">    -67.21950849 </i>
    <i name="e_wo_entrp">    -67.21950841 </i>
    <i name="e_0_energy">    -67.21950845 </i>
   </energy>
  </scstep>
  <scstep>
   <time name="dav">    3.68    3.68</time>
   <time name="total">    4.01    4.01</time>
   <energy>
    <i name="e_fr_energy">    -67.22727099 </i>
    <i name="e_wo_entrp">    -67.22727093 </i>
    <i name="e_0_energy">    -67.22727096 </i>
   </energy>
  </scstep>
  <scstep>
   <time name="dav">    3.67    3.67</time>
   <time name="total">    4.00    4.00</time>
   <energy>
    <i name="e_fr_energy">    -67.22930049 </i>
    <i name="e_wo_entrp">    -67.22930042 </i>
    <i name="e_0_energy">    -67.22930046 </i>
   </energy>
  </scstep>
  <scstep>
   <time name="dav">    3.78    3.78</time>
   <time name="total">    4.10    4.10</time>
   <energy>
    <i name="e_fr_energy">    -67.22959908 </i>
    <i name="e_wo_entrp">    -67.22959902 </i>
    <i name="e_0_energy">    -67.22959905 </i>
   </energy>
  </scstep>
  <scstep>
   <time name="dav">    3.54    3.54</time>
   <time name="total">    3.86    3.86</time>
   <energy>
    <i name="e_fr_energy">    -67.22971549 </i>
    <i name="e_wo_entrp">    -67.22971543 </i>
    <i name="e_0_energy">    -67.22971546 </i>
   </energy>
  </scstep>
  <scstep>
   <time name="dav">    3.92    3.93</time>
   <time name="total">    4.25    4.25</time>
   <energy>
    <i name="e_fr_energy">    -67.22971842 </i>
    <i name="e_wo_entrp">    -67.22971835 </i>
    <i name="e_0_energy">    -67.22971838 </i>
   </energy>
  </scstep>
  <scstep>
   <time name="dav">    2.89    2.89</time>
   <time name="total">    3.21    3.22</time>
   <energy>
    <i name="e_fr_energy">    -67.22972027 </i>
    <i name="e_wo_entrp">    -67.22972021 </i>
    <i name="e_0_energy">    -67.22972024 </i>
   </energy>
  </scstep>
  <scstep>
   <time name="dav">    3.12    3.12</time>
   <time name="total">    3.20    3.20</time>
   <energy>
    <i name="alphaZ">     19.81068387 </i>
    <i name="ewald">   1439.15139366 </i>
    <i name="hartreedc">  -2358.51767300 </i>
    <i name="XCdc">     96.02370328 </i>
    <i name="pawpsdc">   2894.70020798 </i>
    <i name="pawaedc">  -2897.22745146 </i>
    <i name="eentropy">     -0.00000007 </i>
    <i name="bandstr">   -286.37448423 </i>
    <i name="atom">   1025.20389953 </i>
    <i name="e_fr_energy">    -67.22972042 </i>
    <i name="e_wo_entrp">    -67.22972035 </i>
    <i name="e_0_energy">    -67.22972039 </i>
   </energy>
  </scstep>
  <structure>
   <crystal>
    <varray name="basis" >
     <v>       5.17471375       0.00000000       0.00000000 </v>
     <v>       2.58735687       4.48016509       0.00000000 </v>
     <v>       0.00000000       0.00000000      11.04441191 </v>
    </varray>
    <i name="volume">    256.04891747 </i>
    <varray name="rec_basis" >
     <v>       0.19324740      -0.11160303       0.00000000 </v>
     <v>      -0.00000000       0.22320606       0.00000000 </v>
     <v>       0.00000000       0.00000000       0.09054353 </v>
    </varray>
   </crystal>
   <varray name="positions" >
    <v>       0.17460303       0.17456665       0.00000000 </v>
    <v>       0.50789541       0.50798189       0.00000000 </v>
    <v>       0.99988063       0.99998941       0.00000000 </v>
    <v>       0.52390268       0.99998941       0.00000000 </v>
    <v>       0.68254532       0.15868208       0.00000000 </v>
    <v>       0.99995312       0.52386646       0.00000000 </v>
    <v>       0.15859576       0.68255913       0.00000000 </v>
    <v>       0.68261781       0.68255913       0.00000000 </v>
   </varray>
  </structure>
  <varray name="forces" >
   <v>       0.00000000       0.00029245       0.00000000 </v>
   <v>      -0.00000000      -0.00029245      -0.00000000 </v>
   <v>       0.01025602      -0.00379970       0.00000000 </v>
   <v>      -0.01025602      -0.00379970       0.00000000 </v>
   <v>      -0.00000000       0.00552895       0.00000000 </v>
   <v>       0.00000000      -0.00552895      -0.00000000 </v>
   <v>       0.01025602       0.00379970       0.00000000 </v>
   <v>      -0.01025602       0.00379970      -0.00000000 </v>
  </varray>
  <varray name="stress" >
   <v>      -0.55578870      -0.00000000       0.00000000 </v>
   <v>      -0.00000000      -0.10704808       0.00000000 </v>
   <v>       0.00000000       0.00000000      -1.13567391 </v>
  </varray>
  <energy>
   <i name="e_fr_energy">    -67.22972042 </i>
   <i name="e_wo_entrp">    -67.22972039 </i>
   <i name="e_0_energy">     -0.00000007 </i>
  </energy>
  <time name="totalsc">   84.45   85.07</time>
  <eigenvalues>
   <array>
    <dimension dim="1">band</dimension>
    <dimension dim="2">kpoint</dimension>
    <dimension dim="3">spin</dimension>
    <field>eigene</field>
    <field>occ</field>
    <set>
     <set comment="spin 1">
      <set comment="kpoint 1">
       <r>  -19.2493    1.0000 </r>
       <r>  -15.3576    1.0000 </r>
       <r>  -15.3575    1.0000 </r>
       <r>  -13.0080    1.0000 </r>
       <r>  -13.0066    1.0000 </r>
       <r>  -11.9392    1.0000 </r>
       <r>  -10.6206    1.0000 </r>
       <r>   -8.0537    1.0000 </r>
       <r>   -7.8339    1.0000 </r>
       <r>   -5.6800    1.0000 </r>
       <r>   -5.6780    1.0000 </r>
       <r>   -3.8571    1.0000 </r>
       <r>   -3.8570    1.0000 </r>
       <r>   -3.1768    1.0000 </r>
       <r>   -3.1723    1.0000 </r>
       <r>   -1.3387    0.0000 </r>
       <r>    0.3920    0.0000 </r>
       <r>    0.3943    0.0000 </r>
       <r>    1.0544    0.0000 </r>
       <r>    1.3799    0.0000 </r>
       <r>    2.8691    0.0000 </r>
       <r>    3.6800    0.0000 </r>
       <r>    5.6063    0.0000 </r>
       <r>    5.6110    0.0000 </r>
      </set>
      <set comment="kpoint 2">
       <r>  -19.2222    1.0000 </r>
       <r>  -15.4897    1.0000 </r>
       <r>  -15.3999    1.0000 </r>
       <r>  -13.0467    1.0000 </r>
       <r>  -12.9086    1.0000 </r>
       <r>  -11.8046    1.0000 </r>
       <r>  -10.4604    1.0000 </r>
       <r>   -8.0125    1.0000 </r>
       <r>   -7.8913    1.0000 </r>
       <r>   -5.8029    1.0000 </r>
       <r>   -5.7008    1.0000 </r>
       <r>   -3.9818    1.0000 </r>
       <r>   -3.8777    1.0000 </r>
       <r>   -3.3186    1.0000 </r>
       <r>   -3.2422    1.0000 </r>
       <r>   -1.5435    0.0000 </r>
       <r>    0.4529    0.0000 </r>
       <r>    0.7025    0.0000 </r>
       <r>    1.1776    0.0000 </r>
       <r>    1.4317    0.0000 </r>
       <r>    2.9241    0.0000 </r>
       <r>    3.7324    0.0000 </r>
       <r>    5.6798    0.0000 </r>
       <r>    5.7705    0.0000 </r>
      </set>
      <set comment="kpoint 3">
       <r>  -19.1431    1.0000 </r>
       <r>  -15.8146    1.0000 </r>
       <r>  -15.5040    1.0000 </r>
       <r>  -13.1630    1.0000 </r>
       <r>  -12.6397    1.0000 </r>
       <r>  -11.4234    1.0000 </r>
       <r>  -10.0313    1.0000 </r>
       <r>   -8.0736    1.0000 </r>
       <r>   -7.8901    1.0000 </r>
       <r>   -6.1487    1.0000 </r>
       <r>   -5.7368    1.0000 </r>
       <r>   -4.3241    1.0000 </r>
       <r>   -3.9320    1.0000 </r>
       <r>   -3.7255    1.0000 </r>
       <r>   -3.4340    1.0000 </r>
       <r>   -1.8912    0.0000 </r>
       <r>    0.6165    0.0000 </r>
       <r>    1.1695    0.0000 </r>
       <r>    1.5864    0.0000 </r>
       <r>    1.6995    0.0000 </r>
       <r>    3.0917    0.0000 </r>
       <r>    3.8882    0.0000 </r>
       <r>    5.8332    0.0000 </r>
       <r>    6.2373    0.0000 </r>
      </set>
      <set comment="kpoint 4">
       <r>  -19.0202    1.0000 </r>
       <r>  -16.2110    1.0000 </r>
       <r>  -15.6262    1.0000 </r>
       <r>  -13.3105    1.0000 </r>
       <r>  -12.2553    1.0000 </r>
       <r>  -10.8809    1.0000 </r>
       <r>   -9.4220    1.0000 </r>
       <r>   -8.3873    1.0000 </r>
       <r>   -7.6909    1.0000 </r>
       <r>   -6.6556    1.0000 </r>
       <r>   -5.7278    1.0000 </r>
       <r>   -4.8015    1.0000 </r>
       <r>   -4.3430    1.0000 </r>
       <r>   -4.0021    1.0000 </r>
       <r>   -3.7093    1.0000 </r>
       <r>   -2.1779    0.0000 </r>
       <r>    0.8451    0.0000 </r>
       <r>    1.5196    0.0000 </r>
       <r>    1.8433    0.0000 </r>
       <r>    2.5582    0.0000 </r>
       <r>    3.3908    0.0000 </r>
       <r>    4.1454    0.0000 </r>
       <r>    5.4773    0.0000 </r>
       <r>    5.9840    0.0000 </r>
      </set>
      <set comment="kpoint 5">
       <r>  -18.8717    1.0000 </r>
       <r>  -16.5881    1.0000 </r>
       <r>  -15.7323    1.0000 </r>
       <r>  -13.4393    1.0000 </r>
       <r>  -11.8176    1.0000 </r>
       <r>  -10.2576    1.0000 </r>
       <r>   -8.7942    1.0000 </r>
       <r>   -8.7194    1.0000 </r>
       <r>   -7.4265    1.0000 </r>
       <r>   -7.2328    1.0000 </r>
       <r>   -5.6488    1.0000 </r>
       <r>   -5.3186    1.0000 </r>
       <r>   -5.1043    1.0000 </r>
       <r>   -4.0681    1.0000 </r>
       <r>   -4.0137    1.0000 </r>
       <r>   -2.3761    0.0000 </r>
       <r>    1.0818    0.0000 </r>
       <r>    1.8438    0.0000 </r>
       <r>    2.2013    0.0000 </r>
       <r>    3.3725    0.0000 </r>
       <r>    3.9348    0.0000 </r>
       <r>    4.5024    0.0000 </r>
       <r>    4.6314    0.0000 </r>
       <r>    6.0873    0.0000 </r>
      </set>
      <set comment="kpoint 6">
       <r>  -18.7366    1.0000 </r>
       <r>  -16.8710    1.0000 </r>
       <r>  -15.8023    1.0000 </r>
       <r>  -13.5237    1.0000 </r>
       <r>  -11.4166    1.0000 </r>
       <r>   -9.6126    1.0000 </r>
       <r>   -9.1904    1.0000 </r>
       <r>   -8.2838    1.0000 </r>
       <r>   -7.5006    1.0000 </r>
       <r>   -7.1342    1.0000 </r>
       <r>   -5.9430    1.0000 </r>
       <r>   -5.7815    1.0000 </r>
       <r>   -5.5328    1.0000 </r>
       <r>   -4.2747    1.0000 </r>
       <r>   -4.1143    1.0000 </r>
       <r>   -2.4919    0.0000 </r>
       <r>    1.2622    0.0000 </r>
       <r>    2.0906    0.0000 </r>
       <r>    2.6600    0.0000 </r>
       <r>    3.8765    0.0000 </r>
       <r>    3.9507    0.0000 </r>
       <r>    4.7499    0.0000 </r>
       <r>    4.9580    0.0000 </r>
       <r>    5.2986    0.0000 </r>
      </set>
      <set comment="kpoint 7">
       <r>  -18.6781    1.0000 </r>
       <r>  -16.9803    1.0000 </r>
       <r>  -15.8266    1.0000 </r>
       <r>  -13.5529    1.0000 </r>
       <r>  -11.2320    1.0000 </r>
       <r>   -9.3761    1.0000 </r>
       <r>   -9.1685    1.0000 </r>
       <r>   -8.5631    1.0000 </r>
       <r>   -6.9669    1.0000 </r>
       <r>   -6.9368    1.0000 </r>
       <r>   -6.6836    1.0000 </r>
       <r>   -6.0084    1.0000 </r>
       <r>   -5.4703    1.0000 </r>
       <r>   -4.3866    1.0000 </r>
       <r>   -4.1308    1.0000 </r>
       <r>   -2.5300    0.0000 </r>
       <r>    1.3299    0.0000 </r>
       <r>    2.1847    0.0000 </r>
       <r>    3.2171    0.0000 </r>
       <r>    3.2202    0.0000 </r>
       <r>    4.4773    0.0000 </r>
       <r>    4.5174    0.0000 </r>
       <r>    5.4986    0.0000 </r>
       <r>    5.5236    0.0000 </r>
      </set>
      <set comment="kpoint 8">
       <r>  -19.2221    1.0000 </r>
       <r>  -15.4896    1.0000 </r>
       <r>  -15.4000    1.0000 </r>
       <r>  -13.0460    1.0000 </r>
       <r>  -12.9095    1.0000 </r>
       <r>  -11.8046    1.0000 </r>
       <r>  -10.4601    1.0000 </r>
       <r>   -8.0125    1.0000 </r>
       <r>   -7.8911    1.0000 </r>
       <r>   -5.8014    1.0000 </r>
       <r>   -5.7026    1.0000 </r>
       <r>   -3.9817    1.0000 </r>
       <r>   -3.8778    1.0000 </r>
       <r>   -3.3152    1.0000 </r>
       <r>   -3.2456    1.0000 </r>
       <r>   -1.5437    0.0000 </r>
       <r>    0.4513    0.0000 </r>
       <r>    0.7041    0.0000 </r>
       <r>    1.1779    0.0000 </r>
       <r>    1.4317    0.0000 </r>
       <r>    2.9241    0.0000 </r>
       <r>    3.7324    0.0000 </r>
       <r>    5.6754    0.0000 </r>
       <r>    5.7741    0.0000 </r>
      </set>
      <set comment="kpoint 9">
       <r>  -19.1691    1.0000 </r>
       <r>  -15.7027    1.0000 </r>
       <r>  -15.4897    1.0000 </r>
       <r>  -13.0750    1.0000 </r>
       <r>  -12.7822    1.0000 </r>
       <r>  -11.5342    1.0000 </r>
       <r>  -10.1694    1.0000 </r>
       <r>   -8.0138    1.0000 </r>
       <r>   -7.9307    1.0000 </r>
       <r>   -6.0128    1.0000 </r>
       <r>   -5.7523    1.0000 </r>
       <r>   -4.1945    1.0000 </r>
       <r>   -3.9424    1.0000 </r>
       <r>   -3.5848    1.0000 </r>
       <r>   -3.3811    1.0000 </r>
       <r>   -1.7835    0.0000 </r>
       <r>    0.4852    0.0000 </r>
       <r>    1.2111    0.0000 </r>
       <r>    1.4300    0.0000 </r>
       <r>    1.5349    0.0000 </r>
       <r>    3.0350    0.0000 </r>
       <r>    3.8365    0.0000 </r>
       <r>    5.8356    0.0000 </r>
       <r>    6.0325    0.0000 </r>
      </set>
      <set comment="kpoint 10">
       <r>  -19.0678    1.0000 </r>
       <r>  -16.0379    1.0000 </r>
       <r>  -15.6332    1.0000 </r>
       <r>  -13.1451    1.0000 </r>
       <r>  -12.5301    1.0000 </r>
       <r>  -11.0424    1.0000 </r>
       <r>   -9.6620    1.0000 </r>
       <r>   -8.2765    1.0000 </r>
       <r>   -7.7698    1.0000 </r>
       <r>   -6.3823    1.0000 </r>
       <r>   -5.8097    1.0000 </r>
       <r>   -4.5719    1.0000 </r>
       <r>   -4.0747    1.0000 </r>
       <r>   -4.0650    1.0000 </r>
       <r>   -3.6365    1.0000 </r>
       <r>   -2.0103    0.0000 </r>
       <r>    0.5517    0.0000 </r>
       <r>    1.7016    0.0000 </r>
       <r>    1.7407    0.0000 </r>
       <r>    2.1123    0.0000 </r>
       <r>    3.2622    0.0000 </r>
       <r>    4.0432    0.0000 </r>
       <r>    5.9493    0.0000 </r>
       <r>    6.0627    0.0000 </r>
      </set>
      <set comment="kpoint 11">
       <r>  -18.9308    1.0000 </r>
       <r>  -16.4085    1.0000 </r>
       <r>  -15.7704    1.0000 </r>
       <r>  -13.2544    1.0000 </r>
       <r>  -12.1463    1.0000 </r>
       <r>  -10.4385    1.0000 </r>
       <r>   -9.0161    1.0000 </r>
       <r>   -8.6655    1.0000 </r>
       <r>   -7.5368    1.0000 </r>
       <r>   -6.8762    1.0000 </r>
       <r>   -5.7958    1.0000 </r>
       <r>   -5.0527    1.0000 </r>
       <r>   -4.7377    1.0000 </r>
       <r>   -4.1887    1.0000 </r>
       <r>   -3.9501    1.0000 </r>
       <r>   -2.1601    0.0000 </r>
       <r>    0.6827    0.0000 </r>
       <r>    2.0482    0.0000 </r>
       <r>    2.0763    0.0000 </r>
       <r>    3.0020    0.0000 </r>
       <r>    3.6445    0.0000 </r>
       <r>    4.3506    0.0000 </r>
       <r>    5.0823    0.0000 </r>
       <r>    6.1132    0.0000 </r>
      </set>
      <set comment="kpoint 12">
       <r>  -18.7850    1.0000 </r>
       <r>  -16.7332    1.0000 </r>
       <r>  -15.8719    1.0000 </r>
       <r>  -13.3479    1.0000 </r>
       <r>  -11.7198    1.0000 </r>
       <r>   -9.8051    1.0000 </r>
       <r>   -9.1052    1.0000 </r>
       <r>   -8.3397    1.0000 </r>
       <r>   -7.3757    1.0000 </r>
       <r>   -7.2523    1.0000 </r>
       <r>   -5.7480    1.0000 </r>
       <r>   -5.5421    1.0000 </r>
       <r>   -5.4733    1.0000 </r>
       <r>   -4.2825    1.0000 </r>
       <r>   -4.2560    1.0000 </r>
       <r>   -2.2509    0.0000 </r>
       <r>    0.8293    0.0000 </r>
       <r>    2.3970    0.0000 </r>
       <r>    2.4566    0.0000 </r>
       <r>    3.7117    0.0000 </r>
       <r>    4.2807    0.0000 </r>
       <r>    4.3373    0.0000 </r>
       <r>    4.7575    0.0000 </r>
       <r>    5.6036    0.0000 </r>
      </set>
      <set comment="kpoint 13">
       <r>  -18.6820    1.0000 </r>
       <r>  -16.9317    1.0000 </r>
       <r>  -15.9251    1.0000 </r>
       <r>  -13.3994    1.0000 </r>
       <r>  -11.3927    1.0000 </r>
       <r>   -9.5126    1.0000 </r>
       <r>   -9.1484    1.0000 </r>
       <r>   -8.2794    1.0000 </r>
       <r>   -7.1993    1.0000 </r>
       <r>   -6.9926    1.0000 </r>
       <r>   -6.3734    1.0000 </r>
       <r>   -5.9147    1.0000 </r>
       <r>   -5.5702    1.0000 </r>
       <r>   -4.4651    1.0000 </r>
       <r>   -4.3322    1.0000 </r>
       <r>   -2.2951    0.0000 </r>
       <r>    0.9254    0.0000 </r>
       <r>    2.5898    0.0000 </r>
       <r>    2.9654    0.0000 </r>
       <r>    3.5741    0.0000 </r>
       <r>    4.2581    0.0000 </r>
       <r>    4.7949    0.0000 </r>
       <r>    5.2626    0.0000 </r>
       <r>    5.4230    0.0000 </r>
      </set>
      <set comment="kpoint 14">
       <r>  -18.6819    1.0000 </r>
       <r>  -16.9318    1.0000 </r>
       <r>  -15.9250    1.0000 </r>
       <r>  -13.3995    1.0000 </r>
       <r>  -11.3930    1.0000 </r>
       <r>   -9.5123    1.0000 </r>
       <r>   -9.1469    1.0000 </r>
       <r>   -8.2807    1.0000 </r>
       <r>   -7.1988    1.0000 </r>
       <r>   -6.9925    1.0000 </r>
       <r>   -6.3738    1.0000 </r>
       <r>   -5.9148    1.0000 </r>
       <r>   -5.5707    1.0000 </r>
       <r>   -4.4649    1.0000 </r>
       <r>   -4.3320    1.0000 </r>
       <r>   -2.2954    0.0000 </r>
       <r>    0.9252    0.0000 </r>
       <r>    2.5902    0.0000 </r>
       <r>    2.9656    0.0000 </r>
       <r>    3.5738    0.0000 </r>
       <r>    4.2583    0.0000 </r>
       <r>    4.7948    0.0000 </r>
       <r>    5.2629    0.0000 </r>
       <r>    5.4230    0.0000 </r>
      </set>
      <set comment="kpoint 15">
       <r>  -18.7848    1.0000 </r>
       <r>  -16.7337    1.0000 </r>
       <r>  -15.8716    1.0000 </r>
       <r>  -13.3483    1.0000 </r>
       <r>  -11.7205    1.0000 </r>
       <r>   -9.8041    1.0000 </r>
       <r>   -9.1037    1.0000 </r>
       <r>   -8.3394    1.0000 </r>
       <r>   -7.3772    1.0000 </r>
       <r>   -7.2521    1.0000 </r>
       <r>   -5.7471    1.0000 </r>
       <r>   -5.5424    1.0000 </r>
       <r>   -5.4751    1.0000 </r>
       <r>   -4.2820    1.0000 </r>
       <r>   -4.2557    1.0000 </r>
       <r>   -2.2515    0.0000 </r>
       <r>    0.8286    0.0000 </r>
       <r>    2.3980    0.0000 </r>
       <r>    2.4568    0.0000 </r>
       <r>    3.7120    0.0000 </r>
       <r>    4.2804    0.0000 </r>
       <r>    4.3375    0.0000 </r>
       <r>    4.7577    0.0000 </r>
       <r>    5.6033    0.0000 </r>
      </set>
      <set comment="kpoint 16">
       <r>  -18.9306    1.0000 </r>
       <r>  -16.4091    1.0000 </r>
       <r>  -15.7699    1.0000 </r>
       <r>  -13.2550    1.0000 </r>
       <r>  -12.1469    1.0000 </r>
       <r>  -10.4377    1.0000 </r>
       <r>   -9.0150    1.0000 </r>
       <r>   -8.6643    1.0000 </r>
       <r>   -7.5367    1.0000 </r>
       <r>   -6.8779    1.0000 </r>
       <r>   -5.7959    1.0000 </r>
       <r>   -5.0532    1.0000 </r>
       <r>   -4.7379    1.0000 </r>
       <r>   -4.1880    1.0000 </r>
       <r>   -3.9502    1.0000 </r>
       <r>   -2.1610    0.0000 </r>
       <r>    0.6817    0.0000 </r>
       <r>    2.0484    0.0000 </r>
       <r>    2.0777    0.0000 </r>
       <r>    3.0024    0.0000 </r>
       <r>    3.6446    0.0000 </r>
       <r>    4.3508    0.0000 </r>
       <r>    5.0819    0.0000 </r>
       <r>    6.1138    0.0000 </r>
      </set>
      <set comment="kpoint 17">
       <r>  -19.0677    1.0000 </r>
       <r>  -16.0385    1.0000 </r>
       <r>  -15.6327    1.0000 </r>
       <r>  -13.1456    1.0000 </r>
       <r>  -12.5305    1.0000 </r>
       <r>  -11.0419    1.0000 </r>
       <r>   -9.6609    1.0000 </r>
       <r>   -8.2755    1.0000 </r>
       <r>   -7.7696    1.0000 </r>
       <r>   -6.3833    1.0000 </r>
       <r>   -5.8104    1.0000 </r>
       <r>   -4.5723    1.0000 </r>
       <r>   -4.0737    1.0000 </r>
       <r>   -4.0643    1.0000 </r>
       <r>   -3.6377    1.0000 </r>
       <r>   -2.0113    0.0000 </r>
       <r>    0.5504    0.0000 </r>
       <r>    1.7033    0.0000 </r>
       <r>    1.7408    0.0000 </r>
       <r>    2.1128    0.0000 </r>
       <r>    3.2623    0.0000 </r>
       <r>    4.0433    0.0000 </r>
       <r>    5.9484    0.0000 </r>
       <r>    6.0628    0.0000 </r>
      </set>
      <set comment="kpoint 18">
       <r>  -19.1690    1.0000 </r>
       <r>  -15.7031    1.0000 </r>
       <r>  -15.4894    1.0000 </r>
       <r>  -13.0750    1.0000 </r>
       <r>  -12.7828    1.0000 </r>
       <r>  -11.5340    1.0000 </r>
       <r>  -10.1685    1.0000 </r>
       <r>   -8.0132    1.0000 </r>
       <r>   -7.9306    1.0000 </r>
       <r>   -6.0123    1.0000 </r>
       <r>   -5.7538    1.0000 </r>
       <r>   -4.1947    1.0000 </r>
       <r>   -3.9420    1.0000 </r>
       <r>   -3.5821    1.0000 </r>
       <r>   -3.3839    1.0000 </r>
       <r>   -1.7842    0.0000 </r>
       <r>    0.4836    0.0000 </r>
       <r>    1.2131    0.0000 </r>
       <r>    1.4303    0.0000 </r>
       <r>    1.5350    0.0000 </r>
       <r>    3.0350    0.0000 </r>
       <r>    3.8365    0.0000 </r>
       <r>    5.8322    0.0000 </r>
       <r>    6.0332    0.0000 </r>
      </set>
      <set comment="kpoint 19">
       <r>  -19.1430    1.0000 </r>
       <r>  -15.8146    1.0000 </r>
       <r>  -15.5043    1.0000 </r>
       <r>  -13.1629    1.0000 </r>
       <r>  -12.6403    1.0000 </r>
       <r>  -11.4233    1.0000 </r>
       <r>  -10.0302    1.0000 </r>
       <r>   -8.0730    1.0000 </r>
       <r>   -7.8901    1.0000 </r>
       <r>   -6.1475    1.0000 </r>
       <r>   -5.7392    1.0000 </r>
       <r>   -4.3238    1.0000 </r>
       <r>   -3.9322    1.0000 </r>
       <r>   -3.7220    1.0000 </r>
       <r>   -3.4376    1.0000 </r>
       <r>   -1.8920    0.0000 </r>
       <r>    0.6151    0.0000 </r>
       <r>    1.1702    0.0000 </r>
       <r>    1.5865    0.0000 </r>
       <r>    1.7011    0.0000 </r>
       <r>    3.0918    0.0000 </r>
       <r>    3.8883    0.0000 </r>
       <r>    5.8269    0.0000 </r>
       <r>    6.2412    0.0000 </r>
      </set>
      <set comment="kpoint 20">
       <r>  -18.9515    1.0000 </r>
       <r>  -16.3025    1.0000 </r>
       <r>  -15.8424    1.0000 </r>
       <r>  -13.0339    1.0000 </r>
       <r>  -12.4264    1.0000 </r>
       <r>  -10.4605    1.0000 </r>
       <r>   -9.1323    1.0000 </r>
       <r>   -8.6395    1.0000 </r>
       <r>   -7.5744    1.0000 </r>
       <r>   -6.6286    1.0000 </r>
       <r>   -5.9537    1.0000 </r>
       <r>   -4.8841    1.0000 </r>
       <r>   -4.5692    1.0000 </r>
       <r>   -4.3410    1.0000 </r>
       <r>   -3.9706    1.0000 </r>
       <r>   -1.9905    0.0000 </r>
       <r>    0.4226    0.0000 </r>
       <r>    1.9973    0.0000 </r>
       <r>    2.4558    0.0000 </r>
       <r>    2.6318    0.0000 </r>
       <r>    3.5493    0.0000 </r>
       <r>    4.3005    0.0000 </r>
       <r>    5.6125    0.0000 </r>
       <r>    5.6404    0.0000 </r>
      </set>
      <set comment="kpoint 21">
       <r>  -18.8130    1.0000 </r>
       <r>  -16.5795    1.0000 </r>
       <r>  -16.0260    1.0000 </r>
       <r>  -13.0040    1.0000 </r>
       <r>  -12.1462    1.0000 </r>
       <r>   -9.8299    1.0000 </r>
       <r>   -9.0857    1.0000 </r>
       <r>   -8.5045    1.0000 </r>
       <r>   -7.3169    1.0000 </r>
       <r>   -6.9712    1.0000 </r>
       <r>   -6.0263    1.0000 </r>
       <r>   -5.2795    1.0000 </r>
       <r>   -5.1726    1.0000 </r>
       <r>   -4.5822    1.0000 </r>
       <r>   -4.3463    1.0000 </r>
       <r>   -1.9063    0.0000 </r>
       <r>    0.3554    0.0000 </r>
       <r>    2.3552    0.0000 </r>
       <r>    2.8981    0.0000 </r>
       <r>    3.4550    0.0000 </r>
       <r>    3.9940    0.0000 </r>
       <r>    4.6583    0.0000 </r>
       <r>    4.7848    0.0000 </r>
       <r>    5.3831    0.0000 </r>
      </set>
      <set comment="kpoint 22">
       <r>  -18.6895    1.0000 </r>
       <r>  -16.8054    1.0000 </r>
       <r>  -16.1384    1.0000 </r>
       <r>  -13.0287    1.0000 </r>
       <r>  -11.7855    1.0000 </r>
       <r>   -9.6819    1.0000 </r>
       <r>   -9.0422    1.0000 </r>
       <r>   -7.9704    1.0000 </r>
       <r>   -7.2772    1.0000 </r>
       <r>   -7.0371    1.0000 </r>
       <r>   -6.1624    1.0000 </r>
       <r>   -5.6833    1.0000 </r>
       <r>   -5.6821    1.0000 </r>
       <r>   -4.7184    1.0000 </r>
       <r>   -4.6622    1.0000 </r>
       <r>   -1.8376    0.0000 </r>
       <r>    0.3403    0.0000 </r>
       <r>    2.8139    0.0000 </r>
       <r>    3.2062    0.0000 </r>
       <r>    4.0307    0.0000 </r>
       <r>    4.1018    0.0000 </r>
       <r>    4.7177    0.0000 </r>
       <r>    5.1155    0.0000 </r>
       <r>    5.2359    0.0000 </r>
      </set>
      <set comment="kpoint 23">
       <r>  -18.6371    1.0000 </r>
       <r>  -16.8955    1.0000 </r>
       <r>  -16.1754    1.0000 </r>
       <r>  -13.0427    1.0000 </r>
       <r>  -11.6002    1.0000 </r>
       <r>   -9.8654    1.0000 </r>
       <r>   -8.6626    1.0000 </r>
       <r>   -8.0648    1.0000 </r>
       <r>   -6.9461    1.0000 </r>
       <r>   -6.8820    1.0000 </r>
       <r>   -6.6502    1.0000 </r>
       <r>   -5.8847    1.0000 </r>
       <r>   -5.7424    1.0000 </r>
       <r>   -4.7966    1.0000 </r>
       <r>   -4.7613    1.0000 </r>
       <r>   -1.8135    0.0000 </r>
       <r>    0.3417    0.0000 </r>
       <r>    3.3261    0.0000 </r>
       <r>    3.3689    0.0000 </r>
       <r>    3.3768    0.0000 </r>
       <r>    4.6114    0.0000 </r>
       <r>    4.6805    0.0000 </r>
       <r>    5.1863    0.0000 </r>
       <r>    5.6645    0.0000 </r>
      </set>
      <set comment="kpoint 24">
       <r>  -18.6893    1.0000 </r>
       <r>  -16.8061    1.0000 </r>
       <r>  -16.1380    1.0000 </r>
       <r>  -13.0293    1.0000 </r>
       <r>  -11.7861    1.0000 </r>
       <r>   -9.6805    1.0000 </r>
       <r>   -9.0405    1.0000 </r>
       <r>   -7.9705    1.0000 </r>
       <r>   -7.2781    1.0000 </r>
       <r>   -7.0368    1.0000 </r>
       <r>   -6.1614    1.0000 </r>
       <r>   -5.6858    1.0000 </r>
       <r>   -5.6826    1.0000 </r>
       <r>   -4.7179    1.0000 </r>
       <r>   -4.6618    1.0000 </r>
       <r>   -1.8384    0.0000 </r>
       <r>    0.3401    0.0000 </r>
       <r>    2.8144    0.0000 </r>
       <r>    3.2071    0.0000 </r>
       <r>    4.0301    0.0000 </r>
       <r>    4.1023    0.0000 </r>
       <r>    4.7180    0.0000 </r>
       <r>    5.1159    0.0000 </r>
       <r>    5.2363    0.0000 </r>
      </set>
      <set comment="kpoint 25">
       <r>  -18.8127    1.0000 </r>
       <r>  -16.5805    1.0000 </r>
       <r>  -16.0252    1.0000 </r>
       <r>  -13.0051    1.0000 </r>
       <r>  -12.1466    1.0000 </r>
       <r>   -9.8285    1.0000 </r>
       <r>   -9.0840    1.0000 </r>
       <r>   -8.5026    1.0000 </r>
       <r>   -7.3166    1.0000 </r>
       <r>   -6.9739    1.0000 </r>
       <r>   -6.0262    1.0000 </r>
       <r>   -5.2803    1.0000 </r>
       <r>   -5.1736    1.0000 </r>
       <r>   -4.5813    1.0000 </r>
       <r>   -4.3466    1.0000 </r>
       <r>   -1.9076    0.0000 </r>
       <r>    0.3549    0.0000 </r>
       <r>    2.3556    0.0000 </r>
       <r>    2.8992    0.0000 </r>
       <r>    3.4560    0.0000 </r>
       <r>    3.9942    0.0000 </r>
       <r>    4.6587    0.0000 </r>
       <r>    4.7841    0.0000 </r>
       <r>    5.3840    0.0000 </r>
      </set>
      <set comment="kpoint 26">
       <r>  -18.9512    1.0000 </r>
       <r>  -16.3036    1.0000 </r>
       <r>  -15.8417    1.0000 </r>
       <r>  -13.0352    1.0000 </r>
       <r>  -12.4266    1.0000 </r>
       <r>  -10.4597    1.0000 </r>
       <r>   -9.1302    1.0000 </r>
       <r>   -8.6377    1.0000 </r>
       <r>   -7.5742    1.0000 </r>
       <r>   -6.6304    1.0000 </r>
       <r>   -5.9549    1.0000 </r>
       <r>   -4.8848    1.0000 </r>
       <r>   -4.5680    1.0000 </r>
       <r>   -4.3400    1.0000 </r>
       <r>   -3.9725    1.0000 </r>
       <r>   -1.9921    0.0000 </r>
       <r>    0.4218    0.0000 </r>
       <r>    1.9975    0.0000 </r>
       <r>    2.4563    0.0000 </r>
       <r>    2.6339    0.0000 </r>
       <r>    3.5495    0.0000 </r>
       <r>    4.3007    0.0000 </r>
       <r>    5.6127    0.0000 </r>
       <r>    5.6405    0.0000 </r>
      </set>
      <set comment="kpoint 27">
       <r>  -19.0676    1.0000 </r>
       <r>  -16.0384    1.0000 </r>
       <r>  -15.6330    1.0000 </r>
       <r>  -13.1457    1.0000 </r>
       <r>  -12.5305    1.0000 </r>
       <r>  -11.0420    1.0000 </r>
       <r>   -9.6602    1.0000 </r>
       <r>   -8.2752    1.0000 </r>
       <r>   -7.7696    1.0000 </r>
       <r>   -6.3823    1.0000 </r>
       <r>   -5.8121    1.0000 </r>
       <r>   -4.5720    1.0000 </r>
       <r>   -4.0717    1.0000 </r>
       <r>   -4.0646    1.0000 </r>
       <r>   -3.6399    1.0000 </r>
       <r>   -2.0117    0.0000 </r>
       <r>    0.5503    0.0000 </r>
       <r>    1.7023    0.0000 </r>
       <r>    1.7409    0.0000 </r>
       <r>    2.1144    0.0000 </r>
       <r>    3.2624    0.0000 </r>
       <r>    4.0433    0.0000 </r>
       <r>    5.9501    0.0000 </r>
       <r>    6.0568    0.0000 </r>
      </set>
      <set comment="kpoint 28">
       <r>  -19.0200    1.0000 </r>
       <r>  -16.2111    1.0000 </r>
       <r>  -15.6267    1.0000 </r>
       <r>  -13.3109    1.0000 </r>
       <r>  -12.2555    1.0000 </r>
       <r>  -10.8808    1.0000 </r>
       <r>   -9.4200    1.0000 </r>
       <r>   -8.3864    1.0000 </r>
       <r>   -7.6907    1.0000 </r>
       <r>   -6.6549    1.0000 </r>
       <r>   -5.7308    1.0000 </r>
       <r>   -4.8011    1.0000 </r>
       <r>   -4.3394    1.0000 </r>
       <r>   -4.0025    1.0000 </r>
       <r>   -3.7132    1.0000 </r>
       <r>   -2.1791    0.0000 </r>
       <r>    0.8440    0.0000 </r>
       <r>    1.5202    0.0000 </r>
       <r>    1.8435    0.0000 </r>
       <r>    2.5602    0.0000 </r>
       <r>    3.3911    0.0000 </r>
       <r>    4.1455    0.0000 </r>
       <r>    5.4791    0.0000 </r>
       <r>    5.9763    0.0000 </r>
      </set>
      <set comment="kpoint 29">
       <r>  -18.6932    1.0000 </r>
       <r>  -16.7075    1.0000 </r>
       <r>  -16.2750    1.0000 </r>
       <r>  -12.7326    1.0000 </r>
       <r>  -12.0950    1.0000 </r>
       <r>   -9.7393    1.0000 </r>
       <r>   -8.9770    1.0000 </r>
       <r>   -7.9660    1.0000 </r>
       <r>   -7.0862    1.0000 </r>
       <r>   -7.0568    1.0000 </r>
       <r>   -6.3013    1.0000 </r>
       <r>   -5.5742    1.0000 </r>
       <r>   -5.4940    1.0000 </r>
       <r>   -4.9664    1.0000 </r>
       <r>   -4.8036    1.0000 </r>
       <r>   -1.5728    0.0000 </r>
       <r>    0.0389    0.0000 </r>
       <r>    2.7635    0.0000 </r>
       <r>    3.6117    0.0000 </r>
       <r>    4.0062    0.0000 </r>
       <r>    4.4124    0.0000 </r>
       <r>    4.5750    0.0000 </r>
       <r>    4.5979    0.0000 </r>
       <r>    5.0671    0.0000 </r>
      </set>
      <set comment="kpoint 30">
       <r>  -18.6130    1.0000 </r>
       <r>  -16.7812    1.0000 </r>
       <r>  -16.4227    1.0000 </r>
       <r>  -12.6106    1.0000 </r>
       <r>  -11.9445    1.0000 </r>
       <r>  -10.0814    1.0000 </r>
       <r>   -8.3631    1.0000 </r>
       <r>   -7.7060    1.0000 </r>
       <r>   -7.1913    1.0000 </r>
       <r>   -6.8363    1.0000 </r>
       <r>   -6.5490    1.0000 </r>
       <r>   -5.7886    1.0000 </r>
       <r>   -5.6947    1.0000 </r>
       <r>   -5.1712    1.0000 </r>
       <r>   -5.1556    1.0000 </r>
       <r>   -1.3109    0.0000 </r>
       <r>   -0.1949    0.0000 </r>
       <r>    3.2721    0.0000 </r>
       <r>    3.8810    0.0000 </r>
       <r>    4.0029    0.0000 </r>
       <r>    4.4873    0.0000 </r>
       <r>    4.5553    0.0000 </r>
       <r>    4.9673    0.0000 </r>
       <r>    5.1978    0.0000 </r>
      </set>
      <set comment="kpoint 31">
       <r>  -18.6128    1.0000 </r>
       <r>  -16.7818    1.0000 </r>
       <r>  -16.4222    1.0000 </r>
       <r>  -12.6113    1.0000 </r>
       <r>  -11.9444    1.0000 </r>
       <r>  -10.0807    1.0000 </r>
       <r>   -8.3616    1.0000 </r>
       <r>   -7.7066    1.0000 </r>
       <r>   -7.1917    1.0000 </r>
       <r>   -6.8360    1.0000 </r>
       <r>   -6.5479    1.0000 </r>
       <r>   -5.7907    1.0000 </r>
       <r>   -5.6954    1.0000 </r>
       <r>   -5.1708    1.0000 </r>
       <r>   -5.1554    1.0000 </r>
       <r>   -1.3117    0.0000 </r>
       <r>   -0.1946    0.0000 </r>
       <r>    3.2729    0.0000 </r>
       <r>    3.8801    0.0000 </r>
       <r>    4.0033    0.0000 </r>
       <r>    4.4875    0.0000 </r>
       <r>    4.5560    0.0000 </r>
       <r>    4.9675    0.0000 </r>
       <r>    5.1972    0.0000 </r>
      </set>
      <set comment="kpoint 32">
       <r>  -18.6928    1.0000 </r>
       <r>  -16.7088    1.0000 </r>
       <r>  -16.2741    1.0000 </r>
       <r>  -12.7343    1.0000 </r>
       <r>  -12.0945    1.0000 </r>
       <r>   -9.7375    1.0000 </r>
       <r>   -8.9757    1.0000 </r>
       <r>   -7.9633    1.0000 </r>
       <r>   -7.0891    1.0000 </r>
       <r>   -7.0563    1.0000 </r>
       <r>   -6.3002    1.0000 </r>
       <r>   -5.5763    1.0000 </r>
       <r>   -5.4951    1.0000 </r>
       <r>   -4.9656    1.0000 </r>
       <r>   -4.8046    1.0000 </r>
       <r>   -1.5744    0.0000 </r>
       <r>    0.0392    0.0000 </r>
       <r>    2.7641    0.0000 </r>
       <r>    3.6121    0.0000 </r>
       <r>    4.0079    0.0000 </r>
       <r>    4.4127    0.0000 </r>
       <r>    4.5748    0.0000 </r>
       <r>    4.5977    0.0000 </r>
       <r>    5.0676    0.0000 </r>
      </set>
      <set comment="kpoint 33">
       <r>  -18.8126    1.0000 </r>
       <r>  -16.5806    1.0000 </r>
       <r>  -16.0255    1.0000 </r>
       <r>  -13.0057    1.0000 </r>
       <r>  -12.1459    1.0000 </r>
       <r>   -9.8287    1.0000 </r>
       <r>   -9.0840    1.0000 </r>
       <r>   -8.5014    1.0000 </r>
       <r>   -7.3165    1.0000 </r>
       <r>   -6.9731    1.0000 </r>
       <r>   -6.0278    1.0000 </r>
       <r>   -5.2801    1.0000 </r>
       <r>   -5.1717    1.0000 </r>
       <r>   -4.5818    1.0000 </r>
       <r>   -4.3489    1.0000 </r>
       <r>   -1.9082    0.0000 </r>
       <r>    0.3552    0.0000 </r>
       <r>    2.3557    0.0000 </r>
       <r>    2.8985    0.0000 </r>
       <r>    3.4571    0.0000 </r>
       <r>    3.9946    0.0000 </r>
       <r>    4.6587    0.0000 </r>
       <r>    4.7858    0.0000 </r>
       <r>    5.3818    0.0000 </r>
      </set>
      <set comment="kpoint 34">
       <r>  -18.9304    1.0000 </r>
       <r>  -16.4091    1.0000 </r>
       <r>  -15.7704    1.0000 </r>
       <r>  -13.2554    1.0000 </r>
       <r>  -12.1465    1.0000 </r>
       <r>  -10.4379    1.0000 </r>
       <r>   -9.0132    1.0000 </r>
       <r>   -8.6639    1.0000 </r>
       <r>   -7.5365    1.0000 </r>
       <r>   -6.8768    1.0000 </r>
       <r>   -5.7986    1.0000 </r>
       <r>   -5.0527    1.0000 </r>
       <r>   -4.7348    1.0000 </r>
       <r>   -4.1886    1.0000 </r>
       <r>   -3.9537    1.0000 </r>
       <r>   -2.1618    0.0000 </r>
       <r>    0.6818    0.0000 </r>
       <r>    2.0485    0.0000 </r>
       <r>    2.0772    0.0000 </r>
       <r>    3.0041    0.0000 </r>
       <r>    3.6450    0.0000 </r>
       <r>    4.3509    0.0000 </r>
       <r>    5.0836    0.0000 </r>
       <r>    6.1071    0.0000 </r>
      </set>
      <set comment="kpoint 35">
       <r>  -18.8714    1.0000 </r>
       <r>  -16.5884    1.0000 </r>
       <r>  -15.7329    1.0000 </r>
       <r>  -13.4400    1.0000 </r>
       <r>  -11.8174    1.0000 </r>
       <r>  -10.2574    1.0000 </r>
       <r>   -8.7932    1.0000 </r>
       <r>   -8.7163    1.0000 </r>
       <r>   -7.4261    1.0000 </r>
       <r>   -7.2327    1.0000 </r>
       <r>   -5.6521    1.0000 </r>
       <r>   -5.3184    1.0000 </r>
       <r>   -5.1009    1.0000 </r>
       <r>   -4.0686    1.0000 </r>
       <r>   -4.0180    1.0000 </r>
       <r>   -2.3777    0.0000 </r>
       <r>    1.0809    0.0000 </r>
       <r>    1.8448    0.0000 </r>
       <r>    2.2017    0.0000 </r>
       <r>    3.3739    0.0000 </r>
       <r>    3.9358    0.0000 </r>
       <r>    4.5026    0.0000 </r>
       <r>    4.6327    0.0000 </r>
       <r>    6.0793    0.0000 </r>
      </set>
      <set comment="kpoint 36">
       <r>  -18.5833    1.0000 </r>
       <r>  -16.6506    1.0000 </r>
       <r>  -16.6496    1.0000 </r>
       <r>  -12.2197    1.0000 </r>
       <r>  -12.2175    1.0000 </r>
       <r>  -10.2573    1.0000 </r>
       <r>   -7.7582    1.0000 </r>
       <r>   -7.7568    1.0000 </r>
       <r>   -7.3968    1.0000 </r>
       <r>   -6.7488    1.0000 </r>
       <r>   -6.6152    1.0000 </r>
       <r>   -5.6034    1.0000 </r>
       <r>   -5.6028    1.0000 </r>
       <r>   -5.5240    1.0000 </r>
       <r>   -5.5234    1.0000 </r>
       <r>   -0.7526    0.0000 </r>
       <r>   -0.7510    0.0000 </r>
       <r>    3.8150    0.0000 </r>
       <r>    3.8385    0.0000 </r>
       <r>    3.8392    0.0000 </r>
       <r>    4.6665    0.0000 </r>
       <r>    4.6666    0.0000 </r>
       <r>    4.9934    0.0000 </r>
       <r>    5.0393    0.0000 </r>
      </set>
      <set comment="kpoint 37">
       <r>  -18.6126    1.0000 </r>
       <r>  -16.7822    1.0000 </r>
       <r>  -16.4222    1.0000 </r>
       <r>  -12.6126    1.0000 </r>
       <r>  -11.9431    1.0000 </r>
       <r>  -10.0805    1.0000 </r>
       <r>   -8.3622    1.0000 </r>
       <r>   -7.7033    1.0000 </r>
       <r>   -7.1935    1.0000 </r>
       <r>   -6.8357    1.0000 </r>
       <r>   -6.5470    1.0000 </r>
       <r>   -5.7901    1.0000 </r>
       <r>   -5.6955    1.0000 </r>
       <r>   -5.1709    1.0000 </r>
       <r>   -5.1579    1.0000 </r>
       <r>   -1.3127    0.0000 </r>
       <r>   -0.1940    0.0000 </r>
       <r>    3.2730    0.0000 </r>
       <r>    3.8813    0.0000 </r>
       <r>    4.0031    0.0000 </r>
       <r>    4.4861    0.0000 </r>
       <r>    4.5564    0.0000 </r>
       <r>    4.9682    0.0000 </r>
       <r>    5.1979    0.0000 </r>
      </set>
      <set comment="kpoint 38">
       <r>  -18.6890    1.0000 </r>
       <r>  -16.8064    1.0000 </r>
       <r>  -16.1383    1.0000 </r>
       <r>  -13.0304    1.0000 </r>
       <r>  -11.7848    1.0000 </r>
       <r>   -9.6804    1.0000 </r>
       <r>   -9.0411    1.0000 </r>
       <r>   -7.9670    1.0000 </r>
       <r>   -7.2785    1.0000 </r>
       <r>   -7.0364    1.0000 </r>
       <r>   -6.1612    1.0000 </r>
       <r>   -5.6851    1.0000 </r>
       <r>   -5.6825    1.0000 </r>
       <r>   -4.7184    1.0000 </r>
       <r>   -4.6656    1.0000 </r>
       <r>   -1.8395    0.0000 </r>
       <r>    0.3407    0.0000 </r>
       <r>    2.8146    0.0000 </r>
       <r>    3.2068    0.0000 </r>
       <r>    4.0314    0.0000 </r>
       <r>    4.1030    0.0000 </r>
       <r>    4.7190    0.0000 </r>
       <r>    5.1161    0.0000 </r>
       <r>    5.2343    0.0000 </r>
      </set>
      <set comment="kpoint 39">
       <r>  -18.7844    1.0000 </r>
       <r>  -16.7339    1.0000 </r>
       <r>  -15.8722    1.0000 </r>
       <r>  -13.3490    1.0000 </r>
       <r>  -11.7196    1.0000 </r>
       <r>   -9.8043    1.0000 </r>
       <r>   -9.1036    1.0000 </r>
       <r>   -8.3360    1.0000 </r>
       <r>   -7.3769    1.0000 </r>
       <r>   -7.2518    1.0000 </r>
       <r>   -5.7492    1.0000 </r>
       <r>   -5.5421    1.0000 </r>
       <r>   -5.4725    1.0000 </r>
       <r>   -4.2827    1.0000 </r>
       <r>   -4.2600    1.0000 </r>
       <r>   -2.2528    0.0000 </r>
       <r>    0.8288    0.0000 </r>
       <r>    2.3980    0.0000 </r>
       <r>    2.4572    0.0000 </r>
       <r>    3.7130    0.0000 </r>
       <r>    4.2818    0.0000 </r>
       <r>    4.3388    0.0000 </r>
       <r>    4.7579    0.0000 </r>
       <r>    5.6044    0.0000 </r>
      </set>
      <set comment="kpoint 40">
       <r>  -18.7360    1.0000 </r>
       <r>  -16.8716    1.0000 </r>
       <r>  -15.8030    1.0000 </r>
       <r>  -13.5246    1.0000 </r>
       <r>  -11.4159    1.0000 </r>
       <r>   -9.6122    1.0000 </r>
       <r>   -9.1896    1.0000 </r>
       <r>   -8.2804    1.0000 </r>
       <r>   -7.5005    1.0000 </r>
       <r>   -7.1335    1.0000 </r>
       <r>   -5.9398    1.0000 </r>
       <r>   -5.7815    1.0000 </r>
       <r>   -5.5360    1.0000 </r>
       <r>   -4.2794    1.0000 </r>
       <r>   -4.1148    1.0000 </r>
       <r>   -2.4936    0.0000 </r>
       <r>    1.2615    0.0000 </r>
       <r>    2.0919    0.0000 </r>
       <r>    2.6605    0.0000 </r>
       <r>    3.8775    0.0000 </r>
       <r>    3.9516    0.0000 </r>
       <r>    4.7516    0.0000 </r>
       <r>    4.9584    0.0000 </r>
       <r>    5.2993    0.0000 </r>
      </set>
      <set comment="kpoint 41">
       <r>  -18.6366    1.0000 </r>
       <r>  -16.8962    1.0000 </r>
       <r>  -16.1756    1.0000 </r>
       <r>  -13.0441    1.0000 </r>
       <r>  -11.5989    1.0000 </r>
       <r>   -9.8648    1.0000 </r>
       <r>   -8.6626    1.0000 </r>
       <r>   -8.0623    1.0000 </r>
       <r>   -6.9462    1.0000 </r>
       <r>   -6.8813    1.0000 </r>
       <r>   -6.6474    1.0000 </r>
       <r>   -5.8851    1.0000 </r>
       <r>   -5.7442    1.0000 </r>
       <r>   -4.8008    1.0000 </r>
       <r>   -4.7617    1.0000 </r>
       <r>   -1.8151    0.0000 </r>
       <r>    0.3423    0.0000 </r>
       <r>    3.3263    0.0000 </r>
       <r>    3.3696    0.0000 </r>
       <r>    3.3775    0.0000 </r>
       <r>    4.6121    0.0000 </r>
       <r>    4.6817    0.0000 </r>
       <r>    5.1845    0.0000 </r>
       <r>    5.6651    0.0000 </r>
      </set>
      <set comment="kpoint 42">
       <r>  -18.6813    1.0000 </r>
       <r>  -16.9324    1.0000 </r>
       <r>  -15.9256    1.0000 </r>
       <r>  -13.4005    1.0000 </r>
       <r>  -11.3918    1.0000 </r>
       <r>   -9.5118    1.0000 </r>
       <r>   -9.1473    1.0000 </r>
       <r>   -8.2778    1.0000 </r>
       <r>   -7.1980    1.0000 </r>
       <r>   -6.9917    1.0000 </r>
       <r>   -6.3708    1.0000 </r>
       <r>   -5.9149    1.0000 </r>
       <r>   -5.5732    1.0000 </r>
       <r>   -4.4697    1.0000 </r>
       <r>   -4.3326    1.0000 </r>
       <r>   -2.2969    0.0000 </r>
       <r>    0.9254    0.0000 </r>
       <r>    2.5907    0.0000 </r>
       <r>    2.9662    0.0000 </r>
       <r>    3.5748    0.0000 </r>
       <r>    4.2591    0.0000 </r>
       <r>    4.7961    0.0000 </r>
       <r>    5.2633    0.0000 </r>
       <r>    5.4240    0.0000 </r>
      </set>
      <set comment="kpoint 43">
       <r>  -18.6774    1.0000 </r>
       <r>  -16.9809    1.0000 </r>
       <r>  -15.8273    1.0000 </r>
       <r>  -13.5538    1.0000 </r>
       <r>  -11.2311    1.0000 </r>
       <r>   -9.3755    1.0000 </r>
       <r>   -9.1680    1.0000 </r>
       <r>   -8.5613    1.0000 </r>
       <r>   -6.9660    1.0000 </r>
       <r>   -6.9353    1.0000 </r>
       <r>   -6.6804    1.0000 </r>
       <r>   -6.0086    1.0000 </r>
       <r>   -5.4734    1.0000 </r>
       <r>   -4.3915    1.0000 </r>
       <r>   -4.1313    1.0000 </r>
       <r>   -2.5318    0.0000 </r>
       <r>    1.3293    0.0000 </r>
       <r>    2.1862    0.0000 </r>
       <r>    3.2179    0.0000 </r>
       <r>    3.2210    0.0000 </r>
       <r>    4.4781    0.0000 </r>
       <r>    4.5187    0.0000 </r>
       <r>    5.4992    0.0000 </r>
       <r>    5.5242    0.0000 </r>
      </set>
     </set>
    </set>
   </array>
  </eigenvalues>
  <separator name="orbital magnetization" >
   <v name="MAGDIPOLOUT">      0.00000000      0.00000000      0.00000000</v>
  </separator>
  <dos>
   <i name="efermi">     -2.85628491 </i>
   <total>
    <array>
     <dimension dim="1">gridpoints</dimension>
     <dimension dim="2">spin</dimension>
     <field>energy</field>
     <field>total</field>
     <field>integrated</field>
     <set>
      <set comment="spin 1">
       <r>   -20.5238     0.0000     0.0000 </r>
       <r>   -20.4303     0.0000     0.0000 </r>
       <r>   -20.3369     0.0000     0.0000 </r>
       <r>   -20.2434     0.0000     0.0000 </r>
       <r>   -20.1499     0.0000     0.0000 </r>
       <r>   -20.0565     0.0000     0.0000 </r>
       <r>   -19.9630     0.0000     0.0000 </r>
       <r>   -19.8695     0.0000     0.0000 </r>
       <r>   -19.7761     0.0000     0.0000 </r>
       <r>   -19.6826     0.0000     0.0000 </r>
       <r>   -19.5891     0.0000     0.0000 </r>
       <r>   -19.4957     0.0001     0.0000 </r>
       <r>   -19.4022     0.0076     0.0007 </r>
       <r>   -19.3087     0.1511     0.0148 </r>
       <r>   -19.2153     0.8247     0.0919 </r>
       <r>   -19.1218     1.6765     0.2486 </r>
       <r>   -19.0283     2.0520     0.4404 </r>
       <r>   -18.9349     2.2793     0.6534 </r>
       <r>   -18.8414     2.6529     0.9014 </r>
       <r>   -18.7479     3.5157     1.2300 </r>
       <r>   -18.6545     4.3694     1.6384 </r>
       <r>   -18.5610     3.0199     1.9206 </r>
       <r>   -18.4675     0.7860     1.9941 </r>
       <r>   -18.3741     0.0620     1.9999 </r>
       <r>   -18.2806     0.0012     2.0000 </r>
       <r>   -18.1872     0.0000     2.0000 </r>
       <r>   -18.0937     0.0000     2.0000 </r>
       <r>   -18.0002     0.0000     2.0000 </r>
       <r>   -17.9068     0.0000     2.0000 </r>
       <r>   -17.8133     0.0000     2.0000 </r>
       <r>   -17.7198     0.0000     2.0000 </r>
       <r>   -17.6264     0.0000     2.0000 </r>
       <r>   -17.5329     0.0000     2.0000 </r>
       <r>   -17.4394     0.0000     2.0000 </r>
       <r>   -17.3460     0.0000     2.0000 </r>
       <r>   -17.2525     0.0000     2.0000 </r>
       <r>   -17.1590     0.0038     2.0004 </r>
       <r>   -17.0656     0.1098     2.0106 </r>
       <r>   -16.9721     0.8560     2.0906 </r>
       <r>   -16.8786     2.2304     2.2991 </r>
       <r>   -16.7852     3.1411     2.5927 </r>
       <r>   -16.6917     3.1046     2.8829 </r>
       <r>   -16.5982     2.2754     3.0955 </r>
       <r>   -16.5048     1.8013     3.2639 </r>
       <r>   -16.4113     1.9315     3.4444 </r>
       <r>   -16.3179     2.0350     3.6346 </r>
       <r>   -16.2244     1.8466     3.8072 </r>
       <r>   -16.1309     2.2032     4.0131 </r>
       <r>   -16.0375     2.5273     4.2493 </r>
       <r>   -15.9440     2.6809     4.4999 </r>
       <r>   -15.8505     3.2175     4.8006 </r>
       <r>   -15.7571     3.6725     5.1439 </r>
       <r>   -15.6636     2.9333     5.4180 </r>
       <r>   -15.5701     2.1888     5.6226 </r>
       <r>   -15.4767     1.8727     5.7977 </r>
       <r>   -15.3832     1.4540     5.9336 </r>
       <r>   -15.2897     0.6023     5.9898 </r>
       <r>   -15.1963     0.1035     5.9995 </r>
       <r>   -15.1028     0.0051     6.0000 </r>
       <r>   -15.0093     0.0001     6.0000 </r>
       <r>   -14.9159     0.0000     6.0000 </r>
       <r>   -14.8224     0.0000     6.0000 </r>
       <r>   -14.7289     0.0000     6.0000 </r>
       <r>   -14.6355     0.0000     6.0000 </r>
       <r>   -14.5420     0.0000     6.0000 </r>
       <r>   -14.4485     0.0000     6.0000 </r>
       <r>   -14.3551     0.0000     6.0000 </r>
       <r>   -14.2616     0.0000     6.0000 </r>
       <r>   -14.1682     0.0000     6.0000 </r>
       <r>   -14.0747     0.0000     6.0000 </r>
       <r>   -13.9812     0.0000     6.0000 </r>
       <r>   -13.8878     0.0000     6.0000 </r>
       <r>   -13.7943     0.0002     6.0000 </r>
       <r>   -13.7008     0.0136     6.0013 </r>
       <r>   -13.6074     0.2024     6.0202 </r>
       <r>   -13.5139     0.8420     6.0989 </r>
       <r>   -13.4204     1.7755     6.2649 </r>
       <r>   -13.3270     2.6175     6.5095 </r>
       <r>   -13.2335     2.4626     6.7397 </r>
       <r>   -13.1400     2.5024     6.9736 </r>
       <r>   -13.0466     3.7085     7.3202 </r>
       <r>   -12.9531     3.6369     7.6601 </r>
       <r>   -12.8596     1.5754     7.8073 </r>
       <r>   -12.7662     0.9842     7.8993 </r>
       <r>   -12.6727     1.3721     8.0276 </r>
       <r>   -12.5792     1.9138     8.2065 </r>
       <r>   -12.4858     1.7283     8.3680 </r>
       <r>   -12.3923     0.9647     8.4582 </r>
       <r>   -12.2989     0.6400     8.5180 </r>
       <r>   -12.2054     1.4506     8.6536 </r>
       <r>   -12.1119     2.4633     8.8838 </r>
       <r>   -12.0185     1.7204     9.0446 </r>
       <r>   -11.9250     1.2680     9.1631 </r>
       <r>   -11.8315     1.7746     9.3290 </r>
       <r>   -11.7381     2.4375     9.5568 </r>
       <r>   -11.6446     1.7447     9.7199 </r>
       <r>   -11.5511     1.1211     9.8246 </r>
       <r>   -11.4577     1.3904     9.9546 </r>
       <r>   -11.3642     1.8705    10.1294 </r>
       <r>   -11.2707     1.0163    10.2244 </r>
       <r>   -11.1773     0.3713    10.2591 </r>
       <r>   -11.0838     0.5399    10.3096 </r>
       <r>   -10.9903     0.9345    10.3969 </r>
       <r>   -10.8969     0.6900    10.4614 </r>
       <r>   -10.8034     0.4396    10.5025 </r>
       <r>   -10.7099     0.1307    10.5147 </r>
       <r>   -10.6165     0.1033    10.5244 </r>
       <r>   -10.5230     0.5619    10.5769 </r>
       <r>   -10.4295     1.6495    10.7311 </r>
       <r>   -10.3361     1.3540    10.8576 </r>
       <r>   -10.2426     0.8770    10.9396 </r>
       <r>   -10.1492     1.1582    11.0478 </r>
       <r>   -10.0557     1.4995    11.1880 </r>
       <r>    -9.9622     1.1783    11.2981 </r>
       <r>    -9.8688     1.3706    11.4262 </r>
       <r>    -9.7753     2.6053    11.6697 </r>
       <r>    -9.6818     2.8804    11.9389 </r>
       <r>    -9.5884     2.5048    12.1731 </r>
       <r>    -9.4949     1.6760    12.3297 </r>
       <r>    -9.4014     1.2336    12.4450 </r>
       <r>    -9.3080     0.6947    12.5099 </r>
       <r>    -9.2145     1.0697    12.6099 </r>
       <r>    -9.1210     3.3293    12.9211 </r>
       <r>    -9.0276     4.4347    13.3356 </r>
       <r>    -8.9341     2.6300    13.5814 </r>
       <r>    -8.8406     0.8560    13.6614 </r>
       <r>    -8.7472     1.1054    13.7647 </r>
       <r>    -8.6537     2.1883    13.9692 </r>
       <r>    -8.5602     2.1051    14.1660 </r>
       <r>    -8.4668     1.6608    14.3212 </r>
       <r>    -8.3733     2.4686    14.5519 </r>
       <r>    -8.2799     3.8268    14.9096 </r>
       <r>    -8.1864     2.5337    15.1464 </r>
       <r>    -8.0929     1.3870    15.2761 </r>
       <r>    -7.9995     2.7436    15.5325 </r>
       <r>    -7.9060     3.3654    15.8470 </r>
       <r>    -7.8125     2.4704    16.0779 </r>
       <r>    -7.7191     2.4592    16.3078 </r>
       <r>    -7.6256     2.1907    16.5125 </r>
       <r>    -7.5321     1.9603    16.6958 </r>
       <r>    -7.4387     2.1891    16.9004 </r>
       <r>    -7.3452     2.8142    17.1634 </r>
       <r>    -7.2517     4.1850    17.5545 </r>
       <r>    -7.1583     4.3831    17.9642 </r>
       <r>    -7.0648     3.5725    18.2981 </r>
       <r>    -6.9713     4.2190    18.6924 </r>
       <r>    -6.8779     4.1292    19.0784 </r>
       <r>    -6.7844     2.6799    19.3289 </r>
       <r>    -6.6909     1.6596    19.4840 </r>
       <r>    -6.5975     2.1284    19.6829 </r>
       <r>    -6.5040     1.7768    19.8490 </r>
       <r>    -6.4105     1.5786    19.9965 </r>
       <r>    -6.3171     2.1094    20.1937 </r>
       <r>    -6.2236     1.4951    20.3334 </r>
       <r>    -6.1302     1.6302    20.4858 </r>
       <r>    -6.0367     2.1807    20.6896 </r>
       <r>    -5.9432     3.1430    20.9834 </r>
       <r>    -5.8498     4.3207    21.3872 </r>
       <r>    -5.7563     7.2278    22.0627 </r>
       <r>    -5.6628     8.1461    22.8241 </r>
       <r>    -5.5694     5.9314    23.3785 </r>
       <r>    -5.4759     4.5542    23.8041 </r>
       <r>    -5.3824     2.3619    24.0249 </r>
       <r>    -5.2890     1.6423    24.1784 </r>
       <r>    -5.1955     2.7760    24.4379 </r>
       <r>    -5.1020     3.5634    24.7709 </r>
       <r>    -5.0086     2.4077    24.9959 </r>
       <r>    -4.9151     1.4407    25.1306 </r>
       <r>    -4.8216     2.0638    25.3235 </r>
       <r>    -4.7282     3.6443    25.6641 </r>
       <r>    -4.6347     3.7872    26.0181 </r>
       <r>    -4.5412     3.3403    26.3303 </r>
       <r>    -4.4478     2.6386    26.5769 </r>
       <r>    -4.3543     3.6941    26.9222 </r>
       <r>    -4.2609     5.4274    27.4294 </r>
       <r>    -4.1674     4.4227    27.8428 </r>
       <r>    -4.0739     4.1839    28.2339 </r>
       <r>    -3.9805     4.9315    28.6948 </r>
       <r>    -3.8870     3.9339    29.0625 </r>
       <r>    -3.7935     1.7578    29.2268 </r>
       <r>    -3.7001     1.3881    29.3565 </r>
       <r>    -3.6066     1.7750    29.5224 </r>
       <r>    -3.5131     1.1819    29.6329 </r>
       <r>    -3.4197     0.9174    29.7186 </r>
       <r>    -3.3262     1.2011    29.8309 </r>
       <r>    -3.2327     1.0607    29.9300 </r>
       <r>    -3.1393     0.5884    29.9850 </r>
       <r>    -3.0458     0.1477    29.9988 </r>
       <r>    -2.9523     0.0123    30.0000 </r>
       <r>    -2.8589     0.0003    30.0000 </r>
       <r>    -2.7654     0.0003    30.0000 </r>
       <r>    -2.6719     0.0149    30.0014 </r>
       <r>    -2.5785     0.1977    30.0199 </r>
       <r>    -2.4850     0.6639    30.0819 </r>
       <r>    -2.3915     0.9543    30.1711 </r>
       <r>    -2.2981     1.6888    30.3290 </r>
       <r>    -2.2046     2.4445    30.5575 </r>
       <r>    -2.1112     2.0593    30.7499 </r>
       <r>    -2.0177     1.6912    30.9080 </r>
       <r>    -1.9242     2.3677    31.1293 </r>
       <r>    -1.8308     2.8538    31.3960 </r>
       <r>    -1.7373     1.9477    31.5781 </r>
       <r>    -1.6438     0.6817    31.6418 </r>
       <r>    -1.5504     0.7945    31.7160 </r>
       <r>    -1.4569     0.7100    31.7824 </r>
       <r>    -1.3634     0.5614    31.8349 </r>
       <r>    -1.2700     0.9504    31.9237 </r>
       <r>    -1.1765     0.4678    31.9674 </r>
       <r>    -1.0830     0.0503    31.9721 </r>
       <r>    -0.9896     0.0013    31.9722 </r>
       <r>    -0.8961     0.0120    31.9734 </r>
       <r>    -0.8026     0.1280    31.9853 </r>
       <r>    -0.7092     0.2916    32.0126 </r>
       <r>    -0.6157     0.1464    32.0263 </r>
       <r>    -0.5222     0.0158    32.0277 </r>
       <r>    -0.4288     0.0012    32.0279 </r>
       <r>    -0.3353     0.0406    32.0316 </r>
       <r>    -0.2419     0.4071    32.0697 </r>
       <r>    -0.1484     0.8796    32.1519 </r>
       <r>    -0.0549     0.4939    32.1981 </r>
       <r>     0.0385     0.4036    32.2358 </r>
       <r>     0.1320     0.3708    32.2704 </r>
       <r>     0.2255     0.2772    32.2964 </r>
       <r>     0.3189     1.4994    32.4365 </r>
       <r>     0.4124     2.9880    32.7158 </r>
       <r>     0.5059     2.5629    32.9553 </r>
       <r>     0.5993     2.0981    33.1514 </r>
       <r>     0.6928     2.0489    33.3429 </r>
       <r>     0.7863     1.8566    33.5164 </r>
       <r>     0.8797     1.9591    33.6995 </r>
       <r>     0.9732     1.5925    33.8484 </r>
       <r>     1.0667     0.9840    33.9404 </r>
       <r>     1.1601     1.3916    34.0704 </r>
       <r>     1.2536     1.7676    34.2356 </r>
       <r>     1.3471     1.2906    34.3563 </r>
       <r>     1.4405     1.3429    34.4818 </r>
       <r>     1.5340     1.6971    34.6404 </r>
       <r>     1.6275     1.7136    34.8006 </r>
       <r>     1.7209     2.2661    35.0124 </r>
       <r>     1.8144     2.2920    35.2266 </r>
       <r>     1.9078     1.3977    35.3572 </r>
       <r>     2.0013     1.5331    35.5005 </r>
       <r>     2.0948     3.1451    35.7945 </r>
       <r>     2.1882     2.7923    36.0555 </r>
       <r>     2.2817     1.3870    36.1851 </r>
       <r>     2.3752     1.8909    36.3618 </r>
       <r>     2.4686     2.7952    36.6231 </r>
       <r>     2.5621     2.4492    36.8520 </r>
       <r>     2.6556     2.2410    37.0614 </r>
       <r>     2.7490     1.6965    37.2200 </r>
       <r>     2.8425     2.0047    37.4074 </r>
       <r>     2.9360     2.8874    37.6773 </r>
       <r>     3.0294     3.1235    37.9692 </r>
       <r>     3.1229     2.1295    38.1682 </r>
       <r>     3.2164     2.4469    38.3969 </r>
       <r>     3.3098     3.7346    38.7460 </r>
       <r>     3.4033     3.5799    39.0806 </r>
       <r>     3.4968     2.7011    39.3330 </r>
       <r>     3.5902     2.6284    39.5787 </r>
       <r>     3.6837     3.0302    39.8619 </r>
       <r>     3.7771     2.6839    40.1128 </r>
       <r>     3.8706     3.2016    40.4120 </r>
       <r>     3.9641     4.6800    40.8494 </r>
       <r>     4.0575     5.3925    41.3534 </r>
       <r>     4.1510     3.6128    41.6911 </r>
       <r>     4.2445     2.5833    41.9326 </r>
       <r>     4.3379     3.7648    42.2844 </r>
       <r>     4.4314     3.4740    42.6091 </r>
       <r>     4.5249     3.5156    42.9377 </r>
       <r>     4.6183     4.4893    43.3573 </r>
       <r>     4.7118     5.0928    43.8333 </r>
       <r>     4.8053     4.7546    44.2777 </r>
       <r>     4.8987     2.6103    44.5217 </r>
       <r>     4.9922     2.1107    44.7189 </r>
       <r>     5.0857     2.9749    44.9970 </r>
       <r>     5.1791     3.6178    45.3351 </r>
       <r>     5.2726     3.7706    45.6875 </r>
       <r>     5.3661     2.9613    45.9643 </r>
       <r>     5.4595     2.5781    46.2053 </r>
       <r>     5.5530     2.3567    46.4256 </r>
       <r>     5.6465     2.8503    46.6920 </r>
       <r>     5.7399     2.4087    46.9171 </r>
       <r>     5.8334     1.7046    47.0764 </r>
       <r>     5.9268     1.7888    47.2436 </r>
       <r>     6.0203     2.5319    47.4802 </r>
       <r>     6.1138     2.9701    47.7578 </r>
       <r>     6.2072     1.7574    47.9221 </r>
       <r>     6.3007     0.6558    47.9834 </r>
       <r>     6.3942     0.1653    47.9988 </r>
       <r>     6.4876     0.0123    48.0000 </r>
       <r>     6.5811     0.0002    48.0000 </r>
       <r>     6.6746     0.0000    48.0000 </r>
       <r>     6.7680     0.0000    48.0000 </r>
       <r>     6.8615     0.0000    48.0000 </r>
       <r>     6.9550     0.0000    48.0000 </r>
       <r>     7.0484     0.0000    48.0000 </r>
       <r>     7.1419     0.0000    48.0000 </r>
       <r>     7.2354     0.0000    48.0000 </r>
       <r>     7.3288     0.0000    48.0000 </r>
       <r>     7.4223     0.0000    48.0000 </r>
       <r>     7.5158     0.0000    48.0000 </r>
      </set>
     </set>
    </array>
   </total>
  </dos>
 </calculation>
 <structure name="finalpos" >
  <crystal>
   <varray name="basis" >
    <v>       5.17471375       0.00000000       0.00000000 </v>
    <v>       2.58735687       4.48016509       0.00000000 </v>
    <v>       0.00000000       0.00000000      11.04441191 </v>
   </varray>
   <i name="volume">    256.04891747 </i>
   <varray name="rec_basis" >
    <v>       0.19324740      -0.11160303       0.00000000 </v>
    <v>      -0.00000000       0.22320606       0.00000000 </v>
    <v>       0.00000000       0.00000000       0.09054353 </v>
   </varray>
  </crystal>
  <varray name="positions" >
   <v>       0.17460303       0.17456665       0.00000000 </v>
   <v>       0.50789541       0.50798189       0.00000000 </v>
   <v>       0.99988063       0.99998941       0.00000000 </v>
   <v>       0.52390268       0.99998941       0.00000000 </v>
   <v>       0.68254532       0.15868208       0.00000000 </v>
   <v>       0.99995312       0.52386646       0.00000000 </v>
   <v>       0.15859576       0.68255913       0.00000000 </v>
   <v>       0.68261781       0.68255913       0.00000000 </v>
  </varray>
 </structure>
</modeling>
