   8   8   1   0
  0.2469169E+02  0.5174038E-09  0.5174038E-09  0.8520222E-09  0.5000000E-15
  1.000000000000000E-004
  CAR 
 BC3                                     
      8.46477941    -19.82642645  301     -2.14158767      1.00000000
    -19.826  0.0000E+00  0.0000E+00
    -19.732  0.0000E+00  0.0000E+00
    -19.638  0.0000E+00  0.0000E+00
    -19.544  0.0000E+00  0.0000E+00
    -19.449  0.0000E+00  0.0000E+00
    -19.355  0.0000E+00  0.0000E+00
    -19.261  0.0000E+00  0.0000E+00
    -19.166  0.0000E+00  0.0000E+00
    -19.072  0.3428E-13  0.3232E-14
    -18.978  0.4171E-09  0.3934E-10
    -18.883  0.9094E-06  0.8580E-07
    -18.789  0.3653E-03  0.3454E-04
    -18.695  0.2838E-01  0.2711E-02
    -18.600  0.4637E+00  0.4644E-01
    -18.506  0.1837E+01  0.2197E+00
    -18.412  0.2343E+01  0.4407E+00
    -18.318  0.1763E+01  0.6070E+00
    -18.223  0.1443E+01  0.7431E+00
    -18.129  0.1418E+01  0.8768E+00
    -18.035  0.2098E+01  0.1075E+01
    -17.940  0.4125E+01  0.1464E+01
    -17.846  0.4159E+01  0.1856E+01
    -17.752  0.1398E+01  0.1988E+01
    -17.657  0.1280E+00  0.2000E+01
    -17.563  0.2685E-02  0.2000E+01
    -17.469  0.1141E-04  0.2000E+01
    -17.375  0.9162E-08  0.2000E+01
    -17.280  0.1334E-11  0.2000E+01
    -17.186  0.0000E+00  0.2000E+01
    -17.092  0.0000E+00  0.2000E+01
    -16.997  0.0000E+00  0.2000E+01
    -16.903  0.0000E+00  0.2000E+01
    -16.809  0.2309E-13  0.2000E+01
    -16.714  0.3079E-09  0.2000E+01
    -16.620  0.7347E-06  0.2000E+01
    -16.526  0.3224E-03  0.2000E+01
    -16.431  0.2728E-01  0.2003E+01
    -16.337  0.4826E+00  0.2048E+01
    -16.243  0.2050E+01  0.2241E+01
    -16.149  0.2792E+01  0.2505E+01
    -16.054  0.2564E+01  0.2746E+01
    -15.960  0.2774E+01  0.3008E+01
    -15.866  0.2445E+01  0.3239E+01
    -15.771  0.1961E+01  0.3424E+01
    -15.677  0.1726E+01  0.3586E+01
    -15.583  0.1615E+01  0.3739E+01
    -15.488  0.1560E+01  0.3886E+01
    -15.394  0.1550E+01  0.4032E+01
    -15.300  0.1606E+01  0.4183E+01
    -15.206  0.1918E+01  0.4364E+01
    -15.111  0.2706E+01  0.4620E+01
    -15.017  0.2831E+01  0.4887E+01
    -14.923  0.2273E+01  0.5101E+01
    -14.828  0.2197E+01  0.5308E+01
    -14.734  0.2692E+01  0.5562E+01
    -14.640  0.2990E+01  0.5844E+01
    -14.545  0.1454E+01  0.5981E+01
    -14.451  0.1958E+00  0.5999E+01
    -14.357  0.5937E-02  0.6000E+01
    -14.262  0.3624E-04  0.6000E+01
    -14.168  0.4170E-07  0.6000E+01
    -14.074  0.8706E-11  0.6000E+01
    -13.980  0.3066E-15  0.6000E+01
    -13.885  0.0000E+00  0.6000E+01
    -13.791  0.0000E+00  0.6000E+01
    -13.697  0.0000E+00  0.6000E+01
    -13.602  0.0000E+00  0.6000E+01
    -13.508  0.0000E+00  0.6000E+01
    -13.414  0.4599E-15  0.6000E+01
    -13.319  0.1102E-10  0.6000E+01
    -13.225  0.4705E-07  0.6000E+01
    -13.131  0.3653E-04  0.6000E+01
    -13.037  0.5364E-02  0.6001E+01
    -12.942  0.1594E+00  0.6016E+01
    -12.848  0.1076E+01  0.6117E+01
    -12.754  0.2037E+01  0.6309E+01
    -12.659  0.1724E+01  0.6472E+01
    -12.565  0.1335E+01  0.6598E+01
    -12.471  0.1410E+01  0.6730E+01
    -12.376  0.2653E+01  0.6981E+01
    -12.282  0.4204E+01  0.7377E+01
    -12.188  0.3308E+01  0.7689E+01
    -12.093  0.2031E+01  0.7881E+01
    -11.999  0.1653E+01  0.8036E+01
    -11.905  0.1538E+01  0.8182E+01
    -11.811  0.1482E+01  0.8321E+01
    -11.716  0.1456E+01  0.8459E+01
    -11.622  0.1472E+01  0.8597E+01
    -11.528  0.1587E+01  0.8747E+01
    -11.433  0.1772E+01  0.8914E+01
    -11.339  0.1894E+01  0.9093E+01
    -11.245  0.1843E+01  0.9267E+01
    -11.150  0.1913E+01  0.9447E+01
    -11.056  0.1675E+01  0.9605E+01
    -10.962  0.1423E+01  0.9739E+01
    -10.868  0.1339E+01  0.9865E+01
    -10.773  0.1340E+01  0.9992E+01
    -10.679  0.1446E+01  0.1013E+02
    -10.585  0.1744E+01  0.1029E+02
    -10.490  0.1689E+01  0.1045E+02
    -10.396  0.8348E+00  0.1053E+02
    -10.302  0.3888E+00  0.1057E+02
    -10.207  0.3346E+00  0.1060E+02
    -10.113  0.3271E+00  0.1063E+02
    -10.019  0.3816E+00  0.1067E+02
     -9.925  0.7885E+00  0.1074E+02
     -9.830  0.1279E+01  0.1086E+02
     -9.736  0.1136E+01  0.1097E+02
     -9.642  0.1017E+01  0.1106E+02
     -9.547  0.1531E+01  0.1121E+02
     -9.453  0.2066E+01  0.1140E+02
     -9.359  0.1820E+01  0.1157E+02
     -9.264  0.1551E+01  0.1172E+02
     -9.170  0.1440E+01  0.1186E+02
     -9.076  0.1405E+01  0.1199E+02
     -8.981  0.1433E+01  0.1212E+02
     -8.887  0.1391E+01  0.1226E+02
     -8.793  0.1248E+01  0.1237E+02
     -8.699  0.1424E+01  0.1251E+02
     -8.604  0.1539E+01  0.1265E+02
     -8.510  0.1480E+01  0.1279E+02
     -8.416  0.1923E+01  0.1297E+02
     -8.321  0.1842E+01  0.1315E+02
     -8.227  0.1488E+01  0.1329E+02
     -8.133  0.1340E+01  0.1341E+02
     -8.038  0.1286E+01  0.1353E+02
     -7.944  0.1356E+01  0.1366E+02
     -7.850  0.1846E+01  0.1384E+02
     -7.756  0.2339E+01  0.1406E+02
     -7.661  0.2316E+01  0.1428E+02
     -7.567  0.2255E+01  0.1449E+02
     -7.473  0.2081E+01  0.1468E+02
     -7.378  0.2555E+01  0.1493E+02
     -7.284  0.3881E+01  0.1529E+02
     -7.190  0.4398E+01  0.1571E+02
     -7.095  0.4190E+01  0.1610E+02
     -7.001  0.3294E+01  0.1641E+02
     -6.907  0.2320E+01  0.1663E+02
     -6.812  0.1647E+01  0.1679E+02
     -6.718  0.1651E+01  0.1694E+02
     -6.624  0.2052E+01  0.1714E+02
     -6.530  0.2100E+01  0.1733E+02
     -6.435  0.2050E+01  0.1753E+02
     -6.341  0.2612E+01  0.1777E+02
     -6.247  0.4798E+01  0.1823E+02
     -6.152  0.5659E+01  0.1876E+02
     -6.058  0.4139E+01  0.1915E+02
     -5.964  0.4479E+01  0.1957E+02
     -5.869  0.4578E+01  0.2000E+02
     -5.775  0.2261E+01  0.2022E+02
     -5.681  0.1063E+01  0.2032E+02
     -5.587  0.9453E+00  0.2041E+02
     -5.492  0.1000E+01  0.2050E+02
     -5.398  0.1259E+01  0.2062E+02
     -5.304  0.2370E+01  0.2084E+02
     -5.209  0.3693E+01  0.2119E+02
     -5.115  0.4750E+01  0.2164E+02
     -5.021  0.7570E+01  0.2235E+02
     -4.926  0.8506E+01  0.2316E+02
     -4.832  0.6384E+01  0.2376E+02
     -4.738  0.4766E+01  0.2421E+02
     -4.643  0.3086E+01  0.2450E+02
     -4.549  0.2230E+01  0.2471E+02
     -4.455  0.2055E+01  0.2490E+02
     -4.361  0.1995E+01  0.2509E+02
     -4.266  0.1965E+01  0.2528E+02
     -4.172  0.1958E+01  0.2546E+02
     -4.078  0.1974E+01  0.2565E+02
     -3.983  0.2017E+01  0.2584E+02
     -3.889  0.2108E+01  0.2603E+02
     -3.795  0.2338E+01  0.2626E+02
     -3.700  0.2851E+01  0.2652E+02
     -3.606  0.3006E+01  0.2681E+02
     -3.512  0.2811E+01  0.2707E+02
     -3.418  0.3571E+01  0.2741E+02
     -3.323  0.4239E+01  0.2781E+02
     -3.229  0.4503E+01  0.2823E+02
     -3.135  0.4628E+01  0.2867E+02
     -3.040  0.2666E+01  0.2892E+02
     -2.946  0.1249E+01  0.2904E+02
     -2.852  0.1125E+01  0.2915E+02
     -2.757  0.1243E+01  0.2926E+02
     -2.663  0.1468E+01  0.2940E+02
     -2.569  0.1981E+01  0.2959E+02
     -2.474  0.2539E+01  0.2983E+02
     -2.380  0.1545E+01  0.2997E+02
     -2.286  0.2711E+00  0.3000E+02
     -2.192  0.1095E-01  0.3000E+02
     -2.097  0.1514E-03  0.3000E+02
     -2.003  0.7365E-02  0.3000E+02
     -1.909  0.1815E+00  0.3002E+02
     -1.814  0.1032E+01  0.3012E+02
     -1.720  0.1699E+01  0.3028E+02
     -1.626  0.1333E+01  0.3040E+02
     -1.531  0.9897E+00  0.3049E+02
     -1.437  0.8568E+00  0.3058E+02
     -1.343  0.1021E+01  0.3067E+02
     -1.249  0.1580E+01  0.3082E+02
     -1.154  0.1655E+01  0.3098E+02
     -1.060  0.1372E+01  0.3111E+02
     -0.966  0.1224E+01  0.3122E+02
     -0.871  0.1174E+01  0.3133E+02
     -0.777  0.1207E+01  0.3145E+02
     -0.683  0.1359E+01  0.3157E+02
     -0.588  0.1260E+01  0.3169E+02
     -0.494  0.7472E+00  0.3176E+02
     -0.400  0.5225E+00  0.3181E+02
     -0.305  0.5006E+00  0.3186E+02
     -0.211  0.5013E+00  0.3191E+02
     -0.117  0.5281E+00  0.3196E+02
     -0.023  0.5929E+00  0.3201E+02
      0.072  0.5664E+00  0.3207E+02
      0.166  0.5110E+00  0.3211E+02
      0.260  0.5022E+00  0.3216E+02
      0.355  0.5048E+00  0.3221E+02
      0.449  0.5102E+00  0.3226E+02
      0.543  0.5191E+00  0.3231E+02
      0.638  0.5325E+00  0.3236E+02
      0.732  0.5522E+00  0.3241E+02
      0.826  0.5821E+00  0.3246E+02
      0.920  0.6396E+00  0.3252E+02
      1.015  0.9750E+00  0.3262E+02
      1.109  0.2434E+01  0.3285E+02
      1.203  0.3652E+01  0.3319E+02
      1.298  0.2484E+01  0.3342E+02
      1.392  0.1379E+01  0.3355E+02
      1.486  0.1139E+01  0.3366E+02
      1.581  0.1100E+01  0.3377E+02
      1.675  0.1158E+01  0.3387E+02
      1.769  0.1646E+01  0.3403E+02
      1.863  0.2700E+01  0.3428E+02
      1.958  0.3822E+01  0.3464E+02
      2.052  0.3918E+01  0.3501E+02
      2.146  0.2636E+01  0.3526E+02
      2.241  0.1794E+01  0.3543E+02
      2.335  0.1552E+01  0.3558E+02
      2.429  0.1445E+01  0.3571E+02
      2.524  0.1379E+01  0.3584E+02
      2.618  0.1345E+01  0.3597E+02
      2.712  0.1354E+01  0.3610E+02
      2.807  0.1482E+01  0.3624E+02
      2.901  0.1773E+01  0.3641E+02
      2.995  0.1652E+01  0.3656E+02
      3.089  0.1237E+01  0.3668E+02
      3.184  0.1076E+01  0.3678E+02
      3.278  0.1025E+01  0.3688E+02
      3.372  0.9936E+00  0.3697E+02
      3.467  0.9703E+00  0.3706E+02
      3.561  0.9576E+00  0.3715E+02
      3.655  0.1141E+01  0.3726E+02
      3.750  0.2461E+01  0.3749E+02
      3.844  0.4045E+01  0.3787E+02
      3.938  0.3553E+01  0.3821E+02
      4.032  0.2776E+01  0.3847E+02
      4.127  0.2416E+01  0.3870E+02
      4.221  0.2217E+01  0.3891E+02
      4.315  0.2099E+01  0.3911E+02
      4.410  0.2025E+01  0.3930E+02
      4.504  0.2398E+01  0.3952E+02
      4.598  0.3146E+01  0.3982E+02
      4.693  0.2903E+01  0.4009E+02
      4.787  0.2451E+01  0.4032E+02
      4.881  0.2233E+01  0.4053E+02
      4.976  0.2111E+01  0.4073E+02
      5.070  0.2028E+01  0.4092E+02
      5.164  0.1969E+01  0.4111E+02
      5.258  0.1927E+01  0.4129E+02
      5.353  0.1902E+01  0.4147E+02
      5.447  0.1905E+01  0.4165E+02
      5.541  0.1983E+01  0.4184E+02
      5.636  0.2059E+01  0.4203E+02
      5.730  0.2463E+01  0.4226E+02
      5.824  0.4194E+01  0.4266E+02
      5.919  0.5926E+01  0.4322E+02
      6.013  0.5862E+01  0.4377E+02
      6.107  0.5298E+01  0.4427E+02
      6.201  0.3259E+01  0.4458E+02
      6.296  0.2953E+01  0.4486E+02
      6.390  0.4361E+01  0.4527E+02
      6.484  0.5419E+01  0.4578E+02
      6.579  0.6023E+01  0.4635E+02
      6.673  0.5415E+01  0.4686E+02
      6.767  0.4520E+01  0.4728E+02
      6.862  0.3577E+01  0.4762E+02
      6.956  0.2211E+01  0.4783E+02
      7.050  0.1120E+01  0.4794E+02
      7.145  0.4872E+00  0.4798E+02
      7.239  0.1615E+00  0.4800E+02
      7.333  0.3020E-01  0.4800E+02
      7.427  0.1833E-02  0.4800E+02
      7.522  0.2551E-04  0.4800E+02
      7.616  0.6974E-07  0.4800E+02
      7.710  0.3495E-10  0.4800E+02
      7.805  0.3103E-14  0.4800E+02
      7.899  0.0000E+00  0.4800E+02
      7.993  0.0000E+00  0.4800E+02
      8.088  0.0000E+00  0.4800E+02
      8.182  0.0000E+00  0.4800E+02
      8.276  0.0000E+00  0.4800E+02
      8.370  0.0000E+00  0.4800E+02
      8.465  0.0000E+00  0.4800E+02
      8.46477941    -19.82642645  301     -2.14158767      1.00000000
    -19.826  0.0000E+00  0.0000E+00  0.0000E+00  0.0000E+00  0.0000E+00  0.0000E+00  0.0000E+00  0.0000E+00  0.0000E+00
    -19.732  0.0000E+00  0.0000E+00  0.0000E+00  0.0000E+00  0.0000E+00  0.0000E+00  0.0000E+00  0.0000E+00  0.0000E+00
    -19.638  0.0000E+00  0.0000E+00  0.0000E+00  0.0000E+00  0.0000E+00  0.0000E+00  0.0000E+00  0.0000E+00  0.0000E+00
    -19.544  0.0000E+00  0.0000E+00  0.0000E+00  0.0000E+00  0.0000E+00  0.0000E+00  0.0000E+00  0.0000E+00  0.0000E+00
    -19.449  0.0000E+00  0.0000E+00  0.0000E+00  0.0000E+00  0.0000E+00  0.0000E+00  0.0000E+00  0.0000E+00  0.0000E+00
    -19.355  0.0000E+00  0.0000E+00  0.0000E+00  0.0000E+00  0.0000E+00  0.0000E+00  0.0000E+00  0.0000E+00  0.0000E+00
    -19.261  0.0000E+00  0.0000E+00  0.0000E+00  0.0000E+00  0.0000E+00  0.0000E+00  0.0000E+00  0.0000E+00  0.0000E+00
    -19.166  0.0000E+00  0.0000E+00  0.0000E+00  0.0000E+00  0.0000E+00  0.0000E+00  0.0000E+00  0.0000E+00  0.0000E+00
    -19.072  0.9511E-15  0.1414E-17  0.1268E-25  0.2199E-18  0.0000E+00  0.0000E+00  0.0000E+00  0.0000E+00  0.0000E+00
    -18.978  0.1156E-10  0.2078E-13  0.1505E-21  0.3239E-14  0.0000E+00  0.0000E+00  0.0000E+00  0.0000E+00  0.0000E+00
    -18.883  0.2518E-07  0.5656E-10  0.3188E-18  0.8832E-11  0.0000E+00  0.0000E+00  0.0000E+00  0.0000E+00  0.0000E+00
    -18.789  0.1010E-04  0.2979E-07  0.1240E-15  0.4664E-08  0.0000E+00  0.0000E+00  0.0000E+00  0.0000E+00  0.0000E+00
    -18.695  0.7818E-03  0.3258E-05  0.9304E-14  0.5125E-06  0.0000E+00  0.0000E+00  0.0000E+00  0.0000E+00  0.0000E+00
    -18.600  0.1269E-01  0.8333E-04  0.1466E-12  0.1322E-04  0.0000E+00  0.0000E+00  0.0000E+00  0.0000E+00  0.0000E+00
    -18.506  0.4949E-01  0.6071E-03  0.5675E-12  0.9793E-04  0.0000E+00  0.0000E+00  0.0000E+00  0.0000E+00  0.0000E+00
    -18.412  0.6037E-01  0.1722E-02  0.7749E-12  0.2869E-03  0.0000E+00  0.0000E+00  0.0000E+00  0.0000E+00  0.0000E+00
    -18.318  0.4066E-01  0.2875E-02  0.6758E-12  0.5074E-03  0.0000E+00  0.0000E+00  0.0000E+00  0.0000E+00  0.0000E+00
    -18.223  0.2798E-01  0.3981E-02  0.4912E-12  0.7662E-03  0.0000E+00  0.0000E+00  0.0000E+00  0.0000E+00  0.0000E+00
    -18.129  0.2131E-01  0.5577E-02  0.3489E-12  0.1246E-02  0.0000E+00  0.0000E+00  0.0000E+00  0.0000E+00  0.0000E+00
    -18.035  0.1842E-01  0.1100E-01  0.2259E-12  0.3362E-02  0.0000E+00  0.0000E+00  0.0000E+00  0.0000E+00  0.0000E+00
    -17.940  0.1853E-01  0.2379E-01  0.1549E-12  0.9877E-02  0.0000E+00  0.0000E+00  0.0000E+00  0.0000E+00  0.0000E+00
    -17.846  0.1098E-01  0.2366E-01  0.9561E-13  0.1253E-01  0.0000E+00  0.0000E+00  0.0000E+00  0.0000E+00  0.0000E+00
    -17.752  0.2179E-02  0.7688E-02  0.2613E-13  0.4904E-02  0.0000E+00  0.0000E+00  0.0000E+00  0.0000E+00  0.0000E+00
    -17.657  0.1205E-03  0.6840E-03  0.2194E-14  0.4907E-03  0.0000E+00  0.0000E+00  0.0000E+00  0.0000E+00  0.0000E+00
    -17.563  0.1666E-05  0.1407E-04  0.4514E-16  0.1081E-04  0.0000E+00  0.0000E+00  0.0000E+00  0.0000E+00  0.0000E+00
    -17.469  0.5124E-08  0.5904E-07  0.1947E-18  0.4726E-07  0.0000E+00  0.0000E+00  0.0000E+00  0.0000E+00  0.0000E+00
    -17.375  0.3192E-11  0.4695E-10  0.1607E-21  0.3862E-10  0.0000E+00  0.0000E+00  0.0000E+00  0.0000E+00  0.0000E+00
    -17.280  0.3781E-15  0.6790E-14  0.2417E-25  0.5697E-14  0.0000E+00  0.0000E+00  0.0000E+00  0.0000E+00  0.0000E+00
    -17.186  0.0000E+00  0.0000E+00  0.0000E+00  0.0000E+00  0.0000E+00  0.0000E+00  0.0000E+00  0.0000E+00  0.0000E+00
    -17.092  0.0000E+00  0.0000E+00  0.0000E+00  0.0000E+00  0.0000E+00  0.0000E+00  0.0000E+00  0.0000E+00  0.0000E+00
    -16.997  0.0000E+00  0.0000E+00  0.0000E+00  0.0000E+00  0.0000E+00  0.0000E+00  0.0000E+00  0.0000E+00  0.0000E+00
    -16.903  0.0000E+00  0.0000E+00  0.0000E+00  0.0000E+00  0.0000E+00  0.0000E+00  0.0000E+00  0.0000E+00  0.0000E+00
    -16.809  0.1161E-14  0.7303E-16  0.7430E-27  0.2515E-16  0.0000E+00  0.0000E+00  0.0000E+00  0.0000E+00  0.0000E+00
    -16.714  0.1548E-10  0.9753E-12  0.1005E-22  0.3380E-12  0.0000E+00  0.0000E+00  0.0000E+00  0.0000E+00  0.0000E+00
    -16.620  0.3690E-07  0.2333E-08  0.2442E-19  0.8160E-09  0.0000E+00  0.0000E+00  0.0000E+00  0.0000E+00  0.0000E+00
    -16.526  0.1617E-04  0.1028E-05  0.1095E-16  0.3645E-06  0.0000E+00  0.0000E+00  0.0000E+00  0.0000E+00  0.0000E+00
    -16.431  0.1365E-02  0.8751E-04  0.9464E-15  0.3176E-04  0.0000E+00  0.0000E+00  0.0000E+00  0.0000E+00  0.0000E+00
    -16.337  0.2405E-01  0.1567E-02  0.1699E-13  0.5928E-03  0.0000E+00  0.0000E+00  0.0000E+00  0.0000E+00  0.0000E+00
    -16.243  0.1011E+00  0.6829E-02  0.7226E-13  0.2825E-02  0.0000E+00  0.0000E+00  0.0000E+00  0.0000E+00  0.0000E+00
    -16.149  0.1337E+00  0.9784E-02  0.9855E-13  0.5236E-02  0.0000E+00  0.0000E+00  0.0000E+00  0.0000E+00  0.0000E+00
    -16.054  0.1137E+00  0.8959E-02  0.8840E-13  0.8959E-02  0.0000E+00  0.0000E+00  0.0000E+00  0.0000E+00  0.0000E+00
    -15.960  0.1137E+00  0.9476E-02  0.8141E-13  0.1384E-01  0.0000E+00  0.0000E+00  0.0000E+00  0.0000E+00  0.0000E+00
    -15.866  0.9343E-01  0.9717E-02  0.6549E-13  0.1348E-01  0.0000E+00  0.0000E+00  0.0000E+00  0.0000E+00  0.0000E+00
    -15.771  0.6833E-01  0.9189E-02  0.4879E-13  0.1181E-01  0.0000E+00  0.0000E+00  0.0000E+00  0.0000E+00  0.0000E+00
    -15.677  0.5412E-01  0.9136E-02  0.3969E-13  0.1145E-01  0.0000E+00  0.0000E+00  0.0000E+00  0.0000E+00  0.0000E+00
    -15.583  0.4516E-01  0.9453E-02  0.4078E-13  0.1170E-01  0.0000E+00  0.0000E+00  0.0000E+00  0.0000E+00  0.0000E+00
    -15.488  0.3824E-01  0.9936E-02  0.3767E-13  0.1230E-01  0.0000E+00  0.0000E+00  0.0000E+00  0.0000E+00  0.0000E+00
    -15.394  0.3238E-01  0.1058E-01  0.2955E-13  0.1333E-01  0.0000E+00  0.0000E+00  0.0000E+00  0.0000E+00  0.0000E+00
    -15.300  0.2709E-01  0.1154E-01  0.3215E-13  0.1536E-01  0.0000E+00  0.0000E+00  0.0000E+00  0.0000E+00  0.0000E+00
    -15.206  0.2186E-01  0.1402E-01  0.4364E-13  0.2197E-01  0.0000E+00  0.0000E+00  0.0000E+00  0.0000E+00  0.0000E+00
    -15.111  0.1635E-01  0.1931E-01  0.4241E-13  0.3710E-01  0.0000E+00  0.0000E+00  0.0000E+00  0.0000E+00  0.0000E+00
    -15.017  0.1166E-01  0.2021E-01  0.3881E-13  0.3895E-01  0.0000E+00  0.0000E+00  0.0000E+00  0.0000E+00  0.0000E+00
    -14.923  0.8782E-02  0.1662E-01  0.4222E-13  0.2694E-01  0.0000E+00  0.0000E+00  0.0000E+00  0.0000E+00  0.0000E+00
    -14.828  0.6597E-02  0.1571E-01  0.3697E-13  0.2237E-01  0.0000E+00  0.0000E+00  0.0000E+00  0.0000E+00  0.0000E+00
    -14.734  0.4387E-02  0.1772E-01  0.2481E-13  0.2460E-01  0.0000E+00  0.0000E+00  0.0000E+00  0.0000E+00  0.0000E+00
    -14.640  0.2078E-02  0.1811E-01  0.2322E-13  0.2559E-01  0.0000E+00  0.0000E+00  0.0000E+00  0.0000E+00  0.0000E+00
    -14.545  0.4799E-03  0.8475E-02  0.1162E-13  0.1210E-01  0.0000E+00  0.0000E+00  0.0000E+00  0.0000E+00  0.0000E+00
    -14.451  0.3720E-04  0.1125E-02  0.1609E-14  0.1609E-02  0.0000E+00  0.0000E+00  0.0000E+00  0.0000E+00  0.0000E+00
    -14.357  0.7476E-06  0.3392E-04  0.4951E-16  0.4843E-04  0.0000E+00  0.0000E+00  0.0000E+00  0.0000E+00  0.0000E+00
    -14.262  0.3318E-08  0.2067E-06  0.3032E-18  0.2942E-06  0.0000E+00  0.0000E+00  0.0000E+00  0.0000E+00  0.0000E+00
    -14.168  0.2955E-11  0.2379E-09  0.3473E-21  0.3371E-09  0.0000E+00  0.0000E+00  0.0000E+00  0.0000E+00  0.0000E+00
    -14.074  0.4991E-15  0.4972E-13  0.7188E-25  0.7017E-13  0.0000E+00  0.0000E+00  0.0000E+00  0.0000E+00  0.0000E+00
    -13.980  0.7853E-20  0.1811E-17  0.2468E-29  0.2394E-17  0.0000E+00  0.0000E+00  0.0000E+00  0.0000E+00  0.0000E+00
    -13.885  0.0000E+00  0.0000E+00  0.0000E+00  0.0000E+00  0.0000E+00  0.0000E+00  0.0000E+00  0.0000E+00  0.0000E+00
    -13.791  0.0000E+00  0.0000E+00  0.0000E+00  0.0000E+00  0.0000E+00  0.0000E+00  0.0000E+00  0.0000E+00  0.0000E+00
    -13.697  0.0000E+00  0.0000E+00  0.0000E+00  0.0000E+00  0.0000E+00  0.0000E+00  0.0000E+00  0.0000E+00  0.0000E+00
    -13.602  0.0000E+00  0.0000E+00  0.0000E+00  0.0000E+00  0.0000E+00  0.0000E+00  0.0000E+00  0.0000E+00  0.0000E+00
    -13.508  0.0000E+00  0.0000E+00  0.0000E+00  0.0000E+00  0.0000E+00  0.0000E+00  0.0000E+00  0.0000E+00  0.0000E+00
    -13.414  0.4193E-16  0.3825E-18  0.1248E-29  0.1350E-18  0.0000E+00  0.0000E+00  0.0000E+00  0.0000E+00  0.0000E+00
    -13.319  0.1004E-11  0.9426E-14  0.3147E-25  0.3361E-14  0.0000E+00  0.0000E+00  0.0000E+00  0.0000E+00  0.0000E+00
    -13.225  0.4284E-08  0.4152E-10  0.1436E-21  0.1499E-10  0.0000E+00  0.0000E+00  0.0000E+00  0.0000E+00  0.0000E+00
    -13.131  0.3321E-05  0.3376E-07  0.1207E-18  0.1240E-07  0.0000E+00  0.0000E+00  0.0000E+00  0.0000E+00  0.0000E+00
    -13.037  0.4867E-03  0.5328E-05  0.1945E-16  0.2004E-05  0.0000E+00  0.0000E+00  0.0000E+00  0.0000E+00  0.0000E+00
    -12.942  0.1441E-01  0.1789E-03  0.6405E-15  0.6969E-04  0.0000E+00  0.0000E+00  0.0000E+00  0.0000E+00  0.0000E+00
    -12.848  0.9640E-01  0.1511E-02  0.4775E-14  0.6183E-03  0.0000E+00  0.0000E+00  0.0000E+00  0.0000E+00  0.0000E+00
    -12.754  0.1783E+00  0.4375E-02  0.9769E-14  0.1894E-02  0.0000E+00  0.0000E+00  0.0000E+00  0.0000E+00  0.0000E+00
    -12.659  0.1416E+00  0.7125E-02  0.8722E-14  0.3178E-02  0.0000E+00  0.0000E+00  0.0000E+00  0.0000E+00  0.0000E+00
    -12.565  0.9709E-01  0.1026E-01  0.5779E-14  0.4446E-02  0.0000E+00  0.0000E+00  0.0000E+00  0.0000E+00  0.0000E+00
    -12.471  0.8160E-01  0.1968E-01  0.4426E-14  0.7094E-02  0.0000E+00  0.0000E+00  0.0000E+00  0.0000E+00  0.0000E+00
    -12.376  0.1006E+00  0.5851E-01  0.8737E-14  0.2078E-01  0.0000E+00  0.0000E+00  0.0000E+00  0.0000E+00  0.0000E+00
    -12.282  0.1103E+00  0.9593E-01  0.1290E-13  0.5730E-01  0.0000E+00  0.0000E+00  0.0000E+00  0.0000E+00  0.0000E+00
    -12.188  0.7744E-01  0.5260E-01  0.8811E-14  0.7069E-01  0.0000E+00  0.0000E+00  0.0000E+00  0.0000E+00  0.0000E+00
    -12.093  0.5877E-01  0.1299E-01  0.4427E-14  0.5231E-01  0.0000E+00  0.0000E+00  0.0000E+00  0.0000E+00  0.0000E+00
    -11.999  0.5369E-01  0.6025E-02  0.3742E-14  0.4142E-01  0.0000E+00  0.0000E+00  0.0000E+00  0.0000E+00  0.0000E+00
    -11.905  0.5181E-01  0.5099E-02  0.4094E-14  0.3676E-01  0.0000E+00  0.0000E+00  0.0000E+00  0.0000E+00  0.0000E+00
    -11.811  0.5116E-01  0.4856E-02  0.3509E-14  0.3375E-01  0.0000E+00  0.0000E+00  0.0000E+00  0.0000E+00  0.0000E+00
    -11.716  0.5132E-01  0.4953E-02  0.2977E-14  0.3141E-01  0.0000E+00  0.0000E+00  0.0000E+00  0.0000E+00  0.0000E+00
    -11.622  0.5296E-01  0.5413E-02  0.2462E-14  0.2966E-01  0.0000E+00  0.0000E+00  0.0000E+00  0.0000E+00  0.0000E+00
    -11.528  0.5877E-01  0.6394E-02  0.2538E-14  0.2900E-01  0.0000E+00  0.0000E+00  0.0000E+00  0.0000E+00  0.0000E+00
    -11.433  0.6677E-01  0.7145E-02  0.2858E-14  0.3037E-01  0.0000E+00  0.0000E+00  0.0000E+00  0.0000E+00  0.0000E+00
    -11.339  0.7558E-01  0.6916E-02  0.3606E-14  0.3121E-01  0.0000E+00  0.0000E+00  0.0000E+00  0.0000E+00  0.0000E+00
    -11.245  0.1070E+00  0.6226E-02  0.7556E-14  0.2227E-01  0.0000E+00  0.0000E+00  0.0000E+00  0.0000E+00  0.0000E+00
    -11.150  0.1511E+00  0.6137E-02  0.1062E-13  0.1394E-01  0.0000E+00  0.0000E+00  0.0000E+00  0.0000E+00  0.0000E+00
    -11.056  0.1251E+00  0.6729E-02  0.7188E-14  0.1311E-01  0.0000E+00  0.0000E+00  0.0000E+00  0.0000E+00  0.0000E+00
    -10.962  0.8970E-01  0.7338E-02  0.5429E-14  0.1408E-01  0.0000E+00  0.0000E+00  0.0000E+00  0.0000E+00  0.0000E+00
    -10.868  0.7257E-01  0.7955E-02  0.3860E-14  0.1548E-01  0.0000E+00  0.0000E+00  0.0000E+00  0.0000E+00  0.0000E+00
    -10.773  0.6218E-01  0.8754E-02  0.2272E-14  0.1762E-01  0.0000E+00  0.0000E+00  0.0000E+00  0.0000E+00  0.0000E+00
    -10.679  0.5424E-01  0.1018E-01  0.2163E-14  0.2177E-01  0.0000E+00  0.0000E+00  0.0000E+00  0.0000E+00  0.0000E+00
    -10.585  0.4707E-01  0.1298E-01  0.3068E-14  0.3027E-01  0.0000E+00  0.0000E+00  0.0000E+00  0.0000E+00  0.0000E+00
    -10.490  0.4011E-01  0.1300E-01  0.2651E-14  0.3054E-01  0.0000E+00  0.0000E+00  0.0000E+00  0.0000E+00  0.0000E+00
    -10.396  0.3521E-01  0.6732E-02  0.1833E-14  0.1173E-01  0.0000E+00  0.0000E+00  0.0000E+00  0.0000E+00  0.0000E+00
    -10.302  0.3276E-01  0.3555E-02  0.2346E-14  0.1816E-02  0.0000E+00  0.0000E+00  0.0000E+00  0.0000E+00  0.0000E+00
    -10.207  0.3118E-01  0.3386E-02  0.2438E-14  0.8312E-03  0.0000E+00  0.0000E+00  0.0000E+00  0.0000E+00  0.0000E+00
    -10.113  0.3026E-01  0.3552E-02  0.1903E-14  0.8382E-03  0.0000E+00  0.0000E+00  0.0000E+00  0.0000E+00  0.0000E+00
    -10.019  0.4145E-01  0.3759E-02  0.3439E-14  0.8678E-03  0.0000E+00  0.0000E+00  0.0000E+00  0.0000E+00  0.0000E+00
     -9.925  0.1225E+00  0.4334E-02  0.1263E-13  0.9510E-03  0.0000E+00  0.0000E+00  0.0000E+00  0.0000E+00  0.0000E+00
     -9.830  0.2181E+00  0.5871E-02  0.1883E-13  0.1181E-02  0.0000E+00  0.0000E+00  0.0000E+00  0.0000E+00  0.0000E+00
     -9.736  0.1847E+00  0.7869E-02  0.1258E-13  0.1586E-02  0.0000E+00  0.0000E+00  0.0000E+00  0.0000E+00  0.0000E+00
     -9.642  0.1356E+00  0.1284E-01  0.8149E-14  0.5117E-02  0.0000E+00  0.0000E+00  0.0000E+00  0.0000E+00  0.0000E+00
     -9.547  0.1130E+00  0.3368E-01  0.6208E-14  0.2327E-01  0.0000E+00  0.0000E+00  0.0000E+00  0.0000E+00  0.0000E+00
     -9.453  0.1003E+00  0.5388E-01  0.7820E-14  0.3933E-01  0.0000E+00  0.0000E+00  0.0000E+00  0.0000E+00  0.0000E+00
     -9.359  0.9151E-01  0.4815E-01  0.6826E-14  0.3131E-01  0.0000E+00  0.0000E+00  0.0000E+00  0.0000E+00  0.0000E+00
     -9.264  0.8488E-01  0.4076E-01  0.5510E-14  0.2307E-01  0.0000E+00  0.0000E+00  0.0000E+00  0.0000E+00  0.0000E+00
     -9.170  0.7964E-01  0.3807E-01  0.8784E-14  0.1951E-01  0.0000E+00  0.0000E+00  0.0000E+00  0.0000E+00  0.0000E+00
     -9.076  0.7553E-01  0.3777E-01  0.1031E-13  0.1761E-01  0.0000E+00  0.0000E+00  0.0000E+00  0.0000E+00  0.0000E+00
     -8.981  0.7242E-01  0.3985E-01  0.7635E-14  0.1646E-01  0.0000E+00  0.0000E+00  0.0000E+00  0.0000E+00  0.0000E+00
     -8.887  0.6822E-01  0.3785E-01  0.6016E-14  0.1562E-01  0.0000E+00  0.0000E+00  0.0000E+00  0.0000E+00  0.0000E+00
     -8.793  0.6243E-01  0.2727E-01  0.4782E-14  0.1603E-01  0.0000E+00  0.0000E+00  0.0000E+00  0.0000E+00  0.0000E+00
     -8.699  0.6006E-01  0.2209E-01  0.5929E-14  0.2053E-01  0.0000E+00  0.0000E+00  0.0000E+00  0.0000E+00  0.0000E+00
     -8.604  0.6424E-01  0.1982E-01  0.9319E-14  0.2147E-01  0.0000E+00  0.0000E+00  0.0000E+00  0.0000E+00  0.0000E+00
     -8.510  0.1002E+00  0.1696E-01  0.9049E-14  0.1456E-01  0.0000E+00  0.0000E+00  0.0000E+00  0.0000E+00  0.0000E+00
     -8.416  0.1678E+00  0.1754E-01  0.9316E-14  0.1272E-01  0.0000E+00  0.0000E+00  0.0000E+00  0.0000E+00  0.0000E+00
     -8.321  0.1578E+00  0.1790E-01  0.9464E-14  0.1190E-01  0.0000E+00  0.0000E+00  0.0000E+00  0.0000E+00  0.0000E+00
     -8.227  0.1152E+00  0.1748E-01  0.7015E-14  0.1064E-01  0.0000E+00  0.0000E+00  0.0000E+00  0.0000E+00  0.0000E+00
     -8.133  0.9586E-01  0.1744E-01  0.6842E-14  0.1005E-01  0.0000E+00  0.0000E+00  0.0000E+00  0.0000E+00  0.0000E+00
     -8.038  0.8643E-01  0.1775E-01  0.7550E-14  0.9835E-02  0.0000E+00  0.0000E+00  0.0000E+00  0.0000E+00  0.0000E+00
     -7.944  0.8069E-01  0.2374E-01  0.8371E-14  0.1163E-01  0.0000E+00  0.0000E+00  0.0000E+00  0.0000E+00  0.0000E+00
     -7.850  0.7834E-01  0.5456E-01  0.2964E-13  0.2182E-01  0.0000E+00  0.0000E+00  0.0000E+00  0.0000E+00  0.0000E+00
     -7.756  0.7945E-01  0.8197E-01  0.1189E-09  0.3102E-01  0.0000E+00  0.0000E+00  0.0000E+00  0.0000E+00  0.0000E+00
     -7.661  0.8335E-01  0.7326E-01  0.1587E-06  0.2817E-01  0.0000E+00  0.0000E+00  0.0000E+00  0.0000E+00  0.0000E+00
     -7.567  0.8511E-01  0.6231E-01  0.3948E-04  0.2446E-01  0.0000E+00  0.0000E+00  0.0000E+00  0.0000E+00  0.0000E+00
     -7.473  0.7174E-01  0.4499E-01  0.1935E-02  0.1857E-01  0.0000E+00  0.0000E+00  0.0000E+00  0.0000E+00  0.0000E+00
     -7.378  0.6159E-01  0.3203E-01  0.2054E-01  0.1412E-01  0.0000E+00  0.0000E+00  0.0000E+00  0.0000E+00  0.0000E+00
     -7.284  0.6305E-01  0.2830E-01  0.5573E-01  0.1278E-01  0.0000E+00  0.0000E+00  0.0000E+00  0.0000E+00  0.0000E+00
     -7.190  0.6992E-01  0.2661E-01  0.5441E-01  0.1225E-01  0.0000E+00  0.0000E+00  0.0000E+00  0.0000E+00  0.0000E+00
     -7.095  0.8792E-01  0.2585E-01  0.3727E-01  0.1259E-01  0.0000E+00  0.0000E+00  0.0000E+00  0.0000E+00  0.0000E+00
     -7.001  0.1146E+00  0.2436E-01  0.2859E-01  0.1408E-01  0.0000E+00  0.0000E+00  0.0000E+00  0.0000E+00  0.0000E+00
     -6.907  0.1011E+00  0.1794E-01  0.2389E-01  0.1444E-01  0.0000E+00  0.0000E+00  0.0000E+00  0.0000E+00  0.0000E+00
     -6.812  0.5825E-01  0.2378E-01  0.2067E-01  0.1431E-01  0.0000E+00  0.0000E+00  0.0000E+00  0.0000E+00  0.0000E+00
     -6.718  0.3536E-01  0.3908E-01  0.1819E-01  0.1846E-01  0.0000E+00  0.0000E+00  0.0000E+00  0.0000E+00  0.0000E+00
     -6.624  0.3297E-01  0.4452E-01  0.1615E-01  0.2581E-01  0.0000E+00  0.0000E+00  0.0000E+00  0.0000E+00  0.0000E+00
     -6.530  0.4159E-01  0.4250E-01  0.1440E-01  0.2439E-01  0.0000E+00  0.0000E+00  0.0000E+00  0.0000E+00  0.0000E+00
     -6.435  0.5362E-01  0.4130E-01  0.1295E-01  0.1981E-01  0.0000E+00  0.0000E+00  0.0000E+00  0.0000E+00  0.0000E+00
     -6.341  0.8868E-01  0.4720E-01  0.1352E-01  0.1866E-01  0.0000E+00  0.0000E+00  0.0000E+00  0.0000E+00  0.0000E+00
     -6.247  0.2036E+00  0.6734E-01  0.1958E-01  0.2259E-01  0.0000E+00  0.0000E+00  0.0000E+00  0.0000E+00  0.0000E+00
     -6.152  0.2244E+00  0.7287E-01  0.1979E-01  0.2183E-01  0.0000E+00  0.0000E+00  0.0000E+00  0.0000E+00  0.0000E+00
     -6.058  0.7247E-01  0.9136E-01  0.9813E-02  0.2842E-01  0.0000E+00  0.0000E+00  0.0000E+00  0.0000E+00  0.0000E+00
     -5.964  0.1600E-01  0.2988E+00  0.2556E-02  0.1153E+00  0.0000E+00  0.0000E+00  0.0000E+00  0.0000E+00  0.0000E+00
     -5.869  0.1293E-01  0.4273E+00  0.2687E-03  0.1786E+00  0.0000E+00  0.0000E+00  0.0000E+00  0.0000E+00  0.0000E+00
     -5.775  0.1339E-01  0.2211E+00  0.8052E-05  0.7927E-01  0.0000E+00  0.0000E+00  0.0000E+00  0.0000E+00  0.0000E+00
     -5.681  0.1308E-01  0.1029E+00  0.5835E-07  0.1889E-01  0.0000E+00  0.0000E+00  0.0000E+00  0.0000E+00  0.0000E+00
     -5.587  0.1229E-01  0.8728E-01  0.1993E-05  0.1613E-01  0.0000E+00  0.0000E+00  0.0000E+00  0.0000E+00  0.0000E+00
     -5.492  0.1129E-01  0.8547E-01  0.2948E-03  0.2448E-01  0.0000E+00  0.0000E+00  0.0000E+00  0.0000E+00  0.0000E+00
     -5.398  0.1022E-01  0.8484E-01  0.8817E-02  0.3838E-01  0.0000E+00  0.0000E+00  0.0000E+00  0.0000E+00  0.0000E+00
     -5.304  0.9187E-02  0.8511E-01  0.5967E-01  0.5695E-01  0.0000E+00  0.0000E+00  0.0000E+00  0.0000E+00  0.0000E+00
     -5.209  0.9462E-02  0.9345E-01  0.1120E+00  0.8776E-01  0.0000E+00  0.0000E+00  0.0000E+00  0.0000E+00  0.0000E+00
     -5.115  0.1832E-01  0.1480E+00  0.9131E-01  0.2059E+00  0.0000E+00  0.0000E+00  0.0000E+00  0.0000E+00  0.0000E+00