    8    8    1    1
  0.2469169E+02  0.5174038E-09  0.5174038E-09  0.8520221E-09  0.5000000E-15
  1.000000000000000E-004
  CAR 
 BC3                                     
     30    192     24
 
  0.3330000E+00  0.3330000E+00  0.0000000E+00  0.5208333E-02
    1      -17.874174   1.000000
    2      -15.943062   1.000000
    3      -15.940553   1.000000
    4      -11.512807   1.000000
    5      -11.508001   1.000000
    6       -9.548991   1.000000
    7       -7.052149   1.000000
    8       -7.046317   1.000000
    9       -6.688055   1.000000
   10       -6.039947   1.000000
   11       -5.907966   1.000000
   12       -4.897949   1.000000
   13       -4.892977   1.000000
   14       -4.817453   1.000000
   15       -4.813712   1.000000
   16       -0.047720   0.000000
   17       -0.039881   0.000000
   18        4.355847   0.000000
   19        4.377540   0.000000
   20        4.381869   0.000000
   21        5.566004   0.000000
   22        5.573221   0.000000
   23        5.700637   0.000000
   24        6.554614   0.000000
 
  0.3277143E+00  0.3277143E+00  0.0000000E+00  0.5208333E-02
    1      -17.874598   1.000000
    2      -15.962210   1.000000
    3      -15.920050   1.000000
    4      -11.550176   1.000000
    5      -11.472431   1.000000
    6       -9.546378   1.000000
    7       -7.105221   1.000000
    8       -7.002555   1.000000
    9       -6.683050   1.000000
   10       -6.041246   1.000000
   11       -5.907627   1.000000
   12       -4.934630   1.000000
   13       -4.852519   1.000000
   14       -4.845130   1.000000
   15       -4.783405   1.000000
   16       -0.108927   0.000000
   17        0.021292   0.000000
   18        4.289508   0.000000
   19        4.406463   0.000000
   20        4.421311   0.000000
   21        5.506715   0.000000
   22        5.591964   0.000000
   23        5.738055   0.000000
   24        6.550521   0.000000
 
  0.3224286E+00  0.3224286E+00  0.0000000E+00  0.5208333E-02
    1      -17.875823   1.000000
    2      -15.979433   1.000000
    3      -15.899025   1.000000
    4      -11.587034   1.000000
    5      -11.440727   1.000000
    6       -9.539013   1.000000
    7       -7.167588   1.000000
    8       -6.964292   1.000000
    9       -6.671529   1.000000
   10       -6.045086   1.000000
   11       -5.906237   1.000000
   12       -4.966927   1.000000
   13       -4.868810   1.000000
   14       -4.809785   1.000000
   15       -4.752314   1.000000
   16       -0.169067   0.000000
   17        0.081171   0.000000
   18        4.214790   0.000000
   19        4.446141   0.000000
   20        4.461939   0.000000
   21        5.445576   0.000000
   22        5.564357   0.000000
   23        5.817028   0.000000
   24        6.538073   0.000000
 
  0.3171429E+00  0.3171429E+00  0.0000000E+00  0.5208333E-02
    1      -17.877887   1.000000
    2      -15.994654   1.000000
    3      -15.877488   1.000000
    4      -11.623342   1.000000
    5      -11.413074   1.000000
    6       -9.526754   1.000000
    7       -7.236377   1.000000
    8       -6.932535   1.000000
    9       -6.655965   1.000000
   10       -6.051594   1.000000
   11       -5.903038   1.000000
   12       -4.994314   1.000000
   13       -4.888274   1.000000
   14       -4.764964   1.000000
   15       -4.720435   1.000000
   16       -0.227999   0.000000
   17        0.139724   0.000000
   18        4.140923   0.000000
   19        4.487358   0.000000
   20        4.503765   0.000000
   21        5.382877   0.000000
   22        5.523552   0.000000
   23        5.905499   0.000000
   24        6.516745   0.000000
 
  0.3118571E+00  0.3118571E+00  0.0000000E+00  0.5208333E-02
    1      -17.880833   1.000000
    2      -16.007812   1.000000
    3      -15.855454   1.000000
    4      -11.659075   1.000000
    5      -11.389600   1.000000
    6       -9.509569   1.000000
    7       -7.309717   1.000000
    8       -6.908477   1.000000
    9       -6.637957   1.000000
   10       -6.060910   1.000000
   11       -5.897223   1.000000
   12       -5.016568   1.000000
   13       -4.903375   1.000000
   14       -4.718325   1.000000
   15       -4.687793   1.000000
   16       -0.285737   0.000000
   17        0.196947   0.000000
   18        4.068159   0.000000
   19        4.529859   0.000000
   20        4.546781   0.000000
   21        5.318785   0.000000
   22        5.477029   0.000000
   23        5.995560   0.000000
   24        6.487061   0.000000
 
  0.3065714E+00  0.3065714E+00  0.0000000E+00  0.5208333E-02
    1      -17.884693   1.000000
    2      -16.018852   1.000000
    3      -15.832935   1.000000
    4      -11.694196   1.000000
    5      -11.370358   1.000000
    6       -9.487482   1.000000
    7       -7.386371   1.000000
    8       -6.893014   1.000000
    9       -6.618452   1.000000
   10       -6.073110   1.000000
   11       -5.887976   1.000000
   12       -5.033395   1.000000
   13       -4.914063   1.000000
   14       -4.670074   1.000000
   15       -4.654413   1.000000
   16       -0.342321   0.000000
   17        0.252663   0.000000
   18        3.996552   0.000000
   19        4.573591   0.000000
   20        4.590990   0.000000
   21        5.253198   0.000000
   22        5.426396   0.000000
   23        6.085473   0.000000
   24        6.450264   0.000000
 
  0.3012857E+00  0.3012857E+00  0.0000000E+00  0.5208333E-02
    1      -17.889490   1.000000
    2      -16.027732   1.000000
    3      -15.809948   1.000000
    4      -11.728687   1.000000
    5      -11.355316   1.000000
    6       -9.460632   1.000000
    7       -7.465561   1.000000
    8       -6.887011   1.000000
    9       -6.598002   1.000000
   10       -6.088162   1.000000
   11       -5.874681   1.000000
   12       -5.044741   1.000000
   13       -4.920334   1.000000
   14       -4.620417   1.000000
   15       -4.620315   1.000000
   16       -0.397697   0.000000
   17        0.306861   0.000000
   18        3.926120   0.000000
   19        4.618539   0.000000
   20        4.636397   0.000000
   21        5.186176   0.000000
   22        5.372359   0.000000
   23        6.174644   0.000000
   24        6.407931   0.000000
 
  0.2960000E+00  0.2960000E+00  0.0000000E+00  0.5208333E-02
    1      -17.895240   1.000000
    2      -16.034417   1.000000
    3      -15.786506   1.000000
    4      -11.762517   1.000000
    5      -11.344361   1.000000
    6       -9.429199   1.000000
    7       -7.546591   1.000000
    8       -6.890805   1.000000
    9       -6.576910   1.000000
   10       -6.106008   1.000000
   11       -5.856971   1.000000
   12       -5.050499   1.000000
   13       -4.922245   1.000000
   14       -4.585520   1.000000
   15       -4.569508   1.000000
   16       -0.451824   0.000000
   17        0.359544   0.000000
   18        3.856878   0.000000
   19        4.664695   0.000000
   20        4.682985   0.000000
   21        5.117939   0.000000
   22        5.315288   0.000000
   23        6.262786   0.000000
   24        6.361479   0.000000
 
  0.2907143E+00  0.2907143E+00  0.0000000E+00  0.5208333E-02
    1      -17.901952   1.000000
    2      -16.038887   1.000000
    3      -15.762626   1.000000
    4      -11.795667   1.000000
    5      -11.337347   1.000000
    6       -9.393502   1.000000
    7       -7.629061   1.000000
    8       -6.904390   1.000000
    9       -6.555376   1.000000
   10       -6.126502   1.000000
   11       -5.834897   1.000000
   12       -5.050656   1.000000
   13       -4.919959   1.000000
   14       -4.550057   1.000000
   15       -4.517581   1.000000
   16       -0.504688   0.000000
   17        0.410597   0.000000
   18        3.788823   0.000000
   19        4.712049   0.000000
   20        4.730758   0.000000
   21        5.048525   0.000000
   22        5.255391   0.000000
   23        6.312075   0.000000
   24        6.349710   0.000000
 
  0.2854286E+00  0.2854286E+00  0.0000000E+00  0.5208333E-02
    1      -17.909622   1.000000
    2      -16.041133   1.000000
    3      -15.738327   1.000000
    4      -11.828108   1.000000
    5      -11.334025   1.000000
    6       -9.353893   1.000000
    7       -7.712571   1.000000
    8       -6.927266   1.000000
    9       -6.533493   1.000000
   10       -6.149444   1.000000
   11       -5.808845   1.000000
   12       -5.045207   1.000000
   13       -4.913649   1.000000
   14       -4.513946   1.000000
   15       -4.464714   1.000000
   16       -0.556231   0.000000
   17        0.459977   0.000000
   18        3.721962   0.000000
   19        4.760600   0.000000
   20        4.779720   0.000000
   21        4.977958   0.000000
   22        5.192905   0.000000
   23        6.260595   0.000000
   24        6.435367   0.000000
 
  0.2801429E+00  0.2801429E+00  0.0000000E+00  0.5208333E-02
    1      -17.918237   1.000000
    2      -16.041156   1.000000
    3      -15.713625   1.000000
    4      -11.859821   1.000000
    5      -11.334146   1.000000
    6       -9.310782   1.000000
    7       -7.796750   1.000000
    8       -6.958741   1.000000
    9       -6.511327   1.000000
   10       -6.174594   1.000000
   11       -5.779570   1.000000
   12       -5.034206   1.000000
   13       -4.903562   1.000000
   14       -4.477224   1.000000
   15       -4.411077   1.000000
   16       -0.606470   0.000000
   17        0.507750   0.000000
   18        3.656302   0.000000
   19        4.810343   0.000000
   20        4.829866   0.000000
   21        4.906410   0.000000
   22        5.127894   0.000000
   23        6.207730   0.000000
   24        6.519675   0.000000
 
  0.2748571E+00  0.2748571E+00  0.0000000E+00  0.5208333E-02
    1      -17.927775   1.000000
    2      -16.038966   1.000000
    3      -15.688540   1.000000
    4      -11.890774   1.000000
    5      -11.337423   1.000000
    6       -9.264690   1.000000
    7       -7.881244   1.000000
    8       -6.997821   1.000000
    9       -6.488880   1.000000
   10       -6.201702   1.000000
   11       -5.747896   1.000000
   12       -5.017627   1.000000
   13       -4.889943   1.000000
   14       -4.439919   1.000000
   15       -4.356770   1.000000
   16       -0.655353   0.000000
   17        0.553832   0.000000
   18        3.591843   0.000000
   19        4.833878   0.000000
   20        4.861278   0.000000
   21        4.881198   0.000000
   22        5.060514   0.000000
   23        6.153958   0.000000
   24        6.602671   0.000000
 
  0.2695714E+00  0.2695714E+00  0.0000000E+00  0.5208333E-02
    1      -17.938210   1.000000
    2      -16.034595   1.000000
    3      -15.663093   1.000000
    4      -11.920957   1.000000
    5      -11.343557   1.000000
    6       -9.216201   1.000000
    7       -7.965698   1.000000
    8       -7.043612   1.000000
    9       -6.466193   1.000000
   10       -6.230535   1.000000
   11       -5.714805   1.000000
   12       -4.995597   1.000000
   13       -4.873062   1.000000
   14       -4.402073   1.000000
   15       -4.301978   1.000000
   16       -0.702876   0.000000
   17        0.598196   0.000000
   18        3.528584   0.000000
   19        4.760403   0.000000
   20        4.913401   0.000000
   21        4.933709   0.000000
   22        4.990800   0.000000
   23        6.099638   0.000000
   24        6.684237   0.000000
 
  0.2642857E+00  0.2642857E+00  0.0000000E+00  0.5208333E-02
    1      -17.949498   1.000000
    2      -16.028069   1.000000
    3      -15.637304   1.000000
    4      -11.950343   1.000000
    5      -11.352249   1.000000
    6       -9.166003   1.000000
    7       -8.049628   1.000000
    8       -7.095122   1.000000
    9       -6.443224   1.000000
   10       -6.260767   1.000000
   11       -5.681136   1.000000
   12       -4.968133   1.000000
   13       -4.853177   1.000000
   14       -4.363710   1.000000
   15       -4.246745   1.000000
   16       -0.748904   0.000000
   17        0.640854   0.000000
   18        3.466532   0.000000
   19        4.686118   0.000000
   20        4.919071   0.000000
   21        4.966708   0.000000
   22        4.987398   0.000000
   23        6.045081   0.000000
   24        6.764656   0.000000
 
  0.2590000E+00  0.2590000E+00  0.0000000E+00  0.5208333E-02
    1      -17.961597   1.000000
    2      -16.019429   1.000000
    3      -15.611195   1.000000
    4      -11.978912   1.000000
    5      -11.363219   1.000000
    6       -9.114958   1.000000
    7       -8.132386   1.000000
    8       -7.151498   1.000000
    9       -6.419969   1.000000
   10       -6.292190   1.000000
   11       -5.647631   1.000000
   12       -4.935401   1.000000
   13       -4.830541   1.000000
   14       -4.324861   1.000000
   15       -4.191267   1.000000
   16       -0.793523   0.000000
   17        0.681783   0.000000
   18        3.405687   0.000000
   19        4.610978   0.000000
   20        4.845301   0.000000
   21        5.021197   0.000000
   22        5.042266   0.000000
   23        5.990512   0.000000
   24        6.843930   0.000000
 
  0.2537143E+00  0.2537143E+00  0.0000000E+00  0.5208333E-02
    1      -17.974460   1.000000
    2      -16.008724   1.000000
    3      -15.584791   1.000000
    4      -12.006643   1.000000
    5      -11.376186   1.000000
    6       -9.064220   1.000000
    7       -8.213055   1.000000
    8       -7.211947   1.000000
    9       -6.396361   1.000000
   10       -6.324573   1.000000
   11       -5.614869   1.000000
   12       -4.897538   1.000000
   13       -4.805384   1.000000
   14       -4.285587   1.000000
   15       -4.135577   1.000000
   16       -0.836584   0.000000
   17        0.721086   0.000000
   18        3.346048   0.000000
   19        4.535095   0.000000
   20        4.769708   0.000000
   21        5.076864   0.000000
   22        5.098311   0.000000
   23        5.936100   0.000000
   24        6.922127   0.000000
 
  0.2484286E+00  0.2484286E+00  0.0000000E+00  0.5208333E-02
    1      -17.988029   1.000000
    2      -15.996011   1.000000
    3      -15.558116   1.000000
    4      -12.033520   1.000000
    5      -11.390898   1.000000
    6       -9.015539   1.000000
    7       -8.290141   1.000000
    8       -7.275812   1.000000
    9       -6.372383   1.000000
   10       -6.357703   1.000000
   11       -5.583295   1.000000
   12       -4.854842   1.000000
   13       -4.777959   1.000000
   14       -4.245941   1.000000
   15       -4.079817   1.000000
   16       -0.878163   0.000000
   17        0.758543   0.000000
   18        3.287619   0.000000
   19        4.458493   0.000000
   20        4.692279   0.000000
   21        5.133704   0.000000
   22        5.155527   0.000000
   23        5.881995   0.000000
   24        7.002396   0.000000
 
  0.2431429E+00  0.2431429E+00  0.0000000E+00  0.5208333E-02
    1      -18.002246   1.000000
    2      -15.981352   1.000000
    3      -15.531196   1.000000
    4      -12.059521   1.000000
    5      -11.407121   1.000000
    6       -8.971687   1.000000
    7       -8.361099   1.000000
    8       -7.342514   1.000000
    9       -6.391384   1.000000
   10       -6.347991   1.000000
   11       -5.553156   1.000000
   12       -4.807642   1.000000
   13       -4.748469   1.000000
   14       -4.205968   1.000000
   15       -4.024060   1.000000
   16       -0.918159   0.000000
   17        0.794257   0.000000
   18        3.230400   0.000000
   19        4.381225   0.000000
   20        4.613165   0.000000
   21        5.191712   0.000000
   22        5.213911   0.000000
   23        5.828324   0.000000
   24        7.086953   0.000000
 
  0.2378571E+00  0.2378571E+00  0.0000000E+00  0.5208333E-02
    1      -18.017047   1.000000
    2      -15.964803   1.000000
    3      -15.504056   1.000000
    4      -12.084626   1.000000
    5      -11.424642   1.000000
    6       -8.937237   1.000000
    7       -8.421505   1.000000
    8       -7.411545   1.000000
    9       -6.425437   1.000000
   10       -6.323128   1.000000
   11       -5.524524   1.000000
   12       -4.756312   1.000000
   13       -4.717064   1.000000
   14       -4.165709   1.000000
   15       -3.968386   1.000000
   16       -0.956525   0.000000
   17        0.828268   0.000000
   18        3.174396   0.000000
   19        4.303424   0.000000
   20        4.532471   0.000000
   21        5.250889   0.000000
   22        5.273468   0.000000
   23        5.775204   0.000000
   24        7.178816   0.000000
 
  0.2325714E+00  0.2325714E+00  0.0000000E+00  0.5208333E-02
    1      -18.032372   1.000000
    2      -15.946440   1.000000
    3      -15.476726   1.000000
    4      -12.108819   1.000000
    5      -11.443271   1.000000
    6       -8.919315   1.000000
    7       -8.464473   1.000000
    8       -7.482502   1.000000
    9       -6.459722   1.000000
   10       -6.297773   1.000000
   11       -5.497417   1.000000
   12       -4.701279   1.000000
   13       -4.683937   1.000000
   14       -4.125202   1.000000
   15       -3.912871   1.000000
   16       -0.993167   0.000000
   17        0.860571   0.000000
   18        3.119602   0.000000
   19        4.225107   0.000000
   20        4.450169   0.000000
   21        5.311224   0.000000
   22        5.334179   0.000000
   23        5.722717   0.000000
   24        7.127952   0.000000
 
  0.2272857E+00  0.2272857E+00  0.0000000E+00  0.5208333E-02
    1      -18.048155   1.000000
    2      -15.926333   1.000000
    3      -15.449237   1.000000
    4      -12.132077   1.000000
    5      -11.462837   1.000000
    6       -8.925568   1.000000
    7       -8.482557   1.000000
    8       -7.555011   1.000000
    9       -6.494095   1.000000
   10       -6.271865   1.000000
   11       -5.471799   1.000000
   12       -4.649239   1.000000
   13       -4.643013   1.000000
   14       -4.084560   1.000000
   15       -3.857622   1.000000
   16       -1.028119   0.000000
   17        0.891190   0.000000
   18        3.066020   0.000000
   19        4.146274   0.000000
   20        4.366616   0.000000
   21        5.372713   0.000000
   22        5.396042   0.000000
   23        5.670955   0.000000
   24        7.074462   0.000000
 
  0.2220000E+00  0.2220000E+00  0.0000000E+00  0.5208333E-02
    1      -18.064330   1.000000
    2      -15.904554   1.000000
    3      -15.421617   1.000000
    4      -12.154386   1.000000
    5      -11.483189   1.000000
    6       -8.958019   1.000000
    7       -8.473862   1.000000
    8       -7.628781   1.000000
    9       -6.528433   1.000000
   10       -6.245359   1.000000
   11       -5.447536   1.000000
   12       -4.613093   1.000000
   13       -4.581968   1.000000
   14       -4.043822   1.000000
   15       -3.802703   1.000000
   16       -1.061280   0.000000
   17        0.920205   0.000000
   18        3.013654   0.000000
   19        4.067089   0.000000
   20        4.281839   0.000000
   21        5.435351   0.000000
   22        5.459052   0.000000
   23        5.619993   0.000000
   24        7.022501   0.000000
 
  0.2167143E+00  0.2167143E+00  0.0000000E+00  0.5208333E-02
    1      -18.080837   1.000000
    2      -15.881176   1.000000
    3      -15.393901   1.000000
    4      -12.175724   1.000000
    5      -11.504193   1.000000
    6       -9.010984   1.000000
    7       -8.444293   1.000000
    8       -7.703508   1.000000
    9       -6.562637   1.000000
   10       -6.218203   1.000000
   11       -5.424498   1.000000
   12       -4.575657   1.000000
   13       -4.518511   1.000000
   14       -4.003061   1.000000
   15       -3.748179   1.000000
   16       -1.092590   0.000000
   17        0.947521   0.000000
   18        2.962502   0.000000
   19        3.987527   0.000000
   20        4.195819   0.000000
   21        5.499127   0.000000
   22        5.523204   0.000000
   23        5.569876   0.000000
   24        6.971702   0.000000
 
  0.2114286E+00  0.2114286E+00  0.0000000E+00  0.5208333E-02
    1      -18.097608   1.000000
    2      -15.856270   1.000000
    3      -15.366118   1.000000
    4      -12.196075   1.000000
    5      -11.525730   1.000000
    6       -9.076835   1.000000
    7       -8.401592   1.000000
    8       -7.778971   1.000000
    9       -6.596613   1.000000
   10       -6.190353   1.000000
   11       -5.402539   1.000000
   12       -4.537027   1.000000
   13       -4.453018   1.000000
   14       -3.962314   1.000000
   15       -3.694085   1.000000
   16       -1.121887   0.000000
   17        0.973276   0.000000
   18        2.912567   0.000000
   19        3.907704   0.000000
   20        4.108678   0.000000
   21        5.520670   0.000000
   22        5.564035   0.000000
   23        5.588487   0.000000
   24        6.922076   0.000000
 
  0.2061429E+00  0.2061429E+00  0.0000000E+00  0.5208333E-02
    1      -18.114585   1.000000
    2      -15.829917   1.000000
    3      -15.338308   1.000000
    4      -12.215423   1.000000
    5      -11.547699   1.000000
    6       -9.150090   1.000000
    7       -8.351383   1.000000
    8       -7.854965   1.000000
    9       -6.630259   1.000000
   10       -6.161771   1.000000
   11       -5.381553   1.000000
   12       -4.497321   1.000000
   13       -4.385923   1.000000
   14       -3.921734   1.000000
   15       -3.640559   1.000000
   16       -1.149304   0.000000
   17        0.997410   0.000000
   18        2.863848   0.000000
   19        3.827787   0.000000
   20        4.020580   0.000000
   21        5.472421   0.000000
   22        5.630056   0.000000
   23        5.654891   0.000000
   24        6.873620   0.000000
 
  0.2008571E+00  0.2008571E+00  0.0000000E+00  0.5208333E-02
    1      -18.131722   1.000000
    2      -15.802192   1.000000
    3      -15.310505   1.000000
    4      -12.233749   1.000000
    5      -11.570010   1.000000
    6       -9.227532   1.000000
    7       -8.296987   1.000000
    8       -7.931301   1.000000
    9       -6.663603   1.000000
   10       -6.132407   1.000000
   11       -5.361428   1.000000
   12       -4.456641   1.000000
   13       -4.317490   1.000000
   14       -3.881372   1.000000
   15       -3.587621   1.000000
   16       -1.174668   0.000000
   17        1.019987   0.000000
   18        2.816350   0.000000
   19        3.747629   0.000000
   20        3.931592   0.000000
   21        5.425149   0.000000
   22        5.697195   0.000000
   23        5.722401   0.000000
   24        6.826368   0.000000
 
  0.1955714E+00  0.1955714E+00  0.0000000E+00  0.5208333E-02
    1      -18.148940   1.000000
    2      -15.773168   1.000000
    3      -15.282748   1.000000
    4      -12.251042   1.000000
    5      -11.592591   1.000000
    6       -9.307314   1.000000
    7       -8.240425   1.000000
    8       -8.007831   1.000000
    9       -6.696427   1.000000
   10       -6.102223   1.000000
   11       -5.342063   1.000000
   12       -4.415082   1.000000
   13       -4.248085   1.000000
   14       -3.841319   1.000000
   15       -3.535410   1.000000
   16       -1.197906   0.000000
   17        1.041059   0.000000
   18        2.770068   0.000000
   19        3.667523   0.000000
   20        3.841777   0.000000
   21        5.378938   0.000000
   22        5.765419   0.000000
   23        5.790996   0.000000
   24        6.780281   0.000000
 
  0.1902857E+00  0.1902857E+00  0.0000000E+00  0.5208333E-02
    1      -18.166196   1.000000
    2      -15.742920   1.000000
    3      -15.255075   1.000000
    4      -12.267283   1.000000
    5      -11.615365   1.000000
    6       -9.388353   1.000000
    7       -8.182875   1.000000
    8       -8.084399   1.000000
    9       -6.728746   1.000000
   10       -6.071187   1.000000
   11       -5.323364   1.000000
   12       -4.372741   1.000000
   13       -4.177892   1.000000
   14       -3.801670   1.000000
   15       -3.483875   1.000000
   16       -1.218936   0.000000
   17        1.060659   0.000000
   18        2.725005   0.000000
   19        3.587467   0.000000
   20        3.751259   0.000000
   21        5.333799   0.000000
   22        5.834714   0.000000
   23        5.860660   0.000000
   24        6.735389   0.000000
 
  0.1850000E+00  0.1850000E+00  0.0000000E+00  0.5208333E-02
    1      -18.183438   1.000000
    2      -15.711520   1.000000
    3      -15.227528   1.000000
    4      -12.282469   1.000000
    5      -11.638288   1.000000
    6       -9.469919   1.000000
    7       -8.160848   1.000000
    8       -8.125107   1.000000
    9       -6.760520   1.000000
   10       -6.039260   1.000000
   11       -5.305245   1.000000
   12       -4.329690   1.000000
   13       -4.107175   1.000000
   14       -3.762601   1.000000
   15       -3.433115   1.000000
   16       -1.237761   0.000000
   17        1.078749   0.000000
   18        2.681162   0.000000
   19        3.507627   0.000000
   20        3.660153   0.000000
   21        5.289754   0.000000
   22        5.905055   0.000000
   23        5.931359   0.000000
   24        6.691713   0.000000
 
  0.1797143E+00  0.1797143E+00  0.0000000E+00  0.5208333E-02
    1      -18.200614   1.000000
    2      -15.679042   1.000000
    3      -15.200141   1.000000
    4      -12.296568   1.000000
    5      -11.661294   1.000000
    6       -9.551562   1.000000
    7       -8.237057   1.000000
    8       -8.067675   1.000000
    9       -6.791676   1.000000
   10       -6.006447   1.000000
   11       -5.287685   1.000000
   12       -4.286022   1.000000
   13       -4.036147   1.000000
   14       -3.724061   1.000000
   15       -3.383182   1.000000
   16       -1.254132   0.000000
   17        1.095516   0.000000
   18        2.638540   0.000000
   19        3.428051   0.000000
   20        3.568501   0.000000
   21        5.246842   0.000000
   22        5.976403   0.000000
   23        6.003056   0.000000
   24        6.649276   0.000000
 
  0.1744286E+00  0.1744286E+00  0.0000000E+00  0.5208333E-02
    1      -18.217678   1.000000
    2      -15.645558   1.000000
    3      -15.172961   1.000000
    4      -12.309577   1.000000
    5      -11.684351   1.000000
    6       -9.632950   1.000000
    7       -8.312912   1.000000
    8       -8.011001   1.000000
    9       -6.822189   1.000000
   10       -5.972700   1.000000
   11       -5.270632   1.000000
   12       -4.241820   1.000000
   13       -3.964938   1.000000
   14       -3.686229   1.000000
   15       -3.334190   1.000000
   16       -1.268055   0.000000
   17        1.110907   0.000000
   18        2.597140   0.000000
   19        3.348850   0.000000
   20        3.476407   0.000000
   21        5.205078   0.000000
   22        6.048702   0.000000
   23        6.075692   0.000000
   24        6.608128   0.000000
 
  0.1691429E+00  0.1691429E+00  0.0000000E+00  0.5208333E-02
    1      -18.234591   1.000000
    2      -15.611150   1.000000
    3      -15.146027   1.000000
    4      -12.321490   1.000000
    5      -11.707428   1.000000
    6       -9.713833   1.000000
    7       -8.388309   1.000000
    8       -7.955390   1.000000
    9       -6.852024   1.000000
   10       -5.938038   1.000000
   11       -5.254067   1.000000
   12       -4.197166   1.000000
   13       -3.893882   1.000000
   14       -3.649205   1.000000
   15       -3.286101   1.000000
   16       -1.279442   0.000000
   17        1.124979   0.000000
   18        2.556960   0.000000
   19        3.270126   0.000000
   20        3.383992   0.000000
   21        5.164482   0.000000
   22        6.121847   0.000000
   23        6.149183   0.000000
   24        6.568328   0.000000
 
  0.1638571E+00  0.1638571E+00  0.0000000E+00  0.5208333E-02
    1      -18.251312   1.000000
    2      -15.575887   1.000000
    3      -15.119390   1.000000
    4      -12.332299   1.000000
    5      -11.730500   1.000000
    6       -9.794008   1.000000
    7       -8.463134   1.000000
    8       -7.901071   1.000000
    9       -6.881154   1.000000
   10       -5.902539   1.000000
   11       -5.237978   1.000000
   12       -4.152148   1.000000
   13       -3.823024   1.000000
   14       -3.613119   1.000000
   15       -3.238996   1.000000
   16       -1.288219   0.000000
   17        1.137771   0.000000
   18        2.518003   0.000000
   19        3.191995   0.000000
   20        3.291294   0.000000
   21        5.125067   0.000000
   22        6.195623   0.000000
   23        6.223408   0.000000
   24        6.530068   0.000000
 
  0.1585714E+00  0.1585714E+00  0.0000000E+00  0.5208333E-02
    1      -18.267798   1.000000
    2      -15.539849   1.000000
    3      -15.093089   1.000000
    4      -12.341995   1.000000
    5      -11.753540   1.000000
    6       -9.873300   1.000000
    7       -8.537296   1.000000
    8       -7.848189   1.000000
    9       -6.909542   1.000000
   10       -5.866127   1.000000
   11       -5.222303   1.000000
   12       -4.106840   1.000000
   13       -3.752608   1.000000
   14       -3.578068   1.000000
   15       -3.192947   1.000000
   16       -1.294315   0.000000
   17        1.149342   0.000000
   18        2.480269   0.000000
   19        3.114562   0.000000
   20        3.198422   0.000000
   21        5.086852   0.000000
   22        6.269474   0.000000
   23        6.298201   0.000000
   24        6.493908   0.000000
 
  0.1532857E+00  0.1532857E+00  0.0000000E+00  0.5208333E-02
    1      -18.284016   1.000000
    2      -15.503113   1.000000
    3      -15.067171   1.000000
    4      -12.350578   1.000000
    5      -11.776536   1.000000
    6       -9.951551   1.000000
    7       -8.610683   1.000000
    8       -7.796988   1.000000
    9       -6.937168   1.000000
   10       -5.828886   1.000000
   11       -5.207061   1.000000
   12       -4.061337   1.000000
   13       -3.682753   1.000000
   14       -3.544148   1.000000
   15       -3.147988   1.000000
   16       -1.297651   0.000000
   17        1.159655   0.000000
   18        2.443759   0.000000
   19        3.037969   0.000000
   20        3.105469   0.000000