       N       E                     dE             d eps       ncg     rms          rms(c)
DAV:   1     0.130894950247E+03    0.13089E+03   -0.11346E+04  9216   0.893E+02
DAV:   2    -0.509361325480E+02   -0.18183E+03   -0.17028E+03 13248   0.182E+02
DAV:   3    -0.666887046618E+02   -0.15753E+02   -0.15613E+02 11808   0.628E+01
DAV:   4    -0.669383532008E+02   -0.24965E+00   -0.24944E+00 13020   0.926E+00
DAV:   5    -0.669448310377E+02   -0.64778E-02   -0.64774E-02 12540   0.134E+00
DAV:   6    -0.669451238712E+02   -0.29283E-03   -0.29283E-03 14772   0.275E-01
DAV:   7    -0.669451271734E+02   -0.33022E-05   -0.33023E-05 13104   0.217E-02
DAV:   8    -0.669451272483E+02   -0.74974E-07   -0.74739E-07 11124   0.280E-03
   1 F= -.66945127E+02 E0= -.66945127E+02  d E =-.234602E-06
