 vasp.5.4.4.18Apr17-6-g9f103f2a35 (build Mar 30 2023 15:39:25) complex          
  
 executed on             LinuxIFC date 2023.06.14  20:08:15
 running on   12 total cores
 distrk:  each k-point on   12 cores,    1 groups
 distr:  one band on NCORES_PER_BAND=   1 cores,   12 groups


--------------------------------------------------------------------------------------------------------


 INCAR:
 POTCAR:    PAW_PBE B 06Sep2000                   
 POTCAR:    PAW_PBE C 08Apr2002                   

 ----------------------------------------------------------------------------- 
|                                                                             |
|           W    W    AA    RRRRR   N    N  II  N    N   GGGG   !!!           |
|           W    W   A  A   R    R  NN   N  II  NN   N  G    G  !!!           |
|           W    W  A    A  R    R  N N  N  II  N N  N  G       !!!           |
|           W WW W  AAAAAA  RRRRR   N  N N  II  N  N N  G  GGG   !            |
|           WW  WW  A    A  R   R   N   NN  II  N   NN  G    G                |
|           W    W  A    A  R    R  N    N  II  N    N   GGGG   !!!           |
|                                                                             |
|      For optimal performance we recommend to set                            |
|        NCORE= 4 - approx SQRT( number of cores)                             |
|      NCORE specifies how many cores store one orbital (NPAR=cpu/NCORE).     |
|      This setting can  greatly improve the performance of VASP for DFT.     |
|      The default,   NCORE=1            might be grossly inefficient         |
|      on modern multi-core architectures or massively parallel machines.     |
|      Do your own testing !!!!                                               |
|      Unfortunately you need to use the default for GW and RPA calculations. |
|      (for HF NCORE is supported but not extensively tested yet)             |
|                                                                             |
 ----------------------------------------------------------------------------- 

 POTCAR:    PAW_PBE B 06Sep2000                   
   SHA256 =  a32ced30f5ae56fd4d10b4325ff17eb3e4e38ee0f4288bc219fb012fddfa6e97 B/
   COPYR  = (c) Copyright 06Sep2000 Georg Kresse                                
   COPYR  = This file is part of the software VASP. Any use, copying, and all ot
   COPYR  = If you do not have a valid VASP license, you may not use, copy or di
   VRHFIN =B: s2p1                                                              
   LEXCH  = PE                                                                  
   EATOM  =    71.1703 eV,    5.2309 Ry                                         
                                                                                
   TITEL  = PAW_PBE B 06Sep2000                                                 
   LULTRA =        F    use ultrasoft PP ?                                      
   IUNSCR =        1    unscreen: 0-lin 1-nonlin 2-no                           
   RPACOR =    1.200    partial core radius                                     
   POMASS =   10.811; ZVAL   =    3.000    mass and valenz                      
   RCORE  =    1.700    outmost cutoff radius                                   
   RWIGS  =    1.710; RWIGS  =    0.905    wigner-seitz radius (au A)           
   ENMAX  =  318.614; ENMIN  =  238.960 eV                                      
   ICORE  =        2    local potential                                         
   LCOR   =        T    correct aug charges                                     
   LPAW   =        T    paw PP                                                  
   EAUG   =  535.514                                                            
   DEXC   =    0.000                                                            
   RMAX   =    1.732    core radius for proj-oper                               
   RAUG   =    1.300    factor for augmentation sphere                          
   RDEP   =    1.757    radius for radial grids                                 
   RDEPT  =    1.436    core radius for aug-charge                              
                                                                                
   Atomic configuration                                                         
    4 entries                                                                   
     n  l   j            E        occ.                                          
     1  0  0.50      -180.5896   2.0000                                         
     2  0  0.50        -9.4431   2.0000                                         
     2  1  0.50        -3.6068   1.0000                                         
     3  2  1.50        -4.0817   0.0000                                         
   Description                                                                  
     l       E           TYP  RCUT    TYP  RCUT                                 
     0     -9.4430752     23  1.500                                             
     0      0.8675899     23  1.500                                             
     1     -3.6067955     23  1.700                                             
     1      6.1086146     23  1.700                                             
     2     -4.0817478      7  1.700                                             
  local pseudopotential read in
  partial core-charges read in
  partial kinetic energy density read in
  atomic valenz-charges read in
  non local Contribution for L=           0  read in
    real space projection operators read in
  non local Contribution for L=           0  read in
    real space projection operators read in
  non local Contribution for L=           1  read in
    real space projection operators read in
  non local Contribution for L=           1  read in
    real space projection operators read in
    PAW grid and wavefunctions read in
 
   number of l-projection  operators is LMAX  =           4
   number of lm-projection operators is LMMAX =           8
 
 POTCAR:    PAW_PBE C 08Apr2002                   
   SHA256 =  253f7b50bb8d59471dbedb8285d89021f4a42ed1a2c5d38a03a736e69125dd95 C/
   COPYR  = (c) Copyright 08Apr2002 Georg Kresse                                
   COPYR  = This file is part of the software VASP. Any use, copying, and all ot
   COPYR  = If you do not have a valid VASP license, you may not use, copy or di
   VRHFIN =C: s2p2                                                              
   LEXCH  = PE                                                                  
   EATOM  =   147.1560 eV,   10.8157 Ry                                         
                                                                                
   TITEL  = PAW_PBE C 08Apr2002                                                 
   LULTRA =        F    use ultrasoft PP ?                                      
   IUNSCR =        1    unscreen: 0-lin 1-nonlin 2-no                           
   RPACOR =    1.200    partial core radius                                     
   POMASS =   12.011; ZVAL   =    4.000    mass and valenz                      
   RCORE  =    1.500    outmost cutoff radius                                   
   RWIGS  =    1.630; RWIGS  =    0.863    wigner-seitz radius (au A)           
   ENMAX  =  400.000; ENMIN  =  300.000 eV                                      
   ICORE  =        2    local potential                                         
   LCOR   =        T    correct aug charges                                     
   LPAW   =        T    paw PP                                                  
   EAUG   =  644.873                                                            
   DEXC   =    0.000                                                            
   RMAX   =    1.529    core radius for proj-oper                               
   RAUG   =    1.300    factor for augmentation sphere                          
   RDEP   =    1.501    radius for radial grids                                 
   RDEPT  =    1.300    core radius for aug-charge                              
                                                                                
   Atomic configuration                                                         
    4 entries                                                                   
     n  l   j            E        occ.                                          
     1  0  0.50      -273.3789   2.0000                                         
     2  0  0.50       -13.7508   2.0000                                         
     2  1  0.50        -5.2854   2.0000                                         
     3  2  1.50        -5.4423   0.0000                                         
   Description                                                                  
     l       E           TYP  RCUT    TYP  RCUT                                 
     0    -13.7508458     23  1.200                                             
     0     -8.2022199     23  1.200                                             
     1     -5.2854383     23  1.500                                             
     1     34.0145650     23  1.500                                             
     2     -5.4423304      7  1.500                                             
  local pseudopotential read in
  partial core-charges read in
  partial kinetic energy density read in
  atomic valenz-charges read in
  non local Contribution for L=           0  read in
    real space projection operators read in
  non local Contribution for L=           0  read in
    real space projection operators read in
  non local Contribution for L=           1  read in
    real space projection operators read in
  non local Contribution for L=           1  read in
    real space projection operators read in
    PAW grid and wavefunctions read in
 
   number of l-projection  operators is LMAX  =           4
   number of lm-projection operators is LMMAX =           8
 
  PAW_PBE B 06Sep2000                   :
 energy of atom  1       EATOM=  -71.1703
 kinetic energy error for atom=    0.0015 (will be added to EATOM!!)
  PAW_PBE C 08Apr2002                   :
 energy of atom  2       EATOM= -147.1560
 kinetic energy error for atom=    0.0116 (will be added to EATOM!!)
 
 
 POSCAR: BC3 with lattice parameter 5.174Ang, len
  positions in direct lattice
  velocities in cartesian coordinates
 exchange correlation table for  LEXCH =        8
   RHO(1)=    0.500       N(1)  =     2000
   RHO(2)=  100.500       N(2)  =     4000
 


--------------------------------------------------------------------------------------------------------


 ion  position               nearest neighbor table
   1  0.333  0.667  0.250-   3 1.57   7 1.57   5 1.57
   2  0.667  0.333  0.250-   4 1.57   8 1.57   6 1.57
   3  0.159  0.317  0.250-   6 1.42   4 1.42   1 1.57
   4  0.317  0.159  0.250-   5 1.42   3 1.42   2 1.57
   5  0.159  0.841  0.250-   4 1.42   8 1.42   1 1.57
   6  0.841  0.159  0.250-   3 1.42   7 1.42   2 1.57
   7  0.683  0.841  0.250-   6 1.42   8 1.42   1 1.57
   8  0.841  0.683  0.250-   5 1.42   7 1.42   2 1.57
 
  LATTYP: Found a hexagonal cell.
 ALAT       =     5.1740377035
 C/A-ratio  =     1.6467258045
  
  Lattice vectors:
  
 A1 = (   4.4808484340,   2.5870188517,   0.0000000000)
 A2 = (  -4.4808484340,   2.5870188517,   0.0000000000)
 A3 = (   0.0000000000,   0.0000000000,   8.5202213998)


Analysis of symmetry for initial positions (statically):
=====================================================================
 Subroutine PRICEL returns:
 Original cell was already a primitive cell.
 

 Routine SETGRP: Setting up the symmetry group for a 
 hexagonal supercell.


 Subroutine GETGRP returns: Found 24 space group operations
 (whereof 12 operations were pure point group operations)
 out of a pool of 24 trial point group operations.


The static configuration has the point symmetry C_6v.
 The point group associated with its full space group is D_6h.


Analysis of symmetry for dynamics (positions and initial velocities):
=====================================================================
 Subroutine PRICEL returns:
 Original cell was already a primitive cell.
 

 Routine SETGRP: Setting up the symmetry group for a 
 hexagonal supercell.


 Subroutine GETGRP returns: Found 24 space group operations
 (whereof 12 operations were pure point group operations)
 out of a pool of 24 trial point group operations.


The dynamic configuration has the point symmetry C_6v.
 The point group associated with its full space group is D_6h.


 Subroutine INISYM returns: Found 24 space group operations
 (whereof 12 operations are pure point group operations),
 and found     1 'primitive' translations

 
 
 KPOINTS: K-points for BC3 bandstructure          
  interpolating k-points between supplied coordinates
  k-points in reciprocal lattice
Space group operators:
 irot       det(A)        alpha          n_x          n_y          n_z        tau_x        tau_y        tau_z
    1     1.000000     0.000000     1.000000     0.000000     0.000000     0.000000     0.000000     0.000000
    2     1.000000    60.000000     0.000000     0.000000    -1.000000     0.000000     0.000000     0.000000
    3     1.000000   120.000000     0.000000     0.000000    -1.000000     0.000000     0.000000     0.000000
    4     1.000000   180.000000     0.000000     0.000000     1.000000     0.000000     0.000000     0.000000
    5     1.000000   120.000000     0.000000     0.000000     1.000000     0.000000     0.000000     0.000000
    6     1.000000    60.000000     0.000000     0.000000     1.000000     0.000000     0.000000     0.000000
    7    -1.000000   180.000000     0.866025     0.500000     0.000000     0.000000     0.000000     0.000000
    8    -1.000000   180.000000     1.000000     0.000000     0.000000     0.000000     0.000000     0.000000
    9    -1.000000   180.000000     0.866025    -0.500000     0.000000     0.000000     0.000000     0.000000
   10    -1.000000   180.000000     0.500000    -0.866025     0.000000     0.000000     0.000000     0.000000
   11    -1.000000   180.000000     0.000000     1.000000     0.000000     0.000000     0.000000     0.000000
   12    -1.000000   180.000000    -0.500000    -0.866025     0.000000     0.000000     0.000000     0.000000
   13    -1.000000     0.000000     1.000000     0.000000     0.000000     0.000000     0.000000     0.500000
   14    -1.000000    60.000000     0.000000     0.000000    -1.000000     0.000000     0.000000     0.500000
   15    -1.000000   120.000000     0.000000     0.000000    -1.000000     0.000000     0.000000     0.500000
   16    -1.000000   180.000000     0.000000     0.000000     1.000000     0.000000     0.000000     0.500000
   17    -1.000000   120.000000     0.000000     0.000000     1.000000     0.000000     0.000000     0.500000
   18    -1.000000    60.000000     0.000000     0.000000     1.000000     0.000000     0.000000     0.500000
   19     1.000000   180.000000     0.866025     0.500000     0.000000     0.000000     0.000000     0.500000
   20     1.000000   180.000000     1.000000     0.000000     0.000000     0.000000     0.000000     0.500000
   21     1.000000   180.000000     0.866025    -0.500000     0.000000     0.000000     0.000000     0.500000
   22     1.000000   180.000000     0.500000    -0.866025     0.000000     0.000000     0.000000     0.500000
   23     1.000000   180.000000     0.000000     1.000000     0.000000     0.000000     0.000000     0.500000
   24     1.000000   180.000000    -0.500000    -0.866025     0.000000     0.000000     0.000000     0.500000


--------------------------------------------------------------------------------------------------------




 Dimension of arrays:
   k-points           NKPTS =    192   k-points in BZ     NKDIM =    192   number of bands    NBANDS=     24
   number of dos      NEDOS =    301   number of ions     NIONS =      8
   non local maximal  LDIM  =      4   non local SUM 2l+1 LMDIM =      8
   total plane-waves  NPLWV =  77760
   max r-space proj   IRMAX =      1   max aug-charges    IRDMAX=   6338
   dimension x,y,z NGX =    36 NGY =   36 NGZ =   60
   dimension x,y,z NGXF=    72 NGYF=   72 NGZF=  120
   support grid    NGXF=    72 NGYF=   72 NGZF=  120
   ions per type =               2   6
   NGX,Y,Z   is equivalent  to a cutoff of  11.57, 11.57, 11.71 a.u.
   NGXF,Y,Z  is equivalent  to a cutoff of  23.13, 23.13, 23.41 a.u.

 SYSTEM =  BC3                                     
 POSCAR =  BC3 with lattice parameter 5.174Ang, len

 Startparameter for this run:
   NWRITE =      2    write-flag & timer
   PREC   = accura    normal or accurate (medium, high low for compatibility)
   ISTART =      0    job   : 0-new  1-cont  2-samecut
   ICHARG =     11    charge: 1-file 2-atom 10-const
   ISPIN  =      1    spin polarized calculation?
   LNONCOLLINEAR =      F non collinear calculations
   LSORBIT =      F    spin-orbit coupling
   INIWAV =      1    electr: 0-lowe 1-rand  2-diag
   LASPH  =      F    aspherical Exc in radial PAW
   METAGGA=      F    non-selfconsistent MetaGGA calc.

 Electronic Relaxation 1
   ENCUT  =  450.0 eV  33.07 Ry    5.75 a.u.   8.95  8.95 14.74*2*pi/ulx,y,z
   ENINI  =  450.0     initial cutoff
   ENAUG  =  644.9 eV  augmentation charge cutoff
   NELM   =     60;   NELMIN=  2; NELMDL= -5     # of ELM steps 
   EDIFF  = 0.1E-05   stopping-criterion for ELM
   LREAL  =      F    real-space projection
   NLSPLINE    = F    spline interpolate recip. space projectors
   LCOMPAT=      F    compatible to vasp.4.4
   GGA_COMPAT  = T    GGA compatible to vasp.4.4-vasp.4.6
   LMAXPAW     = -100 max onsite density
   LMAXMIX     =    2 max onsite mixed and CHGCAR
   VOSKOWN=      0    Vosko Wilk Nusair interpolation
   ROPT   =    0.00000   0.00000
 Ionic relaxation
   EDIFFG = -.1E-02   stopping-criterion for IOM
   NSW    =      0    number of steps for IOM
   NBLOCK =      1;   KBLOCK =      1    inner block; outer block 
   IBRION =     -1    ionic relax: 0-MD 1-quasi-New 2-CG
   NFREE  =      0    steps in history (QN), initial steepest desc. (CG)
   ISIF   =      2    stress and relaxation
   IWAVPR =     10    prediction:  0-non 1-charg 2-wave 3-comb
   ISYM   =      2    0-nonsym 1-usesym 2-fastsym
   LCORR  =      T    Harris-Foulkes like correction to forces

   POTIM  = 0.5000    time-step for ionic-motion
   TEIN   =    0.0    initial temperature
   TEBEG  =    0.0;   TEEND  =   0.0 temperature during run
   SMASS  =  -3.00    Nose mass-parameter (am)
   estimated Nose-frequenzy (Omega)   =  0.10E-29 period in steps =****** mass=  -0.612E-27a.u.
   SCALEE = 1.0000    scale energy and forces
   NPACO  =    256;   APACO  = 16.0  distance and # of slots for P.C.
   PSTRESS=    0.0 pullay stress

  Mass of Ions in am
   POMASS =  10.81 12.01
  Ionic Valenz
   ZVAL   =   3.00  4.00
  Atomic Wigner-Seitz radii
   RWIGS  =  -1.00 -1.00
  virtual crystal weights 
   VCA    =   1.00  1.00
   NELECT =      30.0000    total number of electrons
   NUPDOWN=      -1.0000    fix difference up-down

 DOS related values:
   EMIN   =  10.00;   EMAX   =-10.00  energy-range for DOS
   EFERMI =   0.00
   ISMEAR =     0;   SIGMA  =   0.10  broadening in eV -4-tet -1-fermi 0-gaus

 Electronic relaxation 2 (details)
   IALGO  =     38    algorithm
   LDIAG  =      T    sub-space diagonalisation (order eigenvalues)
   LSUBROT=      F    optimize rotation matrix (better conditioning)
   TURBO    =      0    0=normal 1=particle mesh
   IRESTART =      0    0=no restart 2=restart with 2 vectors
   NREBOOT  =      0    no. of reboots
   NMIN     =      0    reboot dimension
   EREF     =   0.00    reference energy to select bands
   IMIX   =      4    mixing-type and parameters
     AMIX     =   0.40;   BMIX     =  1.00
     AMIX_MAG =   1.60;   BMIX_MAG =  1.00
     AMIN     =   0.10
     WC   =   100.;   INIMIX=   1;  MIXPRE=   1;  MAXMIX= -45

 Intra band minimization:
   WEIMIN = 0.0000     energy-eigenvalue tresh-hold
   EBREAK =  0.10E-07  absolut break condition
   DEPER  =   0.30     relativ break condition  

   TIME   =   0.40     timestep for ELM

  volume/ion in A,a.u.               =      24.69       166.63
  Fermi-wavevector in a.u.,A,eV,Ry     =   0.873444  1.650570 10.379942  0.762904
  Thomas-Fermi vector in A             =   1.992835
 
 Write flags
   LWAVE        =      T    write WAVECAR
   LDOWNSAMPLE  =      F    k-point downsampling of WAVECAR
   LCHARG       =      T    write CHGCAR
   LVTOT        =      F    write LOCPOT, total local potential
   LVHAR        =      F    write LOCPOT, Hartree potential only
   LELF         =      F    write electronic localiz. function (ELF)
   LORBIT       =     11    0 simple, 1 ext, 2 COOP (PROOUT), +10 PAW based schemes


 Dipole corrections
   LMONO  =      F    monopole corrections only (constant potential shift)
   LDIPOL =      F    correct potential (dipole corrections)
   IDIPOL =      0    1-x, 2-y, 3-z, 4-all directions 
   EPSILON=  1.0000000 bulk dielectric constant

 Exchange correlation treatment:
   GGA     =    --    GGA type
   LEXCH   =     8    internal setting for exchange type
   VOSKOWN=      0    Vosko Wilk Nusair interpolation
   LHFCALC =     F    Hartree Fock is set to
   LHFONE  =     F    Hartree Fock one center treatment
   AEXX    =    0.0000 exact exchange contribution

 Linear response parameters
   LEPSILON=     F    determine dielectric tensor
   LRPA    =     F    only Hartree local field effects (RPA)
   LNABLA  =     F    use nabla operator in PAW spheres
   LVEL    =     F    velocity operator in full k-point grid
   LINTERFAST=   F  fast interpolation
   KINTER  =     0    interpolate to denser k-point grid
   CSHIFT  =0.1000    complex shift for real part using Kramers Kronig
   OMEGAMAX=  -1.0    maximum frequency
   DEG_THRESHOLD= 0.2000000E-02 threshold for treating states as degnerate
   RTIME   =   -0.100 relaxation time in fs
  (WPLASMAI=    0.000 imaginary part of plasma frequency in eV, 0.658/RTIME)
   DFIELD  = 0.0000000 0.0000000 0.0000000 field for delta impulse in time
 
 Orbital magnetization related:
   ORBITALMAG=     F  switch on orbital magnetization
   LCHIMAG   =     F  perturbation theory with respect to B field
   DQ        =  0.001000  dq finite difference perturbation B field
   LLRAUG    =     F  two centre corrections for induced B field



--------------------------------------------------------------------------------------------------------


 Static calculation
 charge density and potential remain constant during run
 non-spin polarized calculation
 Variant of blocked Davidson
 Davidson routine will perform the subspace rotation
 perform sub-space diagonalisation
    after iterative eigenvector-optimisation
 no mixing
 using additional bands            9
 reciprocal scheme for non local part
 use partial core corrections
 calculate Harris-corrections to forces 
   (improved forces if not selfconsistent)
 use gradient corrections 
 WARNING: stress and forces are not correct
  (second derivative of E(xc) not defined)
 use of overlap-Matrix (Vanderbilt PP)
 Gauss-broadening in eV      SIGMA  =   0.10


--------------------------------------------------------------------------------------------------------


  energy-cutoff  :      450.00
  volume of cell :      197.53
      direct lattice vectors                 reciprocal lattice vectors
     4.480848434  2.587018852  0.000000000     0.111586010  0.193272654  0.000000000
    -4.480848434  2.587018852  0.000000000    -0.111586010  0.193272654  0.000000000
     0.000000000  0.000000000  8.520221400     0.000000000  0.000000000  0.117367842

  length of vectors
     5.174038000  5.174038000  8.520221400     0.223172034  0.223172034  0.117367842


 
 k-points in units of 2pi/SCALE and weight: K-points for BC3 bandstructure          
   0.00000000  0.12871959  0.00000000       0.005
   0.00000000  0.12667642  0.00000000       0.005
   0.00000000  0.12463325  0.00000000       0.005
   0.00000000  0.12259008  0.00000000       0.005
   0.00000000  0.12054692  0.00000000       0.005
   0.00000000  0.11850375  0.00000000       0.005
   0.00000000  0.11646058  0.00000000       0.005
   0.00000000  0.11441741  0.00000000       0.005
   0.00000000  0.11237424  0.00000000       0.005
   0.00000000  0.11033108  0.00000000       0.005
   0.00000000  0.10828791  0.00000000       0.005
   0.00000000  0.10624474  0.00000000       0.005
   0.00000000  0.10420157  0.00000000       0.005
   0.00000000  0.10215840  0.00000000       0.005
   0.00000000  0.10011523  0.00000000       0.005
   0.00000000  0.09807207  0.00000000       0.005
   0.00000000  0.09602890  0.00000000       0.005
   0.00000000  0.09398573  0.00000000       0.005
   0.00000000  0.09194256  0.00000000       0.005
   0.00000000  0.08989939  0.00000000       0.005
   0.00000000  0.08785623  0.00000000       0.005
   0.00000000  0.08581306  0.00000000       0.005
   0.00000000  0.08376989  0.00000000       0.005
   0.00000000  0.08172672  0.00000000       0.005
   0.00000000  0.07968355  0.00000000       0.005
   0.00000000  0.07764039  0.00000000       0.005
   0.00000000  0.07559722  0.00000000       0.005
   0.00000000  0.07355405  0.00000000       0.005
   0.00000000  0.07151088  0.00000000       0.005
   0.00000000  0.06946771  0.00000000       0.005
   0.00000000  0.06742455  0.00000000       0.005
   0.00000000  0.06538138  0.00000000       0.005
   0.00000000  0.06333821  0.00000000       0.005
   0.00000000  0.06129504  0.00000000       0.005
   0.00000000  0.05925187  0.00000000       0.005
   0.00000000  0.05720871  0.00000000       0.005
   0.00000000  0.05516554  0.00000000       0.005
   0.00000000  0.05312237  0.00000000       0.005
   0.00000000  0.05107920  0.00000000       0.005
   0.00000000  0.04903603  0.00000000       0.005
   0.00000000  0.04699287  0.00000000       0.005
   0.00000000  0.04494970  0.00000000       0.005
   0.00000000  0.04290653  0.00000000       0.005
   0.00000000  0.04086336  0.00000000       0.005
   0.00000000  0.03882019  0.00000000       0.005
   0.00000000  0.03677703  0.00000000       0.005
   0.00000000  0.03473386  0.00000000       0.005
   0.00000000  0.03269069  0.00000000       0.005
   0.00000000  0.03064752  0.00000000       0.005
   0.00000000  0.02860435  0.00000000       0.005
   0.00000000  0.02656118  0.00000000       0.005
   0.00000000  0.02451802  0.00000000       0.005
   0.00000000  0.02247485  0.00000000       0.005
   0.00000000  0.02043168  0.00000000       0.005
   0.00000000  0.01838851  0.00000000       0.005
   0.00000000  0.01634534  0.00000000       0.005
   0.00000000  0.01430218  0.00000000       0.005
   0.00000000  0.01225901  0.00000000       0.005
   0.00000000  0.01021584  0.00000000       0.005
   0.00000000  0.00817267  0.00000000       0.005
   0.00000000  0.00612950  0.00000000       0.005
   0.00000000  0.00408634  0.00000000       0.005
   0.00000000  0.00204317  0.00000000       0.005
   0.00000000  0.00000000  0.00000000       0.005
   0.00000000  0.00000000  0.00000000       0.005
  -0.00088560  0.00153391  0.00000000       0.005
  -0.00177121  0.00306782  0.00000000       0.005
  -0.00265681  0.00460173  0.00000000       0.005
  -0.00354241  0.00613564  0.00000000       0.005
  -0.00442802  0.00766955  0.00000000       0.005
  -0.00531362  0.00920346  0.00000000       0.005
  -0.00619922  0.01073737  0.00000000       0.005
  -0.00708483  0.01227128  0.00000000       0.005
  -0.00797043  0.01380519  0.00000000       0.005
  -0.00885603  0.01533910  0.00000000       0.005
  -0.00974164  0.01687301  0.00000000       0.005
  -0.01062724  0.01840692  0.00000000       0.005
  -0.01151284  0.01994083  0.00000000       0.005
  -0.01239845  0.02147474  0.00000000       0.005
  -0.01328405  0.02300865  0.00000000       0.005
  -0.01416965  0.02454256  0.00000000       0.005
  -0.01505526  0.02607647  0.00000000       0.005
  -0.01594086  0.02761038  0.00000000       0.005
  -0.01682646  0.02914429  0.00000000       0.005
  -0.01771207  0.03067820  0.00000000       0.005
  -0.01859767  0.03221211  0.00000000       0.005
  -0.01948327  0.03374602  0.00000000       0.005
  -0.02036887  0.03527993  0.00000000       0.005
  -0.02125448  0.03681384  0.00000000       0.005
  -0.02214008  0.03834775  0.00000000       0.005
  -0.02302568  0.03988166  0.00000000       0.005
  -0.02391129  0.04141557  0.00000000       0.005
  -0.02479689  0.04294948  0.00000000       0.005
  -0.02568249  0.04448339  0.00000000       0.005
  -0.02656810  0.04601730  0.00000000       0.005
  -0.02745370  0.04755121  0.00000000       0.005
  -0.02833930  0.04908512  0.00000000       0.005
  -0.02922491  0.05061903  0.00000000       0.005
  -0.03011051  0.05215294  0.00000000       0.005
  -0.03099611  0.05368685  0.00000000       0.005
  -0.03188172  0.05522076  0.00000000       0.005
  -0.03276732  0.05675467  0.00000000       0.005
  -0.03365292  0.05828858  0.00000000       0.005
  -0.03453853  0.05982249  0.00000000       0.005
  -0.03542413  0.06135640  0.00000000       0.005
  -0.03630973  0.06289031  0.00000000       0.005
  -0.03719534  0.06442422  0.00000000       0.005
  -0.03808094  0.06595813  0.00000000       0.005
  -0.03896654  0.06749204  0.00000000       0.005
  -0.03985215  0.06902595  0.00000000       0.005
  -0.04073775  0.07055986  0.00000000       0.005
  -0.04162335  0.07209377  0.00000000       0.005
  -0.04250896  0.07362768  0.00000000       0.005
  -0.04339456  0.07516159  0.00000000       0.005
  -0.04428016  0.07669550  0.00000000       0.005
  -0.04516577  0.07822941  0.00000000       0.005
  -0.04605137  0.07976332  0.00000000       0.005
  -0.04693697  0.08129723  0.00000000       0.005
  -0.04782258  0.08283114  0.00000000       0.005
  -0.04870818  0.08436505  0.00000000       0.005
  -0.04959378  0.08589896  0.00000000       0.005
  -0.05047939  0.08743287  0.00000000       0.005
  -0.05136499  0.08896678  0.00000000       0.005
  -0.05225059  0.09050069  0.00000000       0.005
  -0.05313620  0.09203460  0.00000000       0.005
  -0.05402180  0.09356851  0.00000000       0.005
  -0.05490740  0.09510242  0.00000000       0.005
  -0.05579301  0.09663633  0.00000000       0.005
  -0.05579301  0.09663633  0.00000000       0.005
  -0.05490740  0.09714559  0.00000000       0.005
  -0.05402180  0.09765484  0.00000000       0.005
  -0.05313620  0.09816410  0.00000000       0.005
  -0.05225059  0.09867336  0.00000000       0.005
  -0.05136499  0.09918262  0.00000000       0.005
  -0.05047939  0.09969188  0.00000000       0.005
  -0.04959378  0.10020113  0.00000000       0.005
  -0.04870818  0.10071039  0.00000000       0.005
  -0.04782258  0.10121965  0.00000000       0.005
  -0.04693697  0.10172891  0.00000000       0.005
  -0.04605137  0.10223817  0.00000000       0.005
  -0.04516577  0.10274742  0.00000000       0.005
  -0.04428016  0.10325668  0.00000000       0.005
  -0.04339456  0.10376594  0.00000000       0.005
  -0.04250896  0.10427520  0.00000000       0.005
  -0.04162335  0.10478446  0.00000000       0.005
  -0.04073775  0.10529371  0.00000000       0.005
  -0.03985215  0.10580297  0.00000000       0.005
  -0.03896654  0.10631223  0.00000000       0.005
  -0.03808094  0.10682149  0.00000000       0.005
  -0.03719534  0.10733075  0.00000000       0.005
  -0.03630973  0.10784001  0.00000000       0.005
  -0.03542413  0.10834926  0.00000000       0.005
  -0.03453853  0.10885852  0.00000000       0.005
  -0.03365292  0.10936778  0.00000000       0.005
  -0.03276732  0.10987704  0.00000000       0.005
  -0.03188172  0.11038630  0.00000000       0.005
  -0.03099611  0.11089555  0.00000000       0.005
  -0.03011051  0.11140481  0.00000000       0.005
  -0.02922491  0.11191407  0.00000000       0.005
  -0.02833930  0.11242333  0.00000000       0.005
  -0.02745370  0.11293259  0.00000000       0.005
  -0.02656810  0.11344184  0.00000000       0.005
  -0.02568249  0.11395110  0.00000000       0.005
  -0.02479689  0.11446036  0.00000000       0.005
  -0.02391129  0.11496962  0.00000000       0.005
  -0.02302568  0.11547888  0.00000000       0.005
  -0.02214008  0.11598814  0.00000000       0.005
  -0.02125448  0.11649739  0.00000000       0.005
  -0.02036887  0.11700665  0.00000000       0.005
  -0.01948327  0.11751591  0.00000000       0.005
  -0.01859767  0.11802517  0.00000000       0.005
  -0.01771207  0.11853443  0.00000000       0.005
  -0.01682646  0.11904368  0.00000000       0.005
  -0.01594086  0.11955294  0.00000000       0.005
  -0.01505526  0.12006220  0.00000000       0.005
  -0.01416965  0.12057146  0.00000000       0.005
  -0.01328405  0.12108072  0.00000000       0.005
  -0.01239845  0.12158997  0.00000000       0.005
  -0.01151284  0.12209923  0.00000000       0.005
  -0.01062724  0.12260849  0.00000000       0.005
  -0.00974164  0.12311775  0.00000000       0.005
  -0.00885603  0.12362701  0.00000000       0.005
  -0.00797043  0.12413626  0.00000000       0.005
  -0.00708483  0.12464552  0.00000000       0.005
  -0.00619922  0.12515478  0.00000000       0.005
  -0.00531362  0.12566404  0.00000000       0.005
  -0.00442802  0.12617330  0.00000000       0.005
  -0.00354241  0.12668256  0.00000000       0.005
  -0.00265681  0.12719181  0.00000000       0.005
  -0.00177121  0.12770107  0.00000000       0.005
  -0.00088560  0.12821033  0.00000000       0.005
   0.00000000  0.12871959  0.00000000       0.005
 
 k-points in reciprocal lattice and weights: K-points for BC3 bandstructure          
   0.33300000  0.33300000  0.00000000       0.005
   0.32771429  0.32771429  0.00000000       0.005
   0.32242857  0.32242857  0.00000000       0.005
   0.31714286  0.31714286  0.00000000       0.005
   0.31185714  0.31185714  0.00000000       0.005
   0.30657143  0.30657143  0.00000000       0.005
   0.30128571  0.30128571  0.00000000       0.005
   0.29600000  0.29600000  0.00000000       0.005
   0.29071429  0.29071429  0.00000000       0.005
   0.28542857  0.28542857  0.00000000       0.005
   0.28014286  0.28014286  0.00000000       0.005
   0.27485714  0.27485714  0.00000000       0.005
   0.26957143  0.26957143  0.00000000       0.005
   0.26428571  0.26428571  0.00000000       0.005
   0.25900000  0.25900000  0.00000000       0.005
   0.25371429  0.25371429  0.00000000       0.005
   0.24842857  0.24842857  0.00000000       0.005
   0.24314286  0.24314286  0.00000000       0.005
   0.23785714  0.23785714  0.00000000       0.005
   0.23257143  0.23257143  0.00000000       0.005
   0.22728571  0.22728571  0.00000000       0.005
   0.22200000  0.22200000  0.00000000       0.005
   0.21671429  0.21671429  0.00000000       0.005
   0.21142857  0.21142857  0.00000000       0.005
   0.20614286  0.20614286  0.00000000       0.005
   0.20085714  0.20085714  0.00000000       0.005
   0.19557143  0.19557143  0.00000000       0.005
   0.19028571  0.19028571  0.00000000       0.005
   0.18500000  0.18500000  0.00000000       0.005
   0.17971429  0.17971429  0.00000000       0.005
   0.17442857  0.17442857  0.00000000       0.005
   0.16914286  0.16914286  0.00000000       0.005
   0.16385714  0.16385714  0.00000000       0.005
   0.15857143  0.15857143  0.00000000       0.005
   0.15328571  0.15328571  0.00000000       0.005
   0.14800000  0.14800000  0.00000000       0.005
   0.14271429  0.14271429  0.00000000       0.005
   0.13742857  0.13742857  0.00000000       0.005
   0.13214286  0.13214286  0.00000000       0.005
   0.12685714  0.12685714  0.00000000       0.005
   0.12157143  0.12157143  0.00000000       0.005
   0.11628571  0.11628571  0.00000000       0.005
   0.11100000  0.11100000  0.00000000       0.005
   0.10571429  0.10571429  0.00000000       0.005
   0.10042857  0.10042857  0.00000000       0.005
   0.09514286  0.09514286  0.00000000       0.005
   0.08985714  0.08985714  0.00000000       0.005
   0.08457143  0.08457143  0.00000000       0.005
   0.07928571  0.07928571  0.00000000       0.005
   0.07400000  0.07400000  0.00000000       0.005
   0.06871429  0.06871429  0.00000000       0.005
   0.06342857  0.06342857  0.00000000       0.005
   0.05814286  0.05814286  0.00000000       0.005
   0.05285714  0.05285714  0.00000000       0.005
   0.04757143  0.04757143  0.00000000       0.005
   0.04228571  0.04228571  0.00000000       0.005
   0.03700000  0.03700000  0.00000000       0.005
   0.03171429  0.03171429  0.00000000       0.005
   0.02642857  0.02642857  0.00000000       0.005
   0.02114286  0.02114286  0.00000000       0.005
   0.01585714  0.01585714  0.00000000       0.005
   0.01057143  0.01057143  0.00000000       0.005
   0.00528571  0.00528571  0.00000000       0.005
   0.00000000  0.00000000  0.00000000       0.005
   0.00000000  0.00000000  0.00000000       0.005
   0.00000000  0.00793651  0.00000000       0.005
   0.00000000  0.01587302  0.00000000       0.005
   0.00000000  0.02380952  0.00000000       0.005
   0.00000000  0.03174603  0.00000000       0.005
   0.00000000  0.03968254  0.00000000       0.005
   0.00000000  0.04761905  0.00000000       0.005
   0.00000000  0.05555556  0.00000000       0.005
   0.00000000  0.06349206  0.00000000       0.005
   0.00000000  0.07142857  0.00000000       0.005
   0.00000000  0.07936508  0.00000000       0.005
   0.00000000  0.08730159  0.00000000       0.005
   0.00000000  0.09523810  0.00000000       0.005
   0.00000000  0.10317460  0.00000000       0.005
   0.00000000  0.11111111  0.00000000       0.005
   0.00000000  0.11904762  0.00000000       0.005
   0.00000000  0.12698413  0.00000000       0.005
   0.00000000  0.13492063  0.00000000       0.005
   0.00000000  0.14285714  0.00000000       0.005
   0.00000000  0.15079365  0.00000000       0.005
   0.00000000  0.15873016  0.00000000       0.005
   0.00000000  0.16666667  0.00000000       0.005
   0.00000000  0.17460317  0.00000000       0.005
   0.00000000  0.18253968  0.00000000       0.005
   0.00000000  0.19047619  0.00000000       0.005
   0.00000000  0.19841270  0.00000000       0.005
   0.00000000  0.20634921  0.00000000       0.005
   0.00000000  0.21428571  0.00000000       0.005
   0.00000000  0.22222222  0.00000000       0.005
   0.00000000  0.23015873  0.00000000       0.005
   0.00000000  0.23809524  0.00000000       0.005
   0.00000000  0.24603175  0.00000000       0.005
   0.00000000  0.25396825  0.00000000       0.005
   0.00000000  0.26190476  0.00000000       0.005
   0.00000000  0.26984127  0.00000000       0.005
   0.00000000  0.27777778  0.00000000       0.005
   0.00000000  0.28571429  0.00000000       0.005
   0.00000000  0.29365079  0.00000000       0.005
   0.00000000  0.30158730  0.00000000       0.005
   0.00000000  0.30952381  0.00000000       0.005
   0.00000000  0.31746032  0.00000000       0.005
   0.00000000  0.32539683  0.00000000       0.005
   0.00000000  0.33333333  0.00000000       0.005
   0.00000000  0.34126984  0.00000000       0.005
   0.00000000  0.34920635  0.00000000       0.005
   0.00000000  0.35714286  0.00000000       0.005
   0.00000000  0.36507937  0.00000000       0.005
   0.00000000  0.37301587  0.00000000       0.005
   0.00000000  0.38095238  0.00000000       0.005
   0.00000000  0.38888889  0.00000000       0.005
   0.00000000  0.39682540  0.00000000       0.005
   0.00000000  0.40476190  0.00000000       0.005
   0.00000000  0.41269841  0.00000000       0.005
   0.00000000  0.42063492  0.00000000       0.005
   0.00000000  0.42857143  0.00000000       0.005
   0.00000000  0.43650794  0.00000000       0.005
   0.00000000  0.44444444  0.00000000       0.005
   0.00000000  0.45238095  0.00000000       0.005
   0.00000000  0.46031746  0.00000000       0.005
   0.00000000  0.46825397  0.00000000       0.005
   0.00000000  0.47619048  0.00000000       0.005
   0.00000000  0.48412698  0.00000000       0.005
   0.00000000  0.49206349  0.00000000       0.005
   0.00000000  0.50000000  0.00000000       0.005
   0.00000000  0.50000000  0.00000000       0.005
   0.00528571  0.49734921  0.00000000       0.005
   0.01057143  0.49469841  0.00000000       0.005
   0.01585714  0.49204762  0.00000000       0.005
   0.02114286  0.48939683  0.00000000       0.005
   0.02642857  0.48674603  0.00000000       0.005
   0.03171429  0.48409524  0.00000000       0.005
   0.03700000  0.48144444  0.00000000       0.005
   0.04228571  0.47879365  0.00000000       0.005
   0.04757143  0.47614286  0.00000000       0.005
   0.05285714  0.47349206  0.00000000       0.005
   0.05814286  0.47084127  0.00000000       0.005
   0.06342857  0.46819048  0.00000000       0.005
   0.06871429  0.46553968  0.00000000       0.005
   0.07400000  0.46288889  0.00000000       0.005
   0.07928571  0.46023810  0.00000000       0.005
   0.08457143  0.45758730  0.00000000       0.005
   0.08985714  0.45493651  0.00000000       0.005
   0.09514286  0.45228571  0.00000000       0.005
   0.10042857  0.44963492  0.00000000       0.005
   0.10571429  0.44698413  0.00000000       0.005
   0.11100000  0.44433333  0.00000000       0.005
   0.11628571  0.44168254  0.00000000       0.005
   0.12157143  0.43903175  0.00000000       0.005
   0.12685714  0.43638095  0.00000000       0.005
   0.13214286  0.43373016  0.00000000       0.005
   0.13742857  0.43107937  0.00000000       0.005
   0.14271429  0.42842857  0.00000000       0.005
   0.14800000  0.42577778  0.00000000       0.005
   0.15328571  0.42312698  0.00000000       0.005
   0.15857143  0.42047619  0.00000000       0.005
   0.16385714  0.41782540  0.00000000       0.005
   0.16914286  0.41517460  0.00000000       0.005
   0.17442857  0.41252381  0.00000000       0.005
   0.17971429  0.40987302  0.00000000       0.005
   0.18500000  0.40722222  0.00000000       0.005
   0.19028571  0.40457143  0.00000000       0.005
   0.19557143  0.40192063  0.00000000       0.005
   0.20085714  0.39926984  0.00000000       0.005
   0.20614286  0.39661905  0.00000000       0.005
   0.21142857  0.39396825  0.00000000       0.005
   0.21671429  0.39131746  0.00000000       0.005
   0.22200000  0.38866667  0.00000000       0.005
   0.22728571  0.38601587  0.00000000       0.005
   0.23257143  0.38336508  0.00000000       0.005
   0.23785714  0.38071429  0.00000000       0.005
   0.24314286  0.37806349  0.00000000       0.005
   0.24842857  0.37541270  0.00000000       0.005
   0.25371429  0.37276190  0.00000000       0.005
   0.25900000  0.37011111  0.00000000       0.005
   0.26428571  0.36746032  0.00000000       0.005
   0.26957143  0.36480952  0.00000000       0.005
   0.27485714  0.36215873  0.00000000       0.005
   0.28014286  0.35950794  0.00000000       0.005
   0.28542857  0.35685714  0.00000000       0.005
   0.29071429  0.35420635  0.00000000       0.005
   0.29600000  0.35155556  0.00000000       0.005
   0.30128571  0.34890476  0.00000000       0.005
   0.30657143  0.34625397  0.00000000       0.005
   0.31185714  0.34360317  0.00000000       0.005
   0.31714286  0.34095238  0.00000000       0.005
   0.32242857  0.33830159  0.00000000       0.005
   0.32771429  0.33565079  0.00000000       0.005
   0.33300000  0.33300000  0.00000000       0.005
 
 position of ions in fractional coordinates (direct lattice) 
   0.33333300  0.66666600  0.25000000
   0.66666600  0.33333300  0.25000000
   0.15869124  0.31738348  0.25000000
   0.31738348  0.15869124  0.25000000
   0.15869124  0.84130776  0.25000000
   0.84130776  0.15869124  0.25000000
   0.68261552  0.84130776  0.25000000
   0.84130776  0.68261552  0.25000000
 
 position of ions in cartesian coordinates  (Angst):
  -1.49361465  2.58701626  2.13005535
   1.49361465  2.58701626  2.13005535
  -0.71107588  1.23161429  2.13005535
   0.71107588  1.23161429  2.13005535
  -3.05870114  2.58701626  2.13005535
   3.05870114  2.58701626  2.13005535
  -0.71107588  3.94241824  2.13005535
   0.71107588  3.94241824  2.13005535
 


--------------------------------------------------------------------------------------------------------


 k-point  1 :   0.3330 0.3330 0.0000  plane waves:    4323
 k-point  2 :   0.3277 0.3277 0.0000  plane waves:    4315
 k-point  3 :   0.3224 0.3224 0.0000  plane waves:    4325
 k-point  4 :   0.3171 0.3171 0.0000  plane waves:    4317
 k-point  5 :   0.3119 0.3119 0.0000  plane waves:    4313
 k-point  6 :   0.3066 0.3066 0.0000  plane waves:    4303
 k-point  7 :   0.3013 0.3013 0.0000  plane waves:    4303
 k-point  8 :   0.2960 0.2960 0.0000  plane waves:    4295
 k-point  9 :   0.2907 0.2907 0.0000  plane waves:    4299
 k-point 10 :   0.2854 0.2854 0.0000  plane waves:    4297
 k-point 11 :   0.2801 0.2801 0.0000  plane waves:    4297
 k-point 12 :   0.2749 0.2749 0.0000  plane waves:    4289
 k-point 13 :   0.2696 0.2696 0.0000  plane waves:    4293
 k-point 14 :   0.2643 0.2643 0.0000  plane waves:    4291
 k-point 15 :   0.2590 0.2590 0.0000  plane waves:    4291
 k-point 16 :   0.2537 0.2537 0.0000  plane waves:    4283
 k-point 17 :   0.2484 0.2484 0.0000  plane waves:    4283
 k-point 18 :   0.2431 0.2431 0.0000  plane waves:    4287
 k-point 19 :   0.2379 0.2379 0.0000  plane waves:    4281
 k-point 20 :   0.2326 0.2326 0.0000  plane waves:    4273
 k-point 21 :   0.2273 0.2273 0.0000  plane waves:    4273
 k-point 22 :   0.2220 0.2220 0.0000  plane waves:    4273
 k-point 23 :   0.2167 0.2167 0.0000  plane waves:    4273
 k-point 24 :   0.2114 0.2114 0.0000  plane waves:    4269
 k-point 25 :   0.2061 0.2061 0.0000  plane waves:    4267
 k-point 26 :   0.2009 0.2009 0.0000  plane waves:    4263
 k-point 27 :   0.1956 0.1956 0.0000  plane waves:    4267
 k-point 28 :   0.1903 0.1903 0.0000  plane waves:    4271
 k-point 29 :   0.1850 0.1850 0.0000  plane waves:    4275
 k-point 30 :   0.1797 0.1797 0.0000  plane waves:    4271
 k-point 31 :   0.1744 0.1744 0.0000  plane waves:    4267
 k-point 32 :   0.1691 0.1691 0.0000  plane waves:    4267
 k-point 33 :   0.1639 0.1639 0.0000  plane waves:    4271
 k-point 34 :   0.1586 0.1586 0.0000  plane waves:    4271
 k-point 35 :   0.1533 0.1533 0.0000  plane waves:    4275
 k-point 36 :   0.1480 0.1480 0.0000  plane waves:    4275
 k-point 37 :   0.1427 0.1427 0.0000  plane waves:    4277
 k-point 38 :   0.1374 0.1374 0.0000  plane waves:    4273
 k-point 39 :   0.1321 0.1321 0.0000  plane waves:    4269
 k-point 40 :   0.1269 0.1269 0.0000  plane waves:    4269
 k-point 41 :   0.1216 0.1216 0.0000  plane waves:    4271
 k-point 42 :   0.1163 0.1163 0.0000  plane waves:    4263
 k-point 43 :   0.1110 0.1110 0.0000  plane waves:    4267
 k-point 44 :   0.1057 0.1057 0.0000  plane waves:    4263
 k-point 45 :   0.1004 0.1004 0.0000  plane waves:    4259
 k-point 46 :   0.0951 0.0951 0.0000  plane waves:    4263
 k-point 47 :   0.0899 0.0899 0.0000  plane waves:    4271
 k-point 48 :   0.0846 0.0846 0.0000  plane waves:    4273
 k-point 49 :   0.0793 0.0793 0.0000  plane waves:    4273
 k-point 50 :   0.0740 0.0740 0.0000  plane waves:    4267
 k-point 51 :   0.0687 0.0687 0.0000  plane waves:    4275
 k-point 52 :   0.0634 0.0634 0.0000  plane waves:    4267
 k-point 53 :   0.0581 0.0581 0.0000  plane waves:    4263
 k-point 54 :   0.0529 0.0529 0.0000  plane waves:    4263
 k-point 55 :   0.0476 0.0476 0.0000  plane waves:    4267
 k-point 56 :   0.0423 0.0423 0.0000  plane waves:    4263
 k-point 57 :   0.0370 0.0370 0.0000  plane waves:    4263
 k-point 58 :   0.0317 0.0317 0.0000  plane waves:    4261
 k-point 59 :   0.0264 0.0264 0.0000  plane waves:    4269
 k-point 60 :   0.0211 0.0211 0.0000  plane waves:    4271
 k-point 61 :   0.0159 0.0159 0.0000  plane waves:    4271
 k-point 62 :   0.0106 0.0106 0.0000  plane waves:    4271
 k-point 63 :   0.0053 0.0053 0.0000  plane waves:    4271
 k-point 64 :   0.0000 0.0000 0.0000  plane waves:    4271
 k-point 65 :   0.0000 0.0000 0.0000  plane waves:    4271
 k-point 66 :   0.0000 0.0079 0.0000  plane waves:    4271
 k-point 67 :   0.0000 0.0159 0.0000  plane waves:    4271
 k-point 68 :   0.0000 0.0238 0.0000  plane waves:    4271
 k-point 69 :   0.0000 0.0317 0.0000  plane waves:    4271
 k-point 70 :   0.0000 0.0397 0.0000  plane waves:    4267
 k-point 71 :   0.0000 0.0476 0.0000  plane waves:    4267
 k-point 72 :   0.0000 0.0556 0.0000  plane waves:    4271
 k-point 73 :   0.0000 0.0635 0.0000  plane waves:    4267
 k-point 74 :   0.0000 0.0714 0.0000  plane waves:    4257
 k-point 75 :   0.0000 0.0794 0.0000  plane waves:    4257
 k-point 76 :   0.0000 0.0873 0.0000  plane waves:    4261
 k-point 77 :   0.0000 0.0952 0.0000  plane waves:    4265
 k-point 78 :   0.0000 0.1032 0.0000  plane waves:    4261
 k-point 79 :   0.0000 0.1111 0.0000  plane waves:    4261
 k-point 80 :   0.0000 0.1190 0.0000  plane waves:    4261
 k-point 81 :   0.0000 0.1270 0.0000  plane waves:    4261
 k-point 82 :   0.0000 0.1349 0.0000  plane waves:    4265
 k-point 83 :   0.0000 0.1429 0.0000  plane waves:    4271
 k-point 84 :   0.0000 0.1508 0.0000  plane waves:    4275
 k-point 85 :   0.0000 0.1587 0.0000  plane waves:    4273
 k-point 86 :   0.0000 0.1667 0.0000  plane waves:    4273
 k-point 87 :   0.0000 0.1746 0.0000  plane waves:    4265
 k-point 88 :   0.0000 0.1825 0.0000  plane waves:    4271
 k-point 89 :   0.0000 0.1905 0.0000  plane waves:    4267
 k-point 90 :   0.0000 0.1984 0.0000  plane waves:    4273
 k-point 91 :   0.0000 0.2063 0.0000  plane waves:    4271
 k-point 92 :   0.0000 0.2143 0.0000  plane waves:    4263
 k-point 93 :   0.0000 0.2222 0.0000  plane waves:    4267
 k-point 94 :   0.0000 0.2302 0.0000  plane waves:    4267
 k-point 95 :   0.0000 0.2381 0.0000  plane waves:    4275
 k-point 96 :   0.0000 0.2460 0.0000  plane waves:    4279
 k-point 97 :   0.0000 0.2540 0.0000  plane waves:    4286
 k-point 98 :   0.0000 0.2619 0.0000  plane waves:    4286
 k-point 99 :   0.0000 0.2698 0.0000  plane waves:    4284
 k-point ** :   0.0000 0.2778 0.0000  plane waves:    4284
 k-point ** :   0.0000 0.2857 0.0000  plane waves:    4288
 k-point ** :   0.0000 0.2937 0.0000  plane waves:    4286
 k-point ** :   0.0000 0.3016 0.0000  plane waves:    4282
 k-point ** :   0.0000 0.3095 0.0000  plane waves:    4284
 k-point ** :   0.0000 0.3175 0.0000  plane waves:    4276
 k-point ** :   0.0000 0.3254 0.0000  plane waves:    4278
 k-point ** :   0.0000 0.3333 0.0000  plane waves:    4272
 k-point ** :   0.0000 0.3413 0.0000  plane waves:    4272
 k-point ** :   0.0000 0.3492 0.0000  plane waves:    4276
 k-point ** :   0.0000 0.3571 0.0000  plane waves:    4274
 k-point ** :   0.0000 0.3651 0.0000  plane waves:    4270
 k-point ** :   0.0000 0.3730 0.0000  plane waves:    4270
 k-point ** :   0.0000 0.3810 0.0000  plane waves:    4274
 k-point ** :   0.0000 0.3889 0.0000  plane waves:    4270
 k-point ** :   0.0000 0.3968 0.0000  plane waves:    4274
 k-point ** :   0.0000 0.4048 0.0000  plane waves:    4278
 k-point ** :   0.0000 0.4127 0.0000  plane waves:    4280
 k-point ** :   0.0000 0.4206 0.0000  plane waves:    4274
 k-point ** :   0.0000 0.4286 0.0000  plane waves:    4278
 k-point ** :   0.0000 0.4365 0.0000  plane waves:    4278
 k-point ** :   0.0000 0.4444 0.0000  plane waves:    4278
 k-point ** :   0.0000 0.4524 0.0000  plane waves:    4284
 k-point ** :   0.0000 0.4603 0.0000  plane waves:    4274
 k-point ** :   0.0000 0.4683 0.0000  plane waves:    4274
 k-point ** :   0.0000 0.4762 0.0000  plane waves:    4280
 k-point ** :   0.0000 0.4841 0.0000  plane waves:    4280
 k-point ** :   0.0000 0.4921 0.0000  plane waves:    4286
 k-point ** :   0.0000 0.5000 0.0000  plane waves:    4280
 k-point ** :   0.0000 0.5000 0.0000  plane waves:    4280
 k-point ** :   0.0053 0.4973 0.0000  plane waves:    4280
 k-point ** :   0.0106 0.4947 0.0000  plane waves:    4284
 k-point ** :   0.0159 0.4920 0.0000  plane waves:    4290
 k-point ** :   0.0211 0.4894 0.0000  plane waves:    4286
 k-point ** :   0.0264 0.4867 0.0000  plane waves:    4290
 k-point ** :   0.0317 0.4841 0.0000  plane waves:    4286
 k-point ** :   0.0370 0.4814 0.0000  plane waves:    4282
 k-point ** :   0.0423 0.4788 0.0000  plane waves:    4282
 k-point ** :   0.0476 0.4761 0.0000  plane waves:    4282
 k-point ** :   0.0529 0.4735 0.0000  plane waves:    4283
 k-point ** :   0.0581 0.4708 0.0000  plane waves:    4283
 k-point ** :   0.0634 0.4682 0.0000  plane waves:    4283
 k-point ** :   0.0687 0.4655 0.0000  plane waves:    4279
 k-point ** :   0.0740 0.4629 0.0000  plane waves:    4281
 k-point ** :   0.0793 0.4602 0.0000  plane waves:    4281
 k-point ** :   0.0846 0.4576 0.0000  plane waves:    4285
 k-point ** :   0.0899 0.4549 0.0000  plane waves:    4287
 k-point ** :   0.0951 0.4523 0.0000  plane waves:    4295
 k-point ** :   0.1004 0.4496 0.0000  plane waves:    4299
 k-point ** :   0.1057 0.4470 0.0000  plane waves:    4299
 k-point ** :   0.1110 0.4443 0.0000  plane waves:    4303
 k-point ** :   0.1163 0.4417 0.0000  plane waves:    4299
 k-point ** :   0.1216 0.4390 0.0000  plane waves:    4295
 k-point ** :   0.1269 0.4364 0.0000  plane waves:    4297
 k-point ** :   0.1321 0.4337 0.0000  plane waves:    4297
 k-point ** :   0.1374 0.4311 0.0000  plane waves:    4299
 k-point ** :   0.1427 0.4284 0.0000  plane waves:    4299
 k-point ** :   0.1480 0.4258 0.0000  plane waves:    4303
 k-point ** :   0.1533 0.4231 0.0000  plane waves:    4299
 k-point ** :   0.1586 0.4205 0.0000  plane waves:    4303
 k-point ** :   0.1639 0.4178 0.0000  plane waves:    4305
 k-point ** :   0.1691 0.4152 0.0000  plane waves:    4305
 k-point ** :   0.1744 0.4125 0.0000  plane waves:    4301
 k-point ** :   0.1797 0.4099 0.0000  plane waves:    4301
 k-point ** :   0.1850 0.4072 0.0000  plane waves:    4305
 k-point ** :   0.1903 0.4046 0.0000  plane waves:    4313
 k-point ** :   0.1956 0.4019 0.0000  plane waves:    4307
 k-point ** :   0.2009 0.3993 0.0000  plane waves:    4307
 k-point ** :   0.2061 0.3966 0.0000  plane waves:    4309
 k-point ** :   0.2114 0.3940 0.0000  plane waves:    4313
 k-point ** :   0.2167 0.3913 0.0000  plane waves:    4311
 k-point ** :   0.2220 0.3887 0.0000  plane waves:    4313
 k-point ** :   0.2273 0.3860 0.0000  plane waves:    4313
 k-point ** :   0.2326 0.3834 0.0000  plane waves:    4313
 k-point ** :   0.2379 0.3807 0.0000  plane waves:    4313
 k-point ** :   0.2431 0.3781 0.0000  plane waves:    4311
 k-point ** :   0.2484 0.3754 0.0000  plane waves:    4311
 k-point ** :   0.2537 0.3728 0.0000  plane waves:    4311
 k-point ** :   0.2590 0.3701 0.0000  plane waves:    4313
 k-point ** :   0.2643 0.3675 0.0000  plane waves:    4313
 k-point ** :   0.2696 0.3648 0.0000  plane waves:    4313
 k-point ** :   0.2749 0.3622 0.0000  plane waves:    4309
 k-point ** :   0.2801 0.3595 0.0000  plane waves:    4305
 k-point ** :   0.2854 0.3569 0.0000  plane waves:    4305
 k-point ** :   0.2907 0.3542 0.0000  plane waves:    4305
 k-point ** :   0.2960 0.3516 0.0000  plane waves:    4305
 k-point ** :   0.3013 0.3489 0.0000  plane waves:    4311
 k-point ** :   0.3066 0.3463 0.0000  plane waves:    4315
 k-point ** :   0.3119 0.3436 0.0000  plane waves:    4311
 k-point ** :   0.3171 0.3410 0.0000  plane waves:    4315
 k-point ** :   0.3224 0.3383 0.0000  plane waves:    4317
 k-point ** :   0.3277 0.3357 0.0000  plane waves:    4319
 k-point ** :   0.3330 0.3330 0.0000  plane waves:    4323

 maximum and minimum number of plane-waves per node :      4325     4257

 maximum number of plane-waves:      4325
 maximum index in each direction: 
   IXMAX=    8   IYMAX=    8   IZMAX=   14
   IXMIN=   -9   IYMIN=   -9   IZMIN=  -14


 serial   3D FFT for wavefunctions
 parallel 3D FFT for charge:
    minimum data exchange during FFTs selected (reduces bandwidth)


 total amount of memory used by VASP MPI-rank0   172257. kBytes
=======================================================================

   base      :      30000. kBytes
   nonl-proj :     107017. kBytes
   fftplans  :       2090. kBytes
   grid      :       6068. kBytes
   one-center:         24. kBytes
   wavefun   :      27058. kBytes
 
     INWAV:  cpu time    0.0000: real time    0.0000
 initial charge density was supplied:
 number of electron      29.9999997 magnetization 
 keeping initial charge density in first step


--------------------------------------------------------------------------------------------------------


 Maximum index for augmentation-charges          403 (set IRDMAX)


--------------------------------------------------------------------------------------------------------


 First call to EWALD:  gamma=   0.304
 Maximum number of real-space cells 3x 3x 2
 Maximum number of reciprocal cells 2x 2x 4

    FEWALD:  cpu time    0.0124: real time    0.0127


--------------------------------------- Iteration      1(   1)  ---------------------------------------


    POTLOK:  cpu time    0.0328: real time    0.0338
    SETDIJ:  cpu time    0.0022: real time    0.0022
     EDDAV:  cpu time    4.4440: real time    4.4583
       DOS:  cpu time    0.0017: real time    0.0017
    --------------------------------------------
      LOOP:  cpu time    4.4807: real time    4.4960

 eigenvalue-minimisations  :  9216
 total energy-change (2. order) : 0.1308950E+03  (-0.1134623E+04)
 number of electron      29.9999997 magnetization 
 augmentation part       29.9999997 magnetization 

 Free energy of the ion-electron system (eV)
  ---------------------------------------------------
  alpha Z        PSCENC =        25.67921176
  Ewald energy   TEWEN  =       700.27145080
  -Hartree energ DENC   =     -1646.75180825
  -exchange      EXHF   =         0.00000000
  -V(xc)+E(xc)   XCENC  =        96.02423578
  PAW double counting   =      2894.38173162    -2896.90894473
  entropy T*S    EENTRO =        -0.01011080
  eigenvalues    EBANDS =       -66.99471547
  atomic energy  EATOM  =      1025.20389953
  Solvation  Ediel_sol  =         0.00000000
  ---------------------------------------------------
  free energy    TOTEN  =       130.89495025 eV

  energy without entropy =      130.90506104  energy(sigma->0) =      130.90000564


--------------------------------------------------------------------------------------------------------




--------------------------------------- Iteration      1(   2)  ---------------------------------------


     EDDAV:  cpu time    5.7375: real time    5.7388
       DOS:  cpu time    0.0016: real time    0.0016
    --------------------------------------------
      LOOP:  cpu time    5.7390: real time    5.7403

 eigenvalue-minimisations  : 13248
 total energy-change (2. order) :-0.1818311E+03  (-0.1702762E+03)
 number of electron      29.9999997 magnetization 
 augmentation part       29.9999997 magnetization 

 Free energy of the ion-electron system (eV)
  ---------------------------------------------------
  alpha Z        PSCENC =        25.67921176
  Ewald energy   TEWEN  =       700.27145080
  -Hartree energ DENC   =     -1646.75180825
  -exchange      EXHF   =         0.00000000
  -V(xc)+E(xc)   XCENC  =        96.02423578
  PAW double counting   =      2894.38173162    -2896.90894473
  entropy T*S    EENTRO =        -0.00581789
  eigenvalues    EBANDS =      -248.83009116
  atomic energy  EATOM  =      1025.20389953
  Solvation  Ediel_sol  =         0.00000000
  ---------------------------------------------------
  free energy    TOTEN  =       -50.93613255 eV

  energy without entropy =      -50.93031465  energy(sigma->0) =      -50.93322360


--------------------------------------------------------------------------------------------------------




--------------------------------------- Iteration      1(   3)  ---------------------------------------


     EDDAV:  cpu time    5.2682: real time    5.2821
       DOS:  cpu time    0.0014: real time    0.0014
    --------------------------------------------
      LOOP:  cpu time    5.2696: real time    5.2835

 eigenvalue-minimisations  : 11808
 total energy-change (2. order) :-0.1575257E+02  (-0.1561304E+02)
 number of electron      29.9999997 magnetization 
 augmentation part       29.9999997 magnetization 

 Free energy of the ion-electron system (eV)
  ---------------------------------------------------
  alpha Z        PSCENC =        25.67921176
  Ewald energy   TEWEN  =       700.27145080
  -Hartree energ DENC   =     -1646.75180825
  -exchange      EXHF   =         0.00000000
  -V(xc)+E(xc)   XCENC  =        96.02423578
  PAW double counting   =      2894.38173162    -2896.90894473
  entropy T*S    EENTRO =        -0.00000016
  eigenvalues    EBANDS =      -264.58848101
  atomic energy  EATOM  =      1025.20389953
  Solvation  Ediel_sol  =         0.00000000
  ---------------------------------------------------
  free energy    TOTEN  =       -66.68870466 eV

  energy without entropy =      -66.68870450  energy(sigma->0) =      -66.68870458


--------------------------------------------------------------------------------------------------------




--------------------------------------- Iteration      1(   4)  ---------------------------------------


     EDDAV:  cpu time    5.6483: real time    5.6616
       DOS:  cpu time    0.0012: real time    0.0012
    --------------------------------------------
      LOOP:  cpu time    5.6495: real time    5.6628

 eigenvalue-minimisations  : 13020
 total energy-change (2. order) :-0.2496485E+00  (-0.2494372E+00)
 number of electron      29.9999997 magnetization 
 augmentation part       29.9999997 magnetization 

 Free energy of the ion-electron system (eV)
  ---------------------------------------------------
  alpha Z        PSCENC =        25.67921176
  Ewald energy   TEWEN  =       700.27145080
  -Hartree energ DENC   =     -1646.75180825
  -exchange      EXHF   =         0.00000000
  -V(xc)+E(xc)   XCENC  =        96.02423578
  PAW double counting   =      2894.38173162    -2896.90894473
  entropy T*S    EENTRO =        -0.00000023
  eigenvalues    EBANDS =      -264.83812948
  atomic energy  EATOM  =      1025.20389953
  Solvation  Ediel_sol  =         0.00000000
  ---------------------------------------------------
  free energy    TOTEN  =       -66.93835320 eV

  energy without entropy =      -66.93835297  energy(sigma->0) =      -66.93835308


--------------------------------------------------------------------------------------------------------




--------------------------------------- Iteration      1(   5)  ---------------------------------------


     EDDAV:  cpu time    5.4724: real time    5.4863
       DOS:  cpu time    0.0014: real time    0.0014
    --------------------------------------------
      LOOP:  cpu time    5.4739: real time    5.4878

 eigenvalue-minimisations  : 12540
 total energy-change (2. order) :-0.6477837E-02  (-0.6477359E-02)
 number of electron      29.9999997 magnetization 
 augmentation part       29.9999997 magnetization 

 Free energy of the ion-electron system (eV)
  ---------------------------------------------------
  alpha Z        PSCENC =        25.67921176
  Ewald energy   TEWEN  =       700.27145080
  -Hartree energ DENC   =     -1646.75180825
  -exchange      EXHF   =         0.00000000
  -V(xc)+E(xc)   XCENC  =        96.02423578
  PAW double counting   =      2894.38173162    -2896.90894473
  entropy T*S    EENTRO =        -0.00000023
  eigenvalues    EBANDS =      -264.84460731
  atomic energy  EATOM  =      1025.20389953
  Solvation  Ediel_sol  =         0.00000000
  ---------------------------------------------------
  free energy    TOTEN  =       -66.94483104 eV

  energy without entropy =      -66.94483080  energy(sigma->0) =      -66.94483092


--------------------------------------------------------------------------------------------------------




--------------------------------------- Iteration      1(   6)  ---------------------------------------


     EDDAV:  cpu time    6.1898: real time    6.1916
       DOS:  cpu time    0.0014: real time    0.0014
    --------------------------------------------
      LOOP:  cpu time    6.1912: real time    6.1929

 eigenvalue-minimisations  : 14772
 total energy-change (2. order) :-0.2928334E-03  (-0.2928308E-03)
 number of electron      29.9999997 magnetization 
 augmentation part       29.9999997 magnetization 

 Free energy of the ion-electron system (eV)
  ---------------------------------------------------
  alpha Z        PSCENC =        25.67921176
  Ewald energy   TEWEN  =       700.27145080
  -Hartree energ DENC   =     -1646.75180825
  -exchange      EXHF   =         0.00000000
  -V(xc)+E(xc)   XCENC  =        96.02423578
  PAW double counting   =      2894.38173162    -2896.90894473
  entropy T*S    EENTRO =        -0.00000023
  eigenvalues    EBANDS =      -264.84490015
  atomic energy  EATOM  =      1025.20389953
  Solvation  Ediel_sol  =         0.00000000
  ---------------------------------------------------
  free energy    TOTEN  =       -66.94512387 eV

  energy without entropy =      -66.94512364  energy(sigma->0) =      -66.94512375


--------------------------------------------------------------------------------------------------------




--------------------------------------- Iteration      1(   7)  ---------------------------------------


     EDDAV:  cpu time    5.8612: real time    5.9652
       DOS:  cpu time    0.0013: real time    0.0013
    --------------------------------------------
      LOOP:  cpu time    5.8625: real time    5.9665

 eigenvalue-minimisations  : 13104
 total energy-change (2. order) :-0.3302164E-05  (-0.3302262E-05)
 number of electron      29.9999997 magnetization 
 augmentation part       29.9999997 magnetization 

 Free energy of the ion-electron system (eV)
  ---------------------------------------------------
  alpha Z        PSCENC =        25.67921176
  Ewald energy   TEWEN  =       700.27145080
  -Hartree energ DENC   =     -1646.75180825
  -exchange      EXHF   =         0.00000000
  -V(xc)+E(xc)   XCENC  =        96.02423578
  PAW double counting   =      2894.38173162    -2896.90894473
  entropy T*S    EENTRO =        -0.00000023
  eigenvalues    EBANDS =      -264.84490345
  atomic energy  EATOM  =      1025.20389953
  Solvation  Ediel_sol  =         0.00000000
  ---------------------------------------------------
  free energy    TOTEN  =       -66.94512717 eV

  energy without entropy =      -66.94512694  energy(sigma->0) =      -66.94512706


--------------------------------------------------------------------------------------------------------




--------------------------------------- Iteration      1(   8)  ---------------------------------------


     EDDAV:  cpu time    5.2477: real time    5.3621
       DOS:  cpu time    0.0014: real time    0.0014
    --------------------------------------------
      LOOP:  cpu time    5.2492: real time    5.3636

 eigenvalue-minimisations  : 11124
 total energy-change (2. order) :-0.7497397E-07  (-0.7473871E-07)
 number of electron      29.9999997 magnetization 
 augmentation part       29.9999997 magnetization 

 Free energy of the ion-electron system (eV)
  ---------------------------------------------------
  alpha Z        PSCENC =        25.67921176
  Ewald energy   TEWEN  =       700.27145080
  -Hartree energ DENC   =     -1646.75180825
  -exchange      EXHF   =         0.00000000
  -V(xc)+E(xc)   XCENC  =        96.02423578
  PAW double counting   =      2894.38173162    -2896.90894473
  entropy T*S    EENTRO =        -0.00000023
  eigenvalues    EBANDS =      -264.84490352
  atomic energy  EATOM  =      1025.20389953
  Solvation  Ediel_sol  =         0.00000000
  ---------------------------------------------------
  free energy    TOTEN  =       -66.94512725 eV

  energy without entropy =      -66.94512701  energy(sigma->0) =      -66.94512713


--------------------------------------------------------------------------------------------------------




 average (electrostatic) potential at core
  the test charge radii are     0.7672  0.6991
  (the norm of the test charge is              1.0000)
       1 -33.2459       2 -33.2459       3 -55.7474       4 -55.7474       5 -55.7474
       6 -55.7474       7 -55.7474       8 -55.7474
 
 
 
 E-fermi :  -2.1416     XC(G=0):  -4.8143     alpha+bet : -4.1680


 k-point     1 :       0.3330    0.3330    0.0000
  band No.  band energies     occupation 
      1     -17.8742      2.00000
      2     -15.9431      2.00000
      3     -15.9406      2.00000
      4     -11.5128      2.00000
      5     -11.5080      2.00000
      6      -9.5490      2.00000
      7      -7.0521      2.00000
      8      -7.0463      2.00000
      9      -6.6881      2.00000
     10      -6.0399      2.00000
     11      -5.9080      2.00000
     12      -4.8979      2.00000
     13      -4.8930      2.00000
     14      -4.8175      2.00000
     15      -4.8137      2.00000
     16      -0.0477      0.00000
     17      -0.0399      0.00000
     18       4.3558      0.00000
     19       4.3775      0.00000
     20       4.3819      0.00000
     21       5.5660      0.00000
     22       5.5732      0.00000
     23       5.7006      0.00000
     24       6.5546      0.00000

 k-point     2 :       0.3277    0.3277    0.0000
  band No.  band energies     occupation 
      1     -17.8746      2.00000
      2     -15.9622      2.00000
      3     -15.9200      2.00000
      4     -11.5502      2.00000
      5     -11.4724      2.00000
      6      -9.5464      2.00000
      7      -7.1052      2.00000
      8      -7.0026      2.00000
      9      -6.6830      2.00000
     10      -6.0412      2.00000
     11      -5.9076      2.00000
     12      -4.9346      2.00000
     13      -4.8525      2.00000
     14      -4.8451      2.00000
     15      -4.7834      2.00000
     16      -0.1089      0.00000
     17       0.0213      0.00000
     18       4.2895      0.00000
     19       4.4065      0.00000
     20       4.4213      0.00000
     21       5.5067      0.00000
     22       5.5920      0.00000
     23       5.7381      0.00000
     24       6.5505      0.00000

 k-point     3 :       0.3224    0.3224    0.0000
  band No.  band energies     occupation 
      1     -17.8758      2.00000
      2     -15.9794      2.00000
      3     -15.8990      2.00000
      4     -11.5870      2.00000
      5     -11.4407      2.00000
      6      -9.5390      2.00000
      7      -7.1676      2.00000
      8      -6.9643      2.00000
      9      -6.6715      2.00000
     10      -6.0451      2.00000
     11      -5.9062      2.00000
     12      -4.9669      2.00000
     13      -4.8688      2.00000
     14      -4.8098      2.00000
     15      -4.7523      2.00000
     16      -0.1691      0.00000
     17       0.0812      0.00000
     18       4.2148      0.00000
     19       4.4461      0.00000
     20       4.4619      0.00000
     21       5.4456      0.00000
     22       5.5644      0.00000
     23       5.8170      0.00000
     24       6.5381      0.00000

 k-point     4 :       0.3171    0.3171    0.0000
  band No.  band energies     occupation 
      1     -17.8779      2.00000
      2     -15.9947      2.00000
      3     -15.8775      2.00000
      4     -11.6233      2.00000
      5     -11.4131      2.00000
      6      -9.5268      2.00000
      7      -7.2364      2.00000
      8      -6.9325      2.00000
      9      -6.6560      2.00000
     10      -6.0516      2.00000
     11      -5.9030      2.00000
     12      -4.9943      2.00000
     13      -4.8883      2.00000
     14      -4.7650      2.00000
     15      -4.7204      2.00000
     16      -0.2280      0.00000
     17       0.1397      0.00000
     18       4.1409      0.00000
     19       4.4874      0.00000
     20       4.5038      0.00000
     21       5.3829      0.00000
     22       5.5236      0.00000
     23       5.9055      0.00000
     24       6.5167      0.00000

 k-point     5 :       0.3119    0.3119    0.0000
  band No.  band energies     occupation 
      1     -17.8808      2.00000
      2     -16.0078      2.00000
      3     -15.8555      2.00000
      4     -11.6591      2.00000
      5     -11.3896      2.00000
      6      -9.5096      2.00000
      7      -7.3097      2.00000
      8      -6.9085      2.00000
      9      -6.6380      2.00000
     10      -6.0609      2.00000
     11      -5.8972      2.00000
     12      -5.0166      2.00000
     13      -4.9034      2.00000
     14      -4.7183      2.00000
     15      -4.6878      2.00000
     16      -0.2857      0.00000
     17       0.1969      0.00000
     18       4.0682      0.00000
     19       4.5299      0.00000
     20       4.5468      0.00000
     21       5.3188      0.00000
     22       5.4770      0.00000
     23       5.9956      0.00000
     24       6.4871      0.00000

 k-point     6 :       0.3066    0.3066    0.0000
  band No.  band energies     occupation 
      1     -17.8847      2.00000
      2     -16.0189      2.00000
      3     -15.8329      2.00000
      4     -11.6942      2.00000
      5     -11.3704      2.00000
      6      -9.4875      2.00000
      7      -7.3864      2.00000
      8      -6.8930      2.00000
      9      -6.6185      2.00000
     10      -6.0731      2.00000
     11      -5.8880      2.00000
     12      -5.0334      2.00000
     13      -4.9141      2.00000
     14      -4.6701      2.00000
     15      -4.6544      2.00000
     16      -0.3423      0.00000
     17       0.2527      0.00000
     18       3.9966      0.00000
     19       4.5736      0.00000
     20       4.5910      0.00000
     21       5.2532      0.00000
     22       5.4264      0.00000
     23       6.0855      0.00000
     24       6.4503      0.00000

 k-point     7 :       0.3013    0.3013    0.0000
  band No.  band energies     occupation 
      1     -17.8895      2.00000
      2     -16.0277      2.00000
      3     -15.8099      2.00000
      4     -11.7287      2.00000
      5     -11.3553      2.00000
      6      -9.4606      2.00000
      7      -7.4656      2.00000
      8      -6.8870      2.00000
      9      -6.5980      2.00000
     10      -6.0882      2.00000
     11      -5.8747      2.00000
     12      -5.0447      2.00000
     13      -4.9203      2.00000
     14      -4.6204      2.00000
     15      -4.6203      2.00000
     16      -0.3977      0.00000
     17       0.3069      0.00000
     18       3.9261      0.00000
     19       4.6185      0.00000
     20       4.6364      0.00000
     21       5.1862      0.00000
     22       5.3724      0.00000
     23       6.1746      0.00000
     24       6.4079      0.00000

 k-point     8 :       0.2960    0.2960    0.0000
  band No.  band energies     occupation 
      1     -17.8952      2.00000
      2     -16.0344      2.00000
      3     -15.7865      2.00000
      4     -11.7625      2.00000
      5     -11.3444      2.00000
      6      -9.4292      2.00000
      7      -7.5466      2.00000
      8      -6.8908      2.00000
      9      -6.5769      2.00000
     10      -6.1060      2.00000
     11      -5.8570      2.00000
     12      -5.0505      2.00000
     13      -4.9222      2.00000
     14      -4.5855      2.00000
     15      -4.5695      2.00000
     16      -0.4518      0.00000
     17       0.3595      0.00000
     18       3.8569      0.00000
     19       4.6647      0.00000
     20       4.6830      0.00000
     21       5.1179      0.00000
     22       5.3153      0.00000
     23       6.2628      0.00000
     24       6.3615      0.00000

 k-point     9 :       0.2907    0.2907    0.0000
  band No.  band energies     occupation 
      1     -17.9020      2.00000
      2     -16.0389      2.00000
      3     -15.7626      2.00000
      4     -11.7957      2.00000
      5     -11.3373      2.00000
      6      -9.3935      2.00000
      7      -7.6291      2.00000
      8      -6.9044      2.00000
      9      -6.5554      2.00000
     10      -6.1265      2.00000
     11      -5.8349      2.00000
     12      -5.0507      2.00000
     13      -4.9200      2.00000
     14      -4.5501      2.00000
     15      -4.5176      2.00000
     16      -0.5047      0.00000
     17       0.4106      0.00000
     18       3.7888      0.00000
     19       4.7120      0.00000
     20       4.7308      0.00000
     21       5.0485      0.00000
     22       5.2554      0.00000
     23       6.3121      0.00000
     24       6.3497      0.00000

 k-point    10 :       0.2854    0.2854    0.0000
  band No.  band energies     occupation 
      1     -17.9096      2.00000
      2     -16.0411      2.00000
      3     -15.7383      2.00000
      4     -11.8281      2.00000
      5     -11.3340      2.00000
      6      -9.3539      2.00000
      7      -7.7126      2.00000
      8      -6.9273      2.00000
      9      -6.5335      2.00000
     10      -6.1494      2.00000
     11      -5.8088      2.00000
     12      -5.0452      2.00000
     13      -4.9136      2.00000
     14      -4.5139      2.00000
     15      -4.4647      2.00000
     16      -0.5562      0.00000
     17       0.4600      0.00000
     18       3.7220      0.00000
     19       4.7606      0.00000
     20       4.7797      0.00000
     21       4.9780      0.00000
     22       5.1929      0.00000
     23       6.2606      0.00000
     24       6.4354      0.00000

 k-point    11 :       0.2801    0.2801    0.0000
  band No.  band energies     occupation 
      1     -17.9182      2.00000
      2     -16.0412      2.00000
      3     -15.7136      2.00000
      4     -11.8598      2.00000
      5     -11.3341      2.00000
      6      -9.3108      2.00000
      7      -7.7968      2.00000
      8      -6.9587      2.00000
      9      -6.5113      2.00000
     10      -6.1746      2.00000
     11      -5.7796      2.00000
     12      -5.0342      2.00000
     13      -4.9036      2.00000
     14      -4.4772      2.00000
     15      -4.4111      2.00000
     16      -0.6065      0.00000
     17       0.5077      0.00000
     18       3.6563      0.00000
     19       4.8103      0.00000
     20       4.8299      0.00000
     21       4.9064      0.00000
     22       5.1279      0.00000
     23       6.2077      0.00000
     24       6.5197      0.00000

 k-point    12 :       0.2749    0.2749    0.0000
  band No.  band energies     occupation 
      1     -17.9278      2.00000
      2     -16.0390      2.00000
      3     -15.6885      2.00000
      4     -11.8908      2.00000
      5     -11.3374      2.00000
      6      -9.2647      2.00000
      7      -7.8812      2.00000
      8      -6.9978      2.00000
      9      -6.4889      2.00000
     10      -6.2017      2.00000
     11      -5.7479      2.00000
     12      -5.0176      2.00000
     13      -4.8899      2.00000
     14      -4.4399      2.00000
     15      -4.3568      2.00000
     16      -0.6554      0.00000
     17       0.5538      0.00000
     18       3.5918      0.00000
     19       4.8339      0.00000
     20       4.8613      0.00000
     21       4.8812      0.00000
     22       5.0605      0.00000
     23       6.1540      0.00000
     24       6.6027      0.00000

 k-point    13 :       0.2696    0.2696    0.0000
  band No.  band energies     occupation 
      1     -17.9382      2.00000
      2     -16.0346      2.00000
      3     -15.6631      2.00000
      4     -11.9210      2.00000
      5     -11.3436      2.00000
      6      -9.2162      2.00000
      7      -7.9657      2.00000
      8      -7.0436      2.00000
      9      -6.4662      2.00000
     10      -6.2305      2.00000
     11      -5.7148      2.00000
     12      -4.9956      2.00000
     13      -4.8731      2.00000
     14      -4.4021      2.00000
     15      -4.3020      2.00000
     16      -0.7029      0.00000
     17       0.5982      0.00000
     18       3.5286      0.00000
     19       4.7604      0.00000
[...]
      1     -17.8839      2.00000
      2     -16.0450      2.00000
      3     -15.8046      2.00000
      4     -11.7646      2.00000
      5     -11.2960      2.00000
      6      -9.4865      2.00000
      7      -7.3507      2.00000
      8      -7.0121      2.00000
      9      -6.5266      2.00000
     10      -6.0674      2.00000
     11      -5.9101      2.00000
     12      -5.0634      2.00000
     13      -4.9677      2.00000
     14      -4.6330      2.00000
     15      -4.6011      2.00000
     16      -0.4019      0.00000
     17       0.3145      0.00000
     18       4.1698      0.00000
     19       4.1840      0.00000
     20       4.8161      0.00000
     21       5.0626      0.00000
     22       5.8239      0.00000
     23       5.8574      0.00000
     24       6.4994      0.00000

 k-point   182 :       0.2801    0.3595    0.0000
  band No.  band energies     occupation 
      1     -17.8823      2.00000
      2     -16.0364      2.00000
      3     -15.8189      2.00000
      4     -11.7385      2.00000
      5     -11.3158      2.00000
      6      -9.4967      2.00000
      7      -7.3211      2.00000
      8      -7.0021      2.00000
      9      -6.5490      2.00000
     10      -6.0632      2.00000
     11      -5.9094      2.00000
     12      -5.0528      2.00000
     13      -4.9551      2.00000
     14      -4.6594      2.00000
     15      -4.6239      2.00000
     16      -0.3684      0.00000
     17       0.2808      0.00000
     18       4.1857      0.00000
     19       4.2002      0.00000
     20       4.7746      0.00000
     21       5.1115      0.00000
     22       5.8142      0.00000
     23       5.8351      0.00000
     24       6.5059      0.00000

 k-point   183 :       0.2854    0.3569    0.0000
  band No.  band energies     occupation 
      1     -17.8809      2.00000
      2     -16.0277      2.00000
      3     -15.8328      2.00000
      4     -11.7130      2.00000
      5     -11.3355      2.00000
      6      -9.5061      2.00000
      7      -7.2918      2.00000
      8      -6.9936      2.00000
      9      -6.5711      2.00000
     10      -6.0592      2.00000
     11      -5.9088      2.00000
     12      -5.0412      2.00000
     13      -4.9422      2.00000
     14      -4.6855      2.00000
     15      -4.6462      2.00000
     16      -0.3351      0.00000
     17       0.2474      0.00000
     18       4.2019      0.00000
     19       4.2168      0.00000
     20       4.7333      0.00000
     21       5.1602      0.00000
     22       5.8029      0.00000
     23       5.8129      0.00000
     24       6.5126      0.00000

 k-point   184 :       0.2907    0.3542    0.0000
  band No.  band energies     occupation 
      1     -17.8796      2.00000
      2     -16.0188      2.00000
      3     -15.8464      2.00000
      4     -11.6880      2.00000
      5     -11.3552      2.00000
      6      -9.5146      2.00000
      7      -7.2628      2.00000
      8      -6.9868      2.00000
      9      -6.5927      2.00000
     10      -6.0555      2.00000
     11      -5.9084      2.00000
     12      -5.0286      2.00000
     13      -4.9291      2.00000
     14      -4.7112      2.00000
     15      -4.6679      2.00000
     16      -0.3019      0.00000
     17       0.2143      0.00000
     18       4.2185      0.00000
     19       4.2336      0.00000
     20       4.6923      0.00000
     21       5.2088      0.00000
     22       5.7851      0.00000
     23       5.7957      0.00000
     24       6.5193      0.00000

 k-point   185 :       0.2960    0.3516    0.0000
  band No.  band energies     occupation 
      1     -17.8784      2.00000
      2     -16.0097      2.00000
      3     -15.8597      2.00000
      4     -11.6635      2.00000
      5     -11.3747      2.00000
      6      -9.5223      2.00000
      7      -7.2342      2.00000
      8      -6.9823      2.00000
      9      -6.6132      2.00000
     10      -6.0522      2.00000
     11      -5.9080      2.00000
     12      -5.0150      2.00000
     13      -4.9158      2.00000
     14      -4.7364      2.00000
     15      -4.6889      2.00000
     16      -0.2691      0.00000
     17       0.1814      0.00000
     18       4.2353      0.00000
     19       4.2507      0.00000
     20       4.6515      0.00000
     21       5.2572      0.00000
     22       5.7613      0.00000
     23       5.7830      0.00000
     24       6.5258      0.00000

 k-point   186 :       0.3013    0.3489    0.0000
  band No.  band energies     occupation 
      1     -17.8773      2.00000
      2     -16.0005      2.00000
      3     -15.8725      2.00000
      4     -11.6396      2.00000
      5     -11.3942      2.00000
      6      -9.5291      2.00000
      7      -7.2060      2.00000
      8      -6.9804      2.00000
      9      -6.6322      2.00000
     10      -6.0492      2.00000
     11      -5.9078      2.00000
     12      -5.0006      2.00000
     13      -4.9022      2.00000
     14      -4.7611      2.00000
     15      -4.7092      2.00000
     16      -0.2364      0.00000
     17       0.1487      0.00000
     18       4.2524      0.00000
     19       4.2681      0.00000
     20       4.6111      0.00000
     21       5.3052      0.00000
     22       5.7361      0.00000
     23       5.7703      0.00000
     24       6.5321      0.00000

 k-point   187 :       0.3066    0.3463    0.0000
  band No.  band energies     occupation 
      1     -17.8764      2.00000
      2     -15.9912      2.00000
      3     -15.8850      2.00000
      4     -11.6164      2.00000
      5     -11.4136      2.00000
      6      -9.5350      2.00000
      7      -7.1783      2.00000
      8      -6.9817      2.00000
      9      -6.6490      2.00000
     10      -6.0465      2.00000
     11      -5.9077      2.00000
     12      -4.9852      2.00000
     13      -4.8885      2.00000
     14      -4.7852      2.00000
     15      -4.7288      2.00000
     16      -0.2040      0.00000
     17       0.1162      0.00000
     18       4.2698      0.00000
     19       4.2859      0.00000
     20       4.5710      0.00000
     21       5.3528      0.00000
     22       5.7101      0.00000
     23       5.7570      0.00000
     24       6.5380      0.00000

 k-point   188 :       0.3119    0.3436    0.0000
  band No.  band energies     occupation 
      1     -17.8756      2.00000
      2     -15.9817      2.00000
      3     -15.8971      2.00000
      4     -11.5939      2.00000
      5     -11.4330      2.00000
      6      -9.5399      2.00000
      7      -7.1513      2.00000
      8      -6.9867      2.00000
      9      -6.6632      2.00000
     10      -6.0443      2.00000
     11      -5.9077      2.00000
     12      -4.9691      2.00000
     13      -4.8745      2.00000
     14      -4.8086      2.00000
     15      -4.7476      2.00000
     16      -0.1718      0.00000
     17       0.0841      0.00000
     18       4.2875      0.00000
     19       4.3039      0.00000
     20       4.5313      0.00000
     21       5.3999      0.00000
     22       5.6835      0.00000
     23       5.7437      0.00000
     24       6.5433      0.00000

 k-point   189 :       0.3171    0.3410    0.0000
  band No.  band energies     occupation 
      1     -17.8750      2.00000
      2     -15.9721      2.00000
      3     -15.9088      2.00000
      4     -11.5721      2.00000
      5     -11.4522      2.00000
      6      -9.5438      2.00000
      7      -7.1249      2.00000
      8      -6.9958      2.00000
      9      -6.6743      2.00000
     10      -6.0424      2.00000
     11      -5.9077      2.00000
     12      -4.9521      2.00000
     13      -4.8603      2.00000
     14      -4.8312      2.00000
     15      -4.7656      2.00000
     16      -0.1399      0.00000
     17       0.0523      0.00000
     18       4.3054      0.00000
     19       4.3222      0.00000
     20       4.4918      0.00000
     21       5.4461      0.00000
     22       5.6563      0.00000
     23       5.7303      0.00000
     24       6.5478      0.00000

 k-point   190 :       0.3224    0.3383    0.0000
  band No.  band energies     occupation 
      1     -17.8746      2.00000
      2     -15.9624      2.00000
      3     -15.9200      2.00000
      4     -11.5512      2.00000
      5     -11.4713      2.00000
      6      -9.5466      2.00000
      7      -7.0993      2.00000
      8      -7.0090      2.00000
      9      -6.6820      2.00000
     10      -6.0411      2.00000
     11      -5.9078      2.00000
     12      -4.9344      2.00000
     13      -4.8531      2.00000
     14      -4.8460      2.00000
     15      -4.7828      2.00000
     16      -0.1083      0.00000
     17       0.0207      0.00000
     18       4.3235      0.00000
     19       4.3408      0.00000
     20       4.4528      0.00000
     21       5.4907      0.00000
     22       5.6286      0.00000
     23       5.7175      0.00000
     24       6.5514      0.00000

 k-point   191 :       0.3277    0.3357    0.0000
  band No.  band energies     occupation 
      1     -17.8743      2.00000
      2     -15.9525      2.00000
      3     -15.9308      2.00000
      4     -11.5310      2.00000
      5     -11.4902      2.00000
      6      -9.5484      2.00000
      7      -7.0746      2.00000
      8      -7.0264      2.00000
      9      -6.6865      2.00000
     10      -6.0402      2.00000
     11      -5.9079      2.00000
     12      -4.9160      2.00000
     13      -4.8740      2.00000
     14      -4.8314      2.00000
     15      -4.7991      2.00000
     16      -0.0770      0.00000
     17      -0.0106      0.00000
     18       4.3415      0.00000
     19       4.3597      0.00000
     20       4.4146      0.00000
     21       5.5324      0.00000
     22       5.6003      0.00000
     23       5.7063      0.00000
     24       6.5537      0.00000

 k-point   192 :       0.3330    0.3330    0.0000
  band No.  band energies     occupation 
      1     -17.8742      2.00000
      2     -15.9431      2.00000
      3     -15.9406      2.00000
      4     -11.5128      2.00000
      5     -11.5080      2.00000
      6      -9.5490      2.00000
      7      -7.0521      2.00000
      8      -7.0463      2.00000
      9      -6.6881      2.00000
     10      -6.0399      2.00000
     11      -5.9080      2.00000
     12      -4.8979      2.00000
     13      -4.8930      2.00000
     14      -4.8175      2.00000
     15      -4.8137      2.00000
     16      -0.0477      0.00000
     17      -0.0399      0.00000
     18       4.3558      0.00000
     19       4.3775      0.00000
     20       4.3819      0.00000
     21       5.5660      0.00000
     22       5.5732      0.00000
     23       5.7007      0.00000
     24       6.5546      0.00000


--------------------------------------------------------------------------------------------------------


 soft charge-density along one line, spin component           1
         0         1         2         3         4         5         6         7         8         9
 total charge-density along one line
 
 pseudopotential strength for first ion, spin component:           1
  6.649  10.140   0.000  -0.000   0.000   0.000  -0.000   0.000
 10.140  15.459   0.000  -0.000   0.000   0.000  -0.000   0.000
  0.000   0.000  -2.275   0.000  -0.000  -3.895   0.000  -0.000
 -0.000  -0.000   0.000  -2.281  -0.000   0.000  -3.903  -0.000
  0.000   0.000  -0.000  -0.000  -2.275  -0.000  -0.000  -3.895
  0.000   0.000  -3.895   0.000  -0.000  -6.471   0.000  -0.000
 -0.000  -0.000   0.000  -3.903  -0.000   0.000  -6.480  -0.000
  0.000   0.000  -0.000  -0.000  -3.895  -0.000  -0.000  -6.471
 total augmentation occupancy for first ion, spin component:           1
  2.000   0.000   0.000   0.000   0.000   0.000   0.000   0.000
  0.000   0.000   0.000   0.000   0.000   0.000   0.000   0.000
  0.000   0.000   0.333   0.000   0.000   0.000   0.000   0.000
  0.000   0.000   0.000   0.333   0.000   0.000   0.000   0.000
  0.000   0.000   0.000   0.000   0.333   0.000   0.000   0.000
  0.000   0.000   0.000   0.000   0.000   0.000   0.000   0.000
  0.000   0.000   0.000   0.000   0.000   0.000   0.000   0.000
  0.000   0.000   0.000   0.000   0.000   0.000   0.000   0.000


------------------------ aborting loop because EDIFF is reached ----------------------------------------


 


 total charge     
 
# of ion       s       p       d       tot
------------------------------------------
    1        0.752   1.300   0.000   2.052
    2        0.752   1.300   0.000   2.052
    3        0.874   1.696   0.000   2.571
    4        0.874   1.750   0.000   2.623
    5        0.874   1.762   0.000   2.636
    6        0.874   1.762   0.000   2.636
    7        0.874   1.750   0.000   2.623
    8        0.874   1.696   0.000   2.571
--------------------------------------------------
tot          6.748  13.017   0.000  19.765
 
    CHARGE:  cpu time    0.4119: real time    0.4381
    FORLOC:  cpu time    0.0039: real time    0.0039
    FORNL :  cpu time    0.9524: real time    1.0051
    STRESS:  cpu time    5.9456: real time    6.0274
    FORCOR:  cpu time    0.0294: real time    0.0294
    FORHAR:  cpu time    0.0077: real time    0.0077
    OFIELD:  cpu time    0.0001: real time    0.0001

  FORCE on cell =-STRESS in cart. coord.  units (eV):
  Direction    XX          YY          ZZ          XY          YZ          ZX
  --------------------------------------------------------------------------------------
  Alpha Z    25.67921    25.67921    25.67921
  Ewald    1597.01980  1597.02408 -2493.77342     0.00000     0.00000     0.00000
  Hartree  1588.83696  1588.83698 -1529.36879    -0.00000    -0.00000    -0.00000
  E(xc)    -107.43408  -107.43408  -111.25774     0.00000    -0.00000    -0.00000
  Local   -3513.92509 -3513.92713  3675.87296     0.00000     0.00000    -0.00000
  n-local   -22.44622   -21.97186   -10.91180    -0.27196     0.00000     0.00000
  augment    -1.83096    -1.83089    -1.81648    -0.00000    -0.00000     0.00000
  Kinetic   437.18508   431.38959   446.00969     3.79627    -0.00000     0.00000
  Fock        0.00000     0.00000     0.00000     0.00000     0.00000     0.00000
  -------------------------------------------------------------------------------------
  Total       0.42530     0.42530     0.43363     0.00000    -0.00000     0.00000
  in kB       3.44955     3.44955     3.51717     0.00000    -0.00000     0.00000
  external pressure =        3.47 kB  Pullay stress =        0.00 kB


 VOLUME and BASIS-vectors are now :
 -----------------------------------------------------------------------------
  energy-cutoff  :      450.00
  volume of cell :      197.53
      direct lattice vectors                 reciprocal lattice vectors
     4.480848434  2.587018852  0.000000000     0.111586010  0.193272654  0.000000000
    -4.480848434  2.587018852  0.000000000    -0.111586010  0.193272654  0.000000000
     0.000000000  0.000000000  8.520221400     0.000000000  0.000000000  0.117367842

  length of vectors
     5.174038000  5.174038000  8.520221400     0.223172034  0.223172034  0.117367842


 FORCES acting on ions
    electron-ion (+dipol)            ewald-force                    non-local-force                 convergence-correction
 -----------------------------------------------------------------------------------------------
   -.511E-05 0.287E-04 -.225E-10   -.317E-03 -.466E-14 0.287E-18   0.312E-16 0.173E-17 0.000E+00   -.318E-06 0.427E-06 0.128E-11
   0.511E-05 0.287E-04 -.263E-10   0.317E-03 0.711E-14 0.692E-18   -.312E-16 0.000E+00 0.662E-23   0.318E-06 0.427E-06 0.253E-11
   0.259E+02 -.448E+02 -.356E-06   -.276E+02 0.479E+02 -.388E-17   0.201E+01 -.348E+01 -.347E-22   -.145E+00 0.251E+00 0.330E-11
   -.259E+02 -.448E+02 -.356E-06   0.276E+02 0.479E+02 -.333E-17   -.201E+01 -.348E+01 0.132E-22   0.145E+00 0.251E+00 0.397E-11
   -.517E+02 0.501E-03 0.250E-10   0.553E+02 0.123E-10 -.177E-17   -.402E+01 0.694E-17 -.132E-22   0.290E+00 -.460E-06 0.386E-11
   0.517E+02 0.501E-03 0.290E-10   -.553E+02 0.124E-10 -.199E-17   0.402E+01 -.139E-16 0.000E+00   -.290E+00 -.460E-06 0.361E-11
   0.259E+02 0.448E+02 0.356E-06   -.276E+02 -.479E+02 0.490E-17   0.201E+01 0.348E+01 0.132E-22   -.145E+00 -.251E+00 0.564E-12
   -.259E+02 0.448E+02 0.356E-06   0.276E+02 -.479E+02 0.510E-17   -.201E+01 0.348E+01 0.331E-22   0.145E+00 -.251E+00 0.348E-11
 -----------------------------------------------------------------------------------------------
   0.137E-11 0.350E-02 0.117E-09   0.000E+00 -.142E-13 0.000E+00   0.444E-15 -.133E-14 0.182E-22   -.488E-12 -.203E-05 0.226E-10
 
 
 POSITION                                       TOTAL-FORCE (eV/Angst)
 -----------------------------------------------------------------------------------
     -1.49361      2.58702      2.13006         0.000000      0.000000      0.000000
      1.49361      2.58702      2.13006         0.000000      0.000000      0.000000
     -0.71108      1.23161      2.13006         0.070546     -0.122189     -0.000000
      0.71108      1.23161      2.13006        -0.070546     -0.122189      0.000000
     -3.05870      2.58702      2.13006        -0.141092      0.000000      0.000000
      3.05870      2.58702      2.13006         0.141092      0.000000      0.000000
     -0.71108      3.94242      2.13006         0.070546      0.122189      0.000000
      0.71108      3.94242      2.13006        -0.070546      0.122189     -0.000000
 -----------------------------------------------------------------------------------
    total drift:                                0.000000      0.003500      0.000000


--------------------------------------------------------------------------------------------------------



  FREE ENERGIE OF THE ION-ELECTRON SYSTEM (eV)
  ---------------------------------------------------
  free  energy   TOTEN  =       -66.94512725 eV

  energy  without entropy=      -66.94512701  energy(sigma->0) =      -66.94512713
 


--------------------------------------------------------------------------------------------------------


    POTLOK:  cpu time    0.0280: real time    0.0280


--------------------------------------------------------------------------------------------------------


 writing wavefunctions
     LOOP+:  cpu time   52.6873: real time   54.7335
    4ORBIT:  cpu time    0.0000: real time    0.0000
 


 total charge     
 
# of ion       s       p       d       tot
------------------------------------------
    1        0.752   1.300   0.000   2.052
    2        0.752   1.300   0.000   2.052
    3        0.874   1.696   0.000   2.571
    4        0.874   1.750   0.000   2.623
    5        0.874   1.762   0.000   2.636
    6        0.874   1.762   0.000   2.636
    7        0.874   1.750   0.000   2.623
    8        0.874   1.696   0.000   2.571
--------------------------------------------------
tot          6.748  13.017   0.000  19.765
 

 total amount of memory used by VASP MPI-rank0   172257. kBytes
=======================================================================

   base      :      30000. kBytes
   nonl-proj :     107017. kBytes
   fftplans  :       2090. kBytes
   grid      :       6068. kBytes
   one-center:         24. kBytes
   wavefun   :      27058. kBytes
 
  
  
 General timing and accounting informations for this job:
 ========================================================
  
                  Total CPU time used (sec):       57.081
                            User time (sec):       55.767
                          System time (sec):        1.314
                         Elapsed time (sec):       59.999
  
                   Maximum memory used (kb):      268400.
                   Average memory used (kb):           0.
  
                          Minor page faults:       250981
                          Major page faults:            0
                 Voluntary context switches:         9519
