PROCAR lm decomposed
# of k-points:  192         # of bands:   24         # of ions:    8

 k-point     1 :    0.33300000 0.33300000 0.00000000     weight = 0.00520833

band     1 # energy  -17.87417374 # occ.  2.00000000
 
ion      s     py     pz     px    dxy    dyz    dz2    dxz  x2-y2    tot
    1  0.000  0.005  0.000  0.005  0.000  0.000  0.000  0.000  0.000  0.009
    2  0.000  0.005  0.000  0.005  0.000  0.000  0.000  0.000  0.000  0.009
    3  0.096  0.008  0.000  0.003  0.000  0.000  0.000  0.000  0.000  0.107
    4  0.096  0.008  0.000  0.003  0.000  0.000  0.000  0.000  0.000  0.107
    5  0.096  0.000  0.000  0.011  0.000  0.000  0.000  0.000  0.000  0.107
    6  0.096  0.000  0.000  0.011  0.000  0.000  0.000  0.000  0.000  0.107
    7  0.096  0.008  0.000  0.003  0.000  0.000  0.000  0.000  0.000  0.107
    8  0.096  0.008  0.000  0.003  0.000  0.000  0.000  0.000  0.000  0.107
tot    0.576  0.042  0.000  0.042  0.000  0.000  0.000  0.000  0.000  0.660
 
band     2 # energy  -15.94306239 # occ.  2.00000000
 
ion      s     py     pz     px    dxy    dyz    dz2    dxz  x2-y2    tot
    1  0.039  0.005  0.000  0.005  0.000  0.000  0.000  0.000  0.000  0.049
    2  0.039  0.005  0.000  0.005  0.000  0.000  0.000  0.000  0.000  0.049
    3  0.122  0.001  0.000  0.006  0.000  0.000  0.000  0.000  0.000  0.129
    4  0.122  0.001  0.000  0.006  0.000  0.000  0.000  0.000  0.000  0.129
    5  0.003  0.022  0.000  0.001  0.000  0.000  0.000  0.000  0.000  0.025
    6  0.003  0.022  0.000  0.001  0.000  0.000  0.000  0.000  0.000  0.025
    7  0.122  0.001  0.000  0.006  0.000  0.000  0.000  0.000  0.000  0.129
    8  0.122  0.001  0.000  0.006  0.000  0.000  0.000  0.000  0.000  0.129
tot    0.572  0.059  0.000  0.035  0.000  0.000  0.000  0.000  0.000  0.665
 
band     3 # energy  -15.94055256 # occ.  2.00000000
 
ion      s     py     pz     px    dxy    dyz    dz2    dxz  x2-y2    tot
    1  0.039  0.005  0.000  0.005  0.000  0.000  0.000  0.000  0.000  0.049
    2  0.039  0.005  0.000  0.005  0.000  0.000  0.000  0.000  0.000  0.049
    3  0.043  0.005  0.000  0.012  0.000  0.000  0.000  0.000  0.000  0.060
    4  0.043  0.005  0.000  0.012  0.000  0.000  0.000  0.000  0.000  0.060
    5  0.161  0.002  0.000  0.000  0.000  0.000  0.000  0.000  0.000  0.163
    6  0.161  0.002  0.000  0.000  0.000  0.000  0.000  0.000  0.000  0.163
    7  0.043  0.005  0.000  0.012  0.000  0.000  0.000  0.000  0.000  0.060
    8  0.043  0.005  0.000  0.012  0.000  0.000  0.000  0.000  0.000  0.060
tot    0.571  0.035  0.000  0.059  0.000  0.000  0.000  0.000  0.000  0.665
 
band     4 # energy  -11.51280748 # occ.  2.00000000
 
ion      s     py     pz     px    dxy    dyz    dz2    dxz  x2-y2    tot
    1  0.053  0.005  0.000  0.005  0.000  0.000  0.000  0.000  0.000  0.063
    2  0.053  0.005  0.000  0.005  0.000  0.000  0.000  0.000  0.000  0.063
    3  0.077  0.005  0.000  0.020  0.000  0.000  0.000  0.000  0.000  0.103
    4  0.077  0.005  0.000  0.020  0.000  0.000  0.000  0.000  0.000  0.103
    5  0.016  0.062  0.000  0.010  0.000  0.000  0.000  0.000  0.000  0.089
    6  0.016  0.062  0.000  0.010  0.000  0.000  0.000  0.000  0.000  0.089
    7  0.077  0.005  0.000  0.020  0.000  0.000  0.000  0.000  0.000  0.103
    8  0.077  0.005  0.000  0.020  0.000  0.000  0.000  0.000  0.000  0.103
tot    0.446  0.155  0.000  0.112  0.000  0.000  0.000  0.000  0.000  0.713
 
band     5 # energy  -11.50800127 # occ.  2.00000000
 
ion      s     py     pz     px    dxy    dyz    dz2    dxz  x2-y2    tot
    1  0.052  0.005  0.000  0.005  0.000  0.000  0.000  0.000  0.000  0.063
    2  0.052  0.005  0.000  0.005  0.000  0.000  0.000  0.000  0.000  0.063
    3  0.037  0.023  0.000  0.034  0.000  0.000  0.000  0.000  0.000  0.093
    4  0.037  0.023  0.000  0.034  0.000  0.000  0.000  0.000  0.000  0.093
    5  0.097  0.004  0.000  0.006  0.000  0.000  0.000  0.000  0.000  0.107
    6  0.097  0.004  0.000  0.006  0.000  0.000  0.000  0.000  0.000  0.107
    7  0.037  0.023  0.000  0.034  0.000  0.000  0.000  0.000  0.000  0.093
    8  0.037  0.023  0.000  0.034  0.000  0.000  0.000  0.000  0.000  0.093
tot    0.446  0.111  0.000  0.156  0.000  0.000  0.000  0.000  0.000  0.714
 
band     6 # energy   -9.54899074 # occ.  2.00000000
 
ion      s     py     pz     px    dxy    dyz    dz2    dxz  x2-y2    tot
    1  0.000  0.031  0.000  0.031  0.000  0.000  0.000  0.000  0.000  0.062
    2  0.000  0.031  0.000  0.031  0.000  0.000  0.000  0.000  0.000  0.062
    3  0.000  0.035  0.000  0.050  0.000  0.000  0.000  0.000  0.000  0.085
    4  0.000  0.035  0.000  0.050  0.000  0.000  0.000  0.000  0.000  0.085
    5  0.000  0.058  0.000  0.027  0.000  0.000  0.000  0.000  0.000  0.085
    6  0.000  0.058  0.000  0.027  0.000  0.000  0.000  0.000  0.000  0.085
    7  0.000  0.035  0.000  0.050  0.000  0.000  0.000  0.000  0.000  0.085
    8  0.000  0.035  0.000  0.050  0.000  0.000  0.000  0.000  0.000  0.085
tot    0.002  0.318  0.000  0.316  0.000  0.000  0.000  0.000  0.000  0.636
 
band     7 # energy   -7.05214867 # occ.  2.00000000
 
ion      s     py     pz     px    dxy    dyz    dz2    dxz  x2-y2    tot
    1  0.086  0.006  0.000  0.005  0.000  0.000  0.000  0.000  0.000  0.097
    2  0.086  0.006  0.000  0.005  0.000  0.000  0.000  0.000  0.000  0.097
    3  0.007  0.048  0.000  0.067  0.000  0.000  0.000  0.000  0.000  0.121
    4  0.007  0.048  0.000  0.067  0.000  0.000  0.000  0.000  0.000  0.121
    5  0.015  0.007  0.000  0.010  0.000  0.000  0.000  0.000  0.000  0.032
    6  0.015  0.007  0.000  0.010  0.000  0.000  0.000  0.000  0.000  0.032
    7  0.007  0.048  0.000  0.067  0.000  0.000  0.000  0.000  0.000  0.121
    8  0.007  0.048  0.000  0.067  0.000  0.000  0.000  0.000  0.000  0.121
tot    0.230  0.216  0.000  0.297  0.000  0.000  0.000  0.000  0.000  0.744
 
band     8 # energy   -7.04631737 # occ.  2.00000000
 
ion      s     py     pz     px    dxy    dyz    dz2    dxz  x2-y2    tot
    1  0.086  0.006  0.000  0.006  0.000  0.000  0.000  0.000  0.000  0.097
    2  0.086  0.006  0.000  0.006  0.000  0.000  0.000  0.000  0.000  0.097
    3  0.012  0.046  0.000  0.004  0.000  0.000  0.000  0.000  0.000  0.062
    4  0.012  0.046  0.000  0.004  0.000  0.000  0.000  0.000  0.000  0.062
    5  0.005  0.054  0.000  0.094  0.000  0.000  0.000  0.000  0.000  0.152
    6  0.005  0.054  0.000  0.094  0.000  0.000  0.000  0.000  0.000  0.152
    7  0.012  0.046  0.000  0.004  0.000  0.000  0.000  0.000  0.000  0.062
    8  0.012  0.046  0.000  0.004  0.000  0.000  0.000  0.000  0.000  0.062
tot    0.230  0.300  0.000  0.213  0.000  0.000  0.000  0.000  0.000  0.744
 
band     9 # energy   -6.68805509 # occ.  2.00000000
 
ion      s     py     pz     px    dxy    dyz    dz2    dxz  x2-y2    tot
    1  0.000  0.019  0.000  0.019  0.000  0.000  0.000  0.000  0.000  0.039
    2  0.000  0.019  0.000  0.019  0.000  0.000  0.000  0.000  0.000  0.039
    3  0.005  0.046  0.000  0.054  0.000  0.000  0.000  0.000  0.000  0.105
    4  0.005  0.046  0.000  0.054  0.000  0.000  0.000  0.000  0.000  0.105
    5  0.005  0.056  0.000  0.043  0.000  0.000  0.000  0.000  0.000  0.104
    6  0.005  0.056  0.000  0.043  0.000  0.000  0.000  0.000  0.000  0.104
    7  0.005  0.046  0.000  0.054  0.000  0.000  0.000  0.000  0.000  0.105
    8  0.005  0.046  0.000  0.054  0.000  0.000  0.000  0.000  0.000  0.105
tot    0.028  0.335  0.000  0.341  0.000  0.000  0.000  0.000  0.000  0.704
 
band    10 # energy   -6.03994729 # occ.  2.00000000
 
ion      s     py     pz     px    dxy    dyz    dz2    dxz  x2-y2    tot
    1  0.000  0.000  0.000  0.000  0.000  0.000  0.000  0.000  0.000  0.000
    2  0.000  0.000  0.000  0.000  0.000  0.000  0.000  0.000  0.000  0.000
    3  0.000  0.000  0.073  0.000  0.000  0.000  0.000  0.000  0.000  0.073
    4  0.000  0.000  0.073  0.000  0.000  0.000  0.000  0.000  0.000  0.073
    5  0.000  0.000  0.073  0.000  0.000  0.000  0.000  0.000  0.000  0.073
    6  0.000  0.000  0.073  0.000  0.000  0.000  0.000  0.000  0.000  0.073
    7  0.000  0.000  0.073  0.000  0.000  0.000  0.000  0.000  0.000  0.073
    8  0.000  0.000  0.073  0.000  0.000  0.000  0.000  0.000  0.000  0.073
tot    0.000  0.000  0.438  0.000  0.000  0.000  0.000  0.000  0.000  0.438
 
band    11 # energy   -5.90796630 # occ.  2.00000000
 
ion      s     py     pz     px    dxy    dyz    dz2    dxz  x2-y2    tot
    1  0.000  0.078  0.000  0.077  0.000  0.000  0.000  0.000  0.000  0.155
    2  0.000  0.078  0.000  0.077  0.000  0.000  0.000  0.000  0.000  0.155
    3  0.045  0.022  0.000  0.007  0.000  0.000  0.000  0.000  0.000  0.075
    4  0.045  0.022  0.000  0.007  0.000  0.000  0.000  0.000  0.000  0.075
    5  0.045  0.000  0.000  0.028  0.000  0.000  0.000  0.000  0.000  0.074
    6  0.045  0.000  0.000  0.028  0.000  0.000  0.000  0.000  0.000  0.074
    7  0.045  0.022  0.000  0.007  0.000  0.000  0.000  0.000  0.000  0.075
    8  0.045  0.022  0.000  0.007  0.000  0.000  0.000  0.000  0.000  0.075
tot    0.271  0.244  0.000  0.241  0.000  0.000  0.000  0.000  0.000  0.756
 
band    12 # energy   -4.89794874 # occ.  2.00000000
 
ion      s     py     pz     px    dxy    dyz    dz2    dxz  x2-y2    tot
    1  0.018  0.060  0.000  0.061  0.000  0.000  0.000  0.000  0.000  0.140
    2  0.018  0.060  0.000  0.061  0.000  0.000  0.000  0.000  0.000  0.140
    3  0.004  0.064  0.000  0.001  0.000  0.000  0.000  0.000  0.000  0.069
    4  0.004  0.064  0.000  0.001  0.000  0.000  0.000  0.000  0.000  0.069
    5  0.001  0.055  0.000  0.040  0.000  0.000  0.000  0.000  0.000  0.095
    6  0.001  0.055  0.000  0.040  0.000  0.000  0.000  0.000  0.000  0.095
    7  0.004  0.064  0.000  0.001  0.000  0.000  0.000  0.000  0.000  0.069
    8  0.004  0.064  0.000  0.001  0.000  0.000  0.000  0.000  0.000  0.069
tot    0.052  0.485  0.000  0.206  0.000  0.000  0.000  0.000  0.000  0.743
 
band    13 # energy   -4.89297695 # occ.  2.00000000
 
ion      s     py     pz     px    dxy    dyz    dz2    dxz  x2-y2    tot
    1  0.018  0.061  0.000  0.061  0.000  0.000  0.000  0.000  0.000  0.140
    2  0.018  0.061  0.000  0.061  0.000  0.000  0.000  0.000  0.000  0.140
    3  0.002  0.021  0.000  0.064  0.000  0.000  0.000  0.000  0.000  0.086
    4  0.002  0.021  0.000  0.064  0.000  0.000  0.000  0.000  0.000  0.086
    5  0.005  0.000  0.000  0.055  0.000  0.000  0.000  0.000  0.000  0.060
    6  0.005  0.000  0.000  0.055  0.000  0.000  0.000  0.000  0.000  0.060
    7  0.002  0.021  0.000  0.064  0.000  0.000  0.000  0.000  0.000  0.086
    8  0.002  0.021  0.000  0.064  0.000  0.000  0.000  0.000  0.000  0.086
tot    0.052  0.204  0.000  0.487  0.000  0.000  0.000  0.000  0.000  0.744
 
band    14 # energy   -4.81745275 # occ.  2.00000000
 
ion      s     py     pz     px    dxy    dyz    dz2    dxz  x2-y2    tot
    1  0.000  0.000  0.048  0.000  0.000  0.000  0.000  0.000  0.000  0.048
    2  0.000  0.000  0.048  0.000  0.000  0.000  0.000  0.000  0.000  0.048
    3  0.000  0.000  0.082  0.000  0.000  0.000  0.000  0.000  0.000  0.082
    4  0.000  0.000  0.082  0.000  0.000  0.000  0.000  0.000  0.000  0.082
    5  0.000  0.000  0.004  0.000  0.000  0.000  0.000  0.000  0.000  0.004
    6  0.000  0.000  0.004  0.000  0.000  0.000  0.000  0.000  0.000  0.004
    7  0.000  0.000  0.082  0.000  0.000  0.000  0.000  0.000  0.000  0.082
    8  0.000  0.000  0.082  0.000  0.000  0.000  0.000  0.000  0.000  0.082
tot    0.000  0.000  0.433  0.000  0.000  0.000  0.000  0.000  0.000  0.433
 
band    15 # energy   -4.81371247 # occ.  2.00000000
 
ion      s     py     pz     px    dxy    dyz    dz2    dxz  x2-y2    tot
    1  0.000  0.000  0.048  0.000  0.000  0.000  0.000  0.000  0.000  0.048
    2  0.000  0.000  0.048  0.000  0.000  0.000  0.000  0.000  0.000  0.048
    3  0.000  0.000  0.030  0.000  0.000  0.000  0.000  0.000  0.000  0.030
    4  0.000  0.000  0.030  0.000  0.000  0.000  0.000  0.000  0.000  0.030
    5  0.000  0.000  0.108  0.000  0.000  0.000  0.000  0.000  0.000  0.108
    6  0.000  0.000  0.108  0.000  0.000  0.000  0.000  0.000  0.000  0.108
    7  0.000  0.000  0.030  0.000  0.000  0.000  0.000  0.000  0.000  0.030
    8  0.000  0.000  0.030  0.000  0.000  0.000  0.000  0.000  0.000  0.030
tot    0.000  0.000  0.433  0.000  0.000  0.000  0.000  0.000  0.000  0.433
 
band    16 # energy   -0.04771995 # occ.  0.00000000
 
ion      s     py     pz     px    dxy    dyz    dz2    dxz  x2-y2    tot
    1  0.000  0.000  0.066  0.000  0.000  0.000  0.000  0.000  0.000  0.066
    2  0.000  0.000  0.066  0.000  0.000  0.000  0.000  0.000  0.000  0.066
    3  0.000  0.000  0.072  0.000  0.000  0.000  0.000  0.000  0.000  0.072
    4  0.000  0.000  0.072  0.000  0.000  0.000  0.000  0.000  0.000  0.072
    5  0.000  0.000  0.038  0.000  0.000  0.000  0.000  0.000  0.000  0.038
    6  0.000  0.000  0.038  0.000  0.000  0.000  0.000  0.000  0.000  0.038
    7  0.000  0.000  0.072  0.000  0.000  0.000  0.000  0.000  0.000  0.072
    8  0.000  0.000  0.072  0.000  0.000  0.000  0.000  0.000  0.000  0.072
tot    0.000  0.000  0.496  0.000  0.000  0.000  0.000  0.000  0.000  0.496
 
band    17 # energy   -0.03988083 # occ.  0.00000000
 
ion      s     py     pz     px    dxy    dyz    dz2    dxz  x2-y2    tot
    1  0.000  0.000  0.066  0.000  0.000  0.000  0.000  0.000  0.000  0.066
    2  0.000  0.000  0.066  0.000  0.000  0.000  0.000  0.000  0.000  0.066
    3  0.000  0.000  0.049  0.000  0.000  0.000  0.000  0.000  0.000  0.049
    4  0.000  0.000  0.049  0.000  0.000  0.000  0.000  0.000  0.000  0.049
    5  0.000  0.000  0.083  0.000  0.000  0.000  0.000  0.000  0.000  0.083
    6  0.000  0.000  0.083  0.000  0.000  0.000  0.000  0.000  0.000  0.083
    7  0.000  0.000  0.049  0.000  0.000  0.000  0.000  0.000  0.000  0.049
    8  0.000  0.000  0.049  0.000  0.000  0.000  0.000  0.000  0.000  0.049
tot    0.000  0.000  0.496  0.000  0.000  0.000  0.000  0.000  0.000  0.496
 
band    18 # energy    4.35584676 # occ.  0.00000000
 
ion      s     py     pz     px    dxy    dyz    dz2    dxz  x2-y2    tot
    1  0.000  0.001  0.000  0.000  0.000  0.000  0.000  0.000  0.000  0.001
    2  0.000  0.001  0.000  0.000  0.000  0.000  0.000  0.000  0.000  0.001
    3  0.002  0.000  0.000  0.000  0.000  0.000  0.000  0.000  0.000  0.003
    4  0.002  0.000  0.000  0.000  0.000  0.000  0.000  0.000  0.000  0.003
    5  0.003  0.000  0.000  0.000  0.000  0.000  0.000  0.000  0.000  0.003
    6  0.003  0.000  0.000  0.000  0.000  0.000  0.000  0.000  0.000  0.003
    7  0.002  0.000  0.000  0.000  0.000  0.000  0.000  0.000  0.000  0.003
    8  0.002  0.000  0.000  0.000  0.000  0.000  0.000  0.000  0.000  0.003
tot    0.016  0.002  0.000  0.001  0.000  0.000  0.000  0.000  0.000  0.019
 
band    19 # energy    4.37753997 # occ.  0.00000000
 
ion      s     py     pz     px    dxy    dyz    dz2    dxz  x2-y2    tot
    1  0.001  0.000  0.000  0.000  0.000  0.000  0.000  0.000  0.000  0.001
    2  0.001  0.000  0.000  0.000  0.000  0.000  0.000  0.000  0.000  0.001
    3  0.003  0.002  0.000  0.000  0.000  0.000  0.000  0.000  0.000  0.004
    4  0.003  0.002  0.000  0.000  0.000  0.000  0.000  0.000  0.000  0.004
    5  0.000  0.001  0.000  0.001  0.000  0.000  0.000  0.000  0.000  0.002
    6  0.000  0.001  0.000  0.001  0.000  0.000  0.000  0.000  0.000  0.002
    7  0.003  0.002  0.000  0.000  0.000  0.000  0.000  0.000  0.000  0.004
    8  0.003  0.002  0.000  0.000  0.000  0.000  0.000  0.000  0.000  0.004
tot    0.013  0.009  0.000  0.003  0.000  0.000  0.000  0.000  0.000  0.025
 
band    20 # energy    4.38186930 # occ.  0.00000000
 
ion      s     py     pz     px    dxy    dyz    dz2    dxz  x2-y2    tot
    1  0.001  0.000  0.000  0.000  0.000  0.000  0.000  0.000  0.000  0.001
    2  0.001  0.000  0.000  0.000  0.000  0.000  0.000  0.000  0.000  0.001
    3  0.001  0.001  0.000  0.001  0.000  0.000  0.000  0.000  0.000  0.003
    4  0.001  0.001  0.000  0.001  0.000  0.000  0.000  0.000  0.000  0.003
    5  0.003  0.000  0.000  0.002  0.000  0.000  0.000  0.000  0.000  0.005
    6  0.003  0.000  0.000  0.002  0.000  0.000  0.000  0.000  0.000  0.005
    7  0.001  0.001  0.000  0.001  0.000  0.000  0.000  0.000  0.000  0.003
    8  0.001  0.001  0.000  0.001  0.000  0.000  0.000  0.000  0.000  0.003
tot    0.013  0.003  0.000  0.009  0.000  0.000  0.000  0.000  0.000  0.025
 
band    21 # energy    5.56600380 # occ.  0.00000000
 
ion      s     py     pz     px    dxy    dyz    dz2    dxz  x2-y2    tot
    1  0.000  0.000  0.065  0.000  0.000  0.000  0.000  0.000  0.000  0.065
    2  0.000  0.000  0.065  0.000  0.000  0.000  0.000  0.000  0.000  0.065
    3  0.000  0.000  0.040  0.000  0.000  0.000  0.000  0.000  0.000  0.040
    4  0.000  0.000  0.040  0.000  0.000  0.000  0.000  0.000  0.000  0.040
    5  0.000  0.000  0.087  0.000  0.000  0.000  0.000  0.000  0.000  0.087
    6  0.000  0.000  0.087  0.000  0.000  0.000  0.000  0.000  0.000  0.087
    7  0.000  0.000  0.040  0.000  0.000  0.000  0.000  0.000  0.000  0.040
    8  0.000  0.000  0.040  0.000  0.000  0.000  0.000  0.000  0.000  0.040
tot    0.000  0.000  0.466  0.000  0.000  0.000  0.000  0.000  0.000  0.466
 
band    22 # energy    5.57322071 # occ.  0.00000000
 
ion      s     py     pz     px    dxy    dyz    dz2    dxz  x2-y2    tot
    1  0.000  0.000  0.065  0.000  0.000  0.000  0.000  0.000  0.000  0.065
    2  0.000  0.000  0.065  0.000  0.000  0.000  0.000  0.000  0.000  0.065
    3  0.000  0.000  0.073  0.000  0.000  0.000  0.000  0.000  0.000  0.073
    4  0.000  0.000  0.073  0.000  0.000  0.000  0.000  0.000  0.000  0.073
    5  0.000  0.000  0.022  0.000  0.000  0.000  0.000  0.000  0.000  0.022
    6  0.000  0.000  0.022  0.000  0.000  0.000  0.000  0.000  0.000  0.022
    7  0.000  0.000  0.073  0.000  0.000  0.000  0.000  0.000  0.000  0.073
    8  0.000  0.000  0.073  0.000  0.000  0.000  0.000  0.000  0.000  0.073
tot    0.000  0.000  0.466  0.000  0.000  0.000  0.000  0.000  0.000  0.466
 
band    23 # energy    5.70063744 # occ.  0.00000000
 
ion      s     py     pz     px    dxy    dyz    dz2    dxz  x2-y2    tot
    1  0.000  0.000  0.000  0.000  0.000  0.000  0.000  0.000  0.000  0.000
    2  0.000  0.000  0.000  0.000  0.000  0.000  0.000  0.000  0.000  0.000
    3  0.000  0.000  0.095  0.000  0.000  0.000  0.000  0.000  0.000  0.095
    4  0.000  0.000  0.095  0.000  0.000  0.000  0.000  0.000  0.000  0.095
    5  0.000  0.000  0.100  0.000  0.000  0.000  0.000  0.000  0.000  0.100
    6  0.000  0.000  0.100  0.000  0.000  0.000  0.000  0.000  0.000  0.100
    7  0.000  0.000  0.095  0.000  0.000  0.000  0.000  0.000  0.000  0.095
    8  0.000  0.000  0.095  0.000  0.000  0.000  0.000  0.000  0.000  0.095
tot    0.000  0.000  0.580  0.000  0.000  0.000  0.000  0.000  0.000  0.580
 
band    24 # energy    6.55461446 # occ.  0.00000000
 
ion      s     py     pz     px    dxy    dyz    dz2    dxz  x2-y2    tot
    1  0.000  0.000  0.000  0.000  0.000  0.000  0.000  0.000  0.000  0.000
    2  0.000  0.000  0.000  0.000  0.000  0.000  0.000  0.000  0.000  0.000
    3  0.000  0.000  0.012  0.000  0.000  0.000  0.000  0.000  0.000  0.012
    4  0.000  0.000  0.012  0.000  0.000  0.000  0.000  0.000  0.000  0.012
    5  0.000  0.000  0.011  0.000  0.000  0.000  0.000  0.000  0.000  0.011
    6  0.000  0.000  0.011  0.000  0.000  0.000  0.000  0.000  0.000  0.011
    7  0.000  0.000  0.012  0.000  0.000  0.000  0.000  0.000  0.000  0.012
    8  0.000  0.000  0.012  0.000  0.000  0.000  0.000  0.000  0.000  0.012
tot    0.000  0.000  0.069  0.000  0.000  0.000  0.000  0.000  0.000  0.069
 

 k-point     2 :    0.32771429 0.32771429 0.00000000     weight = 0.00520833

band     1 # energy  -17.87459805 # occ.  2.00000000
 
ion      s     py     pz     px    dxy    dyz    dz2    dxz  x2-y2    tot
    1  0.000  0.005  0.000  0.004  0.000  0.000  0.000  0.000  0.000  0.009
    2  0.000  0.005  0.000  0.004  0.000  0.000  0.000  0.000  0.000  0.009
    3  0.096  0.008  0.000  0.003  0.000  0.000  0.000  0.000  0.000  0.107
    4  0.096  0.008  0.000  0.003  0.000  0.000  0.000  0.000  0.000  0.107
    5  0.097  0.000  0.000  0.011  0.000  0.000  0.000  0.000  0.000  0.108
    6  0.097  0.000  0.000  0.011  0.000  0.000  0.000  0.000  0.000  0.108
    7  0.096  0.008  0.000  0.003  0.000  0.000  0.000  0.000  0.000  0.107
    8  0.096  0.008  0.000  0.003  0.000  0.000  0.000  0.000  0.000  0.107
tot    0.576  0.043  0.000  0.041  0.000  0.000  0.000  0.000  0.000  0.660
 
band     2 # energy  -15.96221005 # occ.  2.00000000
 
ion      s     py     pz     px    dxy    dyz    dz2    dxz  x2-y2    tot
    1  0.040  0.004  0.000  0.005  0.000  0.000  0.000  0.000  0.000  0.050
    2  0.040  0.004  0.000  0.005  0.000  0.000  0.000  0.000  0.000  0.050
    3  0.122  0.001  0.000  0.006  0.000  0.000  0.000  0.000  0.000  0.129
    4  0.122  0.001  0.000  0.006  0.000  0.000  0.000  0.000  0.000  0.129
    5  0.003  0.021  0.000  0.001  0.000  0.000  0.000  0.000  0.000  0.025
    6  0.003  0.021  0.000  0.001  0.000  0.000  0.000  0.000  0.000  0.025
    7  0.122  0.001  0.000  0.006  0.000  0.000  0.000  0.000  0.000  0.129
    8  0.122  0.001  0.000  0.006  0.000  0.000  0.000  0.000  0.000  0.129
tot    0.572  0.056  0.000  0.036  0.000  0.000  0.000  0.000  0.000  0.664
 
band     3 # energy  -15.92004960 # occ.  2.00000000
 
ion      s     py     pz     px    dxy    dyz    dz2    dxz  x2-y2    tot
    1  0.039  0.005  0.000  0.005  0.000  0.000  0.000  0.000  0.000  0.049
    2  0.039  0.005  0.000  0.005  0.000  0.000  0.000  0.000  0.000  0.049
    3  0.043  0.005  0.000  0.012  0.000  0.000  0.000  0.000  0.000  0.060
    4  0.043  0.005  0.000  0.012  0.000  0.000  0.000  0.000  0.000  0.060
    5  0.161  0.002  0.000  0.000  0.000  0.000  0.000  0.000  0.000  0.164
    6  0.161  0.002  0.000  0.000  0.000  0.000  0.000  0.000  0.000  0.164
    7  0.043  0.005  0.000  0.012  0.000  0.000  0.000  0.000  0.000  0.060
    8  0.043  0.005  0.000  0.012  0.000  0.000  0.000  0.000  0.000  0.060
tot    0.571  0.036  0.000  0.059  0.000  0.000  0.000  0.000  0.000  0.666
 
band     4 # energy  -11.55017564 # occ.  2.00000000
 
ion      s     py     pz     px    dxy    dyz    dz2    dxz  x2-y2    tot
    1  0.054  0.004  0.000  0.005  0.000  0.000  0.000  0.000  0.000  0.063
    2  0.054  0.004  0.000  0.005  0.000  0.000  0.000  0.000  0.000  0.063
    3  0.077  0.005  0.000  0.020  0.000  0.000  0.000  0.000  0.000  0.102
    4  0.077  0.005  0.000  0.020  0.000  0.000  0.000  0.000  0.000  0.102
    5  0.017  0.061  0.000  0.010  0.000  0.000  0.000  0.000  0.000  0.088
    6  0.017  0.061  0.000  0.010  0.000  0.000  0.000  0.000  0.000  0.088
    7  0.077  0.005  0.000  0.020  0.000  0.000  0.000  0.000  0.000  0.102
    8  0.077  0.005  0.000  0.020  0.000  0.000  0.000  0.000  0.000  0.102
tot    0.448  0.152  0.000  0.112  0.000  0.000  0.000  0.000  0.000  0.713
 
band     5 # energy  -11.47243137 # occ.  2.00000000
 
ion      s     py     pz     px    dxy    dyz    dz2    dxz  x2-y2    tot
    1  0.051  0.005  0.000  0.006  0.000  0.000  0.000  0.000  0.000  0.062
    2  0.051  0.005  0.000  0.006  0.000  0.000  0.000  0.000  0.000  0.062
    3  0.037  0.021  0.000  0.036  0.000  0.000  0.000  0.000  0.000  0.094
    4  0.037  0.021  0.000  0.036  0.000  0.000  0.000  0.000  0.000  0.094
    5  0.097  0.004  0.000  0.006  0.000  0.000  0.000  0.000  0.000  0.108
    6  0.097  0.004  0.000  0.006  0.000  0.000  0.000  0.000  0.000  0.108
    7  0.037  0.021  0.000  0.036  0.000  0.000  0.000  0.000  0.000  0.094
    8  0.037  0.021  0.000  0.036  0.000  0.000  0.000  0.000  0.000  0.094
tot    0.444  0.103  0.000  0.168  0.000  0.000  0.000  0.000  0.000  0.714
 
band     6 # energy   -9.54637843 # occ.  2.00000000
 
ion      s     py     pz     px    dxy    dyz    dz2    dxz  x2-y2    tot
    1  0.000  0.032  0.000  0.030  0.000  0.000  0.000  0.000  0.000  0.062
    2  0.000  0.032  0.000  0.030  0.000  0.000  0.000  0.000  0.000  0.062
    3  0.001  0.037  0.000  0.048  0.000  0.000  0.000  0.000  0.000  0.085
    4  0.001  0.037  0.000  0.048  0.000  0.000  0.000  0.000  0.000  0.085
    5  0.000  0.059  0.000  0.027  0.000  0.000  0.000  0.000  0.000  0.086
    6  0.000  0.059  0.000  0.027  0.000  0.000  0.000  0.000  0.000  0.086
    7  0.001  0.037  0.000  0.048  0.000  0.000  0.000  0.000  0.000  0.085
    8  0.001  0.037  0.000  0.048  0.000  0.000  0.000  0.000  0.000  0.085
tot    0.002  0.329  0.000  0.305  0.000  0.000  0.000  0.000  0.000  0.636
 
band     7 # energy   -7.10522078 # occ.  2.00000000
 
ion      s     py     pz     px    dxy    dyz    dz2    dxz  x2-y2    tot
    1  0.084  0.008  0.000  0.004  0.000  0.000  0.000  0.000  0.000  0.096
    2  0.084  0.008  0.000  0.004  0.000  0.000  0.000  0.000  0.000  0.096
    3  0.009  0.056  0.000  0.053  0.000  0.000  0.000  0.000  0.000  0.117
    4  0.009  0.056  0.000  0.053  0.000  0.000  0.000  0.000  0.000  0.117
    5  0.013  0.012  0.000  0.015  0.000  0.000  0.000  0.000  0.000  0.040
    6  0.013  0.012  0.000  0.015  0.000  0.000  0.000  0.000  0.000  0.040
    7  0.009  0.056  0.000  0.053  0.000  0.000  0.000  0.000  0.000  0.117
    8  0.009  0.056  0.000  0.053  0.000  0.000  0.000  0.000  0.000  0.117
tot    0.229  0.266  0.000  0.247  0.000  0.000  0.000  0.000  0.000  0.742
 
band     8 # energy   -7.00255468 # occ.  2.00000000
 
ion      s     py     pz     px    dxy    dyz    dz2    dxz  x2-y2    tot
    1  0.085  0.004  0.000  0.007  0.000  0.000  0.000  0.000  0.000  0.097
    2  0.085  0.004  0.000  0.007  0.000  0.000  0.000  0.000  0.000  0.097
    3  0.013  0.043  0.000  0.003  0.000  0.000  0.000  0.000  0.000  0.060
    4  0.013  0.043  0.000  0.003  0.000  0.000  0.000  0.000  0.000  0.060
    5  0.003  0.056  0.000  0.097  0.000  0.000  0.000  0.000  0.000  0.156
    6  0.003  0.056  0.000  0.097  0.000  0.000  0.000  0.000  0.000  0.156
    7  0.013  0.043  0.000  0.003  0.000  0.000  0.000  0.000  0.000  0.060
    8  0.013  0.043  0.000  0.003  0.000  0.000  0.000  0.000  0.000  0.060
tot    0.229  0.293  0.000  0.222  0.000  0.000  0.000  0.000  0.000  0.745
 
band     9 # energy   -6.68304969 # occ.  2.00000000
 
ion      s     py     pz     px    dxy    dyz    dz2    dxz  x2-y2    tot
    1  0.001  0.019  0.000  0.020  0.000  0.000  0.000  0.000  0.000  0.040
    2  0.001  0.019  0.000  0.020  0.000  0.000  0.000  0.000  0.000  0.040
    3  0.004  0.038  0.000  0.068  0.000  0.000  0.000  0.000  0.000  0.110
    4  0.004  0.038  0.000  0.068  0.000  0.000  0.000  0.000  0.000  0.110
    5  0.006  0.051  0.000  0.036  0.000  0.000  0.000  0.000  0.000  0.093
    6  0.006  0.051  0.000  0.036  0.000  0.000  0.000  0.000  0.000  0.093
    7  0.004  0.038  0.000  0.068  0.000  0.000  0.000  0.000  0.000  0.110
    8  0.004  0.038  0.000  0.068  0.000  0.000  0.000  0.000  0.000  0.110
tot    0.030  0.292  0.000  0.382  0.000  0.000  0.000  0.000  0.000  0.705
 
band    10 # energy   -6.04124642 # occ.  2.00000000
 
ion      s     py     pz     px    dxy    dyz    dz2    dxz  x2-y2    tot
    1  0.000  0.000  0.000  0.000  0.000  0.000  0.000  0.000  0.000  0.000
    2  0.000  0.000  0.000  0.000  0.000  0.000  0.000  0.000  0.000  0.000
    3  0.000  0.000  0.072  0.000  0.000  0.000  0.000  0.000  0.000  0.072
    4  0.000  0.000  0.072  0.000  0.000  0.000  0.000  0.000  0.000  0.072
    5  0.000  0.000  0.074  0.000  0.000  0.000  0.000  0.000  0.000  0.074
    6  0.000  0.000  0.074  0.000  0.000  0.000  0.000  0.000  0.000  0.074
    7  0.000  0.000  0.072  0.000  0.000  0.000  0.000  0.000  0.000  0.072
    8  0.000  0.000  0.072  0.000  0.000  0.000  0.000  0.000  0.000  0.072
tot    0.000  0.000  0.438  0.000  0.000  0.000  0.000  0.000  0.000  0.438
 
band    11 # energy   -5.90762745 # occ.  2.00000000
 
ion      s     py     pz     px    dxy    dyz    dz2    dxz  x2-y2    tot
    1  0.000  0.087  0.000  0.068  0.000  0.000  0.000  0.000  0.000  0.155
    2  0.000  0.087  0.000  0.068  0.000  0.000  0.000  0.000  0.000  0.155
    3  0.044  0.025  0.000  0.008  0.000  0.000  0.000  0.000  0.000  0.078
    4  0.044  0.025  0.000  0.008  0.000  0.000  0.000  0.000  0.000  0.078
    5  0.047  0.000  0.000  0.021  0.000  0.000  0.000  0.000  0.000  0.068
    6  0.047  0.000  0.000  0.021  0.000  0.000  0.000  0.000  0.000  0.068
    7  0.044  0.025  0.000  0.008  0.000  0.000  0.000  0.000  0.000  0.078
    8  0.044  0.025  0.000  0.008  0.000  0.000  0.000  0.000  0.000  0.078
tot    0.270  0.276  0.000  0.209  0.000  0.000  0.000  0.000  0.000  0.755
 
band    12 # energy   -4.93463031 # occ.  2.00000000
 
ion      s     py     pz     px    dxy    dyz    dz2    dxz  x2-y2    tot
    1  0.018  0.053  0.000  0.069  0.000  0.000  0.000  0.000  0.000  0.140
    2  0.018  0.053  0.000  0.069  0.000  0.000  0.000  0.000  0.000  0.140
    3  0.004  0.062  0.000  0.001  0.000  0.000  0.000  0.000  0.000  0.067
    4  0.004  0.062  0.000  0.001  0.000  0.000  0.000  0.000  0.000  0.067
    5  0.000  0.053  0.000  0.044  0.000  0.000  0.000  0.000  0.000  0.097
    6  0.000  0.053  0.000  0.044  0.000  0.000  0.000  0.000  0.000  0.097
    7  0.004  0.062  0.000  0.001  0.000  0.000  0.000  0.000  0.000  0.067
    8  0.004  0.062  0.000  0.001  0.000  0.000  0.000  0.000  0.000  0.067
tot    0.053  0.460  0.000  0.229  0.000  0.000  0.000  0.000  0.000  0.742
 
band    13 # energy   -4.85251923 # occ.  2.00000000
 
ion      s     py     pz     px    dxy    dyz    dz2    dxz  x2-y2    tot
    1  0.018  0.059  0.000  0.063  0.000  0.000  0.000  0.000  0.000  0.140
    2  0.018  0.059  0.000  0.063  0.000  0.000  0.000  0.000  0.000  0.140
    3  0.001  0.019  0.000  0.065  0.000  0.000  0.000  0.000  0.000  0.085