 running on   12 total cores
 distrk:  each k-point on   12 cores,    1 groups
 distr:  one band on    1 cores,   12 groups
 using from now: INCAR     
 vasp.5.4.4.18Apr17-6-g9f103f2a35 (build Mar 30 2023 15:39:25) complex          
  
 POSCAR found type information on POSCAR  B  C 
 POSCAR found :  2 types and       8 ions
 scaLAPACK will be used

 ----------------------------------------------------------------------------- 
|                                                                             |
|           W    W    AA    RRRRR   N    N  II  N    N   GGGG   !!!           |
|           W    W   A  A   R    R  NN   N  II  NN   N  G    G  !!!           |
|           W    W  A    A  R    R  N N  N  II  N N  N  G       !!!           |
|           W WW W  AAAAAA  RRRRR   N  N N  II  N  N N  G  GGG   !            |
|           WW  WW  A    A  R   R   N   NN  II  N   NN  G    G                |
|           W    W  A    A  R    R  N    N  II  N    N   GGGG   !!!           |
|                                                                             |
|      For optimal performance we recommend to set                            |
|        NCORE= 4 - approx SQRT( number of cores)                             |
|      NCORE specifies how many cores store one orbital (NPAR=cpu/NCORE).     |
|      This setting can  greatly improve the performance of VASP for DFT.     |
|      The default,   NCORE=1            might be grossly inefficient         |
|      on modern multi-core architectures or massively parallel machines.     |
|      Do your own testing !!!!                                               |
|      Unfortunately you need to use the default for GW and RPA calculations. |
|      (for HF NCORE is supported but not extensively tested yet)             |
|                                                                             |
 ----------------------------------------------------------------------------- 

 LDA part: xc-table for Pade appr. of Perdew
 WARNING: stress and forces are not correct
 POSCAR, INCAR and KPOINTS ok, starting setup
 FFT: planning ...
 WAVECAR not read
 charge-density read from file: BC3                                     
 entering main loop
       N       E                     dE             d eps       ncg     rms          rms(c)
DAV:   1     0.130894950247E+03    0.13089E+03   -0.11346E+04  9216   0.893E+02
DAV:   2    -0.509361325480E+02   -0.18183E+03   -0.17028E+03 13248   0.182E+02
DAV:   3    -0.666887046618E+02   -0.15753E+02   -0.15613E+02 11808   0.628E+01
DAV:   4    -0.669383532008E+02   -0.24965E+00   -0.24944E+00 13020   0.926E+00
DAV:   5    -0.669448310377E+02   -0.64778E-02   -0.64774E-02 12540   0.134E+00
DAV:   6    -0.669451238712E+02   -0.29283E-03   -0.29283E-03 14772   0.275E-01
DAV:   7    -0.669451271734E+02   -0.33022E-05   -0.33023E-05 13104   0.217E-02
DAV:   8    -0.669451272483E+02   -0.74974E-07   -0.74739E-07 11124   0.280E-03
   1 F= -.66945127E+02 E0= -.66945127E+02  d E =-.234602E-06
 writing wavefunctions
