fcc Ni DOS                              
   3.53000000000000     
     0.500000    0.500000    0.000000
     0.000000    0.500000    0.500000
     0.500000    0.000000    0.500000
   Ni
     1
Direct
  0.000000  0.000000  0.000000
 
   28   28   28
  152.34      147.26      132.98      111.99      87.703      63.555      42.350      25.847      14.643      8.2638    
  5.4217      4.4102      3.8260      3.4656      3.3457      3.4656      3.8260      4.4102      5.4217      8.2638    
  14.643      25.847      42.350      63.555      87.703      111.99      132.98      147.26      147.26      137.59    
  119.99      97.449      73.417      51.013      32.503      19.035      10.637      6.3897      4.7579      4.0660    
  3.5951      3.3584      3.3583      3.5951      4.0660      4.7579      6.3897      10.637      19.035      32.503    
  51.013      73.417      97.449      119.99      137.59      147.26      132.98      119.99      100.91      78.853    
  56.965      37.821      23.029      13.109      7.5724      5.1739      4.2917      3.7338      3.3935      3.2809    
  3.3935      3.7338      4.2917      5.1739      7.5724      13.109      23.029      37.821      56.965      78.853    
  100.91      119.99      132.98      137.59      111.99      97.449      78.853      59.086      40.777      25.825    
  15.164      8.7331      5.6431      4.4836      3.8661      3.4432      3.2338      3.2338      3.4432      3.8661    
  4.4836      5.6431      8.7331      15.164      25.825      40.777      59.086      78.853      97.449      111.99    
  119.99      119.99      87.703      73.417      56.965      40.777      26.831      16.331      9.5845      6.0646    
  4.6422      3.9775      3.4969      3.2122      3.1192      3.2122      3.4969      3.9775      4.6422      6.0646    
  9.5845      16.331      26.831      40.777      56.965      73.417      87.703      97.449      100.91      97.449    
  63.555      51.013      37.821      25.825      16.331      9.8973      6.3158      4.7560      4.0570      3.5438    
  3.2076      3.0451      3.0451      3.2076      3.5438      4.0570      4.7560      6.3158      9.8973      16.331    
  25.825      37.821      51.013      63.555      73.417      78.853      78.853      73.417      42.350      32.503    
  23.029      15.164      9.5845      6.3158      4.7982      4.0982      3.5756      3.2108      3.0024      2.9355    
  3.0024      3.2108      3.5756      4.0982      4.7982      6.3158      9.5845      15.164      23.029      32.503    
  42.350      51.013      56.965      59.086      56.965      51.013      25.847      19.035      13.109      8.7331    
  6.0646      4.7560      4.0982      3.5867      3.2145      2.9817      2.8720      2.8720      2.9817      3.2144    
  3.5867      4.0982      4.7560      6.0646      8.7331      13.109      19.035      25.847      32.503      37.821    
  40.777      40.777      37.821      32.503      14.643      10.637      7.5724      5.6431      4.6422      4.0570    
  3.5756      3.2145      2.9756      2.8435      2.8017      2.8435      2.9756      3.2145      3.5756      4.0570    
  4.6422      5.6431      7.5724      10.637      14.643      19.035      23.029      25.825      26.831      25.825    
  23.029      19.035      8.2638      6.3897      5.1739      4.4836      3.9775      3.5438      3.2108      2.9817    
  2.8435      2.7798      2.7798      2.8435      2.9817      3.2108      3.5438      3.9775      4.4836      5.1739    
  6.3897      8.2638      10.637      13.109      15.164      16.331      16.331      15.164      13.109      10.637    
  5.4217      4.7579      4.2917      3.8661      3.4969      3.2076      3.0024      2.8720      2.8017      2.7798    
  2.8017      2.8720      3.0024      3.2076      3.4969      3.8661      4.2917      4.7579      5.4217      6.3897    
  7.5724      8.7331      9.5845      9.8973      9.5845      8.7331      7.5724      6.3897      4.4102      4.0660    
  3.7338      3.4432      3.2122      3.0451      2.9355      2.8720      2.8435      2.8435      2.8720      2.9355    
  3.0451      3.2122      3.4432      3.7338      4.0660      4.4102      4.7579      5.1739      5.6431      6.0646    
  6.3158      6.3158      6.0646      5.6431      5.1739      4.7579      3.8260      3.5951      3.3935      3.2338    
  3.1192      3.0451      3.0024      2.9817      2.9756      2.9817      3.0024      3.0451      3.1192      3.2338    
  3.3935      3.5951      3.8260      4.0660      4.2917      4.4836      4.6422      4.7560      4.7982      4.7560    
  4.6422      4.4836      4.2917      4.0660      3.4656      3.3584      3.2809      3.2338      3.2122      3.2076    
  3.2108      3.2144      3.2145      3.2108      3.2076      3.2122      3.2338      3.2809      3.3584      3.4656    
  3.5951      3.7338      3.8661      3.9775      4.0570      4.0982      4.0982      4.0570      3.9775      3.8661    
  3.7338      3.5951      3.3457      3.3583      3.3935      3.4432      3.4969      3.5438      3.5756      3.5867    
  3.5756      3.5438      3.4969      3.4432      3.3935      3.3584      3.3457      3.3584      3.3935      3.4432    
  3.4969      3.5438      3.5756      3.5867      3.5756      3.5438      3.4969      3.4432      3.3935      3.3583    
  3.4656      3.5951      3.7338      3.8661      3.9775      4.0570      4.0982      4.0982      4.0570      3.9775    
  3.8661      3.7338      3.5951      3.4656      3.3584      3.2809      3.2338      3.2122      3.2076      3.2108    
  3.2145      3.2144      3.2108      3.2076      3.2122      3.2338      3.2809      3.3584      3.8260      4.0660    
  4.2917      4.4836      4.6422      4.7560      4.7982      4.7560      4.6422      4.4836      4.2917      4.0660    
  3.8260      3.5951      3.3935      3.2338      3.1192      3.0451      3.0024      2.9817      2.9756      2.9817    
  3.0024      3.0451      3.1192      3.2338      3.3935      3.5951      4.4102      4.7579      5.1739      5.6431    
  6.0646      6.3158      6.3158      6.0646      5.6431      5.1739      4.7579      4.4102      4.0660      3.7338    
  3.4432      3.2122      3.0451      2.9355      2.8720      2.8435      2.8435      2.8720      2.9355      3.0451    
  3.2122      3.4432      3.7338      4.0660      5.4217      6.3897      7.5724      8.7331      9.5845      9.8973    
  9.5845      8.7331      7.5724      6.3897      5.4217      4.7579      4.2917      3.8661      3.4969      3.2076    
  3.0024      2.8720      2.8017      2.7798      2.8017      2.8720      3.0024      3.2076      3.4969      3.8661    
  4.2917      4.7579      8.2638      10.637      13.109      15.164      16.331      16.331      15.164      13.109    
  10.637      8.2638      6.3897      5.1739      4.4836      3.9775      3.5438      3.2108      2.9817      2.8435    
  2.7798      2.7798      2.8435      2.9817      3.2108      3.5438      3.9775      4.4836      5.1739      6.3897    
  14.643      19.035      23.029      25.825      26.831      25.825      23.029      19.035      14.643      10.637    
  7.5724      5.6431      4.6422      4.0570      3.5756      3.2145      2.9756      2.8435      2.8017      2.8435    
  2.9756      3.2145      3.5756      4.0570      4.6422      5.6431      7.5724      10.637      25.847      32.503    
  37.821      40.777      40.777      37.821      32.503      25.847      19.035      13.109      8.7331      6.0646    
  4.7560      4.0982      3.5867      3.2144      2.9817      2.8720      2.8720      2.9817      3.2145      3.5867    
  4.0982      4.7560      6.0646      8.7331      13.109      19.035      42.350      51.013      56.965      59.086    
  56.965      51.013      42.350      32.503      23.029      15.164      9.5845      6.3158      4.7982      4.0982    
  3.5756      3.2108      3.0024      2.9355      3.0024      3.2108      3.5756      4.0982      4.7982      6.3158    
  9.5845      15.164      23.029      32.503      63.555      73.417      78.853      78.853      73.417      63.555    
  51.013      37.821      25.825      16.331      9.8973      6.3158      4.7560      4.0570      3.5438      3.2076    
  3.0451      3.0451      3.2076      3.5438      4.0570      4.7560      6.3158      9.8973      16.331      25.825    
  37.821      51.013      87.703      97.449      100.91      97.449      87.703      73.417      56.965      40.777    
  26.831      16.331      9.5845      6.0646      4.6422      3.9775      3.4969      3.2122      3.1192      3.2122    
  3.4969      3.9775      4.6422      6.0646      9.5845      16.331      26.831      40.777      56.965      73.417    
  111.99      119.99      119.99      111.99      97.449      78.853      59.086      40.777      25.825      15.164    
  8.7331      5.6431      4.4836      3.8661      3.4432      3.2338      3.2338      3.4432      3.8661      4.4836    
  5.6431      8.7331      15.164      25.825      40.777      59.086      78.853      97.449      132.98      137.59    
  132.98      119.99      100.91      78.853      56.965      37.821      23.029      13.109      7.5724      5.1739    
  4.2917      3.7338      3.3935      3.2809      3.3935      3.7338      4.2917      5.1739      7.5724      13.109    
  23.029      37.821      56.965      78.853      100.91      119.99      147.26      147.26      137.59      119.99    
  97.449      73.417      51.013      32.503      19.035      10.637      6.3897      4.7579      4.0660      3.5951    
  3.3583      3.3584      3.5951      4.0660      4.7579      6.3897      10.637      19.035      32.503      51.013    
  73.417      97.449      119.99      137.59      147.26      137.59      119.99      97.449      73.417      51.013    
  32.503      19.035      10.637      6.3897      4.7579      4.0660      3.5951      3.3584      3.3583      3.5951    
  4.0660      4.7579      6.3897      10.637      19.035      32.503      51.013      73.417      97.449      119.99    
  137.59      147.26      137.59      124.12      104.37      81.551      58.930      39.150      23.851      13.559    
  7.7781      5.2503      4.3325      3.7675      3.4214      3.3066      3.4214      3.7675      4.3325      5.2503    
  7.7781      13.559      23.851      39.150      58.930      81.551      104.37      124.12      137.59      142.37    
  119.99      104.37      84.435      63.286      43.714      27.715      16.252      9.2685      5.8553      4.5699    
  3.9357      3.4992      3.2819      3.2819      3.4992      3.9357      4.5699      5.8553      9.2685      16.252    
  27.715      43.714      63.286      84.435      104.37      119.99      128.59      128.59      97.449      81.551    
  63.286      45.340      29.865      18.151      10.531      6.4656      4.7914      4.0826      3.5803      3.2798    
  3.1811      3.2798      3.5803      4.0825      4.7914      6.4656      10.531      18.151      29.865      45.340    
  63.286      81.551      97.449      108.32      112.18      108.32      73.417      58.930      43.714      29.865    
  18.836      11.254      6.9227      4.9816      4.1947      3.6528      3.2921      3.1164      3.1164      3.2921    
  3.6528      4.1947      4.9816      6.9227      11.254      18.836      29.865      43.714      58.930      73.417    
  84.833      91.138      91.138      84.833      51.013      39.150      27.715      18.151      11.254      7.0923    
  5.0947      4.2643      3.7066      3.3095      3.0800      3.0058      3.0800      3.3095      3.7066      4.2643    
  5.0947      7.0923      11.254      18.151      27.715      39.150      51.013      61.459      68.646      71.210    
  68.646      61.459      32.503      23.851      16.252      10.531      6.9227      5.0947      4.2878      3.7351    
  3.3236      3.0626      2.9386      2.9386      3.0626      3.3236      3.7351      4.2878      5.0947      6.9227    
  10.531      16.252      23.851      32.503      40.925      47.650      51.390      51.390      47.650      40.925    
  19.035      13.559      9.2685      6.4656      4.9816      4.2643      3.7351      3.3289      3.0561      2.9039    
  2.8555      2.9039      3.0561      3.3289      3.7351      4.2643      4.9816      6.4656      9.2685      13.559    
  19.035      24.959      30.313      34.052      35.396      34.052      30.313      24.959      10.637      7.7781    
  5.8553      4.7914      4.1947      3.7066      3.3236      3.0561      2.8933      2.8177      2.8177      2.8933    
  3.0561      3.3236      3.7066      4.1947      4.7914      5.8553      7.7781      10.637      14.151      17.748    
  20.708      22.382      22.382      20.708      17.748      14.152      6.3897      5.2503      4.5699      4.0826    
  3.6528      3.3095      3.0626      2.9039      2.8177      2.7908      2.8177      2.9039      3.0626      3.3095    
  3.6528      4.0826      4.5699      5.2503      6.3897      8.0349      9.9837      11.853      13.205      13.699    
  13.205      11.853      9.9837      8.0349      4.7579      4.3325      3.9357      3.5803      3.2921      3.0800    
  2.9386      2.8555      2.8177      2.8177      2.8554      2.9386      3.0800      3.2921      3.5803      3.9357    
  4.3325      4.7579      5.3356      6.1207      7.0082      7.7910      8.2510      8.2510      7.7910      7.0082    
  6.1207      5.3356      4.0660      3.7675      3.4992      3.2798      3.1164      3.0058      2.9386      2.9039    
  2.8933      2.9039      2.9386      3.0058      3.1164      3.2798      3.4992      3.7675      4.0660      4.3676    
  4.6559      4.9657      5.2782      5.5183      5.6088      5.5183      5.2783      4.9657      4.6559      4.3676    
  3.5951      3.4214      3.2819      3.1811      3.1164      3.0800      3.0626      3.0561      3.0561      3.0626    
  3.0800      3.1164      3.1811      3.2819      3.4214      3.5951      3.7905      3.9893      4.1717      4.3206    
  4.4258      4.4825      4.4825      4.4258      4.3206      4.1717      3.9893      3.7905      3.3584      3.3066    
  3.2819      3.2798      3.2921      3.3095      3.3236      3.3289      3.3236      3.3095      3.2921      3.2798    
  3.2819      3.3066      3.3584      3.4361      3.5325      3.6359      3.7327      3.8108      3.8611      3.8784    
  3.8611      3.8108      3.7327      3.6359      3.5325      3.4361      3.3583      3.4214      3.4992      3.5803    
  3.6528      3.7066      3.7351      3.7351      3.7066      3.6528      3.5803      3.4992      3.4214      3.3584    
  3.3184      3.3043      3.3130      3.3370      3.3665      3.3921      3.4069      3.4069      3.3921      3.3665    
  3.3369      3.3130      3.3043      3.3184      3.5951      3.7675      3.9357      4.0825      4.1947      4.2643    
  4.2878      4.2643      4.1947      4.0826      3.9357      3.7675      3.5951      3.4361      3.3043      3.2067    
  3.1430      3.1073      3.0909      3.0852      3.0841      3.0852      3.0909      3.1073      3.1430      3.2067    
  3.3043      3.4361      4.0660      4.3325      4.5699      4.7914      4.9816      5.0947      5.0947      4.9816    
  4.7914      4.5699      4.3325      4.0660      3.7905      3.5325      3.3130      3.1430      3.0232      2.9469    
  2.9040      2.8853      2.8853      2.9040      2.9469      3.0232      3.1430      3.3130      3.5325      3.7905    
  4.7579      5.2503      5.8553      6.4656      6.9227      7.0923      6.9227      6.4656      5.8553      5.2503    
  4.7579      4.3676      3.9893      3.6359      3.3370      3.1073      2.9469      2.8462      2.7925      2.7758    
  2.7925      2.8462      2.9469      3.1073      3.3370      3.6359      3.9893      4.3676      6.3897      7.7781    
  9.2685      10.531      11.254      11.254      10.531      9.2685      7.7781      6.3897      5.3356      4.6559    
  4.1717      3.7327      3.3665      3.0909      2.9040      2.7925      2.7413      2.7413      2.7925      2.9040    
  3.0909      3.3665      3.7327      4.1717      4.6559      5.3356      10.637      13.559      16.252      18.151    
  18.836      18.151      16.252      13.559      10.637      8.0349      6.1207      4.9657      4.3206      3.8108    
  3.3921      3.0852      2.8853      2.7758      2.7413      2.7758      2.8853      3.0852      3.3921      3.8108    
  4.3206      4.9657      6.1207      8.0349      19.035      23.851      27.715      29.865      29.865      27.715    
  23.851      19.035      14.151      9.9837      7.0082      5.2782      4.4258      3.8611      3.4069      3.0841    
  2.8853      2.7925      2.7925      2.8853      3.0841      3.4069      3.8611      4.4258      5.2782      7.0082    
  9.9837      14.152      32.503      39.150      43.714      45.340      43.714      39.150      32.503      24.959    
  17.748      11.853      7.7910      5.5183      4.4825      3.8784      3.4069      3.0852      2.9040      2.8462    
  2.9040      3.0852      3.4069      3.8784      4.4825      5.5182      7.7910      11.853      17.748      24.959    
  51.013      58.930      63.286      63.286      58.930      51.013      40.925      30.313      20.708      13.205    
  8.2510      5.6088      4.4825      3.8611      3.3921      3.0909      2.9469      2.9469      3.0909      3.3921    
  3.8611      4.4825      5.6088      8.2510      13.205      20.708      30.313      40.925      73.417      81.551    
  84.435      81.551      73.417      61.459      47.650      34.052      22.382      13.699      8.2510      5.5183    
  4.4258      3.8108      3.3665      3.1073      3.0232      3.1073      3.3665      3.8108      4.4258      5.5182    
  8.2510      13.699      22.382      34.052      47.650      61.459      97.449      104.37      104.37      97.449    
  84.833      68.646      51.390      35.396      22.382      13.205      7.7910      5.2783      4.3206      3.7327    
  3.3369      3.1430      3.1430      3.3370      3.7327      4.3206      5.2782      7.7910      13.205      22.382    
  35.395      51.390      68.646      84.833      119.99      124.12      119.99      108.32      91.138      71.210    
  51.390      34.052      20.708      11.853      7.0082      4.9657      4.1717      3.6359      3.3130      3.2067    
  3.3130      3.6359      4.1717      4.9657      7.0082      11.853      20.708      34.052      51.390      71.210    
  91.138      108.32      137.59      137.59      128.59      112.18      91.138      68.646      47.650      30.313    
  17.748      9.9837      6.1207      4.6559      3.9893      3.5325      3.3043      3.3043      3.5325      3.9893    
  4.6559      6.1207      9.9837      17.748      30.313      47.650      68.646      91.138      112.18      128.59    
  147.26      142.37      128.59      108.32      84.833      61.459      40.925      24.959      14.152      8.0349    
  5.3356      4.3676      3.7905      3.4361      3.3184      3.4361      3.7905      4.3676      5.3356      8.0349    
  14.152      24.959      40.925      61.459      84.833      108.32      128.59      142.37      132.98      119.99    
  100.91      78.853      56.965      37.821      23.029      13.109      7.5724      5.1739      4.2917      3.7338    
  3.3935      3.2809      3.3935      3.7338      4.2917      5.1739      7.5724      13.109      23.029      37.821    
  56.965      78.853      100.91      119.99      132.98      137.59      119.99      104.37      84.435      63.286    
  43.714      27.715      16.252      9.2685      5.8553      4.5699      3.9357      3.4992      3.2819      3.2819    
  3.4992      3.9357      4.5699      5.8553      9.2685      16.252      27.715      43.714      63.286      84.435    
  104.37      119.99      128.59      128.59      100.91      84.435      65.524      46.954      30.940      18.800    
  10.872      6.6129      4.8454      4.1184      3.6090      3.3031      3.2025      3.3031      3.6090      4.1184    
  4.8454      6.6129      10.872      18.800      30.940      46.954      65.524      84.435      100.91      112.18    
  116.20      112.18      78.853      63.286      46.954      32.089      20.225      12.019      7.2731      5.1120    
  4.2655      3.7096      3.3365      3.1539      3.1539      3.3365      3.7096      4.2655      5.1120      7.2730    
  12.019      20.225      32.089      46.954      63.286      78.853      91.138      97.930      97.930      91.138    
  56.965      43.714      30.940      20.225      12.435      7.6579      5.3129      4.3669      3.7893      3.3725    
  3.1296      3.0508      3.1296      3.3725      3.7893      4.3669      5.3129      7.6579      12.435      20.225    
  30.940      43.714      56.965      68.646      76.694      79.568      76.694      68.646      37.821      27.715    
  18.800      12.019      7.6579      5.3881      4.4193      3.8400      3.4019      3.1209      2.9866      2.9866    
  3.1209      3.4019      3.8400      4.4193      5.3881      7.6579      12.019      18.800      27.715      37.821    
  47.650      55.504      59.876      59.876      55.504      47.650      23.029      16.252      10.872      7.2731    
  5.3129      4.4193      3.8574      3.4183      3.1195      2.9514      2.8978      2.9514      3.1196      3.4183    
  3.8574      4.4193      5.3129      7.2731      10.872      16.252      23.029      30.313      36.880      41.465    
  43.112      41.465      36.880      30.313      13.109      9.2685      6.6129      5.1120      4.3669      3.8400    
  3.4183      3.1198      2.9364      2.8509      2.8509      2.9364      3.1198      3.4183      3.8400      4.3669    
  5.1120      6.6129      9.2685      13.109      17.748      22.449      26.301      28.475      28.475      26.301    
  22.449      17.748      7.5724      5.8553      4.8454      4.2655      3.7893      3.4019      3.1195      2.9364    
  2.8364      2.8050      2.8364      2.9364      3.1195      3.4019      3.7893      4.2655      4.8454      5.8553    
  7.5724      9.9837      12.776      15.416      17.313      18.003      17.313      15.416      12.776      9.9837    
  5.1739      4.5699      4.1184      3.7096      3.3725      3.1209      2.9514      2.8509      2.8050      2.8050    
  2.8509      2.9514      3.1209      3.3725      3.7096      4.1184      4.5699      5.1739      6.1207      7.4057    
  8.8257      10.056      10.772      10.772      10.056      8.8257      7.4057      6.1207      4.2917      3.9357    
  3.6090      3.3365      3.1296      2.9866      2.8978      2.8509      2.8364      2.8509      2.8978      2.9866    
  3.1296      3.3365      3.6090      3.9357      4.2917      4.6559      5.1014      5.6564      6.2295      6.6668    
  6.8307      6.6668      6.2295      5.6565      5.1014      4.6559      3.7338      3.4992      3.3031      3.1539    
  3.0508      2.9866      2.9514      2.9364      2.9364      2.9514      2.9866      3.0508      3.1539      3.3031    
  3.4992      3.7338      3.9893      4.2423      4.4704      4.6769      4.8535      4.9589      4.9589      4.8535    
  4.6769      4.4704      4.2423      3.9893      3.3935      3.2819      3.2025      3.1539      3.1296      3.1209    
  3.1196      3.1198      3.1195      3.1209      3.1296      3.1539      3.2025      3.2819      3.3935      3.5325    
  3.6873      3.8423      3.9809      4.0891      4.1575      4.1808      4.1575      4.0891      3.9809      3.8423    
  3.6873      3.5325      3.2809      3.2819      3.3031      3.3365      3.3725      3.4019      3.4183      3.4183    
  3.4019      3.3725      3.3365      3.3031      3.2819      3.2809      3.3043      3.3508      3.4138      3.4830    
  3.5470      3.5957      3.6218      3.6218      3.5957      3.5470      3.4830      3.4138      3.3508      3.3043    
  3.3935      3.4992      3.6090      3.7096      3.7893      3.8400      3.8574      3.8400      3.7893      3.7096    
  3.6090      3.4992      3.3935      3.3043      3.2397      3.2021      3.1883      3.1909      3.2012      3.2110    
  3.2149      3.2110      3.2012      3.1909      3.1883      3.2021      3.2397      3.3043      3.7338      3.9357    
  4.1184      4.2655      4.3669      4.4193      4.4193      4.3669      4.2655      4.1184      3.9357      3.7338    
  3.5325      3.3508      3.2021      3.0920      3.0187      2.9752      2.9527      2.9437      2.9437      2.9527    
  2.9751      3.0187      3.0920      3.2021      3.3508      3.5325      4.2917      4.5699      4.8454      5.1120    
  5.3129      5.3881      5.3129      5.1120      4.8454      4.5699      4.2917      3.9893      3.6873      3.4138    
  3.1883      3.0187      2.9024      2.8307      2.7930      2.7814      2.7930      2.8307      2.9024      3.0187    
  3.1883      3.4138      3.6873      3.9893      5.1739      5.8553      6.6129      7.2730      7.6579      7.6579    
  7.2731      6.6129      5.8553      5.1739      4.6559      4.2423      3.8423      3.4830      3.1909      2.9752    
  2.8307      2.7452      2.7063      2.7063      2.7452      2.8307      2.9752      3.1909      3.4830      3.8423    
  4.2423      4.6559      7.5724      9.2685      10.872      12.019      12.435      12.019      10.872      9.2685    
  7.5724      6.1207      5.1014      4.4704      3.9809      3.5470      3.2012      2.9527      2.7930      2.7063    
  2.6791      2.7063      2.7930      2.9527      3.2012      3.5470      3.9809      4.4704      5.1014      6.1207    
  13.109      16.252      18.800      20.225      20.225      18.800      16.252      13.109      9.9837      7.4057    
  5.6564      4.6769      4.0891      3.5957      3.2110      2.9437      2.7814      2.7063      2.7063      2.7814    
  2.9437      3.2110      3.5957      4.0891      4.6769      5.6565      7.4057      9.9837      23.029      27.715    
  30.940      32.089      30.940      27.715      23.029      17.748      12.776      8.8257      6.2295      4.8535    
  4.1575      3.6218      3.2149      2.9437      2.7930      2.7452      2.7930      2.9437      3.2149      3.6218    
  4.1575      4.8535      6.2295      8.8257      12.776      17.748      37.821      43.714      46.954      46.954    
  43.714      37.821      30.313      22.449      15.416      10.056      6.6668      4.9589      4.1808      3.6218    
  3.2110      2.9527      2.8307      2.8307      2.9527      3.2110      3.6218      4.1808      4.9589      6.6667    
  10.056      15.416      22.449      30.313      56.965      63.286      65.524      63.286      56.965      47.650    
  36.880      26.301      17.313      10.772      6.8307      4.9589      4.1575      3.5957      3.2012      2.9751    
  2.9024      2.9752      3.2012      3.5957      4.1575      4.9589      6.8307      10.772      17.313      26.301    
  36.880      47.650      78.853      84.435      84.435      78.853      68.646      55.504      41.465      28.475    
  18.003      10.772      6.6668      4.8535      4.0891      3.5470      3.1909      3.0187      3.0187      3.1909    
  3.5470      4.0891      4.8535      6.6667      10.772      18.003      28.475      41.465      55.504      68.646    
  100.91      104.37      100.91      91.138      76.694      59.876      43.112      28.475      17.313      10.056    
  6.2295      4.6769      3.9809      3.4830      3.1883      3.0920      3.1883      3.4830      3.9809      4.6769    
  6.2295      10.056      17.313      28.475      43.112      59.876      76.694      91.138      119.99      119.99    
  112.18      97.930      79.568      59.876      41.465      26.301      15.416      8.8257      5.6565      4.4704    
  3.8423      3.4138      3.2021      3.2021      3.4138      3.8423      4.4704      5.6565      8.8257      15.416    
  26.301      41.465      59.876      79.568      97.930      112.18      132.98      128.59      116.20      97.930    
  76.694      55.504      36.880      22.449      12.776      7.4057      5.1014      4.2423      3.6873      3.3508    
  3.2397      3.3508      3.6873      4.2423      5.1014      7.4057      12.776      22.449      36.880      55.504    
  76.694      97.930      116.20      128.59      137.59      128.59      112.18      91.138      68.646      47.650    
  30.313      17.748      9.9837      6.1207      4.6559      3.9893      3.5325      3.3043      3.3043      3.5325    
  3.9893      4.6559      6.1207      9.9837      17.748      30.313      47.650      68.646      91.138      112.18    
  128.59      137.59      111.99      97.449      78.853      59.086      40.777      25.825      15.164      8.7331    
  5.6431      4.4836      3.8661      3.4432      3.2338      3.2338      3.4432      3.8661      4.4836      5.6431    
  8.7331      15.164      25.825      40.777      59.086      78.853      97.449      111.99      119.99      119.99    
  97.449      81.551      63.286      45.340      29.865      18.151      10.531      6.4656      4.7914      4.0826    
  3.5803      3.2798      3.1811      3.2798      3.5803      4.0825      4.7914      6.4656      10.531      18.151    
  29.865      45.340      63.286      81.551      97.449      108.32      112.18      108.32      78.853      63.286    
  46.954      32.089      20.225      12.019      7.2731      5.1120      4.2655      3.7096      3.3365      3.1539    
  3.1539      3.3365      3.7096      4.2655      5.1120      7.2730      12.019      20.225      32.089      46.954    
  63.286      78.853      91.138      97.930      97.930      91.138      59.086      45.340      32.089      20.967    
  12.860      7.8647      5.3936      4.4018      3.8176      3.3941      3.1467      3.0663      3.1467      3.3941    