    1    1    1    2
  0.1099674E+02  0.2496087E-09  0.2496087E-09  0.2496087E-09  0.5000000E-15
  1.000000000000000E-004
  CAR 
 fcc Ni DOS                              
     10    286     12
 
  0.0000000E+00  0.0000000E+00  0.0000000E+00  0.1079797E-03
    1        0.289550      0.252011   1.000000   1.000000
    2        6.829527      7.545019   1.000000   1.000000
    3        6.829530      7.545021   1.000000   1.000000
    4        6.829530      7.545021   1.000000   1.000000
    5        7.969974      8.580638   1.000000   1.000032
    6        7.969974      8.580638   1.000000   1.000032
    7       32.892430     32.730900   0.000000   0.000000
    8       36.651149     36.632034   0.000000   0.000000
    9       36.651190     36.632082   0.000000   0.000000
   10       36.651190     36.632082   0.000000   0.000000
   11       39.715938     39.787379   0.000000   0.000000
   12       39.715943     39.787391   0.000000   0.000000
 
  0.4761905E-01  0.0000000E+00  0.0000000E+00  0.8638376E-03
    1        0.377751      0.340288   1.000000   1.000000
    2        6.807311      7.519889   1.000000   1.000000
    3        6.849395      7.565693   1.000000   1.000000
    4        6.849397      7.565695   1.000000   1.000000
    5        7.961661      8.571683   1.000000   1.000024
    6        7.961661      8.571684   1.000000   1.000024
    7       32.628677     32.493582   0.000000   0.000000
    8       35.390344     35.378804   0.000000   0.000000
    9       36.432826     36.428974   0.000000   0.000000
   10       36.432861     36.429016   0.000000   0.000000
   11       40.038452     40.091862   0.000000   0.000000
   12       40.038464     40.091873   0.000000   0.000000
 
  0.9523810E-01  0.0000000E+00  0.0000000E+00  0.8638376E-03
    1        0.639643      0.602629   1.000000   1.000000
    2        6.745500      7.449287   1.000000   1.000000
    3        6.903665      7.621380   1.000000   1.000000
    4        6.903667      7.621382   1.000000   1.000000
    5        7.941787      8.550972   1.000000   1.000013
    6        7.941788      8.550972   1.000000   1.000013
    7       31.308944     31.279947   0.000000   0.000000
    8       34.178403     34.096243   0.000000   0.000000
    9       35.960955     35.983066   0.000000   0.000000
   10       35.960987     35.983106   0.000000   0.000000
   11       40.776692     40.793951   0.000000   0.000000
   12       40.776699     40.793956   0.000000   0.000000
 
  0.1428571E+00  0.0000000E+00  0.0000000E+00  0.8638376E-03
    1        1.066233      1.030887   1.000000   1.000000
    2        6.653789      7.342849   1.000000   1.000000
    3        6.975338      7.691334   1.000000   1.000000
    4        6.975340      7.691337   1.000000   1.000000
    5        7.925332      8.537592   1.000000   1.000008
    6        7.925333      8.537592   1.000000   1.000008
    7       29.031021     29.073417   0.000000   0.000000
    8       33.762727     33.644195   0.000000   0.000000
    9       35.450232     35.494549   0.000000   0.000000
   10       35.450262     35.494587   0.000000   0.000000
   11       40.750037     40.688440   0.000000   0.000000
   12       41.459151     41.438145   0.000000   0.000000
 
  0.1904762E+00  0.0000000E+00  0.0000000E+00  0.8638376E-03
    1        1.639281      1.609128   1.000000   1.000000
    2        6.566105      7.231680   1.000000   1.000000
    3        7.036388      7.740687   1.000000   1.000000
    4        7.036390      7.740690   1.000000   1.000000
    5        7.945033      8.570620   1.000000   1.000023
    6        7.945035      8.570621   1.000000   1.000023
    7       26.582137     26.663649   0.000000   0.000000
    8       33.458671     33.333286   0.000000   0.000000
    9       34.994566     35.056013   0.000000   0.000000
   10       34.994593     35.056049   0.000000   0.000000
   11       40.779320     40.725163   0.000000   0.000000
   12       41.373465     41.353716   0.000000   0.000000
 
  0.2380952E+00  0.0000000E+00  0.0000000E+00  0.8638376E-03
    1        2.323797      2.308247   1.000000   1.000000
    2        6.517479      7.145294   1.000000   1.000000
    3        7.052538      7.734993   1.000000   1.000000
    4        7.052540      7.734997   1.000000   1.000000
    5        8.014906      8.666135   1.000000   1.000336
    6        8.014909      8.666136   1.000000   1.000336
    7       24.169797     24.284880   0.000000   0.000000
    8       33.083281     32.954440   0.000000   0.000000
    9       34.589334     34.664578   0.000000   0.000000
   10       34.589356     34.664612   0.000000   0.000000
   11       40.421410     40.428972   0.000000   0.000000
   12       40.421422     40.428991   0.000000   0.000000
 
  0.2857143E+00  0.0000000E+00  0.0000000E+00  0.8638376E-03
    1        3.051768      3.074682   1.000000   1.000000
    2        6.572287      7.133331   1.000000   1.000000
    3        7.025963      7.684620   1.000000   1.000000
    4        7.025965      7.684624   1.000000   1.000000
    5        8.140700      8.820065   1.000000   1.008251
    6        8.140704      8.820066   1.000000   1.008251
    7       21.836779     21.987129   0.000000   0.000000
    8       32.637442     32.504659   0.000000   0.000000
    9       34.276505     34.359834   0.000000   0.000000
   10       34.276521     34.359865   0.000000   0.000000
   11       39.336077     39.356638   0.000000   0.000000
   12       39.336100     39.356667   0.000000   0.000000
 
  0.3333333E+00  0.0000000E+00  0.0000000E+00  0.8638376E-03
    1        3.702757      3.811786   1.000000   1.000000
    2        6.843908      7.281973   1.000000   1.000000
    3        6.973295      7.613201   1.000000   1.000000
    4        6.973296      7.613204   1.000000   1.000000
    5        8.296413      8.999187   1.000000   1.032362
    6        8.296418      8.999188   1.000000   1.032362
    7       19.653552     19.844906   0.000000   0.000000
    8       32.195843     32.057939   0.000000   0.000000
    9       34.043111     34.129950   0.000000   0.000000
   10       34.043121     34.129978   0.000000   0.000000
   11       38.358775     38.385007   0.000000   0.000000
   12       38.358808     38.385043   0.000000   0.000000
 
  0.3809524E+00  0.0000000E+00  0.0000000E+00  0.8638376E-03
    1        4.145026      4.384660   1.000000   1.000000
    2        6.915250      7.542313   1.000000   1.000000
    3        6.915252      7.542316   1.000000   1.000000
    4        7.421399      7.678972   1.000000   1.000000
    5        8.440875      9.161667   1.000000   0.728580
    6        8.440880      9.161668   1.000000   0.728576
    7       17.673543     17.917535   0.000000   0.000000
    8       31.815993     31.673174   0.000000   0.000000
    9       33.878194     33.964911   0.000000   0.000000
   10       33.878195     33.964935   0.000000   0.000000
   11       37.560372     37.590973   0.000000   0.000000
   12       37.560414     37.591016   0.000000   0.000000
 
  0.4285714E+00  0.0000000E+00  0.0000000E+00  0.8638376E-03
    1        4.365086      4.716069   1.000000   1.000000
    2        6.869299      7.488372   1.000000   1.000000
    3        6.869301      7.488376   1.000000   1.000000
    4        8.210766      8.289024   1.000000   1.000000
    5        8.554279      9.287011   1.000014   0.226721
    6        8.554284      9.287011   1.000014   0.226718
    7       16.019174     16.332635   0.000000   0.000000
    8       31.541248     31.394714   0.000000   0.000000
    9       33.776747     33.861049   0.000000   0.000000
   10       33.776753     33.861069   0.000000   0.000000
   11       37.015013     37.048843   0.000000   0.000000
   12       37.015063     37.048890   0.000000   0.000000
 
  0.4761905E+00  0.0000000E+00  0.0000000E+00  0.8638376E-03
    1        4.446152      4.850798   1.000000   1.000000
    2        6.846753      7.461714   1.000000   1.000000
    3        6.846755      7.461718   1.000000   1.000000
    4        8.617983      8.807887   1.000093   1.006755
    5        8.617989      9.356470   1.000093   0.043006
    6        8.853506      9.356471   1.013564   0.043005
    7       14.973102     15.357347   0.000000   0.000000
    8       31.400920     31.252207   0.000000   0.000000
    9       33.728891     33.811015   0.000000   0.000000
   10       33.728902     33.811033   0.000000   0.000000
   11       36.795764     36.828583   0.000000   0.000000
   12       36.795820     36.828634   0.000000   0.000000
 
  0.4761905E-01  0.4761905E-01  0.0000000E+00  0.6478782E-03
    1        0.407111      0.369667   1.000000   1.000000
    2        6.788081      7.500044   1.000000   1.000000
    3        6.862351      7.578869   1.000000   1.000000
    4        6.862353      7.578870   1.000000   1.000000
    5        7.931945      8.540101   1.000000   1.000009
    6        7.985063      8.596292   1.000000   1.000050
    7       32.632636     32.494364   0.000000   0.000000
    8       35.659578     35.678307   0.000000   0.000000
    9       35.659601     35.678336   0.000000   0.000000
   10       36.079809     36.043854   0.000000   0.000000
   11       40.232280     40.284268   0.000000   0.000000
   12       40.693886     40.719220   0.000000   0.000000
 
  0.9523810E-01  0.4761905E-01  0.0000000E+00  0.2591513E-02
    1        0.610973      0.573827   1.000000   1.000000
    2        6.732361      7.438048   1.000000   1.000000
    3        6.908226      7.626195   1.000000   1.000000
    4        6.911664      7.629448   1.000000   1.000000
    5        7.888952      8.494297   1.000000   1.000002
    6        7.993890      8.605620   1.000000   1.000066
    7       31.891791     31.822491   0.000000   0.000000
    8       34.135885     34.106386   0.000000   0.000000
    9       34.889017     34.926927   0.000000   0.000000
   10       36.380791     36.354667   0.000000   0.000000
   11       40.128989     40.164595   0.000000   0.000000
   12       41.530482     41.525885   0.000000   0.000000
 
  0.1428571E+00  0.4761905E-01  0.0000000E+00  0.2591513E-02
    1        0.982647      0.946667   1.000000   1.000000
    2        6.647104      7.341034   1.000000   1.000000
    3        6.975311      7.693203   1.000000   1.000000
    4        6.982383      7.699513   1.000000   1.000000
    5        7.845206      8.449892   1.000000   1.000000
    6        7.998979      8.613675   1.000000   1.000082
    7       29.885600     29.910455   0.000000   0.000000
    8       33.402885     33.320201   0.000000   0.000000
    9       34.196751     34.250039   0.000000   0.000000
   10       36.807934     36.779761   0.000000   0.000000
   11       39.553724     39.570147   0.000000   0.000000
   12       42.196412     42.183635   0.000000   0.000000
 
  0.1904762E+00  0.4761905E-01  0.0000000E+00  0.2591513E-02
    1        1.507489      1.475218   1.000000   1.000000
    2        6.553610      7.228789   1.000000   1.000000
    3        7.041208      7.749171   1.000000   1.000000
    4        7.047298      7.756707   1.000000   1.000000
    5        7.832852      8.446904   1.000000   1.000000
    6        8.023561      8.649004   1.000000   1.000216
    7       27.453753     27.523530   0.000000   0.000000
    8       33.023519     32.934706   0.000000   0.000000
    9       33.605980     33.671852   0.000000   0.000000
   10       37.076506     37.069331   0.000000   0.000000
   11       38.859023     38.863067   0.000000   0.000000
   12       42.504409     42.494110   0.000000   0.000000
 
  0.2380952E+00  0.4761905E-01  0.0000000E+00  0.2591513E-02
    1        2.157390      2.135673   1.000000   1.000000
    2        6.483684      7.129234   1.000000   1.000000
    3        7.065947      7.748622   1.000000   1.000000
    4        7.080974      7.772422   1.000000   1.000000
    5        7.889900      8.529240   1.000000   1.000006
    6        8.091551      8.738257   1.000000   1.001795
    7       25.023893     25.127087   0.000000   0.000000
    8       32.662384     32.571669   0.000000   0.000000
    9       33.133541     33.207978   0.000000   0.000000
   10       36.872586     36.919537   0.000000   0.000000
   11       38.339110     38.322387   0.000000   0.000000
   12       41.981240     41.989955   0.000000   0.000000
 
  0.2857143E+00  0.4761905E-01  0.0000000E+00  0.2591513E-02
    1        2.877874      2.884478   1.000000   1.000000
    2        6.485094      7.080164   1.000000   1.000000
    3        7.035412      7.690294   1.000000   1.000000
    4        7.070834      7.739816   1.000000   1.000000
    5        8.028258      8.695296   1.000000   1.000685
    6        8.201989      8.875497   1.000000   1.017983
    7       22.657543     22.794288   0.000000   0.000000
    8       32.273388     32.176620   0.000000   0.000000
    9       32.781847     32.861211   0.000000   0.000000
   10       36.172285     36.256170   0.000000   0.000000
   11       38.025077     38.006671   0.000000   0.000000
   12       41.040469     41.046075   0.000000   0.000000
 
  0.3333333E+00  0.4761905E-01  0.0000000E+00  0.2591513E-02
    1        3.566807      3.641547   1.000000   1.000000
    2        6.647538      7.149499   1.000000   1.000000
    3        6.972122      7.607555   1.000000   1.000000
    4        7.028253      7.677223   1.000000   1.000000
    5        8.228936      8.912312   1.000000   1.026344
    6        8.341446      9.039331   1.000000   1.010318
    7       20.417134     20.591709   0.000000   0.000000
    8       31.884722     31.778577   0.000000   0.000000
    9       32.561978     32.642810   0.000000   0.000000
   10       35.314319     35.410709   0.000000   0.000000
   11       37.743840     37.735488   0.000000   0.000000
   12       40.049154     40.067738   0.000000   0.000000
 
  0.3809524E+00  0.4761905E-01  0.0000000E+00  0.2591513E-02
    1        4.083346      4.279644   1.000000   1.000000
    2        6.903944      7.406479   1.000000   1.000000
    3        6.972239      7.542761   1.000000   1.000000
    4        7.059764      7.606290   1.000000   1.000000
    5        8.474554      9.154682   1.000001   0.753977
    6        8.479654      9.191677   1.000001   0.610734
    7       18.357510     18.579074   0.000000   0.000000
    8       31.533376     31.417722   0.000000   0.000000
    9       32.478894     32.559072   0.000000   0.000000
   10       34.487774     34.584241   0.000000   0.000000
   11       37.570034     37.571522   0.000000   0.000000
   12       39.156066     39.182527   0.000000   0.000000
 
  0.4285714E+00  0.4761905E-01  0.0000000E+00  0.2591513E-02
    1        4.365337      4.687941   1.000000   1.000000
    2        6.847364      7.449783   1.000000   1.000000
    3        6.920067      7.543821   1.000000   1.000000
    4        7.632459      7.910881   1.000000   1.000000
    5        8.573848      9.304750   1.000026   0.168737
    6        8.823148      9.421397   1.008666  -0.026754
    7       16.563357     16.847558   0.000000   0.000000
    8       31.240040     31.118969   0.000000   0.000000
    9       32.547890     32.626138   0.000000   0.000000
   10       33.773979     33.863831   0.000000   0.000000
   11       37.496561     37.507280   0.000000   0.000000
   12       38.385902     38.418874   0.000000   0.000000
 
  0.4761905E+00  0.4761905E-01  0.0000000E+00  0.2591513E-02
    1        4.480672      4.877002   1.000000   1.000000
    2        6.814079      7.415736   1.000000   1.000000
    3        6.885072      7.502633   1.000000   1.000000
    4        8.040367      8.357322   1.000000   1.000000
    5        8.623992      9.362388   1.000110   0.032866
    6        9.293980      9.710566   0.203115  -0.001368
    7       15.250242     15.609884   0.000000   0.000000
    8       31.026182     30.907114   0.000000   0.000000
    9       32.784141     32.860915   0.000000   0.000000
   10       33.235684     33.313299   0.000000   0.000000
   11       37.572248     37.589097   0.000000   0.000000
   12       37.783582     37.820594   0.000000   0.000000
 
 -0.4761905E+00  0.4761905E-01  0.0000000E+00  0.2591513E-02
    1        4.504227      4.917745   1.000000   1.000000
    2        6.807690      7.409988   1.000000   1.000000
    3        6.873451      7.488656   1.000000   1.000000
    4        8.150495      8.496271   1.000000   1.000002
    5        8.613375      9.352965   1.000082   0.049415
    6        9.500302      9.840753  -0.031363  -0.000049
    7       14.854977     15.247020   0.000000   0.000000
    8       30.894293     30.787388   0.000000   0.000000
    9       32.913948     32.973054   0.000000   0.000000
   10       33.192186     33.269905   0.000000   0.000000
   11       37.340799     37.379752   0.000000   0.000000
   12       37.776846     37.797018   0.000000   0.000000
 
 -0.4285714E+00  0.4761905E-01  0.0000000E+00  0.2591513E-02
    1        4.455648      4.834083   1.000000   1.000000
    2        6.829465      7.435485   1.000000   1.000000
    3        6.889085      7.505514   1.000000   1.000000
    4        7.973391      8.246710   1.000000   1.000000
    5        8.540112      9.274980   1.000009   0.269778
    6        9.174871      9.675931   0.678268  -0.002819
    7       15.613523     15.948395   0.000000   0.000000
    8       30.841089     30.756327   0.000000   0.000000
    9       32.824725     32.859984   0.000000   0.000000
   10       33.769050     33.851265   0.000000   0.000000
   11       37.096264     37.131283   0.000000   0.000000
   12       38.111409     38.132200   0.000000   0.000000
 
 -0.3809524E+00  0.4761905E-01  0.0000000E+00  0.2591513E-02
    1        4.295514      4.580181   1.000000   1.000000
    2        6.874169      7.485518   1.000000   1.000000
    3        6.926462      7.548388   1.000000   1.000000
    4        7.468245      7.749784   1.000000   1.000000
    5        8.412288      9.137006   1.000000   0.813865
    6        8.798330      9.449863   1.005734  -0.034726
    7       17.123848     17.385263   0.000000   0.000000
    8       30.860213     30.802718   0.000000   0.000000
    9       32.963993     32.974092   0.000000   0.000000
   10       34.470947     34.562318   0.000000   0.000000
   11       36.995980     37.024371   0.000000   0.000000
   12       38.529281     38.548520   0.000000   0.000000
 
 -0.3333333E+00  0.4761905E-01  0.0000000E+00  0.2591513E-02
    1        3.938471      4.089759   1.000000   1.000000
    2        6.900084      7.314331   1.000000   1.000000
    3        6.942150      7.566806   1.000000   1.000000
    4        6.980073      7.612510   1.000000   1.000000
    5        8.250398      8.959140   1.000000   1.034771
    6        8.553974      9.244031   1.000014   0.391297
    7       19.020131     19.224915   0.000000   0.000000
    8       30.966913     30.933895   0.000000   0.000000
    9       33.297414     33.286380   0.000000   0.000000
   10       35.204277     35.306442   0.000000   0.000000
   11       37.145464     37.165330   0.000000   0.000000
   12       38.989183     39.001985   0.000000   0.000000
 
 -0.2857143E+00  0.4761905E-01  0.0000000E+00  0.2591513E-02
    1        3.350198      3.396065   1.000000   1.000000
    2        6.577277      7.116518   1.000000   1.000000
    3        6.998969      7.644116   1.000000   1.000000
    4        7.041424      7.690571   1.000000   1.000000
    5        8.078348      8.764549   1.000000   1.003067
    6        8.362333      9.047638   1.000000   1.002248
    7       21.148166     21.309491   0.000000   0.000000
    8       31.161526     31.145881   0.000000   0.000000
    9       33.774337     33.748522   0.000000   0.000000
   10       35.788307     35.886029   0.000000   0.000000
   11       37.786123     37.805043   0.000000   0.000000
   12       39.353571     39.351687   0.000000   0.000000
 
 -0.2380952E+00  0.4761905E-01  0.0000000E+00  0.2591513E-02
    1        2.635442      2.629462   1.000000   1.000000
    2        6.480478      7.095610   1.000000   1.000000
    3        7.044892      7.711222   1.000000   1.000000
    4        7.082128      7.756327   1.000000   1.000000
    5        7.931347      8.587848   1.000000   1.000039
    6        8.197845      8.863854   1.000000   1.015561
    7       23.439030     23.564309   0.000000   0.000000
    8       31.443149     31.436056   0.000000   0.000000
    9       34.315378     34.280138   0.000000   0.000000
   10       36.174813     36.252404   0.000000   0.000000
   11       38.833460     38.860163   0.000000   0.000000
   12       39.483703     39.459183   0.000000   0.000000
 
 -0.1904762E+00  0.4761905E-01  0.0000000E+00  0.2591513E-02
    1        1.929630      1.903195   1.000000   1.000000
    2        6.508249      7.165361   1.000000   1.000000
    3        7.055514      7.744951   1.000000   1.000000
    4        7.076390      7.778849   1.000000   1.000000
    5        7.847345      8.472191   1.000000   1.000001
    6        8.076441      8.718624   1.000000   1.001172
    7       25.819474     25.912145   0.000000   0.000000
    8       31.808662     31.800500   0.000000   0.000000
    9       34.808200     34.767861   0.000000   0.000000
   10       36.499837     36.554752   0.000000   0.000000
   11       39.467541     39.425665   0.000000   0.000000
   12       40.047921     40.066028   0.000000   0.000000
 
 -0.1428571E+00  0.4761905E-01  0.0000000E+00  0.2591513E-02
    1        1.316872      1.282936   1.000000   1.000000
    2        6.591806      7.274045   1.000000   1.000000
    3        7.018047      7.726748   1.000000   1.000000
    4        7.019226      7.736609   1.000000   1.000000
    5        7.834937      8.442165   1.000000   1.000000
    6        8.009343      8.632326   1.000000   1.000138
    7       28.269830     28.327029   0.000000   0.000000
    8       32.253443     32.238125   0.000000   0.000000
    9       35.146073     35.103757   0.000000   0.000000
   10       36.817544     36.846785   0.000000   0.000000
   11       39.564354     39.517073   0.000000   0.000000
   12       40.701445     40.701163   0.000000   0.000000
 
 -0.9523810E-01  0.4761905E-01  0.0000000E+00  0.2591513E-02
    1        0.840725      0.804224   1.000000   1.000000
    2        6.687875      7.386095   1.000000   1.000000
    3        6.940077      7.660508   1.000000   1.000000
    4        6.955959      7.671228   1.000000   1.000000
    5        7.872461      8.477087   1.000000   1.000001
    6        7.985782      8.599444   1.000000   1.000055
    7       30.619025     30.619872   0.000000   0.000000
    8       32.879238     32.864165   0.000000   0.000000
    9       35.334176     35.298194   0.000000   0.000000
   10       37.066219     37.065774   0.000000   0.000000
   11       39.858337     39.820656   0.000000   0.000000
   12       40.226849     40.269106   0.000000   0.000000
 
 -0.4761905E-01  0.4761905E-01  0.0000000E+00  0.1295756E-02
    1        0.523820      0.486544   1.000000   1.000000
    2        6.765654      7.473741   1.000000   1.000000
    3        6.877323      7.595297   1.000000   1.000000
    4        6.891163      7.607733   1.000000   1.000000
    5        7.921712      8.529048   1.000000   1.000006
    6        7.976499      8.587520   1.000000   1.000039
    7       32.148684     32.055855   0.000000   0.000000
    8       34.182905     34.190568   0.000000   0.000000
    9       35.551720     35.538004   0.000000   0.000000
   10       36.990423     36.972249   0.000000   0.000000
   11       39.815956     39.884165   0.000000   0.000000
   12       40.200287     40.187502   0.000000   0.000000
 
  0.9523810E-01  0.9523810E-01  0.0000000E+00  0.6478782E-03
    1        0.755517      0.718570   1.000000   1.000000
    2        6.668276      7.370170   1.000000   1.000000
    3        6.959843      7.679524   1.000000   1.000000
    4        6.959845      7.679525   1.000000   1.000000
    5        7.823856      8.424290   1.000000   1.000000
    6        8.029111      8.641993   1.000000   1.000179
    7       32.028511     31.938101   0.000000   0.000000
    8       33.922515     33.972660   0.000000   0.000000
    9       33.922536     33.972685   0.000000   0.000000
   10       34.852283     34.793474   0.000000   0.000000
   11       41.600877     41.615877   0.000000   0.000000
   12       42.393102     42.366700   0.000000   0.000000
 
  0.1428571E+00  0.9523810E-01  0.0000000E+00  0.2591513E-02
    1        1.068423      1.032412   1.000000   1.000000
    2        6.580204      7.273289   1.000000   1.000000
    3        7.030860      7.751358   1.000000   1.000000
    4        7.032099      7.753262   1.000000   1.000000
    5        7.756209      8.352833   1.000000   1.000000
    6        8.055653      8.670747   1.000000   1.000377
    7       30.786106     30.786376   0.000000   0.000000
    8       32.881244     32.844105   0.000000   0.000000
    9       33.075493     33.136292   0.000000   0.000000
   10       35.164004     35.126151   0.000000   0.000000
   11       40.689190     40.809416   0.000000   0.000000
   12       41.968444     42.026261   0.000000   0.000000
 
  0.1904762E+00  0.9523810E-01  0.0000000E+00  0.2591513E-02
    1        1.537962      1.504866   1.000000   1.000000
    2        6.479305      7.158802   1.000000   1.000000
    3        7.096324      7.804428   1.000000   1.000000
    4        7.109767      7.826623   1.000000   1.000000
    5        7.725584      8.330591   1.000000   1.000000
    6        8.089379      8.712722   1.000000   1.001026
    7       28.445605     28.502968   0.000000   0.000000
    8       32.372392     32.361298   0.000000   0.000000
    9       32.422902     32.440761   0.000000   0.000000
   10       35.914393     35.867526   0.000000   0.000000
   11       39.312633     39.445827   0.000000   0.000000
   12       41.841385     41.892209   0.000000   0.000000
 
  0.2380952E+00  0.9523810E-01  0.0000000E+00  0.2591513E-02
    1        2.141291      2.116267   1.000000   1.000000
    2        6.388329      7.047198   1.000000   1.000000
    3        7.104936      7.777880   1.000000   1.000000
    4        7.161402      7.864194   1.000000   1.000000
    5        7.788814      8.424124   1.000000   1.000000
    6        8.153662      8.795323   1.000000   1.005439
    7       25.989717     26.080518   0.000000   0.000000
    8       31.807035     31.880748   0.000000   0.000000
    9       32.040715     31.977148   0.000000   0.000000
   10       36.073033     36.073463   0.000000   0.000000
   11       38.773987     38.849134   0.000000   0.000000
   12       41.594534     41.638837   0.000000   0.000000
 
  0.2857143E+00  0.9523810E-01  0.0000000E+00  0.2591513E-02
    1        2.834896      2.831119   1.000000   1.000000
    2        6.344771      6.969218   1.000000   1.000000
    3        7.044073      7.684790   1.000000   1.000000
    4        7.171382      7.852912   1.000000   1.000000
    5        7.975024      8.634540   1.000000   1.000147
    6        8.255923      8.923265   1.000000   1.028786
    7       23.605251     23.726762   0.000000   0.000000
    8       31.394387     31.470924   0.000000   0.000000
    9       31.654880     31.586526   0.000000   0.000000
   10       35.299313     35.367994   0.000000   0.000000
   11       39.202827     39.194769   0.000000   0.000000
   12       41.595847     41.640236   0.000000   0.000000
 
  0.3333333E+00  0.9523810E-01  0.0000000E+00  0.2591513E-02
    1        3.535325      3.584347   1.000000   1.000000
    2        6.402339      6.963781   1.000000   1.000000
    3        6.949240      7.572822   1.000000   1.000000
    4        7.142121      7.802525   1.000000   1.000000
    5        8.254887      8.917493   1.000000   1.027516
    6        8.383160      9.076097   1.000000   0.963323
    7       21.314545     21.470005   0.000000   0.000000
    8       31.132788     31.159375   0.000000   0.000000
    9       31.232885     31.209775   0.000000   0.000000
   10       34.294492     34.388055   0.000000   0.000000
   11       39.486449     39.456134   0.000000   0.000000
   12       41.861538     41.866907   0.000000   0.000000
 
  0.3809524E+00  0.9523810E-01  0.0000000E+00  0.2591513E-02
    1        4.108358      4.264682   1.000000   1.000000
    2        6.632378      7.085981   1.000000   1.000000
    3        6.864400      7.486335   1.000000   1.000000
    4        7.091409      7.734859   1.000000   1.000000
    5        8.505095      9.219041   1.000003   0.496025
    6        8.633926      9.266886   1.000144   0.300228
    7       19.175470     19.371650   0.000000   0.000000
    8       30.788252     30.714430   0.000000   0.000000
    9       31.035352     31.111261   0.000000   0.000000
   10       33.411180     33.505080   0.000000   0.000000
   11       39.449867     39.424650   0.000000   0.000000
   12       40.951607     40.968596   0.000000   0.000000
 
  0.4285714E+00  0.9523810E-01  0.0000000E+00  0.2591513E-02
    1        4.451336      4.744030   1.000000   1.000000
    2        6.754617      7.253161   1.000000   1.000000
    3        7.037565      7.550425   1.000000   1.000000
    4        7.069049      7.668505   1.000000   1.000000
    5        8.596135      9.325264   1.000050   0.110869
    6        9.152875      9.699935   0.760397  -0.001721
    7       17.256517     17.506201   0.000000   0.000000
    8       30.316864     30.254602   0.000000   0.000000
    9       31.115474     31.189984   0.000000   0.000000
   10       32.757581     32.832470   0.000000   0.000000
   11       39.336323     39.319848   0.000000   0.000000
   12       40.139016     40.164238   0.000000   0.000000
 
  0.4761905E+00  0.9523810E-01  0.0000000E+00  0.2591513E-02
    1        4.602510      4.990628   1.000000   1.000000
    2        6.712960      7.261104   1.000000   1.000000