PROCAR lm decomposed
# of k-points:  286         # of bands:   12         # of ions:    1

 k-point     1 :    0.00000000 0.00000000 0.00000000     weight = 0.00010798

band     1 # energy    0.28954998 # occ.  1.00000000
 
ion      s     py     pz     px    dxy    dyz    dz2    dxz  x2-y2    tot
    1  0.720  0.000  0.000  0.000  0.000  0.000  0.000  0.000  0.000  0.720
 
band     2 # energy    6.82952734 # occ.  1.00000000
 
ion      s     py     pz     px    dxy    dyz    dz2    dxz  x2-y2    tot
    1  0.000  0.000  0.000  0.000  0.325  0.325  0.000  0.325  0.000  0.976
 
band     3 # energy    6.82952983 # occ.  1.00000000
 
ion      s     py     pz     px    dxy    dyz    dz2    dxz  x2-y2    tot
    1  0.000  0.000  0.000  0.000  0.506  0.392  0.000  0.078  0.000  0.976
 
band     4 # energy    6.82952983 # occ.  1.00000000
 
ion      s     py     pz     px    dxy    dyz    dz2    dxz  x2-y2    tot
    1  0.000  0.000  0.000  0.000  0.145  0.259  0.000  0.573  0.000  0.976
 
band     5 # energy    7.96997380 # occ.  1.00000000
 
ion      s     py     pz     px    dxy    dyz    dz2    dxz  x2-y2    tot
    1  0.000  0.000  0.000  0.000  0.000  0.000  0.988  0.000  0.000  0.988
 
band     6 # energy    7.96997380 # occ.  1.00000000
 
ion      s     py     pz     px    dxy    dyz    dz2    dxz  x2-y2    tot
    1  0.000  0.000  0.000  0.000  0.000  0.000  0.000  0.000  0.988  0.988
 
band     7 # energy   32.89242952 # occ.  0.00000000
 
ion      s     py     pz     px    dxy    dyz    dz2    dxz  x2-y2    tot
    1  0.000  0.000  0.000  0.000  0.000  0.000  0.000  0.000  0.000  0.000
 
band     8 # energy   36.65114883 # occ.  0.00000000
 
ion      s     py     pz     px    dxy    dyz    dz2    dxz  x2-y2    tot
    1  0.000  0.126  0.126  0.126  0.000  0.000  0.000  0.000  0.000  0.377
 
band     9 # energy   36.65119015 # occ.  0.00000000
 
ion      s     py     pz     px    dxy    dyz    dz2    dxz  x2-y2    tot
    1  0.000  0.227  0.017  0.133  0.000  0.000  0.000  0.000  0.000  0.377
 
band    10 # energy   36.65119015 # occ.  0.00000000
 
ion      s     py     pz     px    dxy    dyz    dz2    dxz  x2-y2    tot
    1  0.000  0.024  0.235  0.118  0.000  0.000  0.000  0.000  0.000  0.377
 
band    11 # energy   39.71593799 # occ.  0.00000000
 
ion      s     py     pz     px    dxy    dyz    dz2    dxz  x2-y2    tot
    1  0.000  0.000  0.000  0.000  0.475  0.054  0.000  0.688  0.000  1.217
 
band    12 # energy   39.71594285 # occ.  0.00000000
 
ion      s     py     pz     px    dxy    dyz    dz2    dxz  x2-y2    tot
    1  0.000  0.000  0.000  0.000  0.482  0.605  0.000  0.129  0.000  1.217
 

 k-point     2 :    0.04761905 0.00000000 0.00000000     weight = 0.00086384

band     1 # energy    0.37775127 # occ.  1.00000000
 
ion      s     py     pz     px    dxy    dyz    dz2    dxz  x2-y2    tot
    1  0.714  0.002  0.002  0.002  0.000  0.000  0.000  0.000  0.000  0.720
 
band     2 # energy    6.80731114 # occ.  1.00000000
 
ion      s     py     pz     px    dxy    dyz    dz2    dxz  x2-y2    tot
    1  0.000  0.000  0.000  0.000  0.325  0.325  0.000  0.325  0.000  0.975
 
band     3 # energy    6.84939466 # occ.  1.00000000
 
ion      s     py     pz     px    dxy    dyz    dz2    dxz  x2-y2    tot
    1  0.000  0.000  0.000  0.000  0.650  0.163  0.000  0.163  0.000  0.976
 
band     4 # energy    6.84939688 # occ.  1.00000000
 
ion      s     py     pz     px    dxy    dyz    dz2    dxz  x2-y2    tot
    1  0.000  0.000  0.000  0.000  0.000  0.488  0.000  0.488  0.000  0.976
 
band     5 # energy    7.96166051 # occ.  1.00000000
 
ion      s     py     pz     px    dxy    dyz    dz2    dxz  x2-y2    tot
    1  0.000  0.000  0.000  0.000  0.000  0.000  0.987  0.000  0.000  0.988
 
band     6 # energy    7.96166061 # occ.  1.00000000
 
ion      s     py     pz     px    dxy    dyz    dz2    dxz  x2-y2    tot
    1  0.000  0.000  0.000  0.000  0.000  0.000  0.000  0.000  0.987  0.988
 
band     7 # energy   32.62867690 # occ.  0.00000000
 
ion      s     py     pz     px    dxy    dyz    dz2    dxz  x2-y2    tot
    1  0.000  0.004  0.004  0.004  0.032  0.032  0.000  0.032  0.000  0.109
 
band     8 # energy   35.39034363 # occ.  0.00000000
 
ion      s     py     pz     px    dxy    dyz    dz2    dxz  x2-y2    tot
    1  0.014  0.107  0.107  0.107  0.040  0.040  0.000  0.040  0.000  0.455
 
band     9 # energy   36.43282616 # occ.  0.00000000
 
ion      s     py     pz     px    dxy    dyz    dz2    dxz  x2-y2    tot
    1  0.000  0.060  0.241  0.060  0.068  0.017  0.008  0.017  0.000  0.470
 
band    10 # energy   36.43286145 # occ.  0.00000000
 
ion      s     py     pz     px    dxy    dyz    dz2    dxz  x2-y2    tot
    1  0.000  0.180  0.000  0.180  0.000  0.051  0.000  0.051  0.008  0.470
 
band    11 # energy   40.03845211 # occ.  0.00000000
 
ion      s     py     pz     px    dxy    dyz    dz2    dxz  x2-y2    tot
    1  0.000  0.002  0.008  0.002  0.729  0.182  0.002  0.182  0.000  1.107
 
band    12 # energy   40.03846387 # occ.  0.00000000
 
ion      s     py     pz     px    dxy    dyz    dz2    dxz  x2-y2    tot
    1  0.000  0.006  0.000  0.006  0.000  0.546  0.000  0.546  0.002  1.107
 

 k-point     3 :    0.09523810 0.00000000 0.00000000     weight = 0.00086384

band     1 # energy    0.63964334 # occ.  1.00000000
 
ion      s     py     pz     px    dxy    dyz    dz2    dxz  x2-y2    tot
    1  0.697  0.008  0.008  0.008  0.000  0.000  0.000  0.000  0.000  0.721
 
band     2 # energy    6.74550018 # occ.  1.00000000
 
ion      s     py     pz     px    dxy    dyz    dz2    dxz  x2-y2    tot
    1  0.000  0.001  0.001  0.001  0.323  0.323  0.000  0.323  0.000  0.972
 
band     3 # energy    6.90366483 # occ.  1.00000000
 
ion      s     py     pz     px    dxy    dyz    dz2    dxz  x2-y2    tot
    1  0.000  0.000  0.000  0.000  0.647  0.162  0.005  0.162  0.000  0.976
 
band     4 # energy    6.90366703 # occ.  1.00000000
 
ion      s     py     pz     px    dxy    dyz    dz2    dxz  x2-y2    tot
    1  0.000  0.000  0.000  0.000  0.000  0.485  0.000  0.485  0.005  0.976
 
band     5 # energy    7.94178707 # occ.  1.00000000
 
ion      s     py     pz     px    dxy    dyz    dz2    dxz  x2-y2    tot
    1  0.000  0.000  0.000  0.000  0.003  0.001  0.981  0.001  0.000  0.987
 
band     6 # energy    7.94178750 # occ.  1.00000000
 
ion      s     py     pz     px    dxy    dyz    dz2    dxz  x2-y2    tot
    1  0.000  0.000  0.000  0.000  0.000  0.003  0.000  0.003  0.981  0.987
 
band     7 # energy   31.30894446 # occ.  0.00000000
 
ion      s     py     pz     px    dxy    dyz    dz2    dxz  x2-y2    tot
    1  0.011  0.046  0.046  0.046  0.109  0.109  0.000  0.109  0.000  0.474
 
band     8 # energy   34.17840260 # occ.  0.00000000
 
ion      s     py     pz     px    dxy    dyz    dz2    dxz  x2-y2    tot
    1  0.027  0.059  0.059  0.059  0.003  0.003  0.000  0.003  0.000  0.213
 
band     9 # energy   35.96095467 # occ.  0.00000000
 
ion      s     py     pz     px    dxy    dyz    dz2    dxz  x2-y2    tot
    1  0.000  0.057  0.229  0.057  0.164  0.041  0.023  0.041  0.000  0.613
 
band    10 # energy   35.96098739 # occ.  0.00000000
 
ion      s     py     pz     px    dxy    dyz    dz2    dxz  x2-y2    tot
    1  0.000  0.172  0.000  0.172  0.000  0.123  0.000  0.123  0.023  0.613
 
band    11 # energy   40.77669195 # occ.  0.00000000
 
ion      s     py     pz     px    dxy    dyz    dz2    dxz  x2-y2    tot
    1  0.000  0.003  0.010  0.003  0.576  0.144  0.026  0.144  0.000  0.905
 
band    12 # energy   40.77669868 # occ.  0.00000000
 
ion      s     py     pz     px    dxy    dyz    dz2    dxz  x2-y2    tot
    1  0.000  0.008  0.000  0.008  0.000  0.431  0.000  0.431  0.026  0.905
 

 k-point     4 :    0.14285714 0.00000000 0.00000000     weight = 0.00086384

band     1 # energy    1.06623252 # occ.  1.00000000
 
ion      s     py     pz     px    dxy    dyz    dz2    dxz  x2-y2    tot
    1  0.667  0.017  0.017  0.017  0.001  0.001  0.000  0.001  0.000  0.722
 
band     2 # energy    6.65378890 # occ.  1.00000000
 
ion      s     py     pz     px    dxy    dyz    dz2    dxz  x2-y2    tot
    1  0.001  0.003  0.003  0.003  0.318  0.318  0.000  0.318  0.000  0.965
 
band     3 # energy    6.97533774 # occ.  1.00000000
 
ion      s     py     pz     px    dxy    dyz    dz2    dxz  x2-y2    tot
    1  0.000  0.000  0.001  0.000  0.630  0.158  0.029  0.158  0.000  0.976
 
band     4 # energy    6.97533983 # occ.  1.00000000
 
ion      s     py     pz     px    dxy    dyz    dz2    dxz  x2-y2    tot
    1  0.000  0.001  0.000  0.001  0.000  0.473  0.000  0.473  0.029  0.976
 
band     5 # energy    7.92533210 # occ.  1.00000000
 
ion      s     py     pz     px    dxy    dyz    dz2    dxz  x2-y2    tot
    1  0.000  0.000  0.000  0.000  0.020  0.005  0.955  0.005  0.000  0.985
 
band     6 # energy    7.92533313 # occ.  1.00000000
 
ion      s     py     pz     px    dxy    dyz    dz2    dxz  x2-y2    tot
    1  0.000  0.000  0.000  0.000  0.000  0.015  0.000  0.015  0.955  0.985
 
band     7 # energy   29.03102116 # occ.  0.00000000
 
ion      s     py     pz     px    dxy    dyz    dz2    dxz  x2-y2    tot
    1  0.035  0.079  0.079  0.079  0.129  0.129  0.000  0.129  0.000  0.662
 
band     8 # energy   33.76272654 # occ.  0.00000000
 
ion      s     py     pz     px    dxy    dyz    dz2    dxz  x2-y2    tot
    1  0.031  0.022  0.022  0.022  0.007  0.007  0.000  0.007  0.000  0.118
 
band     9 # energy   35.45023239 # occ.  0.00000000
 
ion      s     py     pz     px    dxy    dyz    dz2    dxz  x2-y2    tot
    1  0.000  0.057  0.229  0.057  0.223  0.056  0.039  0.056  0.000  0.717
 
band    10 # energy   35.45026225 # occ.  0.00000000
 
ion      s     py     pz     px    dxy    dyz    dz2    dxz  x2-y2    tot
    1  0.000  0.172  0.000  0.172  0.000  0.167  0.000  0.167  0.039  0.717
 
band    11 # energy   40.75003742 # occ.  0.00000000
 
ion      s     py     pz     px    dxy    dyz    dz2    dxz  x2-y2    tot
    1  0.002  0.050  0.050  0.050  0.047  0.047  0.000  0.047  0.000  0.292
 
band    12 # energy   41.45915101 # occ.  0.00000000
 
ion      s     py     pz     px    dxy    dyz    dz2    dxz  x2-y2    tot
    1  0.000  0.000  0.000  0.000  0.024  0.317  0.010  0.190  0.142  0.683
 

 k-point     5 :    0.19047619 0.00000000 0.00000000     weight = 0.00086384

band     1 # energy    1.63928123 # occ.  1.00000000
 
ion      s     py     pz     px    dxy    dyz    dz2    dxz  x2-y2    tot
    1  0.626  0.028  0.028  0.028  0.005  0.005  0.000  0.005  0.000  0.725
 
band     2 # energy    6.56610464 # occ.  1.00000000
 
ion      s     py     pz     px    dxy    dyz    dz2    dxz  x2-y2    tot
    1  0.003  0.007  0.007  0.007  0.311  0.311  0.000  0.311  0.000  0.956
 
band     3 # energy    7.03638810 # occ.  1.00000000
 
ion      s     py     pz     px    dxy    dyz    dz2    dxz  x2-y2    tot
    1  0.000  0.000  0.001  0.000  0.583  0.146  0.101  0.146  0.000  0.976
 
band     4 # energy    7.03638998 # occ.  1.00000000
 
ion      s     py     pz     px    dxy    dyz    dz2    dxz  x2-y2    tot
    1  0.000  0.001  0.000  0.001  0.000  0.437  0.000  0.437  0.101  0.976
 
band     5 # energy    7.94503336 # occ.  1.00000000
 
ion      s     py     pz     px    dxy    dyz    dz2    dxz  x2-y2    tot
    1  0.000  0.000  0.000  0.000  0.068  0.017  0.883  0.017  0.000  0.985
 
band     6 # energy    7.94503536 # occ.  1.00000000
 
ion      s     py     pz     px    dxy    dyz    dz2    dxz  x2-y2    tot
    1  0.000  0.000  0.000  0.000  0.000  0.051  0.000  0.051  0.883  0.985
 
band     7 # energy   26.58213712 # occ.  0.00000000
 
ion      s     py     pz     px    dxy    dyz    dz2    dxz  x2-y2    tot
    1  0.065  0.095  0.095  0.095  0.125  0.125  0.000  0.125  0.000  0.725
 
band     8 # energy   33.45867135 # occ.  0.00000000
 
ion      s     py     pz     px    dxy    dyz    dz2    dxz  x2-y2    tot
    1  0.030  0.006  0.006  0.006  0.021  0.021  0.000  0.021  0.000  0.112
 
band     9 # energy   34.99456635 # occ.  0.00000000
 
ion      s     py     pz     px    dxy    dyz    dz2    dxz  x2-y2    tot
    1  0.000  0.060  0.240  0.060  0.245  0.061  0.052  0.061  0.000  0.778
 
band    10 # energy   34.99459263 # occ.  0.00000000
 
ion      s     py     pz     px    dxy    dyz    dz2    dxz  x2-y2    tot
    1  0.000  0.180  0.000  0.180  0.000  0.184  0.000  0.184  0.052  0.778
 
band    11 # energy   40.77931956 # occ.  0.00000000
 
ion      s     py     pz     px    dxy    dyz    dz2    dxz  x2-y2    tot
    1  0.006  0.071  0.071  0.071  0.005  0.005  0.000  0.005  0.000  0.236
 
band    12 # energy   41.37346483 # occ.  0.00000000
 
ion      s     py     pz     px    dxy    dyz    dz2    dxz  x2-y2    tot
    1  0.000  0.023  0.013  0.024  0.026  0.047  0.136  0.044  0.269  0.583
 

 k-point     6 :    0.23809524 0.00000000 0.00000000     weight = 0.00086384

band     1 # energy    2.32379657 # occ.  1.00000000
 
ion      s     py     pz     px    dxy    dyz    dz2    dxz  x2-y2    tot
    1  0.570  0.039  0.039  0.039  0.016  0.016  0.000  0.016  0.000  0.733
 
band     2 # energy    6.51747892 # occ.  1.00000000
 
ion      s     py     pz     px    dxy    dyz    dz2    dxz  x2-y2    tot
    1  0.010  0.015  0.015  0.015  0.296  0.296  0.000  0.296  0.000  0.942
 
band     3 # energy    7.05253816 # occ.  1.00000000
 
ion      s     py     pz     px    dxy    dyz    dz2    dxz  x2-y2    tot
    1  0.000  0.000  0.001  0.000  0.501  0.125  0.221  0.125  0.000  0.974
 
band     4 # energy    7.05253979 # occ.  1.00000000
 
ion      s     py     pz     px    dxy    dyz    dz2    dxz  x2-y2    tot
    1  0.000  0.001  0.000  0.001  0.000  0.376  0.000  0.376  0.221  0.974
 
band     5 # energy    8.01490610 # occ.  1.00000000
 
ion      s     py     pz     px    dxy    dyz    dz2    dxz  x2-y2    tot
    1  0.000  0.000  0.001  0.000  0.149  0.037  0.760  0.037  0.000  0.984
 
band     6 # energy    8.01490909 # occ.  1.00000000
 
ion      s     py     pz     px    dxy    dyz    dz2    dxz  x2-y2    tot
    1  0.000  0.000  0.000  0.000  0.000  0.112  0.000  0.112  0.760  0.984
 
band     7 # energy   24.16979702 # occ.  0.00000000
 
ion      s     py     pz     px    dxy    dyz    dz2    dxz  x2-y2    tot
    1  0.101  0.101  0.101  0.101  0.118  0.118  0.000  0.118  0.000  0.757
 
band     8 # energy   33.08328135 # occ.  0.00000000
 
ion      s     py     pz     px    dxy    dyz    dz2    dxz  x2-y2    tot
    1  0.025  0.000  0.000  0.000  0.026  0.026  0.000  0.026  0.000  0.105
 
band     9 # energy   34.58933393 # occ.  0.00000000
 
ion      s     py     pz     px    dxy    dyz    dz2    dxz  x2-y2    tot
    1  0.000  0.065  0.258  0.065  0.247  0.062  0.059  0.062  0.000  0.818
 
band    10 # energy   34.58935608 # occ.  0.00000000
 
ion      s     py     pz     px    dxy    dyz    dz2    dxz  x2-y2    tot
    1  0.000  0.194  0.000  0.194  0.000  0.186  0.000  0.186  0.059  0.818
 
band    11 # energy   40.42140957 # occ.  0.00000000
 
ion      s     py     pz     px    dxy    dyz    dz2    dxz  x2-y2    tot
    1  0.000  0.021  0.085  0.021  0.001  0.000  0.542  0.000  0.000  0.670
 
band    12 # energy   40.42142153 # occ.  0.00000000
 
ion      s     py     pz     px    dxy    dyz    dz2    dxz  x2-y2    tot
    1  0.000  0.063  0.000  0.063  0.000  0.001  0.000  0.001  0.542  0.670
 

 k-point     7 :    0.28571429 0.00000000 0.00000000     weight = 0.00086384

band     1 # energy    3.05176787 # occ.  1.00000000
 
ion      s     py     pz     px    dxy    dyz    dz2    dxz  x2-y2    tot
    1  0.493  0.044  0.044  0.044  0.041  0.041  0.000  0.041  0.000  0.751
 
band     2 # energy    6.57228650 # occ.  1.00000000
 
ion      s     py     pz     px    dxy    dyz    dz2    dxz  x2-y2    tot
    1  0.027  0.032  0.032  0.032  0.263  0.263  0.000  0.263  0.000  0.913
 
band     3 # energy    7.02596310 # occ.  1.00000000
 
ion      s     py     pz     px    dxy    dyz    dz2    dxz  x2-y2    tot
    1  0.000  0.000  0.001  0.000  0.417  0.104  0.347  0.104  0.000  0.973
 
band     4 # energy    7.02596458 # occ.  1.00000000
 
ion      s     py     pz     px    dxy    dyz    dz2    dxz  x2-y2    tot
    1  0.000  0.000  0.000  0.000  0.000  0.313  0.000  0.313  0.347  0.973
 
band     5 # energy    8.14070033 # occ.  1.00000000
 
ion      s     py     pz     px    dxy    dyz    dz2    dxz  x2-y2    tot
    1  0.000  0.000  0.001  0.000  0.234  0.059  0.632  0.059  0.000  0.985
 
band     6 # energy    8.14070422 # occ.  1.00000000
 
ion      s     py     pz     px    dxy    dyz    dz2    dxz  x2-y2    tot
    1  0.000  0.001  0.000  0.001  0.000  0.176  0.000  0.176  0.632  0.985
 
band     7 # energy   21.83677918 # occ.  0.00000000
 
ion      s     py     pz     px    dxy    dyz    dz2    dxz  x2-y2    tot
    1  0.147  0.100  0.100  0.100  0.113  0.113  0.000  0.113  0.000  0.785
 
band     8 # energy   32.63744174 # occ.  0.00000000
 
ion      s     py     pz     px    dxy    dyz    dz2    dxz  x2-y2    tot
    1  0.018  0.001  0.001  0.001  0.024  0.024  0.000  0.024  0.000  0.091
 
band     9 # energy   34.27650499 # occ.  0.00000000
 
ion      s     py     pz     px    dxy    dyz    dz2    dxz  x2-y2    tot
    1  0.000  0.071  0.286  0.071  0.221  0.055  0.059  0.055  0.000  0.818
 
band    10 # energy   34.27652142 # occ.  0.00000000
 
ion      s     py     pz     px    dxy    dyz    dz2    dxz  x2-y2    tot
    1  0.000  0.214  0.000  0.214  0.000  0.165  0.000  0.165  0.059  0.818
 
band    11 # energy   39.33607661 # occ.  0.00000000
 
ion      s     py     pz     px    dxy    dyz    dz2    dxz  x2-y2    tot
    1  0.000  0.023  0.093  0.023  0.015  0.004  0.589  0.004  0.000  0.751
 
band    12 # energy   39.33609995 # occ.  0.00000000
 
ion      s     py     pz     px    dxy    dyz    dz2    dxz  x2-y2    tot
    1  0.000  0.069  0.000  0.069  0.000  0.011  0.000  0.011  0.589  0.751
 

 k-point     8 :    0.33333333 0.00000000 0.00000000     weight = 0.00086384

band     1 # energy    3.70275731 # occ.  1.00000000
 
ion      s     py     pz     px    dxy    dyz    dz2    dxz  x2-y2    tot
    1  0.391  0.038  0.038  0.038  0.094  0.094  0.000  0.094  0.000  0.788
 
band     2 # energy    6.84390830 # occ.  1.00000000
 
ion      s     py     pz     px    dxy    dyz    dz2    dxz  x2-y2    tot
    1  0.059  0.066  0.066  0.066  0.202  0.202  0.000  0.202  0.000  0.862
 
band     3 # energy    6.97329452 # occ.  1.00000000
 
ion      s     py     pz     px    dxy    dyz    dz2    dxz  x2-y2    tot
    1  0.000  0.000  0.000  0.000  0.354  0.089  0.440  0.089  0.000  0.972
 
band     4 # energy    6.97329601 # occ.  1.00000000
 
ion      s     py     pz     px    dxy    dyz    dz2    dxz  x2-y2    tot
    1  0.000  0.000  0.000  0.000  0.000  0.266  0.000  0.266  0.440  0.972
 
band     5 # energy    8.29641320 # occ.  1.00000000
 
ion      s     py     pz     px    dxy    dyz    dz2    dxz  x2-y2    tot
    1  0.000  0.000  0.001  0.000  0.299  0.075  0.538  0.075  0.000  0.987
 
band     6 # energy    8.29641795 # occ.  1.00000000
 
ion      s     py     pz     px    dxy    dyz    dz2    dxz  x2-y2    tot
    1  0.000  0.001  0.000  0.001  0.000  0.224  0.000  0.224  0.538  0.987
 
band     7 # energy   19.65355178 # occ.  0.00000000
 
ion      s     py     pz     px    dxy    dyz    dz2    dxz  x2-y2    tot
    1  0.203  0.090  0.090  0.090  0.111  0.111  0.000  0.111  0.000  0.807
 
band     8 # energy   32.19584307 # occ.  0.00000000
 
ion      s     py     pz     px    dxy    dyz    dz2    dxz  x2-y2    tot
    1  0.011  0.003  0.003  0.003  0.016  0.016  0.000  0.016  0.000  0.070
 
band     9 # energy   34.04311113 # occ.  0.00000000
 
ion      s     py     pz     px    dxy    dyz    dz2    dxz  x2-y2    tot
    1  0.000  0.080  0.321  0.080  0.172  0.043  0.051  0.043  0.000  0.790
 
band    10 # energy   34.04312059 # occ.  0.00000000
 
ion      s     py     pz     px    dxy    dyz    dz2    dxz  x2-y2    tot
    1  0.000  0.241  0.000  0.241  0.000  0.129  0.000  0.129  0.051  0.790
 
band    11 # energy   38.35877513 # occ.  0.00000000
 
ion      s     py     pz     px    dxy    dyz    dz2    dxz  x2-y2    tot
    1  0.000  0.020  0.079  0.020  0.060  0.015  0.616  0.015  0.000  0.825
 
band    12 # energy   38.35880825 # occ.  0.00000000
 
ion      s     py     pz     px    dxy    dyz    dz2    dxz  x2-y2    tot
    1  0.000  0.059  0.000  0.059  0.000  0.045  0.000  0.045  0.616  0.825
 

 k-point     9 :    0.38095238 0.00000000 0.00000000     weight = 0.00086384

band     1 # energy    4.14502597 # occ.  1.00000000
 
ion      s     py     pz     px    dxy    dyz    dz2    dxz  x2-y2    tot
    1  0.283  0.021  0.021  0.021  0.164  0.164  0.000  0.164  0.000  0.838
 
band     2 # energy    6.91525010 # occ.  1.00000000
 
ion      s     py     pz     px    dxy    dyz    dz2    dxz  x2-y2    tot
    1  0.000  0.000  0.000  0.000  0.314  0.079  0.499  0.079  0.000  0.970
 
band     3 # energy    6.91525170 # occ.  1.00000000
 
ion      s     py     pz     px    dxy    dyz    dz2    dxz  x2-y2    tot
    1  0.000  0.000  0.000  0.000  0.000  0.236  0.000  0.236  0.499  0.970
 
band     4 # energy    7.42139902 # occ.  1.00000000
 
ion      s     py     pz     px    dxy    dyz    dz2    dxz  x2-y2    tot
    1  0.086  0.116  0.116  0.116  0.120  0.120  0.000  0.120  0.000  0.793
 
band     5 # energy    8.44087470 # occ.  1.00000028
 
ion      s     py     pz     px    dxy    dyz    dz2    dxz  x2-y2    tot
    1  0.000  0.000  0.001  0.000  0.341  0.085  0.478  0.085  0.000  0.989
 
band     6 # energy    8.44087996 # occ.  1.00000028
 
ion      s     py     pz     px    dxy    dyz    dz2    dxz  x2-y2    tot
    1  0.000  0.000  0.000  0.000  0.000  0.255  0.000  0.255  0.478  0.989
 
band     7 # energy   17.67354274 # occ.  0.00000000
 
ion      s     py     pz     px    dxy    dyz    dz2    dxz  x2-y2    tot
    1  0.273  0.072  0.072  0.072  0.115  0.115  0.000  0.115  0.000  0.833
 
band     8 # energy   31.81599328 # occ.  0.00000000
 
ion      s     py     pz     px    dxy    dyz    dz2    dxz  x2-y2    tot
    1  0.005  0.006  0.006  0.006  0.009  0.009  0.000  0.009  0.000  0.051
 
band     9 # energy   33.87819366 # occ.  0.00000000
 
ion      s     py     pz     px    dxy    dyz    dz2    dxz  x2-y2    tot
    1  0.000  0.090  0.362  0.090  0.110  0.027  0.035  0.027  0.000  0.742
 
band    10 # energy   33.87819513 # occ.  0.00000000
 
ion      s     py     pz     px    dxy    dyz    dz2    dxz  x2-y2    tot
    1  0.000  0.271  0.000  0.271  0.000  0.082  0.000  0.082  0.035  0.742
 
band    11 # energy   37.56037192 # occ.  0.00000000
 
ion      s     py     pz     px    dxy    dyz    dz2    dxz  x2-y2    tot
    1  0.000  0.013  0.052  0.013  0.119  0.030  0.648  0.030  0.000  0.906
 
band    12 # energy   37.56041437 # occ.  0.00000000
 
ion      s     py     pz     px    dxy    dyz    dz2    dxz  x2-y2    tot
    1  0.000  0.039  0.000  0.039  0.000  0.090  0.000  0.090  0.648  0.906
 

 k-point    10 :    0.42857143 0.00000000 0.00000000     weight = 0.00086384

band     1 # energy    4.36508629 # occ.  1.00000000
 
ion      s     py     pz     px    dxy    dyz    dz2    dxz  x2-y2    tot
    1  0.208  0.007  0.007  0.007  0.215  0.215  0.000  0.215  0.000  0.874
 
band     2 # energy    6.86929889 # occ.  1.00000000
 
ion      s     py     pz     px    dxy    dyz    dz2    dxz  x2-y2    tot
    1  0.000  0.000  0.000  0.000  0.291  0.073  0.532  0.073  0.000  0.969
 
band     3 # energy    6.86930058 # occ.  1.00000000
 
ion      s     py     pz     px    dxy    dyz    dz2    dxz  x2-y2    tot
    1  0.000  0.000  0.000  0.000  0.000  0.219  0.000  0.219  0.532  0.969
 
band     4 # energy    8.21076551 # occ.  1.00000000
 
ion      s     py     pz     px    dxy    dyz    dz2    dxz  x2-y2    tot
    1  0.067  0.170  0.170  0.170  0.050  0.050  0.000  0.050  0.000  0.728
 
band     5 # energy    8.55427880 # occ.  1.00001404
 
ion      s     py     pz     px    dxy    dyz    dz2    dxz  x2-y2    tot
    1  0.000  0.000  0.000  0.000  0.365  0.091  0.444  0.091  0.000  0.991
 
band     6 # energy    8.55428442 # occ.  1.00001404
 
ion      s     py     pz     px    dxy    dyz    dz2    dxz  x2-y2    tot
    1  0.000  0.000  0.000  0.000  0.000  0.274  0.000  0.274  0.444  0.991
 
band     7 # energy   16.01917355 # occ.  0.00000000
 
ion      s     py     pz     px    dxy    dyz    dz2    dxz  x2-y2    tot
    1  0.360  0.041  0.041  0.041  0.127  0.127  0.000  0.127  0.000  0.864
 
band     8 # energy   31.54124803 # occ.  0.00000000
 
ion      s     py     pz     px    dxy    dyz    dz2    dxz  x2-y2    tot
    1  0.002  0.008  0.008  0.008  0.003  0.003  0.000  0.003  0.000  0.037
 
band     9 # energy   33.77674709 # occ.  0.00000000
 
ion      s     py     pz     px    dxy    dyz    dz2    dxz  x2-y2    tot
    1  0.000  0.300  0.000  0.300  0.000  0.035  0.000  0.035  0.015  0.686
 
band    10 # energy   33.77675317 # occ.  0.00000000
 
ion      s     py     pz     px    dxy    dyz    dz2    dxz  x2-y2    tot
    1  0.000  0.100  0.400  0.100  0.047  0.012  0.015  0.012  0.000  0.686
 
band    11 # energy   37.01501282 # occ.  0.00000000
 
ion      s     py     pz     px    dxy    dyz    dz2    dxz  x2-y2    tot
    1  0.000  0.006  0.023  0.006  0.180  0.045  0.671  0.045  0.000  0.975
 
band    12 # energy   37.01506347 # occ.  0.00000000
 
ion      s     py     pz     px    dxy    dyz    dz2    dxz  x2-y2    tot
    1  0.000  0.017  0.000  0.017  0.000  0.135  0.000  0.135  0.671  0.975
 

 k-point    11 :    0.47619048 0.00000000 0.00000000     weight = 0.00086384

band     1 # energy    4.44615236 # occ.  1.00000000
 
ion      s     py     pz     px    dxy    dyz    dz2    dxz  x2-y2    tot
    1  0.175  0.001  0.001  0.001  0.238  0.238  0.000  0.238  0.000  0.891
 
band     2 # energy    6.84675288 # occ.  1.00000000
 
ion      s     py     pz     px    dxy    dyz    dz2    dxz  x2-y2    tot
    1  0.000  0.000  0.000  0.000  0.282  0.070  0.547  0.070  0.000  0.970
 
band     3 # energy    6.84675454 # occ.  1.00000000
 
ion      s     py     pz     px    dxy    dyz    dz2    dxz  x2-y2    tot
    1  0.000  0.000  0.000  0.000  0.000  0.211  0.000  0.211  0.547  0.970
 
band     4 # energy    8.61798297 # occ.  1.00009309
 
ion      s     py     pz     px    dxy    dyz    dz2    dxz  x2-y2    tot
    1  0.000  0.000  0.000  0.000  0.376  0.094  0.429  0.094  0.000  0.993
 
band     5 # energy    8.61798883 # occ.  1.00009310
 
ion      s     py     pz     px    dxy    dyz    dz2    dxz  x2-y2    tot
    1  0.000  0.000  0.000  0.000  0.000  0.282  0.000  0.282  0.429  0.993
 
band     6 # energy    8.85350566 # occ.  1.01356383
 
ion      s     py     pz     px    dxy    dyz    dz2    dxz  x2-y2    tot
    1  0.012  0.216  0.216  0.216  0.007  0.007  0.000  0.007  0.000  0.681
 
band     7 # energy   14.97310172 # occ.  0.00000000
 
ion      s     py     pz     px    dxy    dyz    dz2    dxz  x2-y2    tot
    1  0.444  0.007  0.007  0.007  0.144  0.144  0.000  0.144  0.000  0.897
 
band     8 # energy   31.40091990 # occ.  0.00000000
 
ion      s     py     pz     px    dxy    dyz    dz2    dxz  x2-y2    tot
    1  0.000  0.009  0.009  0.009  0.000  0.000  0.000  0.000  0.000  0.030
 
band     9 # energy   33.72889134 # occ.  0.00000000
 
ion      s     py     pz     px    dxy    dyz    dz2    dxz  x2-y2    tot
    1  0.000  0.319  0.000  0.319  0.000  0.004  0.000  0.004  0.002  0.649
 
band    10 # energy   33.72890214 # occ.  0.00000000
 
ion      s     py     pz     px    dxy    dyz    dz2    dxz  x2-y2    tot
    1  0.000  0.106  0.425  0.106  0.006  0.001  0.002  0.001  0.000  0.649
 
band    11 # energy   36.79576440 # occ.  0.00000000
 
ion      s     py     pz     px    dxy    dyz    dz2    dxz  x2-y2    tot
    1  0.000  0.001  0.003  0.001  0.217  0.054  0.667  0.054  0.000  0.997
 
band    12 # energy   36.79582040 # occ.  0.00000000
 
ion      s     py     pz     px    dxy    dyz    dz2    dxz  x2-y2    tot
    1  0.000  0.002  0.000  0.002  0.000  0.163  0.000  0.163  0.667  0.997
 

 k-point    12 :    0.04761905 0.04761905 0.00000000     weight = 0.00064788

band     1 # energy    0.40711147 # occ.  1.00000000
 
ion      s     py     pz     px    dxy    dyz    dz2    dxz  x2-y2    tot
    1  0.713  0.008  0.000  0.000  0.000  0.000  0.000  0.000  0.000  0.721
 
band     2 # energy    6.78808061 # occ.  1.00000000
 
ion      s     py     pz     px    dxy    dyz    dz2    dxz  x2-y2    tot
    1  0.000  0.000  0.000  0.000  0.000  0.000  0.000  0.975  0.000  0.975
 
band     3 # energy    6.86235102 # occ.  1.00000000
 
ion      s     py     pz     px    dxy    dyz    dz2    dxz  x2-y2    tot
    1  0.000  0.000  0.000  0.000  0.488  0.488  0.000  0.000  0.000  0.976
 
band     4 # energy    6.86235268 # occ.  1.00000000
 
ion      s     py     pz     px    dxy    dyz    dz2    dxz  x2-y2    tot
    1  0.000  0.000  0.000  0.000  0.488  0.488  0.000  0.000  0.000  0.976
 
band     5 # energy    7.93194497 # occ.  1.00000000
 
ion      s     py     pz     px    dxy    dyz    dz2    dxz  x2-y2    tot
    1  0.000  0.000  0.000  0.000  0.000  0.000  0.247  0.000  0.740  0.987
 
band     6 # energy    7.98506339 # occ.  1.00000000
 
ion      s     py     pz     px    dxy    dyz    dz2    dxz  x2-y2    tot
    1  0.000  0.000  0.000  0.000  0.000  0.000  0.741  0.000  0.247  0.988
 
band     7 # energy   32.63263611 # occ.  0.00000000
 
ion      s     py     pz     px    dxy    dyz    dz2    dxz  x2-y2    tot
    1  0.000  0.000  0.000  0.000  0.000  0.000  0.000  0.098  0.000  0.098
 
band     8 # energy   35.65957789 # occ.  0.00000000
 
ion      s     py     pz     px    dxy    dyz    dz2    dxz  x2-y2    tot