<?xml version="1.0" encoding="ISO-8859-1"?>
<modeling>
 <generator>
  <i name="program" type="string">vasp </i>
  <i name="version" type="string">5.4.4.18Apr17-6-g9f103f2a35  </i>
  <i name="subversion" type="string">(build Mar 30 2023 15:39:25) complex            parallel </i>
  <i name="platform" type="string">LinuxIFC </i>
  <i name="date" type="string">2023 05 03 </i>
  <i name="time" type="string">17:30:05 </i>
 </generator>
 <incar>
  <i type="string" name="SYSTEM"> fcc Ni DOS</i>
  <i type="int" name="ISTART">     0</i>
  <i type="string" name="PREC">accurate</i>
  <i type="int" name="ISPIN">     2</i>
  <i type="int" name="ICHARG">     2</i>
  <i name="EDIFF">      0.00000100</i>
  <i name="EDIFFG">     -0.00000100</i>
  <i name="ENCUT">    270.00000000</i>
  <i type="int" name="ISMEAR">     1</i>
  <i name="SIGMA">      0.20000000</i>
  <i type="int" name="LORBIT">    11</i>
  <v type="int" name="KPOINT_BSE">    -1     0     0     0</v>
 </incar>
 <structure name="primitive_cell" >
  <crystal>
   <varray name="basis" >
    <v>       1.76500000       1.76500000       0.00000000 </v>
    <v>       0.00000000       1.76500000       1.76500000 </v>
    <v>       1.76500000       0.00000000       1.76500000 </v>
   </varray>
   <i name="volume">     10.99674425 </i>
   <varray name="rec_basis" >
    <v>       0.28328612       0.28328612      -0.28328612 </v>
    <v>      -0.28328612       0.28328612       0.28328612 </v>
    <v>       0.28328612      -0.28328612       0.28328612 </v>
   </varray>
  </crystal>
  <varray name="positions" >
   <v>       0.00000000       0.00000000       0.00000000 </v>
  </varray>
 </structure>
 <varray name="primitive_index" >
  <v type="int" >        1 </v>
 </varray>
 <kpoints>
  <generation param="Monkhorst-Pack">
   <v type="int" name="divisions">      21       21       21 </v>
   <v name="usershift">      0.00000000       0.00000000       0.00000000 </v>
   <v name="genvec1">      0.04761905       0.00000000       0.00000000 </v>
   <v name="genvec2">      0.00000000       0.04761905       0.00000000 </v>
   <v name="genvec3">      0.00000000       0.00000000       0.04761905 </v>
   <v name="shift">      0.00000000       0.00000000       0.00000000 </v>
  </generation>
  <varray name="kpointlist" >
   <v>       0.00000000       0.00000000       0.00000000 </v>
   <v>       0.04761905       0.00000000       0.00000000 </v>
   <v>       0.09523810       0.00000000       0.00000000 </v>
   <v>       0.14285714       0.00000000       0.00000000 </v>
   <v>       0.19047619       0.00000000       0.00000000 </v>
   <v>       0.23809524       0.00000000       0.00000000 </v>
   <v>       0.28571429       0.00000000       0.00000000 </v>
   <v>       0.33333333       0.00000000       0.00000000 </v>
   <v>       0.38095238       0.00000000       0.00000000 </v>
   <v>       0.42857143       0.00000000       0.00000000 </v>
   <v>       0.47619048       0.00000000       0.00000000 </v>
   <v>       0.04761905       0.04761905       0.00000000 </v>
   <v>       0.09523810       0.04761905       0.00000000 </v>
   <v>       0.14285714       0.04761905       0.00000000 </v>
   <v>       0.19047619       0.04761905       0.00000000 </v>
   <v>       0.23809524       0.04761905       0.00000000 </v>
   <v>       0.28571429       0.04761905       0.00000000 </v>
   <v>       0.33333333       0.04761905       0.00000000 </v>
   <v>       0.38095238       0.04761905       0.00000000 </v>
   <v>       0.42857143       0.04761905       0.00000000 </v>
   <v>       0.47619048       0.04761905       0.00000000 </v>
   <v>      -0.47619048       0.04761905       0.00000000 </v>
   <v>      -0.42857143       0.04761905       0.00000000 </v>
   <v>      -0.38095238       0.04761905       0.00000000 </v>
   <v>      -0.33333333       0.04761905       0.00000000 </v>
   <v>      -0.28571429       0.04761905       0.00000000 </v>
   <v>      -0.23809524       0.04761905       0.00000000 </v>
   <v>      -0.19047619       0.04761905       0.00000000 </v>
   <v>      -0.14285714       0.04761905       0.00000000 </v>
   <v>      -0.09523810       0.04761905       0.00000000 </v>
   <v>      -0.04761905       0.04761905       0.00000000 </v>
   <v>       0.09523810       0.09523810       0.00000000 </v>
   <v>       0.14285714       0.09523810       0.00000000 </v>
   <v>       0.19047619       0.09523810       0.00000000 </v>
   <v>       0.23809524       0.09523810       0.00000000 </v>
   <v>       0.28571429       0.09523810       0.00000000 </v>
   <v>       0.33333333       0.09523810       0.00000000 </v>
   <v>       0.38095238       0.09523810       0.00000000 </v>
   <v>       0.42857143       0.09523810       0.00000000 </v>
   <v>       0.47619048       0.09523810       0.00000000 </v>
   <v>      -0.47619048       0.09523810       0.00000000 </v>
   <v>      -0.42857143       0.09523810       0.00000000 </v>
   <v>      -0.38095238       0.09523810       0.00000000 </v>
   <v>      -0.33333333       0.09523810       0.00000000 </v>
   <v>      -0.28571429       0.09523810       0.00000000 </v>
   <v>      -0.23809524       0.09523810       0.00000000 </v>
   <v>      -0.19047619       0.09523810       0.00000000 </v>
   <v>      -0.14285714       0.09523810       0.00000000 </v>
   <v>      -0.09523810       0.09523810       0.00000000 </v>
   <v>       0.14285714       0.14285714       0.00000000 </v>
   <v>       0.19047619       0.14285714       0.00000000 </v>
   <v>       0.23809524       0.14285714       0.00000000 </v>
   <v>       0.28571429       0.14285714       0.00000000 </v>
   <v>       0.33333333       0.14285714       0.00000000 </v>
   <v>       0.38095238       0.14285714       0.00000000 </v>
   <v>       0.42857143       0.14285714       0.00000000 </v>
   <v>       0.47619048       0.14285714       0.00000000 </v>
   <v>      -0.47619048       0.14285714       0.00000000 </v>
   <v>      -0.42857143       0.14285714       0.00000000 </v>
   <v>      -0.38095238       0.14285714       0.00000000 </v>
   <v>      -0.33333333       0.14285714       0.00000000 </v>
   <v>      -0.28571429       0.14285714       0.00000000 </v>
   <v>      -0.23809524       0.14285714       0.00000000 </v>
   <v>      -0.19047619       0.14285714       0.00000000 </v>
   <v>      -0.14285714       0.14285714       0.00000000 </v>
   <v>       0.19047619       0.19047619       0.00000000 </v>
   <v>       0.23809524       0.19047619       0.00000000 </v>
   <v>       0.28571429       0.19047619       0.00000000 </v>
   <v>       0.33333333       0.19047619       0.00000000 </v>
   <v>       0.38095238       0.19047619       0.00000000 </v>
   <v>       0.42857143       0.19047619       0.00000000 </v>
   <v>       0.47619048       0.19047619       0.00000000 </v>
   <v>      -0.47619048       0.19047619       0.00000000 </v>
   <v>      -0.42857143       0.19047619       0.00000000 </v>
   <v>      -0.38095238       0.19047619       0.00000000 </v>
   <v>      -0.33333333       0.19047619       0.00000000 </v>
   <v>      -0.28571429       0.19047619       0.00000000 </v>
   <v>      -0.23809524       0.19047619       0.00000000 </v>
   <v>      -0.19047619       0.19047619       0.00000000 </v>
   <v>       0.23809524       0.23809524       0.00000000 </v>
   <v>       0.28571429       0.23809524       0.00000000 </v>
   <v>       0.33333333       0.23809524       0.00000000 </v>
   <v>       0.38095238       0.23809524       0.00000000 </v>
   <v>       0.42857143       0.23809524       0.00000000 </v>
   <v>       0.47619048       0.23809524       0.00000000 </v>
   <v>      -0.47619048       0.23809524       0.00000000 </v>
   <v>      -0.42857143       0.23809524       0.00000000 </v>
   <v>      -0.38095238       0.23809524       0.00000000 </v>
   <v>      -0.33333333       0.23809524       0.00000000 </v>
   <v>      -0.28571429       0.23809524       0.00000000 </v>
   <v>      -0.23809524       0.23809524       0.00000000 </v>
   <v>       0.28571429       0.28571429       0.00000000 </v>
   <v>       0.33333333       0.28571429       0.00000000 </v>
   <v>       0.38095238       0.28571429       0.00000000 </v>
   <v>       0.42857143       0.28571429       0.00000000 </v>
   <v>       0.47619048       0.28571429       0.00000000 </v>
   <v>      -0.47619048       0.28571429       0.00000000 </v>
   <v>      -0.42857143       0.28571429       0.00000000 </v>
   <v>      -0.38095238       0.28571429       0.00000000 </v>
   <v>      -0.33333333       0.28571429       0.00000000 </v>
   <v>      -0.28571429       0.28571429       0.00000000 </v>
   <v>       0.33333333       0.33333333       0.00000000 </v>
   <v>       0.38095238       0.33333333       0.00000000 </v>
   <v>       0.42857143       0.33333333       0.00000000 </v>
   <v>       0.47619048       0.33333333       0.00000000 </v>
   <v>      -0.47619048       0.33333333       0.00000000 </v>
   <v>      -0.42857143       0.33333333       0.00000000 </v>
   <v>      -0.38095238       0.33333333       0.00000000 </v>
   <v>      -0.33333333       0.33333333       0.00000000 </v>
   <v>       0.38095238       0.38095238       0.00000000 </v>
   <v>       0.42857143       0.38095238       0.00000000 </v>
   <v>       0.47619048       0.38095238       0.00000000 </v>
   <v>      -0.47619048       0.38095238       0.00000000 </v>
   <v>      -0.42857143       0.38095238       0.00000000 </v>
   <v>      -0.38095238       0.38095238       0.00000000 </v>
   <v>       0.42857143       0.42857143       0.00000000 </v>
   <v>       0.47619048       0.42857143       0.00000000 </v>
   <v>      -0.47619048       0.42857143       0.00000000 </v>
   <v>      -0.42857143       0.42857143       0.00000000 </v>
   <v>       0.47619048       0.47619048       0.00000000 </v>
   <v>      -0.47619048       0.47619048       0.00000000 </v>
   <v>       0.14285714       0.09523810       0.04761905 </v>
   <v>       0.19047619       0.09523810       0.04761905 </v>
   <v>       0.23809524       0.09523810       0.04761905 </v>
   <v>       0.28571429       0.09523810       0.04761905 </v>
   <v>       0.33333333       0.09523810       0.04761905 </v>
   <v>       0.38095238       0.09523810       0.04761905 </v>
   <v>       0.42857143       0.09523810       0.04761905 </v>
   <v>       0.47619048       0.09523810       0.04761905 </v>
   <v>      -0.47619048       0.09523810       0.04761905 </v>
   <v>       0.19047619       0.14285714       0.04761905 </v>
   <v>       0.23809524       0.14285714       0.04761905 </v>
   <v>       0.28571429       0.14285714       0.04761905 </v>
   <v>       0.33333333       0.14285714       0.04761905 </v>
   <v>       0.38095238       0.14285714       0.04761905 </v>
   <v>       0.42857143       0.14285714       0.04761905 </v>
   <v>       0.47619048       0.14285714       0.04761905 </v>
   <v>      -0.47619048       0.14285714       0.04761905 </v>
   <v>      -0.42857143       0.14285714       0.04761905 </v>
   <v>      -0.38095238       0.14285714       0.04761905 </v>
   <v>      -0.33333333       0.14285714       0.04761905 </v>
   <v>      -0.28571429       0.14285714       0.04761905 </v>
   <v>      -0.23809524       0.14285714       0.04761905 </v>
   <v>      -0.19047619       0.14285714       0.04761905 </v>
   <v>      -0.14285714       0.14285714       0.04761905 </v>
   <v>      -0.09523810       0.14285714       0.04761905 </v>
   <v>       0.23809524       0.19047619       0.04761905 </v>
   <v>       0.28571429       0.19047619       0.04761905 </v>
   <v>       0.33333333       0.19047619       0.04761905 </v>
   <v>       0.38095238       0.19047619       0.04761905 </v>
   <v>       0.42857143       0.19047619       0.04761905 </v>
   <v>       0.47619048       0.19047619       0.04761905 </v>
   <v>      -0.47619048       0.19047619       0.04761905 </v>
   <v>      -0.42857143       0.19047619       0.04761905 </v>
   <v>      -0.38095238       0.19047619       0.04761905 </v>
   <v>      -0.33333333       0.19047619       0.04761905 </v>
   <v>      -0.28571429       0.19047619       0.04761905 </v>
   <v>      -0.23809524       0.19047619       0.04761905 </v>
   <v>      -0.19047619       0.19047619       0.04761905 </v>
   <v>      -0.14285714       0.19047619       0.04761905 </v>
   <v>       0.28571429       0.23809524       0.04761905 </v>
   <v>       0.33333333       0.23809524       0.04761905 </v>
   <v>       0.38095238       0.23809524       0.04761905 </v>
   <v>       0.42857143       0.23809524       0.04761905 </v>
   <v>       0.47619048       0.23809524       0.04761905 </v>
   <v>      -0.47619048       0.23809524       0.04761905 </v>
   <v>      -0.42857143       0.23809524       0.04761905 </v>
   <v>      -0.38095238       0.23809524       0.04761905 </v>
   <v>      -0.33333333       0.23809524       0.04761905 </v>
   <v>      -0.28571429       0.23809524       0.04761905 </v>
   <v>      -0.23809524       0.23809524       0.04761905 </v>
   <v>      -0.19047619       0.23809524       0.04761905 </v>
   <v>       0.33333333       0.28571429       0.04761905 </v>
   <v>       0.38095238       0.28571429       0.04761905 </v>
   <v>       0.42857143       0.28571429       0.04761905 </v>
   <v>       0.47619048       0.28571429       0.04761905 </v>
   <v>      -0.47619048       0.28571429       0.04761905 </v>
   <v>      -0.42857143       0.28571429       0.04761905 </v>
   <v>      -0.38095238       0.28571429       0.04761905 </v>
   <v>      -0.33333333       0.28571429       0.04761905 </v>
   <v>      -0.28571429       0.28571429       0.04761905 </v>
   <v>      -0.23809524       0.28571429       0.04761905 </v>
   <v>       0.38095238       0.33333333       0.04761905 </v>
   <v>       0.42857143       0.33333333       0.04761905 </v>
   <v>       0.47619048       0.33333333       0.04761905 </v>
   <v>      -0.47619048       0.33333333       0.04761905 </v>
   <v>      -0.42857143       0.33333333       0.04761905 </v>
   <v>      -0.38095238       0.33333333       0.04761905 </v>
   <v>      -0.33333333       0.33333333       0.04761905 </v>
   <v>      -0.28571429       0.33333333       0.04761905 </v>
   <v>       0.42857143       0.38095238       0.04761905 </v>
   <v>       0.47619048       0.38095238       0.04761905 </v>
   <v>      -0.47619048       0.38095238       0.04761905 </v>
   <v>      -0.42857143       0.38095238       0.04761905 </v>
   <v>      -0.38095238       0.38095238       0.04761905 </v>
   <v>      -0.33333333       0.38095238       0.04761905 </v>
   <v>       0.47619048       0.42857143       0.04761905 </v>
   <v>      -0.47619048       0.42857143       0.04761905 </v>
   <v>      -0.42857143       0.42857143       0.04761905 </v>
   <v>      -0.38095238       0.42857143       0.04761905 </v>
   <v>      -0.47619048       0.47619048       0.04761905 </v>
   <v>      -0.42857143       0.47619048       0.04761905 </v>
   <v>       0.28571429       0.19047619       0.09523810 </v>
   <v>       0.33333333       0.19047619       0.09523810 </v>
   <v>       0.38095238       0.19047619       0.09523810 </v>
   <v>       0.42857143       0.19047619       0.09523810 </v>
   <v>       0.47619048       0.19047619       0.09523810 </v>
   <v>      -0.47619048       0.19047619       0.09523810 </v>
   <v>      -0.42857143       0.19047619       0.09523810 </v>
   <v>       0.33333333       0.23809524       0.09523810 </v>
   <v>       0.38095238       0.23809524       0.09523810 </v>
   <v>       0.42857143       0.23809524       0.09523810 </v>
   <v>       0.47619048       0.23809524       0.09523810 </v>
   <v>      -0.47619048       0.23809524       0.09523810 </v>
   <v>      -0.42857143       0.23809524       0.09523810 </v>
   <v>      -0.38095238       0.23809524       0.09523810 </v>
   <v>      -0.33333333       0.23809524       0.09523810 </v>
   <v>      -0.28571429       0.23809524       0.09523810 </v>
   <v>      -0.23809524       0.23809524       0.09523810 </v>
   <v>      -0.19047619       0.23809524       0.09523810 </v>
   <v>      -0.14285714       0.23809524       0.09523810 </v>
   <v>       0.38095238       0.28571429       0.09523810 </v>
   <v>       0.42857143       0.28571429       0.09523810 </v>
   <v>       0.47619048       0.28571429       0.09523810 </v>
   <v>      -0.47619048       0.28571429       0.09523810 </v>
   <v>      -0.42857143       0.28571429       0.09523810 </v>
   <v>      -0.38095238       0.28571429       0.09523810 </v>
   <v>      -0.33333333       0.28571429       0.09523810 </v>
   <v>      -0.28571429       0.28571429       0.09523810 </v>
   <v>      -0.23809524       0.28571429       0.09523810 </v>
   <v>      -0.19047619       0.28571429       0.09523810 </v>
   <v>       0.42857143       0.33333333       0.09523810 </v>
   <v>       0.47619048       0.33333333       0.09523810 </v>
   <v>      -0.47619048       0.33333333       0.09523810 </v>
   <v>      -0.42857143       0.33333333       0.09523810 </v>
   <v>      -0.38095238       0.33333333       0.09523810 </v>
   <v>      -0.33333333       0.33333333       0.09523810 </v>
   <v>      -0.28571429       0.33333333       0.09523810 </v>
   <v>      -0.23809524       0.33333333       0.09523810 </v>
   <v>       0.47619048       0.38095238       0.09523810 </v>
   <v>      -0.47619048       0.38095238       0.09523810 </v>
   <v>      -0.42857143       0.38095238       0.09523810 </v>
   <v>      -0.38095238       0.38095238       0.09523810 </v>
   <v>      -0.33333333       0.38095238       0.09523810 </v>
   <v>      -0.28571429       0.38095238       0.09523810 </v>
   <v>      -0.47619048       0.42857143       0.09523810 </v>
   <v>      -0.42857143       0.42857143       0.09523810 </v>
   <v>      -0.38095238       0.42857143       0.09523810 </v>
   <v>      -0.33333333       0.42857143       0.09523810 </v>
   <v>      -0.42857143       0.47619048       0.09523810 </v>
   <v>      -0.38095238       0.47619048       0.09523810 </v>
   <v>       0.42857143       0.28571429       0.14285714 </v>
   <v>       0.47619048       0.28571429       0.14285714 </v>
   <v>      -0.47619048       0.28571429       0.14285714 </v>
   <v>      -0.42857143       0.28571429       0.14285714 </v>
   <v>      -0.38095238       0.28571429       0.14285714 </v>
   <v>       0.47619048       0.33333333       0.14285714 </v>
   <v>      -0.47619048       0.33333333       0.14285714 </v>
   <v>      -0.42857143       0.33333333       0.14285714 </v>
   <v>      -0.38095238       0.33333333       0.14285714 </v>
   <v>      -0.33333333       0.33333333       0.14285714 </v>
   <v>      -0.28571429       0.33333333       0.14285714 </v>
   <v>      -0.23809524       0.33333333       0.14285714 </v>
   <v>      -0.19047619       0.33333333       0.14285714 </v>
   <v>      -0.47619048       0.38095238       0.14285714 </v>
   <v>      -0.42857143       0.38095238       0.14285714 </v>
   <v>      -0.38095238       0.38095238       0.14285714 </v>
   <v>      -0.33333333       0.38095238       0.14285714 </v>
   <v>      -0.28571429       0.38095238       0.14285714 </v>
   <v>      -0.23809524       0.38095238       0.14285714 </v>
   <v>      -0.42857143       0.42857143       0.14285714 </v>
   <v>      -0.38095238       0.42857143       0.14285714 </v>
   <v>      -0.33333333       0.42857143       0.14285714 </v>
   <v>      -0.28571429       0.42857143       0.14285714 </v>
   <v>      -0.38095238       0.47619048       0.14285714 </v>
   <v>      -0.33333333       0.47619048       0.14285714 </v>
   <v>      -0.42857143       0.38095238       0.19047619 </v>
   <v>      -0.38095238       0.38095238       0.19047619 </v>
   <v>      -0.33333333       0.38095238       0.19047619 </v>
   <v>      -0.38095238       0.42857143       0.19047619 </v>
   <v>      -0.33333333       0.42857143       0.19047619 </v>
   <v>      -0.28571429       0.42857143       0.19047619 </v>
   <v>      -0.23809524       0.42857143       0.19047619 </v>
   <v>      -0.33333333       0.47619048       0.19047619 </v>
   <v>      -0.28571429       0.47619048       0.19047619 </v>
   <v>      -0.28571429       0.47619048       0.23809524 </v>
  </varray>
  <varray name="weights" >
   <v>       0.00010798 </v>
   <v>       0.00086384 </v>
   <v>       0.00086384 </v>
   <v>       0.00086384 </v>
   <v>       0.00086384 </v>
   <v>       0.00086384 </v>
   <v>       0.00086384 </v>
   <v>       0.00086384 </v>
   <v>       0.00086384 </v>
   <v>       0.00086384 </v>
   <v>       0.00086384 </v>
   <v>       0.00064788 </v>
   <v>       0.00259151 </v>
   <v>       0.00259151 </v>
   <v>       0.00259151 </v>
   <v>       0.00259151 </v>
   <v>       0.00259151 </v>
   <v>       0.00259151 </v>
   <v>       0.00259151 </v>
   <v>       0.00259151 </v>
   <v>       0.00259151 </v>
   <v>       0.00259151 </v>
   <v>       0.00259151 </v>
   <v>       0.00259151 </v>
   <v>       0.00259151 </v>
   <v>       0.00259151 </v>
   <v>       0.00259151 </v>
   <v>       0.00259151 </v>
   <v>       0.00259151 </v>
   <v>       0.00259151 </v>
   <v>       0.00129576 </v>
   <v>       0.00064788 </v>
   <v>       0.00259151 </v>
   <v>       0.00259151 </v>
   <v>       0.00259151 </v>
   <v>       0.00259151 </v>
   <v>       0.00259151 </v>
   <v>       0.00259151 </v>
   <v>       0.00259151 </v>
   <v>       0.00259151 </v>
   <v>       0.00259151 </v>
   <v>       0.00259151 </v>
   <v>       0.00259151 </v>
   <v>       0.00259151 </v>
   <v>       0.00259151 </v>
   <v>       0.00259151 </v>
   <v>       0.00259151 </v>
   <v>       0.00259151 </v>
   <v>       0.00129576 </v>
   <v>       0.00064788 </v>
   <v>       0.00259151 </v>
   <v>       0.00259151 </v>
   <v>       0.00259151 </v>
   <v>       0.00259151 </v>
   <v>       0.00259151 </v>
   <v>       0.00259151 </v>
   <v>       0.00259151 </v>
   <v>       0.00259151 </v>
   <v>       0.00259151 </v>
   <v>       0.00259151 </v>
   <v>       0.00259151 </v>
   <v>       0.00259151 </v>
   <v>       0.00259151 </v>
   <v>       0.00259151 </v>
   <v>       0.00129576 </v>
   <v>       0.00064788 </v>
   <v>       0.00259151 </v>
   <v>       0.00259151 </v>
   <v>       0.00259151 </v>
   <v>       0.00259151 </v>
   <v>       0.00259151 </v>
   <v>       0.00259151 </v>
   <v>       0.00259151 </v>
   <v>       0.00259151 </v>
   <v>       0.00259151 </v>
   <v>       0.00259151 </v>
   <v>       0.00259151 </v>
   <v>       0.00259151 </v>
   <v>       0.00129576 </v>
   <v>       0.00064788 </v>
   <v>       0.00259151 </v>
   <v>       0.00259151 </v>
   <v>       0.00259151 </v>
   <v>       0.00259151 </v>
   <v>       0.00259151 </v>
   <v>       0.00259151 </v>
   <v>       0.00259151 </v>
   <v>       0.00259151 </v>
   <v>       0.00259151 </v>
   <v>       0.00259151 </v>
   <v>       0.00129576 </v>
   <v>       0.00064788 </v>
   <v>       0.00259151 </v>
   <v>       0.00259151 </v>
   <v>       0.00259151 </v>
   <v>       0.00259151 </v>
   <v>       0.00259151 </v>
   <v>       0.00259151 </v>
   <v>       0.00259151 </v>
   <v>       0.00259151 </v>
   <v>       0.00129576 </v>
   <v>       0.00064788 </v>
   <v>       0.00259151 </v>
   <v>       0.00259151 </v>
   <v>       0.00259151 </v>
   <v>       0.00259151 </v>
   <v>       0.00259151 </v>
   <v>       0.00259151 </v>
   <v>       0.00129576 </v>
   <v>       0.00064788 </v>
   <v>       0.00259151 </v>
   <v>       0.00259151 </v>
   <v>       0.00259151 </v>
   <v>       0.00259151 </v>
   <v>       0.00129576 </v>
   <v>       0.00064788 </v>
   <v>       0.00259151 </v>
   <v>       0.00259151 </v>
   <v>       0.00129576 </v>
   <v>       0.00064788 </v>
   <v>       0.00129576 </v>
   <v>       0.00259151 </v>
   <v>       0.00518303 </v>
   <v>       0.00518303 </v>
   <v>       0.00518303 </v>
   <v>       0.00518303 </v>
   <v>       0.00518303 </v>
   <v>       0.00518303 </v>
   <v>       0.00518303 </v>
   <v>       0.00518303 </v>
   <v>       0.00259151 </v>
   <v>       0.00518303 </v>
   <v>       0.00518303 </v>
   <v>       0.00518303 </v>
   <v>       0.00518303 </v>
   <v>       0.00518303 </v>
   <v>       0.00518303 </v>
   <v>       0.00518303 </v>
   <v>       0.00518303 </v>
   <v>       0.00518303 </v>
   <v>       0.00518303 </v>
   <v>       0.00518303 </v>
   <v>       0.00518303 </v>
   <v>       0.00518303 </v>
   <v>       0.00518303 </v>
   <v>       0.00259151 </v>
   <v>       0.00259151 </v>
   <v>       0.00518303 </v>
   <v>       0.00518303 </v>
   <v>       0.00518303 </v>
   <v>       0.00518303 </v>
   <v>       0.00518303 </v>
   <v>       0.00518303 </v>
   <v>       0.00518303 </v>
   <v>       0.00518303 </v>
   <v>       0.00518303 </v>
   <v>       0.00518303 </v>
   <v>       0.00518303 </v>
   <v>       0.00518303 </v>
   <v>       0.00259151 </v>
   <v>       0.00259151 </v>
   <v>       0.00518303 </v>
   <v>       0.00518303 </v>
   <v>       0.00518303 </v>
   <v>       0.00518303 </v>
   <v>       0.00518303 </v>
   <v>       0.00518303 </v>
   <v>       0.00518303 </v>
   <v>       0.00518303 </v>
   <v>       0.00518303 </v>
   <v>       0.00518303 </v>
   <v>       0.00259151 </v>
   <v>       0.00259151 </v>
   <v>       0.00518303 </v>
   <v>       0.00518303 </v>
   <v>       0.00518303 </v>
   <v>       0.00518303 </v>
   <v>       0.00518303 </v>
   <v>       0.00518303 </v>
   <v>       0.00518303 </v>
   <v>       0.00518303 </v>
   <v>       0.00259151 </v>
   <v>       0.00259151 </v>
   <v>       0.00518303 </v>
   <v>       0.00518303 </v>
   <v>       0.00518303 </v>
   <v>       0.00518303 </v>
   <v>       0.00518303 </v>
   <v>       0.00518303 </v>
   <v>       0.00259151 </v>
   <v>       0.00259151 </v>
   <v>       0.00518303 </v>
   <v>       0.00518303 </v>
   <v>       0.00518303 </v>
   <v>       0.00518303 </v>
   <v>       0.00259151 </v>
   <v>       0.00259151 </v>
   <v>       0.00518303 </v>
   <v>       0.00518303 </v>
   <v>       0.00259151 </v>
   <v>       0.00259151 </v>
   <v>       0.00259151 </v>
   <v>       0.00259151 </v>
   <v>       0.00518303 </v>
   <v>       0.00518303 </v>
   <v>       0.00518303 </v>
   <v>       0.00518303 </v>
   <v>       0.00518303 </v>
   <v>       0.00518303 </v>
   <v>       0.00259151 </v>
   <v>       0.00518303 </v>
   <v>       0.00518303 </v>
   <v>       0.00518303 </v>
   <v>       0.00518303 </v>
   <v>       0.00518303 </v>
   <v>       0.00518303 </v>
   <v>       0.00518303 </v>
   <v>       0.00518303 </v>
   <v>       0.00518303 </v>
   <v>       0.00518303 </v>
   <v>       0.00259151 </v>
   <v>       0.00259151 </v>
   <v>       0.00518303 </v>
   <v>       0.00518303 </v>
   <v>       0.00518303 </v>
   <v>       0.00518303 </v>
   <v>       0.00518303 </v>
   <v>       0.00518303 </v>
   <v>       0.00518303 </v>
   <v>       0.00518303 </v>
   <v>       0.00259151 </v>
   <v>       0.00259151 </v>
   <v>       0.00518303 </v>
   <v>       0.00518303 </v>
   <v>       0.00518303 </v>
   <v>       0.00518303 </v>
   <v>       0.00518303 </v>
   <v>       0.00518303 </v>
   <v>       0.00259151 </v>
   <v>       0.00259151 </v>
   <v>       0.00518303 </v>
   <v>       0.00518303 </v>
   <v>       0.00518303 </v>
   <v>       0.00518303 </v>
   <v>       0.00259151 </v>
   <v>       0.00259151 </v>
   <v>       0.00518303 </v>
   <v>       0.00518303 </v>
   <v>       0.00259151 </v>
   <v>       0.00259151 </v>
   <v>       0.00259151 </v>
   <v>       0.00259151 </v>
   <v>       0.00518303 </v>
   <v>       0.00518303 </v>
   <v>       0.00518303 </v>
   <v>       0.00518303 </v>
   <v>       0.00259151 </v>
   <v>       0.00518303 </v>
   <v>       0.00518303 </v>
   <v>       0.00518303 </v>
   <v>       0.00518303 </v>
   <v>       0.00518303 </v>
   <v>       0.00518303 </v>
   <v>       0.00259151 </v>
   <v>       0.00259151 </v>
   <v>       0.00518303 </v>
   <v>       0.00518303 </v>
   <v>       0.00518303 </v>
   <v>       0.00518303 </v>
   <v>       0.00259151 </v>
   <v>       0.00259151 </v>
   <v>       0.00518303 </v>
   <v>       0.00518303 </v>
   <v>       0.00259151 </v>
   <v>       0.00259151 </v>
   <v>       0.00259151 </v>
   <v>       0.00259151 </v>
   <v>       0.00518303 </v>
   <v>       0.00518303 </v>
   <v>       0.00259151 </v>
   <v>       0.00518303 </v>
   <v>       0.00518303 </v>
   <v>       0.00259151 </v>
   <v>       0.00259151 </v>
   <v>       0.00259151 </v>
   <v>       0.00259151 </v>
  </varray>
 </kpoints>
 <parameters>
  <separator name="general" >
   <i type="string" name="SYSTEM">fcc Ni DOS</i>
   <i type="logical" name="LCOMPAT"> F  </i>
  </separator>
  <separator name="electronic" >
   <i type="string" name="PREC">accura</i>
   <i name="ENMAX">    270.00000000</i>
   <i name="ENAUG">    544.56500000</i>
   <i name="EDIFF">      0.00000100</i>
   <i type="int" name="IALGO">    38</i>
   <i type="int" name="IWAVPR">    10</i>
   <i type="int" name="NBANDS">    12</i>
   <i name="NELECT">     10.00000000</i>
   <i type="int" name="TURBO">     0</i>
   <i type="int" name="IRESTART">     0</i>
   <i type="int" name="NREBOOT">     0</i>
   <i type="int" name="NMIN">     0</i>
   <i name="EREF">      0.00000000</i>
   <separator name="electronic smearing" >
    <i type="int" name="ISMEAR">     1</i>
    <i name="SIGMA">      0.20000000</i>
    <i name="KSPACING">      0.50000000</i>
    <i type="logical" name="KGAMMA"> T  </i>
   </separator>
   <separator name="electronic projectors" >
    <i type="logical" name="LREAL"> F  </i>
    <v name="ROPT">      0.00000000</v>
    <i type="int" name="LMAXPAW">  -100</i>
    <i type="int" name="LMAXMIX">     2</i>
    <i type="logical" name="NLSPLINE"> F  </i>
   </separator>
   <separator name="electronic startup" >
    <i type="int" name="ISTART">     0</i>
    <i type="int" name="ICHARG">     2</i>
    <i type="int" name="INIWAV">     1</i>
   </separator>
   <separator name="electronic spin" >
    <i type="int" name="ISPIN">     2</i>
    <i type="logical" name="LNONCOLLINEAR"> F  </i>
    <v name="MAGMOM">      1.00000000</v>
    <i name="NUPDOWN">     -1.00000000</i>
    <i type="logical" name="LSORBIT"> F  </i>
    <v name="SAXIS">      0.00000000      0.00000000      1.00000000</v>
    <i type="logical" name="LSPIRAL"> F  </i>
    <v name="QSPIRAL">      0.00000000      0.00000000      0.00000000</v>
    <i type="logical" name="LZEROZ"> F  </i>
   </separator>
   <separator name="electronic exchange-correlation" >
    <i type="logical" name="LASPH"> F  </i>
    <i type="logical" name="LMETAGGA"> F  </i>
   </separator>
   <separator name="electronic convergence" >
    <i type="int" name="NELM">    60</i>
    <i type="int" name="NELMDL">    -5</i>
    <i type="int" name="NELMIN">     2</i>
    <i name="ENINI">    270.00000000</i>
    <separator name="electronic convergence detail" >
     <i type="logical" name="LDIAG"> T  </i>
     <i type="logical" name="LSUBROT"> F  </i>
     <i name="WEIMIN">      0.00000000</i>
     <i name="EBREAK">      0.00000000</i>
     <i name="DEPER">      0.30000000</i>
     <i type="int" name="NRMM">     4</i>
     <i name="TIME">      0.40000000</i>
    </separator>
   </separator>
   <separator name="electronic mixer" >
    <i name="AMIX">      0.40000000</i>
    <i name="BMIX">      1.00000000</i>
    <i name="AMIN">      0.10000000</i>
    <i name="AMIX_MAG">      1.60000000</i>
    <i name="BMIX_MAG">      1.00000000</i>
    <separator name="electronic mixer details" >
     <i type="int" name="IMIX">     4</i>
     <i type="logical" name="MIXFIRST"> F  </i>
     <i type="int" name="MAXMIX">   -45</i>
     <i name="WC">    100.00000000</i>
     <i type="int" name="INIMIX">     1</i>
     <i type="int" name="MIXPRE">     1</i>
     <i type="int" name="MREMOVE">     5</i>
    </separator>
   </separator>
   <separator name="electronic dipolcorrection" >
    <i type="logical" name="LDIPOL"> F  </i>
    <i type="logical" name="LMONO"> F  </i>
    <i type="int" name="IDIPOL">     0</i>
    <i name="EPSILON">      1.00000000</i>
    <v name="DIPOL">   -100.00000000   -100.00000000   -100.00000000</v>
    <i name="EFIELD">      0.00000000</i>
   </separator>
  </separator>
  <separator name="grids" >
   <i type="int" name="NGX">    14</i>
   <i type="int" name="NGY">    14</i>
   <i type="int" name="NGZ">    14</i>
   <i type="int" name="NGXF">    28</i>
   <i type="int" name="NGYF">    28</i>
   <i type="int" name="NGZF">    28</i>
   <i type="logical" name="ADDGRID"> F  </i>
  </separator>
  <separator name="ionic" >
   <i type="int" name="NSW">     0</i>
   <i type="int" name="IBRION">    -1</i>
   <i type="int" name="MDALGO">     0</i>
   <i type="int" name="ISIF">     2</i>
   <i name="PSTRESS">      0.00000000</i>
   <i name="EDIFFG">     -0.00000100</i>
   <i type="int" name="NFREE">     0</i>
   <i name="POTIM">      0.50000000</i>
   <i name="SMASS">     -3.00000000</i>
   <i name="SCALEE">      1.00000000</i>
  </separator>
  <separator name="ionic md" >
   <i name="TEBEG">      0.00010000</i>
   <i name="TEEND">      0.00010000</i>
   <i type="int" name="NBLOCK">     1</i>
   <i type="int" name="KBLOCK">     1</i>
   <i type="int" name="NPACO">   256</i>
   <i name="APACO">     16.00000000</i>
  </separator>
  <separator name="symmetry" >
   <i type="int" name="ISYM">     2</i>
   <i name="SYMPREC">      0.00001000</i>
  </separator>
  <separator name="dos" >
   <i type="int" name="LORBIT">    11</i>
   <v name="RWIGS">     -1.00000000</v>
   <i type="int" name="NEDOS">   301</i>
   <i name="EMIN">     10.00000000</i>
   <i name="EMAX">    -10.00000000</i>
   <i name="EFERMI">      0.00000000</i>
  </separator>
  <separator name="writing" >
   <i type="int" name="NWRITE">     2</i>
   <i type="logical" name="LWAVE"> T  </i>
   <i type="logical" name="LDOWNSAMPLE"> F  </i>
   <i type="logical" name="LCHARG"> T  </i>
   <i type="logical" name="LPARD"> F  </i>
   <i type="logical" name="LVTOT"> F  </i>
   <i type="logical" name="LVHAR"> F  </i>
   <i type="logical" name="LELF"> F  </i>
   <i type="logical" name="LOPTICS"> F  </i>
   <v name="STM">      0.00000000      0.00000000      0.00000000      0.00000000      0.00000000      0.00000000      0.00000000</v>
  </separator>
  <separator name="performance" >
   <i type="int" name="NPAR">    12</i>
   <i type="int" name="NSIM">     4</i>
   <i type="int" name="NBLK">    -1</i>
   <i type="logical" name="LPLANE"> T  </i>
   <i type="logical" name="LSCALAPACK"> T  </i>
   <i type="logical" name="LSCAAWARE"> F  </i>
   <i type="logical" name="LSCALU"> F  </i>
   <i type="logical" name="LASYNC"> F  </i>
   <i type="logical" name="LORBITALREAL"> F  </i>
  </separator>
  <separator name="miscellaneous" >
   <i type="int" name="IDIOT">     3</i>
   <i type="int" name="ISPECIAL">     0</i>
   <i type="logical" name="LMUSIC"> F  </i>
   <v name="POMASS">     58.69000000</v>
   <v name="DARWINR">      0.00000000</v>
   <v name="DARWINV">      1.00000000</v>
   <i type="logical" name="LCORR"> T  </i>
  </separator>
  <i type="logical" name="GGA_COMPAT"> T  </i>
  <i type="logical" name="LBERRY"> F  </i>
  <i type="int" name="ICORELEVEL">     0</i>
  <i type="logical" name="LDAU"> F  </i>
  <i type="int" name="I_CONSTRAINED_M">     0</i>
  <separator name="electronic exchange-correlation" >
   <i type="string" name="GGA">--</i>
   <i type="int" name="VOSKOWN">     0</i>
   <i type="logical" name="LHFCALC"> F  </i>
   <i type="string" name="PRECFOCK"></i>
   <i type="logical" name="LSYMGRAD"> F  </i>
   <i type="logical" name="LHFONE"> F  </i>
   <i type="logical" name="LRHFCALC"> F  </i>
   <i type="logical" name="LTHOMAS"> F  </i>
   <i type="logical" name="LMODELHF"> F  </i>
   <i name="ENCUT4O">     -1.00000000</i>
   <i type="int" name="EXXOEP">     0</i>
   <i type="int" name="FOURORBIT">     0</i>
   <i name="AEXX">      0.00000000</i>
   <i name="HFALPHA">      0.00000000</i>
   <i name="MCALPHA">      0.00000000</i>
   <i name="ALDAX">      1.00000000</i>
   <i name="AGGAX">      1.00000000</i>
   <i name="ALDAC">      1.00000000</i>
   <i name="AGGAC">      1.00000000</i>
   <i type="int" name="NKREDX">     1</i>
   <i type="int" name="NKREDY">     1</i>
   <i type="int" name="NKREDZ">     1</i>
   <i type="logical" name="SHIFTRED"> F  </i>
   <i type="logical" name="ODDONLY"> F  </i>
   <i type="logical" name="EVENONLY"> F  </i>
   <i type="int" name="LMAXFOCK">     0</i>
   <i type="int" name="NMAXFOCKAE">     0</i>
   <i type="logical" name="LFOCKAEDFT"> F  </i>
   <i name="HFSCREEN">      0.00000000</i>
   <i name="HFSCREENC">      0.00000000</i>
   <i type="int" name="NBANDSGWLOW">     0</i>
  </separator>
  <separator name="vdW DFT" >
   <i type="logical" name="LUSE_VDW"> F  </i>
   <i name="Zab_VDW">     -0.84910000</i>
   <i name="PARAM1">      0.12340000</i>
   <i name="PARAM2">      1.00000000</i>
   <i name="PARAM3">      0.00000000</i>
  </separator>
  <separator name="model GW" >
   <i type="int" name="MODEL_GW">     0</i>
   <i name="MODEL_EPS0">      6.59804655</i>
   <i name="MODEL_ALPHA">      1.00000000</i>
  </separator>
  <separator name="linear response parameters" >
   <i type="logical" name="LEPSILON"> F  </i>
   <i type="logical" name="LRPA"> F  </i>
   <i type="logical" name="LNABLA"> F  </i>
   <i type="logical" name="LVEL"> F  </i>
   <i type="int" name="KINTER">     0</i>
   <i name="CSHIFT">      0.10000000</i>
   <i name="OMEGAMAX">     -1.00000000</i>
   <i name="DEG_THRESHOLD">      0.00200000</i>
   <i name="RTIME">     -0.10000000</i>
   <i name="WPLASMAI">      0.00000000</i>
   <v name="DFIELD">      0.00000000      0.00000000      0.00000000</v>
   <v name="WPLASMA">      0.00000000      0.00000000      0.00000000      0.00000000      0.00000000      0.00000000      0.00000000      0.00000000      0.00000000</v>
  </separator>
  <separator name="orbital magnetization" >
   <i type="logical" name="NUCIND"> F  </i>
   <v name="MAGPOS">      0.00000000      0.00000000      0.00000000</v>
   <i type="logical" name="LNICSALL"> T  </i>
   <i type="logical" name="ORBITALMAG"> F  </i>
   <i type="logical" name="LMAGBLOCH"> F  </i>
   <i type="logical" name="LCHIMAG"> F  </i>
   <i type="logical" name="LGAUGE"> T  </i>
   <i type="int" name="MAGATOM">     0</i>
   <v name="MAGDIPOL">      0.00000000      0.00000000      0.00000000</v>
   <v name="AVECCONST">      0.00000000      0.00000000      0.00000000</v>
  </separator>
  <separator name="response functions" >
   <i type="logical" name="LADDER"> F  </i>
   <i type="logical" name="LRPAFORCE"> F  </i>
   <i type="logical" name="LFXC"> F  </i>
   <i type="logical" name="LHARTREE"> T  </i>
   <i type="int" name="IBSE">     0</i>
   <v type="int" name="KPOINT">    -1     0     0     0</v>
   <i type="logical" name="LTCTE"> F  </i>
   <i type="logical" name="LTETE"> F  </i>
   <i type="logical" name="LTRIPLET"> F  </i>
   <i type="logical" name="LFXCEPS"> F  </i>
   <i type="logical" name="LFXHEG"> F  </i>
   <i type="int" name="NATURALO">     2</i>
   <i type="logical" name="L2ORDER"> F  </i>
   <i type="logical" name="LMP2LT"> F  </i>
   <i type="logical" name="LUSEW"> F  </i>
   <i name="ENCUTGW">     -2.00000000</i>
   <i name="ENCUTGWSOFT">     -2.00000000</i>
   <i name="ENCUTLF">     -1.00000000</i>
   <i type="int" name="LMAXMP2">    -1</i>
   <i name="SCISSOR">      0.00000000</i>
   <i type="int" name="NOMEGA">     0</i>
   <i type="int" name="NOMEGAR">     0</i>
   <i type="int" name="NBANDSGW">    -1</i>
   <i type="int" name="NBANDSO">    -1</i>
   <i type="int" name="NBANDSV">    -1</i>
   <i type="int" name="NELM">     1</i>
   <i type="int" name="NELMHF">     1</i>
   <i type="int" name="DIM">     3</i>
   <i type="int" name="ANTIRES">     0</i>
   <i name="OMEGAMAX">    -30.00000000</i>
   <i name="OMEGAMIN">    -30.00000000</i>
   <i name="OMEGATL">   -200.00000000</i>
   <i type="int" name="OMEGAGRID">   140</i>
   <i name="CSHIFT">     -0.10000000</i>
   <i type="logical" name="SELFENERGY"> F  </i>
   <i type="logical" name="LSPECTRAL"> F  </i>
   <i type="logical" name="LSPECTRALGW"> F  </i>
   <i type="logical" name="LSINGLES"> F  </i>
   <i type="logical" name="LFERMIGW"> F  </i>
   <i type="logical" name="ODDONLYGW"> F  </i>
   <i type="logical" name="EVENONLYGW"> F  </i>
   <i type="int" name="NKREDLFX">     1</i>
   <i type="int" name="NKREDLFY">     1</i>
   <i type="int" name="NKREDLFZ">     1</i>
   <i type="int" name="MAXMEM">  2800</i>
   <i type="int" name="TELESCOPE">     0</i>
   <i type="int" name="TAUPAR">     1</i>
   <i type="int" name="OMEGAPAR">    -1</i>
   <i name="LAMBDA">      1.00000000</i>
  </separator>
  <separator name="External order field" >
   <i name="OFIELD_KAPPA">      0.00000000</i>
   <v name="OFIELD_K">      0.00000000      0.00000000      0.00000000</v>
   <i name="OFIELD_Q6_NEAR">      0.00000000</i>
   <i name="OFIELD_Q6_FAR">      0.00000000</i>
   <i name="OFIELD_A">      0.00000000</i>
  </separator>
 </parameters>
 <atominfo>
  <atoms>       1 </atoms>
  <types>       1 </types>
  <array name="atoms" >
   <dimension dim="1">ion</dimension>
   <field type="string">element</field>
   <field type="int">atomtype</field>
   <set>
    <rc><c>Ni</c><c>   1</c></rc>
   </set>
  </array>
  <array name="atomtypes" >
   <dimension dim="1">type</dimension>
   <field type="int">atomspertype</field>
   <field type="string">element</field>
   <field>mass</field>
   <field>valence</field>
   <field type="string">pseudopotential</field>
   <set>
    <rc><c>   1</c><c>Ni</c><c>     58.69000000</c><c>     10.00000000</c><c>  PAW_PBE Ni 02Aug2007                  </c></rc>
   </set>
  </array>
 </atominfo>
 <structure name="initialpos" >
  <crystal>
   <varray name="basis" >
    <v>       1.76500000       1.76500000       0.00000000 </v>
    <v>       0.00000000       1.76500000       1.76500000 </v>
    <v>       1.76500000       0.00000000       1.76500000 </v>
   </varray>
   <i name="volume">     10.99674425 </i>
   <varray name="rec_basis" >
    <v>       0.28328612       0.28328612      -0.28328612 </v>
    <v>      -0.28328612       0.28328612       0.28328612 </v>
    <v>       0.28328612      -0.28328612       0.28328612 </v>
   </varray>
  </crystal>
  <varray name="positions" >
   <v>       0.00000000       0.00000000       0.00000000 </v>
  </varray>
 </structure>
 <calculation>
  <scstep>
   <time name="dav">    1.17    1.17</time>
   <time name="total">    1.19    1.21</time>
   <energy>
    <i name="alphaZ">     46.37681830 </i>
    <i name="ewald">   -935.14218197 </i>
    <i name="hartreedc">   -246.59910884 </i>
    <i name="XCdc">     31.74631735 </i>
    <i name="pawpsdc">    962.83317360 </i>
    <i name="pawaedc">  -1029.67071227 </i>
    <i name="eentropy">      0.00123853 </i>
    <i name="bandstr">     91.74860605 </i>
    <i name="atom">   1077.63607467 </i>
    <i name="e_fr_energy">     -1.06977458 </i>
    <i name="e_wo_entrp">     -1.07101311 </i>
    <i name="e_0_energy">     -1.07018742 </i>
   </energy>
  </scstep>
  <scstep>
   <time name="dav">    1.20    1.20</time>
   <time name="total">    1.21    1.21</time>
   <energy>
    <i name="e_fr_energy">     -6.47298624 </i>
    <i name="e_wo_entrp">     -6.47461017 </i>
    <i name="e_0_energy">     -6.47352755 </i>
   </energy>
  </scstep>
  <scstep>
   <time name="dav">    1.49    1.49</time>
   <time name="total">    1.49    1.49</time>
   <energy>
    <i name="e_fr_energy">     -6.49230232 </i>
    <i name="e_wo_entrp">     -6.49393105 </i>
    <i name="e_0_energy">     -6.49284523 </i>
   </energy>
  </scstep>
  <scstep>
   <time name="dav">    1.42    1.42</time>
   <time name="total">    1.43    1.43</time>
   <energy>
    <i name="e_fr_energy">     -6.49235930 </i>
    <i name="e_wo_entrp">     -6.49398810 </i>
    <i name="e_0_energy">     -6.49290223 </i>
   </energy>
  </scstep>
  <scstep>
   <time name="dav">    1.57    1.57</time>
   <time name="total">    1.60    1.60</time>
   <energy>
    <i name="e_fr_energy">     -6.49235954 </i>
    <i name="e_wo_entrp">     -6.49398835 </i>
    <i name="e_0_energy">     -6.49290248 </i>
   </energy>
  </scstep>
  <scstep>
   <time name="dav">    1.15    1.15</time>
   <time name="total">    1.19    1.19</time>
   <energy>
    <i name="e_fr_energy">     -5.80642627 </i>
    <i name="e_wo_entrp">     -5.80148194 </i>
    <i name="e_0_energy">     -5.80477816 </i>
   </energy>
  </scstep>
  <scstep>
   <time name="dav">    1.20    1.20</time>
   <time name="total">    1.24    1.24</time>
   <energy>
    <i name="e_fr_energy">     -5.48002809 </i>
    <i name="e_wo_entrp">     -5.47723133 </i>
    <i name="e_0_energy">     -5.47909584 </i>
   </energy>
  </scstep>
  <scstep>
   <time name="dav">    1.41    1.41</time>
   <time name="total">    1.45    1.45</time>
   <energy>
    <i name="e_fr_energy">     -5.46669053 </i>
    <i name="e_wo_entrp">     -5.46376017 </i>
    <i name="e_0_energy">     -5.46571374 </i>
   </energy>
  </scstep>
  <scstep>
   <time name="dav">    1.65    1.65</time>
   <time name="total">    1.69    1.69</time>
   <energy>
    <i name="e_fr_energy">     -5.46440142 </i>
    <i name="e_wo_entrp">     -5.46146699 </i>
    <i name="e_0_energy">     -5.46342327 </i>
   </energy>
  </scstep>
  <scstep>
   <time name="dav">    1.58    1.58</time>
   <time name="total">    1.62    1.62</time>
   <energy>
    <i name="e_fr_energy">     -5.46390043 </i>
    <i name="e_wo_entrp">     -5.46098566 </i>
    <i name="e_0_energy">     -5.46292884 </i>
   </energy>
  </scstep>
  <scstep>
   <time name="dav">    1.39    1.39</time>
   <time name="total">    1.43    1.44</time>
   <energy>
    <i name="e_fr_energy">     -5.46390249 </i>
    <i name="e_wo_entrp">     -5.46099653 </i>
    <i name="e_0_energy">     -5.46293383 </i>
   </energy>
  </scstep>
  <scstep>
   <time name="dav">    1.30    1.30</time>
   <time name="total">    1.32    1.32</time>
   <energy>
    <i name="alphaZ">     46.37681830 </i>
    <i name="ewald">   -935.14218197 </i>
    <i name="hartreedc">   -225.94407638 </i>
    <i name="XCdc">     30.68385410 </i>
    <i name="pawpsdc">   1133.66231208 </i>
    <i name="pawaedc">  -1202.12602512 </i>
    <i name="eentropy">     -0.00290356 </i>
    <i name="bandstr">     69.39222506 </i>
    <i name="atom">   1077.63607467 </i>
    <i name="e_fr_energy">     -5.46390283 </i>
    <i name="e_wo_entrp">     -5.46099927 </i>
    <i name="e_0_energy">     -5.46293498 </i>
   </energy>
  </scstep>
  <structure>
   <crystal>
    <varray name="basis" >
     <v>       1.76500000       1.76500000       0.00000000 </v>
     <v>       0.00000000       1.76500000       1.76500000 </v>
     <v>       1.76500000       0.00000000       1.76500000 </v>
    </varray>
    <i name="volume">     10.99674425 </i>
    <varray name="rec_basis" >
     <v>       0.28328612       0.28328612      -0.28328612 </v>
     <v>      -0.28328612       0.28328612       0.28328612 </v>
     <v>       0.28328612      -0.28328612       0.28328612 </v>
    </varray>
   </crystal>
   <varray name="positions" >
    <v>       0.00000000       0.00000000       0.00000000 </v>
   </varray>
  </structure>
  <varray name="forces" >
   <v>       0.00000000       0.00000000       0.00000000 </v>
  </varray>
  <varray name="stress" >
   <v>     -66.31440662      -0.00000000      -0.00000000 </v>
   <v>      -0.00000000     -66.31440662       0.00000000 </v>
   <v>       0.00000000       0.00000000     -66.31440662 </v>
  </varray>
  <energy>
   <i name="e_fr_energy">     -5.46390283 </i>
   <i name="e_wo_entrp">     -5.46293498 </i>
   <i name="e_0_energy">     -0.00290356 </i>
  </energy>
  <time name="totalsc">   17.25   18.92</time>
  <eigenvalues>
   <array>
    <dimension dim="1">band</dimension>
    <dimension dim="2">kpoint</dimension>
    <dimension dim="3">spin</dimension>
    <field>eigene</field>
    <field>occ</field>
    <set>
     <set comment="spin 1">
      <set comment="kpoint 1">
       <r>    0.2895    1.0000 </r>
       <r>    6.8295    1.0000 </r>
       <r>    6.8295    1.0000 </r>
       <r>    6.8295    1.0000 </r>
       <r>    7.9700    1.0000 </r>
       <r>    7.9700    1.0000 </r>
       <r>   32.8924    0.0000 </r>
       <r>   36.6511    0.0000 </r>
       <r>   36.6512    0.0000 </r>
       <r>   36.6512    0.0000 </r>
       <r>   39.7159    0.0000 </r>
       <r>   39.7159    0.0000 </r>
      </set>
      <set comment="kpoint 2">
       <r>    0.3778    1.0000 </r>
       <r>    6.8073    1.0000 </r>
       <r>    6.8494    1.0000 </r>
       <r>    6.8494    1.0000 </r>
       <r>    7.9617    1.0000 </r>
       <r>    7.9617    1.0000 </r>
       <r>   32.6287    0.0000 </r>
       <r>   35.3903    0.0000 </r>
       <r>   36.4328    0.0000 </r>
       <r>   36.4329    0.0000 </r>
       <r>   40.0385    0.0000 </r>
       <r>   40.0385    0.0000 </r>
      </set>
      <set comment="kpoint 3">
       <r>    0.6396    1.0000 </r>
       <r>    6.7455    1.0000 </r>
       <r>    6.9037    1.0000 </r>
       <r>    6.9037    1.0000 </r>
       <r>    7.9418    1.0000 </r>
       <r>    7.9418    1.0000 </r>
       <r>   31.3089    0.0000 </r>
       <r>   34.1784    0.0000 </r>
       <r>   35.9610    0.0000 </r>
       <r>   35.9610    0.0000 </r>
       <r>   40.7767    0.0000 </r>
       <r>   40.7767    0.0000 </r>
      </set>
      <set comment="kpoint 4">
       <r>    1.0662    1.0000 </r>
       <r>    6.6538    1.0000 </r>
       <r>    6.9753    1.0000 </r>
       <r>    6.9753    1.0000 </r>
       <r>    7.9253    1.0000 </r>
       <r>    7.9253    1.0000 </r>
       <r>   29.0310    0.0000 </r>
       <r>   33.7627    0.0000 </r>
       <r>   35.4502    0.0000 </r>
       <r>   35.4503    0.0000 </r>
       <r>   40.7500    0.0000 </r>
       <r>   41.4592    0.0000 </r>
      </set>
      <set comment="kpoint 5">
       <r>    1.6393    1.0000 </r>
       <r>    6.5661    1.0000 </r>
       <r>    7.0364    1.0000 </r>
       <r>    7.0364    1.0000 </r>
       <r>    7.9450    1.0000 </r>
       <r>    7.9450    1.0000 </r>
       <r>   26.5821    0.0000 </r>
       <r>   33.4587    0.0000 </r>
       <r>   34.9946    0.0000 </r>
       <r>   34.9946    0.0000 </r>
       <r>   40.7793    0.0000 </r>
       <r>   41.3735    0.0000 </r>
      </set>
      <set comment="kpoint 6">
       <r>    2.3238    1.0000 </r>
       <r>    6.5175    1.0000 </r>
       <r>    7.0525    1.0000 </r>
       <r>    7.0525    1.0000 </r>
       <r>    8.0149    1.0000 </r>
       <r>    8.0149    1.0000 </r>
       <r>   24.1698    0.0000 </r>
       <r>   33.0833    0.0000 </r>
       <r>   34.5893    0.0000 </r>
       <r>   34.5894    0.0000 </r>
       <r>   40.4214    0.0000 </r>
       <r>   40.4214    0.0000 </r>
      </set>
      <set comment="kpoint 7">
       <r>    3.0518    1.0000 </r>
       <r>    6.5723    1.0000 </r>
       <r>    7.0260    1.0000 </r>
       <r>    7.0260    1.0000 </r>
       <r>    8.1407    1.0000 </r>
       <r>    8.1407    1.0000 </r>
       <r>   21.8368    0.0000 </r>
       <r>   32.6374    0.0000 </r>
       <r>   34.2765    0.0000 </r>
       <r>   34.2765    0.0000 </r>
       <r>   39.3361    0.0000 </r>
       <r>   39.3361    0.0000 </r>
      </set>
      <set comment="kpoint 8">
       <r>    3.7028    1.0000 </r>
       <r>    6.8439    1.0000 </r>
       <r>    6.9733    1.0000 </r>
       <r>    6.9733    1.0000 </r>
       <r>    8.2964    1.0000 </r>
       <r>    8.2964    1.0000 </r>
       <r>   19.6536    0.0000 </r>
       <r>   32.1958    0.0000 </r>
       <r>   34.0431    0.0000 </r>
       <r>   34.0431    0.0000 </r>
       <r>   38.3588    0.0000 </r>
       <r>   38.3588    0.0000 </r>
      </set>
      <set comment="kpoint 9">
       <r>    4.1450    1.0000 </r>
       <r>    6.9153    1.0000 </r>
       <r>    6.9153    1.0000 </r>
       <r>    7.4214    1.0000 </r>
       <r>    8.4409    1.0000 </r>
       <r>    8.4409    1.0000 </r>
       <r>   17.6735    0.0000 </r>
       <r>   31.8160    0.0000 </r>
       <r>   33.8782    0.0000 </r>
       <r>   33.8782    0.0000 </r>
       <r>   37.5604    0.0000 </r>
       <r>   37.5604    0.0000 </r>
      </set>
      <set comment="kpoint 10">
       <r>    4.3651    1.0000 </r>
       <r>    6.8693    1.0000 </r>
       <r>    6.8693    1.0000 </r>
       <r>    8.2108    1.0000 </r>
       <r>    8.5543    1.0000 </r>
       <r>    8.5543    1.0000 </r>
       <r>   16.0192    0.0000 </r>
       <r>   31.5412    0.0000 </r>
       <r>   33.7767    0.0000 </r>
       <r>   33.7768    0.0000 </r>
       <r>   37.0150    0.0000 </r>
       <r>   37.0151    0.0000 </r>
      </set>
      <set comment="kpoint 11">
       <r>    4.4462    1.0000 </r>
       <r>    6.8468    1.0000 </r>
       <r>    6.8468    1.0000 </r>
       <r>    8.6180    1.0001 </r>
       <r>    8.6180    1.0001 </r>
       <r>    8.8535    1.0136 </r>
       <r>   14.9731    0.0000 </r>
       <r>   31.4009    0.0000 </r>
       <r>   33.7289    0.0000 </r>
       <r>   33.7289    0.0000 </r>
       <r>   36.7958    0.0000 </r>
       <r>   36.7958    0.0000 </r>
      </set>
      <set comment="kpoint 12">
       <r>    0.4071    1.0000 </r>
       <r>    6.7881    1.0000 </r>
       <r>    6.8624    1.0000 </r>
       <r>    6.8624    1.0000 </r>
       <r>    7.9319    1.0000 </r>
       <r>    7.9851    1.0000 </r>
       <r>   32.6326    0.0000 </r>
       <r>   35.6596    0.0000 </r>
       <r>   35.6596    0.0000 </r>
       <r>   36.0798    0.0000 </r>
       <r>   40.2323    0.0000 </r>
       <r>   40.6939    0.0000 </r>
      </set>
      <set comment="kpoint 13">
       <r>    0.6110    1.0000 </r>
       <r>    6.7324    1.0000 </r>
       <r>    6.9082    1.0000 </r>
       <r>    6.9117    1.0000 </r>
       <r>    7.8890    1.0000 </r>
       <r>    7.9939    1.0000 </r>
       <r>   31.8918    0.0000 </r>
       <r>   34.1359    0.0000 </r>
       <r>   34.8890    0.0000 </r>
       <r>   36.3808    0.0000 </r>
       <r>   40.1290    0.0000 </r>
       <r>   41.5305    0.0000 </r>
      </set>
      <set comment="kpoint 14">
       <r>    0.9826    1.0000 </r>
       <r>    6.6471    1.0000 </r>
       <r>    6.9753    1.0000 </r>
       <r>    6.9824    1.0000 </r>
       <r>    7.8452    1.0000 </r>
       <r>    7.9990    1.0000 </r>
       <r>   29.8856    0.0000 </r>
       <r>   33.4029    0.0000 </r>
       <r>   34.1968    0.0000 </r>
       <r>   36.8079    0.0000 </r>
       <r>   39.5537    0.0000 </r>
       <r>   42.1964    0.0000 </r>
      </set>
      <set comment="kpoint 15">
       <r>    1.5075    1.0000 </r>
       <r>    6.5536    1.0000 </r>
       <r>    7.0412    1.0000 </r>
       <r>    7.0473    1.0000 </r>
       <r>    7.8329    1.0000 </r>
       <r>    8.0236    1.0000 </r>
       <r>   27.4538    0.0000 </r>
       <r>   33.0235    0.0000 </r>
       <r>   33.6060    0.0000 </r>
       <r>   37.0765    0.0000 </r>
       <r>   38.8590    0.0000 </r>
       <r>   42.5044    0.0000 </r>
      </set>
      <set comment="kpoint 16">
       <r>    2.1574    1.0000 </r>
       <r>    6.4837    1.0000 </r>
       <r>    7.0659    1.0000 </r>
       <r>    7.0810    1.0000 </r>
       <r>    7.8899    1.0000 </r>
       <r>    8.0916    1.0000 </r>
       <r>   25.0239    0.0000 </r>
       <r>   32.6624    0.0000 </r>
       <r>   33.1335    0.0000 </r>
       <r>   36.8726    0.0000 </r>
       <r>   38.3391    0.0000 </r>
       <r>   41.9812    0.0000 </r>
      </set>
      <set comment="kpoint 17">
       <r>    2.8779    1.0000 </r>
       <r>    6.4851    1.0000 </r>
       <r>    7.0354    1.0000 </r>
       <r>    7.0708    1.0000 </r>
       <r>    8.0283    1.0000 </r>
       <r>    8.2020    1.0000 </r>
       <r>   22.6575    0.0000 </r>
       <r>   32.2734    0.0000 </r>
       <r>   32.7818    0.0000 </r>
       <r>   36.1723    0.0000 </r>
       <r>   38.0251    0.0000 </r>
       <r>   41.0405    0.0000 </r>
      </set>
      <set comment="kpoint 18">
       <r>    3.5668    1.0000 </r>
       <r>    6.6475    1.0000 </r>
       <r>    6.9721    1.0000 </r>
       <r>    7.0283    1.0000 </r>
       <r>    8.2289    1.0000 </r>
       <r>    8.3414    1.0000 </r>
       <r>   20.4171    0.0000 </r>
       <r>   31.8847    0.0000 </r>
       <r>   32.5620    0.0000 </r>
       <r>   35.3143    0.0000 </r>
       <r>   37.7438    0.0000 </r>
       <r>   40.0492    0.0000 </r>
      </set>
      <set comment="kpoint 19">
       <r>    4.0833    1.0000 </r>
       <r>    6.9039    1.0000 </r>
       <r>    6.9722    1.0000 </r>
       <r>    7.0598    1.0000 </r>
       <r>    8.4746    1.0000 </r>
       <r>    8.4797    1.0000 </r>
       <r>   18.3575    0.0000 </r>
       <r>   31.5334    0.0000 </r>
       <r>   32.4789    0.0000 </r>
       <r>   34.4878    0.0000 </r>
       <r>   37.5700    0.0000 </r>
       <r>   39.1561    0.0000 </r>
      </set>
      <set comment="kpoint 20">
       <r>    4.3653    1.0000 </r>
       <r>    6.8474    1.0000 </r>
       <r>    6.9201    1.0000 </r>
       <r>    7.6325    1.0000 </r>
       <r>    8.5738    1.0000 </r>
       <r>    8.8231    1.0087 </r>
       <r>   16.5634    0.0000 </r>
       <r>   31.2400    0.0000 </r>
       <r>   32.5479    0.0000 </r>
       <r>   33.7740    0.0000 </r>
       <r>   37.4966    0.0000 </r>
       <r>   38.3859    0.0000 </r>
      </set>
      <set comment="kpoint 21">
       <r>    4.4807    1.0000 </r>
       <r>    6.8141    1.0000 </r>
       <r>    6.8851    1.0000 </r>
       <r>    8.0404    1.0000 </r>
       <r>    8.6240    1.0001 </r>
       <r>    9.2940    0.2031 </r>
       <r>   15.2502    0.0000 </r>
       <r>   31.0262    0.0000 </r>
       <r>   32.7841    0.0000 </r>
       <r>   33.2357    0.0000 </r>
       <r>   37.5722    0.0000 </r>
       <r>   37.7836    0.0000 </r>
      </set>
      <set comment="kpoint 22">
       <r>    4.5042    1.0000 </r>
       <r>    6.8077    1.0000 </r>
       <r>    6.8735    1.0000 </r>
       <r>    8.1505    1.0000 </r>
       <r>    8.6134    1.0001 </r>
       <r>    9.5003   -0.0314 </r>
       <r>   14.8550    0.0000 </r>
       <r>   30.8943    0.0000 </r>
       <r>   32.9139    0.0000 </r>
       <r>   33.1922    0.0000 </r>
       <r>   37.3408    0.0000 </r>
       <r>   37.7768    0.0000 </r>
      </set>
      <set comment="kpoint 23">
       <r>    4.4556    1.0000 </r>
       <r>    6.8295    1.0000 </r>
       <r>    6.8891    1.0000 </r>
       <r>    7.9734    1.0000 </r>
       <r>    8.5401    1.0000 </r>
       <r>    9.1749    0.6783 </r>
       <r>   15.6135    0.0000 </r>
       <r>   30.8411    0.0000 </r>
       <r>   32.8247    0.0000 </r>
       <r>   33.7690    0.0000 </r>
       <r>   37.0963    0.0000 </r>
       <r>   38.1114    0.0000 </r>
      </set>
      <set comment="kpoint 24">
       <r>    4.2955    1.0000 </r>
       <r>    6.8742    1.0000 </r>
       <r>    6.9265    1.0000 </r>
       <r>    7.4682    1.0000 </r>
       <r>    8.4123    1.0000 </r>
       <r>    8.7983    1.0057 </r>
       <r>   17.1238    0.0000 </r>
       <r>   30.8602    0.0000 </r>
       <r>   32.9640    0.0000 </r>
       <r>   34.4709    0.0000 </r>
       <r>   36.9960    0.0000 </r>
       <r>   38.5293    0.0000 </r>
      </set>
      <set comment="kpoint 25">
       <r>    3.9385    1.0000 </r>
       <r>    6.9001    1.0000 </r>
       <r>    6.9421    1.0000 </r>
       <r>    6.9801    1.0000 </r>
       <r>    8.2504    1.0000 </r>
       <r>    8.5540    1.0000 </r>
       <r>   19.0201    0.0000 </r>
       <r>   30.9669    0.0000 </r>
       <r>   33.2974    0.0000 </r>
       <r>   35.2043    0.0000 </r>
       <r>   37.1455    0.0000 </r>
       <r>   38.9892    0.0000 </r>
      </set>
      <set comment="kpoint 26">
       <r>    3.3502    1.0000 </r>
       <r>    6.5773    1.0000 </r>
       <r>    6.9990    1.0000 </r>
       <r>    7.0414    1.0000 </r>
       <r>    8.0783    1.0000 </r>
       <r>    8.3623    1.0000 </r>
       <r>   21.1482    0.0000 </r>
       <r>   31.1615    0.0000 </r>
       <r>   33.7743    0.0000 </r>
       <r>   35.7883    0.0000 </r>
       <r>   37.7861    0.0000 </r>
       <r>   39.3536    0.0000 </r>
      </set>
      <set comment="kpoint 27">
       <r>    2.6354    1.0000 </r>
       <r>    6.4805    1.0000 </r>
       <r>    7.0449    1.0000 </r>
       <r>    7.0821    1.0000 </r>
       <r>    7.9313    1.0000 </r>
       <r>    8.1978    1.0000 </r>
       <r>   23.4390    0.0000 </r>
       <r>   31.4431    0.0000 </r>
       <r>   34.3154    0.0000 </r>
       <r>   36.1748    0.0000 </r>
       <r>   38.8335    0.0000 </r>
       <r>   39.4837    0.0000 </r>
      </set>
      <set comment="kpoint 28">
       <r>    1.9296    1.0000 </r>
       <r>    6.5082    1.0000 </r>
       <r>    7.0555    1.0000 </r>
       <r>    7.0764    1.0000 </r>
       <r>    7.8473    1.0000 </r>
       <r>    8.0764    1.0000 </r>
       <r>   25.8195    0.0000 </r>
       <r>   31.8087    0.0000 </r>
       <r>   34.8082    0.0000 </r>
       <r>   36.4998    0.0000 </r>
       <r>   39.4675    0.0000 </r>
       <r>   40.0479    0.0000 </r>
      </set>
      <set comment="kpoint 29">
       <r>    1.3169    1.0000 </r>
       <r>    6.5918    1.0000 </r>
       <r>    7.0180    1.0000 </r>
       <r>    7.0192    1.0000 </r>
       <r>    7.8349    1.0000 </r>
       <r>    8.0093    1.0000 </r>
       <r>   28.2698    0.0000 </r>
       <r>   32.2534    0.0000 </r>
       <r>   35.1461    0.0000 </r>
       <r>   36.8175    0.0000 </r>
       <r>   39.5644    0.0000 </r>
       <r>   40.7014    0.0000 </r>
      </set>
      <set comment="kpoint 30">
       <r>    0.8407    1.0000 </r>
       <r>    6.6879    1.0000 </r>
       <r>    6.9401    1.0000 </r>
       <r>    6.9560    1.0000 </r>
       <r>    7.8725    1.0000 </r>
       <r>    7.9858    1.0000 </r>
       <r>   30.6190    0.0000 </r>
       <r>   32.8792    0.0000 </r>
       <r>   35.3342    0.0000 </r>
       <r>   37.0662    0.0000 </r>
       <r>   39.8583    0.0000 </r>
       <r>   40.2268    0.0000 </r>
      </set>
      <set comment="kpoint 31">
       <r>    0.5238    1.0000 </r>
       <r>    6.7657    1.0000 </r>
       <r>    6.8773    1.0000 </r>
       <r>    6.8912    1.0000 </r>
       <r>    7.9217    1.0000 </r>
       <r>    7.9765    1.0000 </r>
       <r>   32.1487    0.0000 </r>
       <r>   34.1829    0.0000 </r>
       <r>   35.5517    0.0000 </r>
       <r>   36.9904    0.0000 </r>
       <r>   39.8160    0.0000 </r>
       <r>   40.2003    0.0000 </r>
      </set>
      <set comment="kpoint 32">
       <r>    0.7555    1.0000 </r>
       <r>    6.6683    1.0000 </r>
       <r>    6.9598    1.0000 </r>
       <r>    6.9598    1.0000 </r>
       <r>    7.8239    1.0000 </r>
       <r>    8.0291    1.0000 </r>
       <r>   32.0285    0.0000 </r>
       <r>   33.9225    0.0000 </r>
       <r>   33.9225    0.0000 </r>
       <r>   34.8523    0.0000 </r>
       <r>   41.6009    0.0000 </r>
       <r>   42.3931    0.0000 </r>
      </set>
      <set comment="kpoint 33">
       <r>    1.0684    1.0000 </r>
       <r>    6.5802    1.0000 </r>
       <r>    7.0309    1.0000 </r>
       <r>    7.0321    1.0000 </r>
       <r>    7.7562    1.0000 </r>
       <r>    8.0557    1.0000 </r>
       <r>   30.7861    0.0000 </r>
       <r>   32.8812    0.0000 </r>
       <r>   33.0755    0.0000 </r>
       <r>   35.1640    0.0000 </r>
       <r>   40.6892    0.0000 </r>
       <r>   41.9684    0.0000 </r>
      </set>
      <set comment="kpoint 34">
       <r>    1.5380    1.0000 </r>
       <r>    6.4793    1.0000 </r>
       <r>    7.0963    1.0000 </r>
       <r>    7.1098    1.0000 </r>
       <r>    7.7256    1.0000 </r>
       <r>    8.0894    1.0000 </r>
       <r>   28.4456    0.0000 </r>
       <r>   32.3724    0.0000 </r>
       <r>   32.4229    0.0000 </r>
       <r>   35.9144    0.0000 </r>
       <r>   39.3126    0.0000 </r>
       <r>   41.8414    0.0000 </r>
      </set>
      <set comment="kpoint 35">
       <r>    2.1413    1.0000 </r>
       <r>    6.3883    1.0000 </r>
       <r>    7.1049    1.0000 </r>
       <r>    7.1614    1.0000 </r>
       <r>    7.7888    1.0000 </r>
       <r>    8.1537    1.0000 </r>
       <r>   25.9897    0.0000 </r>
       <r>   31.8070    0.0000 </r>
       <r>   32.0407    0.0000 </r>
       <r>   36.0730    0.0000 </r>
       <r>   38.7740    0.0000 </r>
       <r>   41.5945    0.0000 </r>
      </set>
      <set comment="kpoint 36">
       <r>    2.8349    1.0000 </r>
       <r>    6.3448    1.0000 </r>
       <r>    7.0441    1.0000 </r>
       <r>    7.1714    1.0000 </r>
       <r>    7.9750    1.0000 </r>
       <r>    8.2559    1.0000 </r>
       <r>   23.6053    0.0000 </r>
       <r>   31.3944    0.0000 </r>
       <r>   31.6549    0.0000 </r>
       <r>   35.2993    0.0000 </r>
       <r>   39.2028    0.0000 </r>
       <r>   41.5958    0.0000 </r>
      </set>
      <set comment="kpoint 37">
       <r>    3.5353    1.0000 </r>
       <r>    6.4023    1.0000 </r>
       <r>    6.9492    1.0000 </r>
       <r>    7.1421    1.0000 </r>
       <r>    8.2549    1.0000 </r>
       <r>    8.3832    1.0000 </r>
       <r>   21.3145    0.0000 </r>
       <r>   31.1328    0.0000 </r>
       <r>   31.2329    0.0000 </r>
       <r>   34.2945    0.0000 </r>
       <r>   39.4864    0.0000 </r>
       <r>   41.8615    0.0000 </r>
      </set>
      <set comment="kpoint 38">
       <r>    4.1084    1.0000 </r>
       <r>    6.6324    1.0000 </r>
       <r>    6.8644    1.0000 </r>
       <r>    7.0914    1.0000 </r>
       <r>    8.5051    1.0000 </r>
       <r>    8.6339    1.0001 </r>
       <r>   19.1755    0.0000 </r>
       <r>   30.7883    0.0000 </r>
       <r>   31.0354    0.0000 </r>
       <r>   33.4112    0.0000 </r>
       <r>   39.4499    0.0000 </r>
       <r>   40.9516    0.0000 </r>
      </set>
      <set comment="kpoint 39">
       <r>    4.4513    1.0000 </r>
       <r>    6.7546    1.0000 </r>
       <r>    7.0376    1.0000 </r>
       <r>    7.0690    1.0000 </r>
       <r>    8.5961    1.0000 </r>
       <r>    9.1529    0.7604 </r>
       <r>   17.2565    0.0000 </r>
       <r>   30.3169    0.0000 </r>
       <r>   31.1155    0.0000 </r>
       <r>   32.7576    0.0000 </r>
       <r>   39.3363    0.0000 </r>
       <r>   40.1390    0.0000 </r>
      </set>
      <set comment="kpoint 40">
       <r>    4.6025    1.0000 </r>
       <r>    6.7130    1.0000 </r>
       <r>    6.9929    1.0000 </r>
       <r>    7.4369    1.0000 </r>
       <r>    8.6343    1.0001 </r>
       <r>    9.7996   -0.0002 </r>
       <r>   15.7039    0.0000 </r>
       <r>   29.8344    0.0000 </r>
       <r>   31.3849    0.0000 </r>
       <r>   32.3696    0.0000 </r>
       <r>   39.2900    0.0000 </r>
       <r>   39.4307    0.0000 </r>
      </set>
      <set comment="kpoint 41">
       <r>    4.6492    1.0000 </r>
       <r>    6.7010    1.0000 </r>
       <r>    6.9700    1.0000 </r>
       <r>    7.6237    1.0000 </r>
       <r>    8.6140    1.0001 </r>
       <r>   10.2555   -0.0000 </r>
       <r>   14.9051    0.0000 </r>
       <r>   29.4009    0.0000 </r>
       <r>   31.8609    0.0000 </r>
       <r>   32.2446    0.0000 </r>
       <r>   38.8804    0.0000 </r>
       <r>   39.3381    0.0000 </r>
      </set>
      <set comment="kpoint 42">
       <r>    4.6299    1.0000 </r>
       <r>    6.7210    1.0000 </r>
       <r>    6.9713    1.0000 </r>
       <r>    7.5742    1.0000 </r>
       <r>    8.5292    1.0000 </r>
       <r>   10.0475   -0.0000 </r>
       <r>   15.3304    0.0000 </r>
       <r>   29.0539    0.0000 </r>
       <r>   32.3537    0.0000 </r>
       <r>   32.5415    0.0000 </r>
       <r>   38.4541    0.0000 </r>
       <r>   39.4010    0.0000 </r>
      </set>
      <set comment="kpoint 43">
       <r>    4.5252    1.0000 </r>
       <r>    6.7718    1.0000 </r>
       <r>    7.0003    1.0000 </r>
       <r>    7.2757    1.0000 </r>
       <r>    8.3904    1.0000 </r>
       <r>    9.4916   -0.0329 </r>
       <r>   16.6958    0.0000 </r>
       <r>   28.8327    0.0000 </r>
       <r>   32.6763    0.0000 </r>
       <r>   33.4284    0.0000 </r>
       <r>   38.1895    0.0000 </r>
       <r>   39.4584    0.0000 </r>
      </set>
      <set comment="kpoint 44">
       <r>    4.2585    1.0000 </r>
       <r>    6.8263    1.0000 </r>
       <r>    6.8570    1.0000 </r>
       <r>    7.0500    1.0000 </r>
       <r>    8.2132    1.0000 </r>
       <r>    9.0325    1.0160 </r>
       <r>   18.5174    0.0000 </r>
       <r>   28.7410    0.0000 </r>
       <r>   33.1873    0.0000 </r>
       <r>   34.4933    0.0000 </r>
       <r>   38.0175    0.0000 </r>
       <r>   39.3838    0.0000 </r>
      </set>
      <set comment="kpoint 45">
       <r>    3.7562    1.0000 </r>
       <r>    6.5147    1.0000 </r>
       <r>    6.9272    1.0000 </r>
       <r>    7.1126    1.0000 </r>
       <r>    8.0197    1.0000 </r>
       <r>    8.7094    1.0010 </r>
       <r>   20.5919    0.0000 </r>
       <r>   28.7948    0.0000 </r>
       <r>   33.8692    0.0000 </r>
       <r>   35.7526    0.0000 </r>
       <r>   37.9537    0.0000 </r>
       <r>   39.1377    0.0000 </r>
      </set>
      <set comment="kpoint 46">
       <r>    3.0784    1.0000 </r>
       <r>    6.3970    1.0000 </r>
       <r>    7.0035    1.0000 </r>
       <r>    7.1645    1.0000 </r>
       <r>    7.8465    1.0000 </r>
       <r>    8.4612    1.0000 </r>
       <r>   22.8382    0.0000 </r>
       <r>   28.9847    0.0000 </r>
       <r>   34.6739    0.0000 </r>
       <r>   37.1477    0.0000 </r>
       <r>   37.9645    0.0000 </r>
       <r>   38.6983    0.0000 </r>
      </set>
      <set comment="kpoint 47">
       <r>    2.3676    1.0000 </r>
       <r>    6.4128    1.0000 </r>
       <r>    7.0545    1.0000 </r>
       <r>    7.1717    1.0000 </r>
       <r>    7.7426    1.0000 </r>
       <r>    8.2655    1.0000 </r>
       <r>   25.1874    0.0000 </r>
       <r>   29.3098    0.0000 </r>
       <r>   35.4823    0.0000 </r>
       <r>   38.0770    0.0000 </r>
       <r>   38.2108    0.0000 </r>
       <r>   38.6780    0.0000 </r>
      </set>
      <set comment="kpoint 48">
       <r>    1.7259    1.0000 </r>
       <r>    6.4940    1.0000 </r>
       <r>    7.0593    1.0000 </r>
       <r>    7.1080    1.0000 </r>
       <r>    7.7372    1.0000 </r>
       <r>    8.1239    1.0000 </r>
       <r>   27.6017    0.0000 </r>
       <r>   29.7783    0.0000 </r>
       <r>   35.9118    0.0000 </r>
       <r>   38.1593    0.0000 </r>
       <r>   38.1801    0.0000 </r>
       <r>   40.0708    0.0000 </r>
      </set>
      <set comment="kpoint 49">
       <r>    1.2077    1.0000 </r>
       <r>    6.5959    1.0000 </r>
       <r>    7.0152    1.0000 </r>
       <r>    7.0190    1.0000 </r>
       <r>    7.7960    1.0000 </r>
       <r>    8.0374    1.0000 </r>
       <r>   29.6940    0.0000 </r>
       <r>   30.7429    0.0000 </r>
       <r>   35.6869    0.0000 </r>
       <r>   37.9379    0.0000 </r>
       <r>   38.8517    0.0000 </r>
       <r>   40.1104    0.0000 </r>
      </set>
      <set comment="kpoint 50">
       <r>    1.3203    1.0000 </r>
       <r>    6.4820    1.0000 </r>
       <r>    7.1157    1.0000 </r>
       <r>    7.1157    1.0000 </r>
       <r>    7.6632    1.0000 </r>
       <r>    8.0985    1.0000 </r>
       <r>   31.3387    0.0000 </r>
       <r>   32.1059    0.0000 </r>
       <r>   32.1060    0.0000 </r>
       <r>   33.4296    0.0000 </r>
       <r>   39.5320    0.0000 </r>
       <r>   43.5284    0.0000 </r>
      </set>
      <set comment="kpoint 51">
       <r>    1.7284    1.0000 </r>
       <r>    6.3710    1.0000 </r>
       <r>    7.1954    1.0000 </r>
       <r>    7.2109    1.0000 </r>
       <r>    7.6099    1.0000 </r>
       <r>    8.1409    1.0000 </r>
       <r>   29.5182    0.0000 </r>
       <r>   31.2933    0.0000 </r>
       <r>   31.7927    0.0000 </r>
       <r>   33.5608    0.0000 </r>
       <r>   38.2524    0.0000 </r>
       <r>   43.5956    0.0000 </r>
      </set>
      <set comment="kpoint 52">
       <r>    2.2736    1.0000 </r>
       <r>    6.2634    1.0000 </r>
       <r>    7.1774    1.0000 </r>
       <r>    7.2860    1.0000 </r>
       <r>    7.6959    1.0000 </r>
       <r>    8.2041    1.0000 </r>
       <r>   27.0762    0.0000 </r>
       <r>   30.6308    0.0000 </r>
       <r>   31.4216    0.0000 </r>
       <r>   33.9054    0.0000 </r>
       <r>   37.7519    0.0000 </r>
       <r>   43.1481    0.0000 </r>
      </set>
      <set comment="kpoint 53">
       <r>    2.9204    1.0000 </r>
       <r>    6.1839    1.0000 </r>
       <r>    7.0667    1.0000 </r>
       <r>    7.3193    1.0000 </r>
       <r>    7.9383    1.0000 </r>
       <r>    8.2979    1.0000 </r>
       <r>   24.6586    0.0000 </r>
       <r>   30.1317    0.0000 </r>
       <r>   30.9347    0.0000 </r>
       <r>   33.5317    0.0000 </r>
       <r>   38.4834    0.0000 </r>
       <r>   42.6469    0.0000 </r>
      </set>
      <set comment="kpoint 54">
       <r>    3.6019    1.0000 </r>
       <r>    6.1684    1.0000 </r>
       <r>    6.9355    1.0000 </r>
       <r>    7.3083    1.0000 </r>
       <r>    8.2957    1.0000 </r>
       <r>    8.4176    1.0000 </r>
       <r>   22.3354    0.0000 </r>
       <r>   29.8084    0.0000 </r>
       <r>   30.3285    0.0000 </r>
       <r>   32.8848    0.0000 </r>
       <r>   39.9745    0.0000 </r>
       <r>   42.1772    0.0000 </r>
      </set>
      <set comment="kpoint 55">
       <r>    4.2028    1.0000 </r>
       <r>    6.2646    1.0000 </r>
       <r>    6.8223    1.0000 </r>
       <r>    7.2661    1.0000 </r>
       <r>    8.5318    1.0000 </r>
       <r>    8.7757    1.0038 </r>
       <r>   20.1296    0.0000 </r>
       <r>   29.6129    0.0000 </r>
       <r>   29.6622    0.0000 </r>
       <r>   32.3246    0.0000 </r>
       <r>   41.7543    0.0000 </r>
       <r>   41.7950    0.0000 </r>
      </set>
      <set comment="kpoint 56">
       <r>    4.5995    1.0000 </r>
       <r>    6.4543    1.0000 </r>
       <r>    6.7971    1.0000 </r>
       <r>    7.2133    1.0000 </r>
       <r>    8.6161    1.0001 </r>
       <r>    9.4217   -0.0269 </r>
       <r>   18.1041    0.0000 </r>
       <r>   28.8566    0.0000 </r>
       <r>   29.7158    0.0000 </r>
       <r>   31.9622    0.0000 </r>
       <r>   41.4357    0.0000 </r>
       <r>   42.0186    0.0000 </r>
      </set>
      <set comment="kpoint 57">
       <r>    4.7893    1.0000 </r>
       <r>    6.5209    1.0000 </r>
       <r>    6.9819    1.0000 </r>
       <r>    7.1636    1.0000 </r>
       <r>    8.6476    1.0002 </r>
       <r>   10.2300   -0.0000 </r>
       <r>   16.3530    0.0000 </r>
       <r>   28.1315    0.0000 </r>
       <r>   29.9724    0.0000 </r>
       <r>   31.7883    0.0000 </r>
       <r>   41.1894    0.0000 </r>
       <r>   41.2767    0.0000 </r>
      </set>
      <set comment="kpoint 58">
       <r>    4.8607    1.0000 </r>
       <r>    6.5218    1.0000 </r>
       <r>    7.1294    1.0000 </r>
       <r>    7.1755    1.0000 </r>
       <r>    8.6176    1.0001 </r>
       <r>   10.9711   -0.0000 </r>
       <r>   15.1605    0.0000 </r>
       <r>   27.5055    0.0000 </r>
       <r>   30.4404    0.0000 </r>
       <r>   31.7919    0.0000 </r>
       <r>   40.6722    0.0000 </r>
       <r>   41.0030    0.0000 </r>
      </set>
      <set comment="kpoint 59">
       <r>    4.8694    1.0000 </r>
       <r>    6.5473    1.0000 </r>
       <r>    7.1188    1.0000 </r>
       <r>    7.2058    1.0000 </r>
       <r>    8.5266    1.0000 </r>
       <r>   11.0092   -0.0000 </r>
       <r>   15.1712    0.0000 </r>
       <r>   27.0180    0.0000 </r>
       <r>   31.1198    0.0000 </r>
       <r>   31.9726    0.0000 </r>
       <r>   40.2208    0.0000 </r>
       <r>   40.8360    0.0000 </r>
      </set>
      <set comment="kpoint 60">
       <r>    4.8139    1.0000 </r>
       <r>    6.6041    1.0000 </r>
       <r>    7.0321    1.0000 </r>
       <r>    7.1308    1.0000 </r>
       <r>    8.3766    1.0000 </r>
       <r>   10.3637   -0.0000 </r>
       <r>   16.3777    0.0000 </r>
       <r>   26.6615    0.0000 </r>
       <r>   31.9941    0.0000 </r>
       <r>   32.3291    0.0000 </r>
       <r>   39.8741    0.0000 </r>
       <r>   40.5672    0.0000 </r>
      </set>
      <set comment="kpoint 61">
       <r>    4.6361    1.0000 </r>
       <r>    6.6929    1.0000 </r>
       <r>    6.7105    1.0000 </r>
       <r>    7.1689    1.0000 </r>
       <r>    8.1860    1.0000 </r>
       <r>    9.6896   -0.0021 </r>
       <r>   18.1353    0.0000 </r>
       <r>   26.4696    0.0000 </r>
       <r>   32.8711    0.0000 </r>
       <r>   33.0593    0.0000 </r>
       <r>   39.6689    0.0000 </r>
       <r>   40.1765    0.0000 </r>
      </set>
      <set comment="kpoint 62">
       <r>    4.2393    1.0000 </r>
       <r>    6.4201    1.0000 </r>
       <r>    6.7989    1.0000 </r>
       <r>    7.2289    1.0000 </r>
       <r>    7.9710    1.0000 </r>
       <r>    9.1845    0.6401 </r>
       <r>   20.1598    0.0000 </r>
       <r>   26.4314    0.0000 </r>
       <r>   33.5920    0.0000 </r>
       <r>   34.2847    0.0000 </r>
       <r>   39.5755    0.0000 </r>
       <r>   39.6197    0.0000 </r>
      </set>
      <set comment="kpoint 63">
       <r>    3.6261    1.0000 </r>
       <r>    6.2974    1.0000 </r>
       <r>    6.9097    1.0000 </r>
       <r>    7.2955    1.0000 </r>
       <r>    7.7720    1.0000 </r>
       <r>    8.8124    1.0073 </r>
       <r>   22.3618    0.0000 </r>
       <r>   26.5610    0.0000 </r>
       <r>   34.5004    0.0000 </r>
       <r>   35.6625    0.0000 </r>
       <r>   38.7759    0.0000 </r>
       <r>   39.7005    0.0000 </r>
      </set>
      <set comment="kpoint 64">
       <r>    2.9311    1.0000 </r>
       <r>    6.3092    1.0000 </r>
       <r>    7.0014    1.0000 </r>
       <r>    7.3180    1.0000 </r>
       <r>    7.6378    1.0000 </r>
       <r>    8.5196    1.0000 </r>
       <r>   24.6597    0.0000 </r>
       <r>   26.8499    0.0000 </r>
       <r>   35.5789    0.0000 </r>
       <r>   37.0939    0.0000 </r>
       <r>   37.8239    0.0000 </r>
       <r>   39.9507    0.0000 </r>
      </set>
      <set comment="kpoint 65">
       <r>    2.2754    1.0000 </r>
       <r>    6.3901    1.0000 </r>
       <r>    7.0560    1.0000 </r>
       <r>    7.2299    1.0000 </r>
       <r>    7.6531    1.0000 </r>
       <r>    8.2921    1.0000 </r>
       <r>   26.7889    0.0000 </r>
       <r>   27.5634    0.0000 </r>
       <r>   36.8079    0.0000 </r>
       <r>   36.8475    0.0000 </r>
       <r>   38.3640    0.0000 </r>
       <r>   40.3797    0.0000 </r>
      </set>
      <set comment="kpoint 66">
       <r>    2.0700    1.0000 </r>
       <r>    6.2503    1.0000 </r>
       <r>    7.3293    1.0000 </r>
       <r>    7.3293    1.0000 </r>
       <r>    7.4956    1.0000 </r>
       <r>    8.1877    1.0000 </r>
       <r>   30.3673    0.0000 </r>
       <r>   30.3673    0.0000 </r>
       <r>   30.6985    0.0000 </r>
       <r>   31.8554    0.0000 </r>
       <r>   36.8330    0.0000 </r>
       <r>   45.8898    0.0000 </r>
      </set>
      <set comment="kpoint 67">
       <r>    2.5452    1.0000 </r>
       <r>    6.1273    1.0000 </r>
       <r>    7.2920    1.0000 </r>
       <r>    7.4358    1.0000 </r>
       <r>    7.6013    1.0000 </r>
       <r>    8.2426    1.0000 </r>
       <r>   28.1948    0.0000 </r>
       <r>   29.6036    0.0000 </r>
       <r>   30.7407    0.0000 </r>
[...]
       </set>
       <set comment="band 5">
        <r>  0.0000  0.0000  0.0004  0.0000  0.0000  0.9934  0.0000  0.0012  0.0000 </r>
       </set>
       <set comment="band 6">
        <r>  0.0210  0.5222  0.0000  0.0036  0.2466  0.0000  0.0083  0.0000  0.0113 </r>
       </set>
       <set comment="band 7">
        <r>  0.2545  0.0324  0.0000  0.0811  0.0058  0.0000  0.1449  0.0000  0.2836 </r>
       </set>
       <set comment="band 8">
        <r>  0.0000  0.0000  0.5340  0.0000  0.0000  0.0026  0.0000  0.2507  0.0000 </r>
       </set>
       <set comment="band 9">
        <r>  0.3309  0.0021  0.0000  0.2843  0.0012  0.0000  0.0893  0.0000  0.0001 </r>
       </set>
       <set comment="band 10">
        <r>  0.0000  0.0000  0.0940  0.0000  0.0000  0.0006  0.0000  0.6626  0.0000 </r>
       </set>
       <set comment="band 11">
        <r>  0.2153  0.0024  0.0000  0.2647  0.0002  0.0000  0.0193  0.0000  0.1912 </r>
       </set>
       <set comment="band 12">
        <r>  0.0084  0.0330  0.0000  0.0034  0.3340  0.0000  0.0054  0.0000  0.0214 </r>
       </set>
      </set>
      <set comment="kpoint 276">
       <set comment="band 1">
        <r>  0.0200  0.0000  0.0004  0.0368  0.0000  0.0000  0.3487  0.0023  0.4647 </r>
       </set>
       <set comment="band 2">
        <r>  0.0007  0.0000  0.0442  0.0014  0.0000  0.0000  0.0010  0.8826  0.0004 </r>
       </set>
       <set comment="band 3">
        <r>  0.0000  0.1271  0.0000  0.0000  0.7878  0.0096  0.0000  0.0000  0.0000 </r>
       </set>
       <set comment="band 4">
        <r>  0.0074  0.0000  0.0003  0.0041  0.0000  0.0000  0.5477  0.0002  0.4170 </r>
       </set>
       <set comment="band 5">
        <r>  0.0000  0.0003  0.0000  0.0000  0.0140  0.9807  0.0000  0.0000  0.0000 </r>
       </set>
       <set comment="band 6">
        <r>  0.0000  0.5531  0.0000  0.0000  0.2525  0.0065  0.0000  0.0000  0.0000 </r>
       </set>
       <set comment="band 7">
        <r>  0.0598  0.0000  0.1602  0.1483  0.0000  0.0000  0.1527  0.0694  0.1896 </r>
       </set>
       <set comment="band 8">
        <r>  0.3029  0.0000  0.2526  0.0001  0.0000  0.0000  0.0153  0.1502  0.0828 </r>
       </set>
       <set comment="band 9">
        <r>  0.2764  0.0000  0.1215  0.1876  0.0000  0.0000  0.1020  0.0429  0.0004 </r>
       </set>
       <set comment="band 10">
        <r>  0.0173  0.0000  0.0782  0.0287  0.0000  0.0000  0.0003  0.5677  0.0188 </r>
       </set>
       <set comment="band 11">
        <r>  0.1560  0.0000  0.0120  0.2799  0.0000  0.0000  0.0167  0.0574  0.1714 </r>
       </set>
       <set comment="band 12">
        <r>  0.0000  0.0430  0.0000  0.0000  0.3857  0.0010  0.0000  0.0000  0.0000 </r>
       </set>
      </set>
      <set comment="kpoint 277">
       <set comment="band 1">
        <r>  0.0637  0.0667  0.0000  0.0532  0.0559  0.0000  0.2984  0.0000  0.3081 </r>
       </set>
       <set comment="band 2">
        <r>  0.0000  0.0000  0.0532  0.0000  0.0000  0.0416  0.0000  0.8364  0.0000 </r>
       </set>
       <set comment="band 3">
        <r>  0.0393  0.0671  0.0000  0.0006  0.6157  0.0000  0.1741  0.0000  0.0258 </r>
       </set>
       <set comment="band 4">
        <r>  0.0002  0.0175  0.0000  0.0033  0.0135  0.0000  0.3637  0.0000  0.5736 </r>
       </set>
       <set comment="band 5">
        <r>  0.0000  0.0000  0.0049  0.0000  0.0000  0.9261  0.0000  0.0570  0.0000 </r>
       </set>
       <set comment="band 6">
        <r>  0.1350  0.2189  0.0000  0.0387  0.3231  0.0000  0.1078  0.0000  0.0453 </r>
       </set>
       <set comment="band 7">
        <r>  0.0000  0.0000  0.5027  0.0000  0.0000  0.0610  0.0000  0.2558  0.0000 </r>
       </set>
       <set comment="band 8">
        <r>  0.2324  0.0013  0.0000  0.2285  0.0483  0.0000  0.1902  0.0000  0.0162 </r>
       </set>
       <set comment="band 9">
        <r>  0.2250  0.2572  0.0000  0.0114  0.0266  0.0000  0.0400  0.0000  0.2006 </r>
       </set>
       <set comment="band 10">
        <r>  0.0000  0.0000  0.0890  0.0000  0.0000  0.0145  0.0000  0.5411  0.0000 </r>
       </set>
       <set comment="band 11">
        <r>  0.0202  0.0496  0.0000  0.3524  0.0313  0.0000  0.0356  0.0000  0.0039 </r>
       </set>
       <set comment="band 12">
        <r>  0.1738  0.0014  0.0000  0.0272  0.2368  0.0000  0.0249  0.0000  0.3689 </r>
       </set>
      </set>
      <set comment="kpoint 278">
       <set comment="band 1">
        <r>  0.0239  0.0366  0.0000  0.0563  0.0304  0.0010  0.4172  0.0078  0.2905 </r>
       </set>
       <set comment="band 2">
        <r>  0.0061  0.0038  0.0613  0.0019  0.0510  0.0369  0.0234  0.7381  0.0032 </r>
       </set>
       <set comment="band 3">
        <r>  0.0278  0.0737  0.0058  0.0001  0.6493  0.0000  0.0829  0.0799  0.0027 </r>
       </set>
       <set comment="band 4">
        <r>  0.0032  0.0115  0.0004  0.0017  0.0133  0.0167  0.3189  0.0003  0.6047 </r>
       </set>
       <set comment="band 5">
        <r>  0.0003  0.0000  0.0032  0.0000  0.0092  0.9148  0.0053  0.0483  0.0093 </r>
       </set>
       <set comment="band 6">
        <r>  0.1249  0.2696  0.0033  0.0503  0.2662  0.0025  0.0838  0.0005  0.0423 </r>
       </set>
       <set comment="band 7">
        <r>  0.0731  0.0000  0.4149  0.0287  0.0085  0.0400  0.0243  0.2220  0.0017 </r>
       </set>
       <set comment="band 8">
        <r>  0.1741  0.0003  0.0931  0.1733  0.0309  0.0050  0.2093  0.0375  0.0153 </r>
       </set>
       <set comment="band 9">
        <r>  0.2679  0.2343  0.0047  0.0207  0.0338  0.0012  0.0273  0.0000  0.1768 </r>
       </set>
       <set comment="band 10">
        <r>  0.0046  0.0125  0.0564  0.1147  0.0141  0.0055  0.0058  0.3522  0.0053 </r>
       </set>
       <set comment="band 11">
        <r>  0.0007  0.0290  0.0193  0.1714  0.1175  0.0048  0.0418  0.1620  0.0082 </r>
       </set>
       <set comment="band 12">
        <r>  0.1471  0.0003  0.0051  0.1219  0.2117  0.0000  0.0053  0.0158  0.3170 </r>
       </set>
      </set>
      <set comment="kpoint 279">
       <set comment="band 1">
        <r>  0.0031  0.0145  0.0022  0.0582  0.0060  0.0003  0.5475  0.0024  0.2391 </r>
       </set>
       <set comment="band 2">
        <r>  0.0254  0.0269  0.0503  0.0007  0.2655  0.0357  0.0187  0.4945  0.0007 </r>
       </set>
       <set comment="band 3">
        <r>  0.0040  0.0562  0.0298  0.0026  0.5064  0.0000  0.0145  0.3123  0.0002 </r>
       </set>
       <set comment="band 4">
        <r>  0.0073  0.0056  0.0018  0.0002  0.0052  0.0296  0.2612  0.0003  0.6588 </r>
       </set>
       <set comment="band 5">
        <r>  0.0008  0.0003  0.0014  0.0000  0.0243  0.9034  0.0070  0.0373  0.0172 </r>
       </set>
       <set comment="band 6">
        <r>  0.0653  0.2984  0.0366  0.0732  0.2061  0.0043  0.0830  0.0110  0.0406 </r>
       </set>
       <set comment="band 7">
        <r>  0.1704  0.0147  0.3198  0.0218  0.0315  0.0321  0.0266  0.2068  0.0007 </r>
       </set>
       <set comment="band 8">
        <r>  0.0585  0.0201  0.1265  0.1633  0.0316  0.0019  0.2536  0.0528  0.0361 </r>
       </set>
       <set comment="band 9">
        <r>  0.3694  0.1858  0.0391  0.0123  0.0281  0.0052  0.0013  0.0019  0.1287 </r>
       </set>
       <set comment="band 10">
        <r>  0.0008  0.0229  0.0330  0.2006  0.0702  0.0005  0.0123  0.1686  0.0055 </r>
       </set>
       <set comment="band 11">
        <r>  0.0231  0.0206  0.0232  0.0181  0.2115  0.0073  0.0340  0.2516  0.0561 </r>
       </set>
       <set comment="band 12">
        <r>  0.0416  0.0016  0.0128  0.2541  0.1629  0.0000  0.0104  0.0945  0.1344 </r>
       </set>
      </set>
      <set comment="kpoint 280">
       <set comment="band 1">
        <r>  0.0231  0.0195  0.0000  0.0478  0.0095  0.0000  0.3868  0.0000  0.3802 </r>
       </set>
       <set comment="band 2">
        <r>  0.0000  0.0000  0.0547  0.0000  0.0000  0.0141  0.0000  0.8614  0.0000 </r>
       </set>
       <set comment="band 3">
        <r>  0.0227  0.1025  0.0000  0.0000  0.7369  0.0000  0.0577  0.0000  0.0008 </r>
       </set>
       <set comment="band 4">
        <r>  0.0043  0.0092  0.0000  0.0031  0.0165  0.0000  0.4253  0.0000  0.5144 </r>
       </set>
       <set comment="band 5">
        <r>  0.0000  0.0000  0.0026  0.0000  0.0000  0.9691  0.0000  0.0205  0.0000 </r>
       </set>
       <set comment="band 6">
        <r>  0.1048  0.3395  0.0000  0.0314  0.2624  0.0000  0.0565  0.0000  0.0432 </r>
       </set>
       <set comment="band 7">
        <r>  0.0000  0.0000  0.5243  0.0000  0.0000  0.0246  0.0000  0.2620  0.0000 </r>
       </set>
       <set comment="band 8">
        <r>  0.0474  0.0321  0.0000  0.2637  0.0412  0.0000  0.2520  0.0000  0.0859 </r>
       </set>
       <set comment="band 9">
        <r>  0.4873  0.1508  0.0000  0.0040  0.0079  0.0000  0.0002  0.0000  0.1280 </r>
       </set>
       <set comment="band 10">
        <r>  0.0000  0.0000  0.0862  0.0000  0.0000  0.0055  0.0000  0.5712  0.0000 </r>
       </set>
       <set comment="band 11">
        <r>  0.0675  0.0292  0.0000  0.3622  0.0173  0.0000  0.0244  0.0000  0.0712 </r>
       </set>
       <set comment="band 12">
        <r>  0.1038  0.0116  0.0000  0.0057  0.3208  0.0000  0.0175  0.0000  0.2257 </r>
       </set>
      </set>
      <set comment="kpoint 281">
       <set comment="band 1">
        <r>  0.0071  0.0072  0.0005  0.0528  0.0028  0.0001  0.4785  0.0010  0.3236 </r>
       </set>
       <set comment="band 2">
        <r>  0.0026  0.0010  0.0672  0.0009  0.0087  0.0094  0.0017  0.8352  0.0000 </r>
       </set>
       <set comment="band 3">
        <r>  0.0100  0.0998  0.0009  0.0001  0.7765  0.0032  0.0194  0.0125  0.0001 </r>
       </set>
       <set comment="band 4">
        <r>  0.0104  0.0038  0.0004  0.0014  0.0074  0.0040  0.3654  0.0002  0.5775 </r>
       </set>
       <set comment="band 5">
        <r>  0.0001  0.0002  0.0011  0.0000  0.0081  0.9688  0.0012  0.0124  0.0017 </r>
       </set>
       <set comment="band 6">
        <r>  0.0698  0.3967  0.0035  0.0337  0.2401  0.0032  0.0419  0.0007  0.0328 </r>
       </set>
       <set comment="band 7">
        <r>  0.0560  0.0030  0.4317  0.0329  0.0059  0.0121  0.0295  0.2319  0.0040 </r>
       </set>
       <set comment="band 8">
        <r>  0.0154  0.0797  0.0386  0.1922  0.0362  0.0001  0.2232  0.0237  0.1426 </r>
       </set>
       <set comment="band 9">
        <r>  0.5272  0.0549  0.0569  0.0274  0.0017  0.0015  0.0376  0.0142  0.0495 </r>
       </set>
       <set comment="band 10">
        <r>  0.0080  0.0018  0.0685  0.0513  0.0013  0.0019  0.0005  0.4751  0.0160 </r>
       </set>
       <set comment="band 11">
        <r>  0.0079  0.0327  0.0072  0.2512  0.1371  0.0011  0.0335  0.0632  0.0109 </r>
       </set>
       <set comment="band 12">
        <r>  0.0858  0.0134  0.0035  0.1137  0.2820  0.0002  0.0000  0.0149  0.1823 </r>
       </set>
      </set>
      <set comment="kpoint 282">
       <set comment="band 1">
        <r>  0.0003  0.0013  0.0041  0.0565  0.0001  0.0000  0.5648  0.0000  0.2484 </r>
       </set>
       <set comment="band 2">
        <r>  0.0111  0.0054  0.0741  0.0011  0.0475  0.0062  0.0001  0.7716  0.0059 </r>
       </set>
       <set comment="band 3">
        <r>  0.0007  0.0875  0.0051  0.0005  0.7640  0.0109  0.0023  0.0542  0.0000 </r>
       </set>
       <set comment="band 4">
        <r>  0.0130  0.0007  0.0022  0.0001  0.0010  0.0034  0.2899  0.0037  0.6554 </r>
       </set>
       <set comment="band 5">
        <r>  0.0001  0.0010  0.0002  0.0000  0.0224  0.9630  0.0008  0.0044  0.0017 </r>
       </set>
       <set comment="band 6">
        <r>  0.0214  0.1220  0.2750  0.0718  0.0552  0.0002  0.0791  0.1571  0.0240 </r>
       </set>
       <set comment="band 7">
        <r>  0.1019  0.3490  0.0916  0.0001  0.1918  0.0172  0.0006  0.0679  0.0021 </r>
       </set>
       <set comment="band 8">
        <r>  0.1755  0.0589  0.0120  0.1542  0.0207  0.0004  0.1506  0.0221  0.1658 </r>
       </set>
       <set comment="band 9">
        <r>  0.3795  0.0059  0.1524  0.0518  0.0000  0.0008  0.1304  0.0369  0.0087 </r>
       </set>
       <set comment="band 10">
        <r>  0.0100  0.0025  0.0506  0.1304  0.0064  0.0002  0.0010  0.3406  0.0370 </r>
       </set>
       <set comment="band 11">
        <r>  0.0040  0.0559  0.0030  0.0219  0.4209  0.0031  0.0127  0.0425  0.0072 </r>
       </set>
       <set comment="band 12">
        <r>  0.0043  0.0036  0.0118  0.3398  0.0568  0.0000  0.0549  0.1442  0.0330 </r>
       </set>
      </set>
      <set comment="kpoint 283">
       <set comment="band 1">
        <r>  0.0036  0.0000  0.0148  0.0589  0.0000  0.0000  0.6248  0.0062  0.1637 </r>
       </set>
       <set comment="band 2">
        <r>  0.0000  0.0802  0.0000  0.0000  0.8210  0.0256  0.0000  0.0000  0.0000 </r>
       </set>
       <set comment="band 3">
        <r>  0.0222  0.0000  0.0835  0.0007  0.0000  0.0000  0.0066  0.7797  0.0283 </r>
       </set>
       <set comment="band 4">
        <r>  0.0094  0.0000  0.0062  0.0003  0.0000  0.0000  0.2144  0.0115  0.7280 </r>
       </set>
       <set comment="band 5">
        <r>  0.0000  0.0023  0.0000  0.0000  0.0370  0.9529  0.0000  0.0000  0.0000 </r>
       </set>
       <set comment="band 6">
        <r>  0.1095  0.0000  0.3175  0.0566  0.0000  0.0000  0.0852  0.2390  0.0169 </r>
       </set>
       <set comment="band 7">
        <r>  0.0000  0.5290  0.0000  0.0000  0.2607  0.0290  0.0000  0.0000  0.0000 </r>
       </set>
       <set comment="band 8">
        <r>  0.2574  0.0000  0.0020  0.1761  0.0000  0.0000  0.1311  0.0276  0.1534 </r>
       </set>
       <set comment="band 9">
        <r>  0.3025  0.0000  0.2023  0.0405  0.0000  0.0000  0.1777  0.0407  0.0039 </r>
       </set>
       <set comment="band 10">
        <r>  0.0043  0.0000  0.0429  0.2061  0.0000  0.0000  0.0019  0.2347  0.0490 </r>
       </set>
       <set comment="band 11">
        <r>  0.0000  0.0724  0.0000  0.0000  0.5110  0.0059  0.0000  0.0000  0.0000 </r>
       </set>
       <set comment="band 12">
        <r>  0.0646  0.0000  0.0023  0.2622  0.0000  0.0000  0.1685  0.2140  0.0320 </r>
       </set>
      </set>
      <set comment="kpoint 284">
       <set comment="band 1">
        <r>  0.0126  0.0019  0.0000  0.0455  0.0007  0.0000  0.4122  0.0000  0.4005 </r>
       </set>
       <set comment="band 2">
        <r>  0.0000  0.0000  0.0556  0.0000  0.0000  0.0015  0.0000  0.8725  0.0000 </r>
       </set>
       <set comment="band 3">
        <r>  0.0030  0.1162  0.0000  0.0000  0.7973  0.0000  0.0068  0.0000  0.0000 </r>
       </set>
       <set comment="band 4">
        <r>  0.0105  0.0013  0.0000  0.0030  0.0033  0.0000  0.4635  0.0000  0.4912 </r>
       </set>
       <set comment="band 5">
        <r>  0.0000  0.0000  0.0003  0.0000  0.0000  0.9924  0.0000  0.0023  0.0000 </r>
       </set>
       <set comment="band 6">
        <r>  0.0264  0.5006  0.0000  0.0086  0.2562  0.0000  0.0123  0.0000  0.0130 </r>
       </set>
       <set comment="band 7">
        <r>  0.0000  0.0000  0.5356  0.0000  0.0000  0.0029  0.0000  0.2670  0.0000 </r>
       </set>
       <set comment="band 8">
        <r>  0.1334  0.0400  0.0000  0.1653  0.0127  0.0000  0.1925  0.0000  0.2290 </r>
       </set>
       <set comment="band 9">
        <r>  0.5005  0.0060  0.0000  0.1341  0.0001  0.0000  0.0948  0.0000  0.0094 </r>
       </set>
       <set comment="band 10">
        <r>  0.0000  0.0000  0.0852  0.0000  0.0000  0.0006  0.0000  0.5879  0.0000 </r>
       </set>
       <set comment="band 11">
        <r>  0.1158  0.0042  0.0000  0.3610  0.0023  0.0000  0.0174  0.0000  0.1613 </r>
       </set>
       <set comment="band 12">
        <r>  0.0162  0.0437  0.0000  0.0002  0.4087  0.0000  0.0033  0.0000  0.0351 </r>
       </set>
      </set>
      <set comment="kpoint 285">
       <set comment="band 1">
        <r>  0.0044  0.0000  0.0007  0.0517  0.0000  0.0000  0.4883  0.0003  0.3301 </r>
       </set>
       <set comment="band 2">
        <r>  0.0018  0.0000  0.0682  0.0007  0.0000  0.0000  0.0003  0.8557  0.0003 </r>
       </set>
       <set comment="band 3">
        <r>  0.0000  0.1067  0.0000  0.0000  0.8123  0.0050  0.0000  0.0000  0.0000 </r>
       </set>
       <set comment="band 4">
        <r>  0.0145  0.0000  0.0004  0.0013  0.0000  0.0000  0.3827  0.0007  0.5706 </r>
       </set>
       <set comment="band 5">
        <r>  0.0000  0.0003  0.0000  0.0000  0.0075  0.9873  0.0000  0.0000  0.0000 </r>
       </set>
       <set comment="band 6">
        <r>  0.0000  0.5445  0.0000  0.0000  0.2663  0.0046  0.0000  0.0000  0.0000 </r>
       </set>
       <set comment="band 7">
        <r>  0.0259  0.0000  0.4314  0.0520  0.0000  0.0000  0.0493  0.2277  0.0146 </r>
       </set>
       <set comment="band 8">
        <r>  0.2051  0.0000  0.0263  0.1509  0.0000  0.0000  0.1659  0.0223  0.2030 </r>
       </set>
       <set comment="band 9">
        <r>  0.4459  0.0000  0.0791  0.0876  0.0000  0.0000  0.1138  0.0238  0.0082 </r>
       </set>
       <set comment="band 10">
        <r>  0.0088  0.0000  0.0696  0.0408  0.0000  0.0000  0.0001  0.4957  0.0184 </r>
       </set>
       <set comment="band 11">
        <r>  0.0584  0.0000  0.0085  0.3824  0.0000  0.0000  0.0259  0.0628  0.1173 </r>
       </set>
       <set comment="band 12">
        <r>  0.0000  0.0575  0.0000  0.0000  0.4595  0.0007  0.0000  0.0000  0.0000 </r>
       </set>
      </set>
      <set comment="kpoint 286">
       <set comment="band 1">
        <r>  0.0007  0.0014  0.0000  0.0558  0.0003  0.0000  0.5730  0.0000  0.2444 </r>
       </set>
       <set comment="band 2">
        <r>  0.0000  0.0000  0.0813  0.0000  0.0000  0.0028  0.0000  0.8422  0.0000 </r>
       </set>
       <set comment="band 3">
        <r>  0.0027  0.0933  0.0000  0.0001  0.8248  0.0000  0.0031  0.0000  0.0003 </r>
       </set>
       <set comment="band 4">
        <r>  0.0164  0.0008  0.0000  0.0002  0.0020  0.0000  0.2813  0.0000  0.6682 </r>
       </set>
       <set comment="band 5">
        <r>  0.0000  0.0000  0.0003  0.0000  0.0000  0.9905  0.0000  0.0042  0.0000 </r>
       </set>
       <set comment="band 6">
        <r>  0.0317  0.4743  0.0000  0.0206  0.2514  0.0000  0.0208  0.0000  0.0152 </r>
       </set>
       <set comment="band 7">
        <r>  0.0000  0.0000  0.5391  0.0000  0.0000  0.0035  0.0000  0.2711  0.0000 </r>
       </set>
       <set comment="band 8">
        <r>  0.0028  0.0345  0.0000  0.2598  0.0198  0.0000  0.3197  0.0000  0.1077 </r>
       </set>
       <set comment="band 9">
        <r>  0.6496  0.0319  0.0000  0.0005  0.0041  0.0000  0.0168  0.0000  0.0776 </r>
       </set>
       <set comment="band 10">
        <r>  0.0000  0.0000  0.0721  0.0000  0.0000  0.0007  0.0000  0.5251  0.0000 </r>
       </set>
       <set comment="band 11">
        <r>  0.0001  0.0532  0.0000  0.1119  0.3674  0.0000  0.0201  0.0000  0.0004 </r>
       </set>
       <set comment="band 12">
        <r>  0.0173  0.0088  0.0000  0.3752  0.1224  0.0000  0.0317  0.0000  0.0801 </r>
       </set>
      </set>
     </set>
    </set>
   </array>
  </projected>
 </calculation>
 <structure name="finalpos" >
  <crystal>
   <varray name="basis" >
    <v>       1.76500000       1.76500000       0.00000000 </v>
    <v>       0.00000000       1.76500000       1.76500000 </v>
    <v>       1.76500000       0.00000000       1.76500000 </v>
   </varray>
   <i name="volume">     10.99674425 </i>
   <varray name="rec_basis" >
    <v>       0.28328612       0.28328612      -0.28328612 </v>
    <v>      -0.28328612       0.28328612       0.28328612 </v>
    <v>       0.28328612      -0.28328612       0.28328612 </v>
   </varray>
  </crystal>
  <varray name="positions" >
   <v>       0.00000000       0.00000000       0.00000000 </v>
  </varray>
 </structure>
</modeling>
