   8   8   1   0
  0.2469169E+02  0.5174038E-09  0.5174038E-09  0.8520222E-09  0.5000000E-15
  1.000000000000000E-004
  CAR 
 BC3                                     
      8.25207855    -19.81629784 1000     -2.14849798      1.00000000
    -19.816  0.0000E+00  0.0000E+00
    -19.788  0.0000E+00  0.0000E+00
    -19.760  0.0000E+00  0.0000E+00
    -19.732  0.0000E+00  0.0000E+00
    -19.704  0.0000E+00  0.0000E+00
    -19.676  0.0000E+00  0.0000E+00
    -19.648  0.0000E+00  0.0000E+00
    -19.620  0.0000E+00  0.0000E+00
    -19.592  0.0000E+00  0.0000E+00
    -19.563  0.0000E+00  0.0000E+00
    -19.535  0.0000E+00  0.0000E+00
    -19.507  0.0000E+00  0.0000E+00
    -19.479  0.0000E+00  0.0000E+00
    -19.451  0.0000E+00  0.0000E+00
    -19.423  0.0000E+00  0.0000E+00
    -19.395  0.0000E+00  0.0000E+00
    -19.367  0.0000E+00  0.0000E+00
    -19.339  0.0000E+00  0.0000E+00
    -19.311  0.0000E+00  0.0000E+00
    -19.282  0.0000E+00  0.0000E+00
    -19.254  0.0000E+00  0.0000E+00
    -19.226  0.0000E+00  0.0000E+00
    -19.198  0.0000E+00  0.0000E+00
    -19.170  0.0000E+00  0.0000E+00
    -19.142  0.0000E+00  0.0000E+00
    -19.114  0.1372E-15  0.3855E-17
    -19.086  0.3732E-14  0.1087E-15
    -19.058  0.8029E-13  0.2365E-14
    -19.030  0.1478E-11  0.4390E-13
    -19.002  0.2337E-10  0.7004E-12
    -18.973  0.3175E-09  0.9620E-11
    -18.945  0.3709E-08  0.1138E-09
    -18.917  0.3727E-07  0.1161E-08
    -18.889  0.3223E-06  0.1022E-07
    -18.861  0.2400E-05  0.7766E-07
    -18.833  0.1540E-04  0.5102E-06
    -18.805  0.8513E-04  0.2902E-05
    -18.777  0.4060E-03  0.1431E-04
    -18.749  0.1672E-02  0.6129E-04
    -18.721  0.5955E-02  0.2286E-03
    -18.692  0.1838E-01  0.7450E-03
    -18.664  0.4927E-01  0.2129E-02
    -18.636  0.1151E+00  0.5364E-02
    -18.608  0.2357E+00  0.1199E-01
    -18.580  0.4254E+00  0.2394E-01
    -18.552  0.6817E+00  0.4309E-01
    -18.524  0.9798E+00  0.7062E-01
    -18.496  0.1279E+01  0.1065E+00
    -18.468  0.1539E+01  0.1498E+00
    -18.440  0.1739E+01  0.1987E+00
    -18.411  0.1882E+01  0.2515E+00
    -18.383  0.1981E+01  0.3072E+00
    -18.355  0.2050E+01  0.3648E+00
    -18.327  0.2105E+01  0.4239E+00
    -18.299  0.2162E+01  0.4847E+00
    -18.271  0.2235E+01  0.5475E+00
    -18.243  0.2325E+01  0.6128E+00
    -18.215  0.2422E+01  0.6809E+00
    -18.187  0.2528E+01  0.7519E+00
    -18.159  0.2665E+01  0.8268E+00
    -18.131  0.2864E+01  0.9072E+00
    -18.102  0.3135E+01  0.9953E+00
    -18.074  0.3468E+01  0.1093E+01
    -18.046  0.3834E+01  0.1200E+01
    -18.018  0.4183E+01  0.1318E+01
    -17.990  0.4429E+01  0.1442E+01
    -17.962  0.4461E+01  0.1568E+01
    -17.934  0.4193E+01  0.1686E+01
    -17.906  0.3625E+01  0.1787E+01
    -17.878  0.2854E+01  0.1868E+01
    -17.850  0.2031E+01  0.1925E+01
    -17.821  0.1299E+01  0.1961E+01
    -17.793  0.7417E+00  0.1982E+01
    -17.765  0.3757E+00  0.1993E+01
    -17.737  0.1678E+00  0.1997E+01
    -17.709  0.6572E-01  0.1999E+01
    -17.681  0.2248E-01  0.2000E+01
    -17.653  0.6691E-02  0.2000E+01
    -17.625  0.1729E-02  0.2000E+01
    -17.597  0.3871E-03  0.2000E+01
    -17.569  0.7498E-04  0.2000E+01
    -17.540  0.1255E-04  0.2000E+01
    -17.512  0.1815E-05  0.2000E+01
    -17.484  0.2264E-06  0.2000E+01
    -17.456  0.2435E-07  0.2000E+01
    -17.428  0.2257E-08  0.2000E+01
    -17.400  0.1801E-09  0.2000E+01
    -17.372  0.1237E-10  0.2000E+01
    -17.344  0.7305E-12  0.2000E+01
    -17.316  0.3721E-13  0.2000E+01
    -17.288  0.1427E-14  0.2000E+01
    -17.260  0.0000E+00  0.2000E+01
    -17.231  0.0000E+00  0.2000E+01
    -17.203  0.0000E+00  0.2000E+01
    -17.175  0.0000E+00  0.2000E+01
    -17.147  0.0000E+00  0.2000E+01
    -17.119  0.0000E+00  0.2000E+01
    -17.091  0.0000E+00  0.2000E+01
    -17.063  0.0000E+00  0.2000E+01
    -17.035  0.0000E+00  0.2000E+01
    -17.007  0.0000E+00  0.2000E+01
    -16.979  0.0000E+00  0.2000E+01
    -16.950  0.0000E+00  0.2000E+01
    -16.922  0.0000E+00  0.2000E+01
    -16.894  0.0000E+00  0.2000E+01
    -16.866  0.0000E+00  0.2000E+01
    -16.838  0.9055E-15  0.2000E+01
    -16.810  0.2058E-13  0.2000E+01
    -16.782  0.4100E-12  0.2000E+01
    -16.754  0.7000E-11  0.2000E+01
    -16.726  0.1024E-09  0.2000E+01
    -16.698  0.1283E-08  0.2000E+01
    -16.669  0.1380E-07  0.2000E+01
    -16.641  0.1276E-06  0.2000E+01
    -16.613  0.1014E-05  0.2000E+01
    -16.585  0.6938E-05  0.2000E+01
    -16.557  0.4097E-04  0.2000E+01
    -16.529  0.2092E-03  0.2000E+01
    -16.501  0.9259E-03  0.2000E+01
    -16.473  0.3562E-02  0.2000E+01
    -16.445  0.1194E-01  0.2000E+01
    -16.417  0.3501E-01  0.2001E+01
    -16.389  0.8998E-01  0.2004E+01
    -16.360  0.2034E+00  0.2010E+01
    -16.332  0.4056E+00  0.2021E+01
    -16.304  0.7158E+00  0.2041E+01
    -16.276  0.1124E+01  0.2073E+01
    -16.248  0.1583E+01  0.2117E+01
    -16.220  0.2025E+01  0.2174E+01
    -16.192  0.2402E+01  0.2242E+01
    -16.164  0.2706E+01  0.2318E+01
    -16.136  0.2962E+01  0.2401E+01
    -16.108  0.3182E+01  0.2490E+01
    -16.079  0.3333E+01  0.2584E+01
    -16.051  0.3354E+01  0.2678E+01
    -16.023  0.3211E+01  0.2768E+01
    -15.995  0.2936E+01  0.2851E+01
    -15.967  0.2622E+01  0.2925E+01
    -15.939  0.2359E+01  0.2991E+01
    -15.911  0.2181E+01  0.3052E+01
    -15.883  0.2050E+01  0.3110E+01
    -15.855  0.1913E+01  0.3163E+01
    -15.827  0.1768E+01  0.3213E+01
    -15.799  0.1681E+01  0.3260E+01
    -15.770  0.1722E+01  0.3309E+01
    -15.742  0.1886E+01  0.3362E+01
    -15.714  0.2075E+01  0.3420E+01
    -15.686  0.2170E+01  0.3481E+01
    -15.658  0.2123E+01  0.3541E+01
    -15.630  0.1985E+01  0.3596E+01
    -15.602  0.1851E+01  0.3648E+01
    -15.574  0.1792E+01  0.3699E+01
    -15.546  0.1824E+01  0.3750E+01
    -15.518  0.1924E+01  0.3804E+01
    -15.489  0.2057E+01  0.3862E+01
    -15.461  0.2186E+01  0.3923E+01
    -15.433  0.2294E+01  0.3988E+01
    -15.405  0.2387E+01  0.4055E+01
    -15.377  0.2480E+01  0.4125E+01
    -15.349  0.2573E+01  0.4197E+01
    -15.321  0.2639E+01  0.4271E+01
    -15.293  0.2660E+01  0.4346E+01
    -15.265  0.2664E+01  0.4421E+01
    -15.237  0.2722E+01  0.4497E+01
    -15.208  0.2887E+01  0.4578E+01
    -15.180  0.3153E+01  0.4667E+01
    -15.152  0.3448E+01  0.4764E+01
    -15.124  0.3676E+01  0.4867E+01
    -15.096  0.3761E+01  0.4973E+01
    -15.068  0.3678E+01  0.5076E+01
    -15.040  0.3457E+01  0.5173E+01
    -15.012  0.3167E+01  0.5262E+01
    -14.984  0.2879E+01  0.5343E+01
    -14.956  0.2628E+01  0.5417E+01
    -14.928  0.2409E+01  0.5484E+01
    -14.899  0.2208E+01  0.5546E+01
    -14.871  0.2036E+01  0.5604E+01
    -14.843  0.1925E+01  0.5658E+01
    -14.815  0.1883E+01  0.5711E+01
    -14.787  0.1867E+01  0.5763E+01
    -14.759  0.1809E+01  0.5814E+01
    -14.731  0.1663E+01  0.5861E+01
    -14.703  0.1434E+01  0.5901E+01
    -14.675  0.1161E+01  0.5934E+01
    -14.647  0.8816E+00  0.5958E+01
    -14.618  0.6238E+00  0.5976E+01
    -14.590  0.4054E+00  0.5987E+01
    -14.562  0.2382E+00  0.5994E+01
    -14.534  0.1247E+00  0.5997E+01
    -14.506  0.5755E-01  0.5999E+01
    -14.478  0.2327E-01  0.6000E+01
    -14.450  0.8202E-02  0.6000E+01
    -14.422  0.2512E-02  0.6000E+01
    -14.394  0.6669E-03  0.6000E+01
    -14.366  0.1532E-03  0.6000E+01
    -14.337  0.3040E-04  0.6000E+01
    -14.309  0.5202E-05  0.6000E+01
    -14.281  0.7667E-06  0.6000E+01
    -14.253  0.9723E-07  0.6000E+01
    -14.225  0.1060E-07  0.6000E+01
    -14.197  0.9916E-09  0.6000E+01
    -14.169  0.7962E-10  0.6000E+01
    -14.141  0.5481E-11  0.6000E+01
    -14.113  0.3234E-12  0.6000E+01
    -14.085  0.1668E-13  0.6000E+01
    -14.057  0.6586E-15  0.6000E+01
    -14.028  0.0000E+00  0.6000E+01
    -14.000  0.0000E+00  0.6000E+01
    -13.972  0.0000E+00  0.6000E+01
    -13.944  0.0000E+00  0.6000E+01
    -13.916  0.0000E+00  0.6000E+01
    -13.888  0.0000E+00  0.6000E+01
    -13.860  0.0000E+00  0.6000E+01
    -13.832  0.0000E+00  0.6000E+01
    -13.804  0.0000E+00  0.6000E+01
    -13.776  0.0000E+00  0.6000E+01
    -13.747  0.0000E+00  0.6000E+01
    -13.719  0.0000E+00  0.6000E+01
    -13.691  0.0000E+00  0.6000E+01
    -13.663  0.0000E+00  0.6000E+01
    -13.635  0.0000E+00  0.6000E+01
    -13.607  0.0000E+00  0.6000E+01
    -13.579  0.0000E+00  0.6000E+01
    -13.551  0.0000E+00  0.6000E+01
    -13.523  0.0000E+00  0.6000E+01
    -13.495  0.0000E+00  0.6000E+01
    -13.466  0.0000E+00  0.6000E+01
    -13.438  0.0000E+00  0.6000E+01
    -13.410  0.9879E-15  0.6000E+01
    -13.382  0.2371E-13  0.6000E+01
    -13.354  0.4709E-12  0.6000E+01
    -13.326  0.8069E-11  0.6000E+01
    -13.298  0.1185E-09  0.6000E+01
    -13.270  0.1493E-08  0.6000E+01
    -13.242  0.1613E-07  0.6000E+01
    -13.214  0.1495E-06  0.6000E+01
    -13.186  0.1190E-05  0.6000E+01
    -13.157  0.8140E-05  0.6000E+01
    -13.129  0.4783E-04  0.6000E+01
    -13.101  0.2417E-03  0.6000E+01
    -13.073  0.1051E-02  0.6000E+01
    -13.045  0.3933E-02  0.6000E+01
    -13.017  0.1268E-01  0.6001E+01
    -12.989  0.3531E-01  0.6001E+01
    -12.961  0.8497E-01  0.6004E+01
    -12.933  0.1774E+00  0.6009E+01
    -12.905  0.3235E+00  0.6018E+01
    -12.876  0.5203E+00  0.6033E+01
    -12.848  0.7512E+00  0.6054E+01
    -12.820  0.9985E+00  0.6082E+01
    -12.792  0.1260E+01  0.6117E+01
    -12.764  0.1550E+01  0.6161E+01
    -12.736  0.1875E+01  0.6213E+01
    -12.708  0.2209E+01  0.6275E+01
    -12.680  0.2495E+01  0.6346E+01
    -12.652  0.2673E+01  0.6421E+01
    -12.624  0.2716E+01  0.6497E+01
    -12.596  0.2641E+01  0.6571E+01
    -12.567  0.2501E+01  0.6641E+01
    -12.539  0.2363E+01  0.6708E+01
    -12.511  0.2293E+01  0.6772E+01
    -12.483  0.2337E+01  0.6838E+01
    -12.455  0.2522E+01  0.6909E+01
    -12.427  0.2847E+01  0.6989E+01
    -12.399  0.3287E+01  0.7081E+01
    -12.371  0.3761E+01  0.7187E+01
    -12.343  0.4123E+01  0.7303E+01
    -12.315  0.4206E+01  0.7421E+01
    -12.286  0.3914E+01  0.7531E+01
    -12.258  0.3300E+01  0.7624E+01
    -12.230  0.2542E+01  0.7695E+01
    -12.202  0.1839E+01  0.7747E+01
    -12.174  0.1323E+01  0.7784E+01
    -12.146  0.1028E+01  0.7813E+01
    -12.118  0.9256E+00  0.7839E+01
    -12.090  0.9565E+00  0.7866E+01
    -12.062  0.1056E+01  0.7895E+01
    -12.034  0.1180E+01  0.7928E+01
    -12.005  0.1316E+01  0.7965E+01
    -11.977  0.1478E+01  0.8007E+01
    -11.949  0.1668E+01  0.8054E+01
    -11.921  0.1858E+01  0.8106E+01
    -11.893  0.1991E+01  0.8162E+01
    -11.865  0.2018E+01  0.8219E+01
    -11.837  0.1927E+01  0.8273E+01
    -11.809  0.1740E+01  0.8322E+01
    -11.781  0.1499E+01  0.8364E+01
    -11.753  0.1245E+01  0.8399E+01
    -11.725  0.1008E+01  0.8427E+01
    -11.696  0.8057E+00  0.8450E+01
    -11.668  0.6548E+00  0.8468E+01
    -11.640  0.5819E+00  0.8484E+01
    -11.612  0.6176E+00  0.8502E+01
    -11.584  0.7815E+00  0.8524E+01
    -11.556  0.1071E+01  0.8554E+01
    -11.528  0.1459E+01  0.8595E+01
    -11.500  0.1893E+01  0.8648E+01
    -11.472  0.2290E+01  0.8712E+01
    -11.444  0.2539E+01  0.8784E+01
    -11.415  0.2550E+01  0.8855E+01
    -11.387  0.2313E+01  0.8920E+01
    -11.359  0.1921E+01  0.8974E+01
    -11.331  0.1533E+01  0.9017E+01
    -11.303  0.1278E+01  0.9053E+01
    -11.275  0.1199E+01  0.9087E+01
    -11.247  0.1248E+01  0.9122E+01
    -11.219  0.1356E+01  0.9160E+01
    -11.191  0.1496E+01  0.9202E+01
    -11.163  0.1689E+01  0.9250E+01
    -11.134  0.1954E+01  0.9305E+01
    -11.106  0.2247E+01  0.9368E+01
    -11.078  0.2469E+01  0.9437E+01
    -11.050  0.2517E+01  0.9508E+01
    -11.022  0.2360E+01  0.9574E+01
    -10.994  0.2049E+01  0.9632E+01
    -10.966  0.1689E+01  0.9679E+01
    -10.938  0.1382E+01  0.9718E+01
    -10.910  0.1184E+01  0.9751E+01
    -10.882  0.1096E+01  0.9782E+01
    -10.854  0.1090E+01  0.9813E+01
    -10.825  0.1143E+01  0.9845E+01
    -10.797  0.1263E+01  0.9880E+01
    -10.769  0.1461E+01  0.9921E+01
    -10.741  0.1705E+01  0.9969E+01
    -10.713  0.1906E+01  0.1002E+02
    -10.685  0.1952E+01  0.1008E+02
    -10.657  0.1787E+01  0.1013E+02
    -10.629  0.1451E+01  0.1017E+02
    -10.601  0.1060E+01  0.1020E+02
    -10.573  0.7270E+00  0.1022E+02
    -10.544  0.5034E+00  0.1023E+02
    -10.516  0.3806E+00  0.1024E+02
    -10.488  0.3283E+00  0.1025E+02
    -10.460  0.3327E+00  0.1026E+02
    -10.432  0.4023E+00  0.1027E+02
    -10.404  0.5430E+00  0.1029E+02
    -10.376  0.7282E+00  0.1031E+02
    -10.348  0.8950E+00  0.1033E+02
    -10.320  0.9767E+00  0.1036E+02
    -10.292  0.9479E+00  0.1039E+02
    -10.263  0.8424E+00  0.1041E+02
    -10.235  0.7244E+00  0.1043E+02
    -10.207  0.6380E+00  0.1045E+02
    -10.179  0.5811E+00  0.1047E+02
    -10.151  0.5215E+00  0.1048E+02
    -10.123  0.4341E+00  0.1049E+02
    -10.095  0.3221E+00  0.1050E+02
    -10.067  0.2109E+00  0.1051E+02
    -10.039  0.1257E+00  0.1051E+02
    -10.011  0.7799E-01  0.1051E+02
     -9.983  0.6484E-01  0.1052E+02
     -9.954  0.7801E-01  0.1052E+02
     -9.926  0.1148E+00  0.1052E+02
     -9.898  0.1877E+00  0.1053E+02
     -9.870  0.3276E+00  0.1054E+02
     -9.842  0.5712E+00  0.1055E+02
     -9.814  0.9277E+00  0.1058E+02
     -9.786  0.1343E+01  0.1062E+02
     -9.758  0.1699E+01  0.1066E+02
     -9.730  0.1863E+01  0.1072E+02
     -9.702  0.1777E+01  0.1077E+02
     -9.673  0.1500E+01  0.1081E+02
     -9.645  0.1171E+01  0.1084E+02
     -9.617  0.9289E+00  0.1087E+02
     -9.589  0.8335E+00  0.1089E+02
     -9.561  0.8612E+00  0.1091E+02
     -9.533  0.9484E+00  0.1094E+02
     -9.505  0.1046E+01  0.1097E+02
     -9.477  0.1143E+01  0.1100E+02
     -9.449  0.1254E+01  0.1104E+02
     -9.421  0.1383E+01  0.1108E+02
     -9.393  0.1502E+01  0.1112E+02
     -9.364  0.1555E+01  0.1116E+02
     -9.336  0.1494E+01  0.1120E+02
     -9.308  0.1322E+01  0.1124E+02
     -9.280  0.1109E+01  0.1127E+02
     -9.252  0.9687E+00  0.1130E+02
     -9.224  0.1006E+01  0.1133E+02
     -9.196  0.1263E+01  0.1136E+02
     -9.168  0.1693E+01  0.1141E+02
     -9.140  0.2172E+01  0.1147E+02
     -9.112  0.2561E+01  0.1154E+02
     -9.083  0.2783E+01  0.1162E+02
     -9.055  0.2863E+01  0.1170E+02
     -9.027  0.2883E+01  0.1178E+02
     -8.999  0.2897E+01  0.1187E+02
     -8.971  0.2887E+01  0.1195E+02
     -8.943  0.2785E+01  0.1202E+02
     -8.915  0.2557E+01  0.1210E+02
     -8.887  0.2244E+01  0.1216E+02
     -8.859  0.1940E+01  0.1221E+02
     -8.831  0.1712E+01  0.1226E+02
     -8.802  0.1566E+01  0.1231E+02
     -8.774  0.1460E+01  0.1235E+02
     -8.746  0.1348E+01  0.1239E+02
     -8.718  0.1207E+01  0.1242E+02
     -8.690  0.1035E+01  0.1245E+02
     -8.662  0.8462E+00  0.1247E+02
     -8.634  0.6711E+00  0.1249E+02
     -8.606  0.5625E+00  0.1251E+02
     -8.578  0.5894E+00  0.1252E+02
     -8.550  0.8192E+00  0.1255E+02
     -8.522  0.1290E+01  0.1258E+02
     -8.493  0.1982E+01  0.1264E+02
     -8.465  0.2804E+01  0.1272E+02
     -8.437  0.3610E+01  0.1282E+02
     -8.409  0.4242E+01  0.1294E+02
     -8.381  0.4582E+01  0.1307E+02
     -8.353  0.4579E+01  0.1319E+02
     -8.325  0.4249E+01  0.1331E+02
     -8.297  0.3655E+01  0.1342E+02
     -8.269  0.2904E+01  0.1350E+02
     -8.241  0.2124E+01  0.1356E+02
     -8.212  0.1443E+01  0.1360E+02
     -8.184  0.9566E+00  0.1363E+02
     -8.156  0.7037E+00  0.1365E+02
     -8.128  0.6686E+00  0.1366E+02
     -8.100  0.8054E+00  0.1369E+02
     -8.072  0.1066E+01  0.1372E+02
     -8.044  0.1412E+01  0.1376E+02
     -8.016  0.1799E+01  0.1381E+02
     -7.988  0.2154E+01  0.1387E+02
     -7.960  0.2384E+01  0.1393E+02
     -7.931  0.2421E+01  0.1400E+02
     -7.903  0.2275E+01  0.1407E+02
     -7.875  0.2034E+01  0.1412E+02
     -7.847  0.1808E+01  0.1417E+02
     -7.819  0.1664E+01  0.1422E+02
     -7.791  0.1618E+01  0.1427E+02
     -7.763  0.1679E+01  0.1431E+02
     -7.735  0.1878E+01  0.1437E+02
     -7.707  0.2253E+01  0.1443E+02
     -7.679  0.2785E+01  0.1451E+02
     -7.651  0.3365E+01  0.1460E+02
     -7.622  0.3822E+01  0.1471E+02
     -7.594  0.3991E+01  0.1482E+02
     -7.566  0.3784E+01  0.1493E+02
     -7.538  0.3235E+01  0.1502E+02
     -7.510  0.2501E+01  0.1509E+02
     -7.482  0.1803E+01  0.1514E+02
     -7.454  0.1342E+01  0.1518E+02
     -7.426  0.1222E+01  0.1521E+02
     -7.398  0.1437E+01  0.1525E+02
     -7.370  0.1892E+01  0.1531E+02
     -7.341  0.2450E+01  0.1537E+02
     -7.313  0.2975E+01  0.1546E+02
     -7.285  0.3354E+01  0.1555E+02
     -7.257  0.3515E+01  0.1565E+02
     -7.229  0.3439E+01  0.1575E+02
     -7.201  0.3169E+01  0.1584E+02
     -7.173  0.2803E+01  0.1592E+02
     -7.145  0.2471E+01  0.1599E+02
     -7.117  0.2283E+01  0.1605E+02
     -7.089  0.2280E+01  0.1611E+02
     -7.060  0.2404E+01  0.1618E+02
     -7.032  0.2533E+01  0.1625E+02
     -7.004  0.2548E+01  0.1632E+02
     -6.976  0.2406E+01  0.1639E+02
     -6.948  0.2169E+01  0.1645E+02
     -6.920  0.1956E+01  0.1651E+02
     -6.892  0.1867E+01  0.1656E+02
     -6.864  0.1917E+01  0.1661E+02
     -6.836  0.2032E+01  0.1667E+02
     -6.808  0.2125E+01  0.1673E+02
     -6.780  0.2164E+01  0.1679E+02
     -6.751  0.2191E+01  0.1685E+02
     -6.723  0.2281E+01  0.1692E+02
     -6.695  0.2484E+01  0.1699E+02
     -6.667  0.2806E+01  0.1707E+02
     -6.639  0.3220E+01  0.1716E+02
     -6.611  0.3685E+01  0.1726E+02
     -6.583  0.4139E+01  0.1738E+02
     -6.555  0.4498E+01  0.1750E+02
     -6.527  0.4668E+01  0.1763E+02
     -6.499  0.4593E+01  0.1776E+02
     -6.470  0.4299E+01  0.1788E+02
     -6.442  0.3905E+01  0.1799E+02
     -6.414  0.3580E+01  0.1809E+02
     -6.386  0.3461E+01  0.1819E+02
     -6.358  0.3587E+01  0.1829E+02
     -6.330  0.3885E+01  0.1840E+02
     -6.302  0.4213E+01  0.1852E+02
     -6.274  0.4434E+01  0.1864E+02
     -6.246  0.4472E+01  0.1877E+02
     -6.218  0.4326E+01  0.1889E+02
     -6.190  0.4036E+01  0.1900E+02
     -6.161  0.3638E+01  0.1911E+02
     -6.133  0.3148E+01  0.1919E+02
     -6.105  0.2605E+01  0.1927E+02
     -6.077  0.2090E+01  0.1933E+02
     -6.049  0.1720E+01  0.1938E+02
     -6.021  0.1578E+01  0.1942E+02
     -5.993  0.1666E+01  0.1947E+02
     -5.965  0.1892E+01  0.1952E+02
     -5.937  0.2118E+01  0.1958E+02
     -5.909  0.2229E+01  0.1964E+02
     -5.880  0.2177E+01  0.1970E+02
     -5.852  0.1986E+01  0.1976E+02
     -5.824  0.1728E+01  0.1981E+02
     -5.796  0.1499E+01  0.1985E+02
     -5.768  0.1398E+01  0.1989E+02
     -5.740  0.1484E+01  0.1993E+02
     -5.712  0.1731E+01  0.1998E+02
     -5.684  0.2019E+01  0.2004E+02
     -5.656  0.2190E+01  0.2010E+02
     -5.628  0.2149E+01  0.2016E+02
     -5.599  0.1918E+01  0.2021E+02
     -5.571  0.1621E+01  0.2026E+02
     -5.543  0.1401E+01  0.2030E+02
     -5.515  0.1345E+01  0.2033E+02
     -5.487  0.1442E+01  0.2037E+02
     -5.459  0.1611E+01  0.2042E+02
     -5.431  0.1770E+01  0.2047E+02
     -5.403  0.1898E+01  0.2052E+02
     -5.375  0.2047E+01  0.2058E+02
     -5.347  0.2274E+01  0.2064E+02
     -5.319  0.2583E+01  0.2072E+02
     -5.290  0.2918E+01  0.2080E+02
     -5.262  0.3219E+01  0.2089E+02
     -5.234  0.3471E+01  0.2099E+02
     -5.206  0.3738E+01  0.2109E+02
     -5.178  0.4142E+01  0.2121E+02
     -5.150  0.4800E+01  0.2134E+02
     -5.122  0.5740E+01  0.2150E+02
     -5.094  0.6835E+01  0.2170E+02
     -5.066  0.7835E+01  0.2192E+02
     -5.038  0.8474E+01  0.2215E+02
     -5.009  0.8589E+01  0.2240E+02
     -4.981  0.8185E+01  0.2263E+02
     -4.953  0.7430E+01  0.2283E+02
     -4.925  0.6586E+01  0.2302E+02
     -4.897  0.5891E+01  0.2319E+02
     -4.869  0.5440E+01  0.2334E+02
     -4.841  0.5148E+01  0.2348E+02
     -4.813  0.4829E+01  0.2362E+02
     -4.785  0.4333E+01  0.2374E+02
     -4.757  0.3633E+01  0.2384E+02
     -4.728  0.2838E+01  0.2392E+02
     -4.700  0.2124E+01  0.2398E+02
     -4.672  0.1646E+01  0.2403E+02
     -4.644  0.1468E+01  0.2407E+02
     -4.616  0.1554E+01  0.2411E+02
     -4.588  0.1814E+01  0.2416E+02
     -4.560  0.2173E+01  0.2422E+02
     -4.532  0.2595E+01  0.2430E+02
     -4.504  0.3047E+01  0.2438E+02
     -4.476  0.3448E+01  0.2448E+02
     -4.448  0.3675E+01  0.2458E+02
     -4.419  0.3638E+01  0.2469E+02
     -4.391  0.3347E+01  0.2478E+02
     -4.363  0.2898E+01  0.2486E+02
     -4.335  0.2412E+01  0.2493E+02
     -4.307  0.1977E+01  0.2498E+02
     -4.279  0.1640E+01  0.2503E+02
     -4.251  0.1424E+01  0.2507E+02
     -4.223  0.1350E+01  0.2511E+02
     -4.195  0.1440E+01  0.2515E+02
     -4.167  0.1708E+01  0.2520E+02
     -4.138  0.2147E+01  0.2526E+02
     -4.110  0.2701E+01  0.2533E+02
     -4.082  0.3266E+01  0.2542E+02
     -4.054  0.3718E+01  0.2553E+02
     -4.026  0.3960E+01  0.2564E+02
     -3.998  0.3980E+01  0.2575E+02
     -3.970  0.3849E+01  0.2586E+02
     -3.942  0.3683E+01  0.2596E+02
     -3.914  0.3557E+01  0.2606E+02
     -3.886  0.3462E+01  0.2616E+02
     -3.858  0.3325E+01  0.2625E+02
     -3.829  0.3094E+01  0.2634E+02
     -3.801  0.2801E+01  0.2642E+02
     -3.773  0.2563E+01  0.2649E+02
     -3.745  0.2523E+01  0.2656E+02
     -3.717  0.2787E+01  0.2664E+02
     -3.689  0.3370E+01  0.2674E+02
     -3.661  0.4159E+01  0.2685E+02
     -3.633  0.4937E+01  0.2699E+02
     -3.605  0.5462E+01  0.2715E+02
     -3.577  0.5589E+01  0.2730E+02
     -3.548  0.5337E+01  0.2745E+02
     -3.520  0.4859E+01  0.2759E+02
     -3.492  0.4362E+01  0.2771E+02
     -3.464  0.4014E+01  0.2782E+02
     -3.436  0.3910E+01  0.2793E+02
     -3.408  0.4047E+01  0.2805E+02
     -3.380  0.4344E+01  0.2817E+02
     -3.352  0.4676E+01  0.2830E+02
     -3.324  0.4929E+01  0.2844E+02
     -3.296  0.5026E+01  0.2858E+02
     -3.267  0.4916E+01  0.2872E+02
     -3.239  0.4570E+01  0.2885E+02
     -3.211  0.3993E+01  0.2896E+02
     -3.183  0.3253E+01  0.2905E+02
     -3.155  0.2481E+01  0.2912E+02
     -3.127  0.1821E+01  0.2917E+02
     -3.099  0.1382E+01  0.2921E+02
     -3.071  0.1204E+01  0.2924E+02
     -3.043  0.1251E+01  0.2928E+02
     -3.015  0.1434E+01  0.2932E+02
     -2.987  0.1647E+01  0.2937E+02
     -2.958  0.1798E+01  0.2942E+02
     -2.930  0.1830E+01  0.2947E+02
     -2.902  0.1725E+01  0.2952E+02
     -2.874  0.1507E+01  0.2956E+02
     -2.846  0.1237E+01  0.2959E+02
     -2.818  0.9960E+00  0.2962E+02
     -2.790  0.8558E+00  0.2965E+02
     -2.762  0.8431E+00  0.2967E+02
     -2.734  0.9312E+00  0.2970E+02
     -2.706  0.1060E+01  0.2973E+02
     -2.677  0.1169E+01  0.2976E+02
     -2.649  0.1226E+01  0.2979E+02
     -2.621  0.1226E+01  0.2983E+02
     -2.593  0.1181E+01  0.2986E+02
     -2.565  0.1101E+01  0.2989E+02
     -2.537  0.9921E+00  0.2992E+02
     -2.509  0.8532E+00  0.2994E+02
     -2.481  0.6906E+00  0.2996E+02
     -2.453  0.5190E+00  0.2998E+02
     -2.425  0.3579E+00  0.2999E+02
     -2.396  0.2244E+00  0.2999E+02
     -2.368  0.1268E+00  0.3000E+02
     -2.340  0.6401E-01  0.3000E+02
     -2.312  0.2866E-01  0.3000E+02
     -2.284  0.1129E-01  0.3000E+02
     -2.256  0.3886E-02  0.3000E+02
     -2.228  0.1163E-02  0.3000E+02
     -2.200  0.3012E-03  0.3000E+02
     -2.172  0.6785E-04  0.3000E+02
     -2.144  0.1707E-04  0.3000E+02
     -2.116  0.2741E-04  0.3000E+02
     -2.087  0.1330E-03  0.3000E+02
     -2.059  0.6000E-03  0.3000E+02
     -2.031  0.2338E-02  0.3000E+02
     -2.003  0.7860E-02  0.3000E+02
     -1.975  0.2282E-01  0.3000E+02
     -1.947  0.5730E-01  0.3000E+02
     -1.919  0.1245E+00  0.3001E+02
     -1.891  0.2347E+00  0.3001E+02
     -1.863  0.3847E+00  0.3002E+02
     -1.835  0.5513E+00  0.3004E+02
     -1.806  0.6982E+00  0.3006E+02
     -1.778  0.7984E+00  0.3008E+02
     -1.750  0.8564E+00  0.3011E+02
     -1.722  0.9123E+00  0.3013E+02
     -1.694  0.1020E+01  0.3016E+02
     -1.666  0.1218E+01  0.3019E+02
     -1.638  0.1506E+01  0.3024E+02
     -1.610  0.1843E+01  0.3029E+02
     -1.582  0.2162E+01  0.3035E+02
     -1.554  0.2398E+01  0.3042E+02
     -1.525  0.2509E+01  0.3049E+02
     -1.497  0.2487E+01  0.3056E+02
     -1.469  0.2345E+01  0.3062E+02
     -1.441  0.2113E+01  0.3068E+02
     -1.413  0.1853E+01  0.3073E+02
     -1.385  0.1655E+01  0.3078E+02
     -1.357  0.1598E+01  0.3082E+02
     -1.329  0.1701E+01  0.3087E+02
     -1.301  0.1916E+01  0.3093E+02
     -1.273  0.2169E+01  0.3099E+02
     -1.245  0.2415E+01  0.3106E+02
     -1.216  0.2636E+01  0.3113E+02
     -1.188  0.2818E+01  0.3121E+02
     -1.160  0.2915E+01  0.3129E+02
     -1.132  0.2865E+01  0.3137E+02
     -1.104  0.2628E+01  0.3144E+02
     -1.076  0.2215E+01  0.3151E+02
     -1.048  0.1700E+01  0.3155E+02
     -1.020  0.1192E+01  0.3159E+02
     -0.992  0.7966E+00  0.3161E+02
     -0.964  0.5776E+00  0.3163E+02
     -0.935  0.5430E+00  0.3164E+02
     -0.907  0.6455E+00  0.3166E+02
     -0.879  0.7983E+00  0.3168E+02
     -0.851  0.9061E+00  0.3171E+02
     -0.823  0.9051E+00  0.3173E+02
     -0.795  0.7924E+00  0.3176E+02
     -0.767  0.6259E+00  0.3177E+02
     -0.739  0.4906E+00  0.3179E+02
     -0.711  0.4565E+00  0.3180E+02
     -0.683  0.5467E+00  0.3182E+02
     -0.655  0.7253E+00  0.3184E+02
     -0.626  0.9095E+00  0.3186E+02
     -0.598  0.1007E+01  0.3189E+02
     -0.570  0.9630E+00  0.3192E+02
     -0.542  0.7911E+00  0.3194E+02
     -0.514  0.5571E+00  0.3195E+02
     -0.486  0.3361E+00  0.3196E+02
     -0.458  0.1737E+00  0.3197E+02
     -0.430  0.7688E-01  0.3197E+02
     -0.402  0.2913E-01  0.3197E+02
     -0.374  0.9455E-02  0.3197E+02
     -0.345  0.2642E-02  0.3197E+02
     -0.317  0.7127E-03  0.3197E+02
     -0.289  0.5310E-03  0.3197E+02
     -0.261  0.1599E-02  0.3197E+02
     -0.233  0.5269E-02  0.3197E+02
     -0.205  0.1505E-01  0.3197E+02
     -0.177  0.3678E-01  0.3197E+02
     -0.149  0.7694E-01  0.3198E+02
     -0.121  0.1377E+00  0.3198E+02
     -0.093  0.2109E+00  0.3199E+02
     -0.064  0.2765E+00  0.3199E+02
     -0.036  0.3100E+00  0.3200E+02
     -0.008  0.2975E+00  0.3201E+02
      0.020  0.2443E+00  0.3202E+02
      0.048  0.1717E+00  0.3202E+02
      0.076  0.1033E+00  0.3203E+02
      0.104  0.5313E-01  0.3203E+02
      0.132  0.2339E-01  0.3203E+02
      0.160  0.8813E-02  0.3203E+02
      0.188  0.2851E-02  0.3203E+02
      0.216  0.8489E-03  0.3203E+02
      0.245  0.5261E-03  0.3203E+02
      0.273  0.1556E-02  0.3203E+02
      0.301  0.5790E-02  0.3203E+02
      0.329  0.1885E-01  0.3203E+02
      0.357  0.5253E-01  0.3203E+02
      0.385  0.1253E+00  0.3203E+02
      0.413  0.2557E+00  0.3204E+02
      0.441  0.4466E+00  0.3205E+02
      0.469  0.6674E+00  0.3207E+02
      0.497  0.8538E+00  0.3210E+02
      0.526  0.9356E+00  0.3212E+02
      0.554  0.8808E+00  0.3215E+02
      0.582  0.7197E+00  0.3217E+02
      0.610  0.5283E+00  0.3218E+02
      0.638  0.3849E+00  0.3219E+02
      0.666  0.3310E+00  0.3220E+02
      0.694  0.3587E+00  0.3221E+02
      0.722  0.4230E+00  0.3222E+02
      0.750  0.4684E+00  0.3224E+02
      0.778  0.4568E+00  0.3225E+02
      0.807  0.3861E+00  0.3226E+02
      0.835  0.2871E+00  0.3227E+02
      0.863  0.2070E+00  0.3227E+02
      0.891  0.1957E+00  0.3228E+02
      0.919  0.3036E+00  0.3229E+02
      0.947  0.5787E+00  0.3231E+02
      0.975  0.1045E+01  0.3233E+02
      1.003  0.1663E+01  0.3238E+02
      1.031  0.2314E+01  0.3245E+02
      1.059  0.2833E+01  0.3253E+02
      1.087  0.3096E+01  0.3261E+02
      1.116  0.3086E+01  0.3270E+02
      1.144  0.2889E+01  0.3278E+02
      1.172  0.2629E+01  0.3285E+02
      1.200  0.2398E+01  0.3292E+02
      1.228  0.2231E+01  0.3298E+02
      1.256  0.2126E+01  0.3304E+02
      1.284  0.2069E+01  0.3310E+02
      1.312  0.2050E+01  0.3316E+02
      1.340  0.2058E+01  0.3322E+02
      1.368  0.2066E+01  0.3328E+02
      1.397  0.2036E+01  0.3333E+02
      1.425  0.1955E+01  0.3339E+02
      1.453  0.1858E+01  0.3344E+02
      1.481  0.1809E+01  0.3349E+02
      1.509  0.1845E+01  0.3354E+02
      1.537  0.1938E+01  0.3360E+02
      1.565  0.2009E+01  0.3365E+02
      1.593  0.1984E+01  0.3371E+02
      1.621  0.1837E+01  0.3376E+02
      1.649  0.1593E+01  0.3381E+02
      1.678  0.1310E+01  0.3384E+02
      1.706  0.1060E+01  0.3387E+02
      1.734  0.9049E+00  0.3390E+02
      1.762  0.8735E+00  0.3392E+02
      1.790  0.9642E+00  0.3395E+02
      1.818  0.1162E+01  0.3398E+02
      1.846  0.1448E+01  0.3402E+02
      1.874  0.1790E+01  0.3407E+02
      1.902  0.2119E+01  0.3413E+02
      1.930  0.2348E+01  0.3420E+02
      1.958  0.2411E+01  0.3427E+02
      1.987  0.2309E+01  0.3433E+02
      2.015  0.2106E+01  0.3439E+02
      2.043  0.1894E+01  0.3444E+02
      2.071  0.1737E+01  0.3449E+02
      2.099  0.1653E+01  0.3454E+02
      2.127  0.1624E+01  0.3458E+02
      2.155  0.1630E+01  0.3463E+02
      2.183  0.1662E+01  0.3468E+02
      2.211  0.1719E+01  0.3473E+02
      2.239  0.1788E+01  0.3478E+02
      2.268  0.1840E+01  0.3483E+02
      2.296  0.1861E+01  0.3488E+02
      2.324  0.1871E+01  0.3493E+02
      2.352  0.1913E+01  0.3499E+02
      2.380  0.2007E+01  0.3504E+02
      2.408  0.2121E+01  0.3510E+02
      2.436  0.2190E+01  0.3516E+02
      2.464  0.2188E+01  0.3523E+02
      2.492  0.2149E+01  0.3529E+02
      2.520  0.2125E+01  0.3535E+02
      2.548  0.2119E+01  0.3540E+02
      2.577  0.2072E+01  0.3546E+02
      2.605  0.1918E+01  0.3552E+02
      2.633  0.1664E+01  0.3556E+02
      2.661  0.1405E+01  0.3560E+02
      2.689  0.1277E+01  0.3564E+02
      2.717  0.1377E+01  0.3568E+02
      2.745  0.1715E+01  0.3573E+02
      2.773  0.2212E+01  0.3579E+02
      2.801  0.2734E+01  0.3586E+02
      2.829  0.3132E+01  0.3595E+02
      2.858  0.3302E+01  0.3605E+02
      2.886  0.3216E+01  0.3614E+02
      2.914  0.2930E+01  0.3622E+02
      2.942  0.2548E+01  0.3629E+02
      2.970  0.2168E+01  0.3635E+02
      2.998  0.1852E+01  0.3640E+02
      3.026  0.1623E+01  0.3645E+02
      3.054  0.1491E+01  0.3649E+02
      3.082  0.1456E+01  0.3653E+02
      3.110  0.1504E+01  0.3657E+02
      3.139  0.1609E+01  0.3662E+02
      3.167  0.1753E+01  0.3667E+02
      3.195  0.1947E+01  0.3672E+02
      3.223  0.2229E+01  0.3679E+02
      3.251  0.2617E+01  0.3686E+02
      3.279  0.3056E+01  0.3694E+02
      3.307  0.3409E+01  0.3704E+02
      3.335  0.3514E+01  0.3714E+02
      3.363  0.3286E+01  0.3723E+02