   8   8   1   0
  0.2469169E+02  0.5174038E-09  0.5174038E-09  0.8520222E-09  0.5000000E-15
  1.000000000000000E-004
  CAR 
 BC3                                     
      8.25793498    -19.81650900 1000     -2.44562243      1.00000000
    -19.817  0.0000E+00  0.0000E+00
    -19.788  0.0000E+00  0.0000E+00
    -19.760  0.0000E+00  0.0000E+00
    -19.732  0.0000E+00  0.0000E+00
    -19.704  0.0000E+00  0.0000E+00
    -19.676  0.0000E+00  0.0000E+00
    -19.648  0.0000E+00  0.0000E+00
    -19.620  0.0000E+00  0.0000E+00
    -19.592  0.0000E+00  0.0000E+00
    -19.564  0.0000E+00  0.0000E+00
    -19.535  0.0000E+00  0.0000E+00
    -19.507  0.0000E+00  0.0000E+00
    -19.479  0.0000E+00  0.0000E+00
    -19.451  0.0000E+00  0.0000E+00
    -19.423  0.0000E+00  0.0000E+00
    -19.395  0.0000E+00  0.0000E+00
    -19.367  0.0000E+00  0.0000E+00
    -19.339  0.0000E+00  0.0000E+00
    -19.311  0.0000E+00  0.0000E+00
    -19.283  0.0000E+00  0.0000E+00
    -19.254  0.0000E+00  0.0000E+00
    -19.226  0.0000E+00  0.0000E+00
    -19.198  0.0000E+00  0.0000E+00
    -19.170  0.0000E+00  0.0000E+00
    -19.142  0.0000E+00  0.0000E+00
    -19.114  0.0000E+00  0.0000E+00
    -19.086  0.0000E+00  0.0000E+00
    -19.058  0.0000E+00  0.0000E+00
    -19.030  0.0000E+00  0.0000E+00
    -19.002  0.0000E+00  0.0000E+00
    -18.973  0.0000E+00  0.0000E+00
    -18.945  0.0000E+00  0.0000E+00
    -18.917  0.0000E+00  0.0000E+00
    -18.889  0.0000E+00  0.0000E+00
    -18.861  0.0000E+00  0.0000E+00
    -18.833  0.0000E+00  0.0000E+00
    -18.805  0.0000E+00  0.0000E+00
    -18.777  0.0000E+00  0.0000E+00
    -18.749  0.0000E+00  0.0000E+00
    -18.721  0.0000E+00  0.0000E+00
    -18.692  0.0000E+00  0.0000E+00
    -18.664  0.0000E+00  0.0000E+00
    -18.636  0.0000E+00  0.0000E+00
    -18.608  0.0000E+00  0.0000E+00
    -18.580  0.0000E+00  0.0000E+00
    -18.552  0.0000E+00  0.0000E+00
    -18.524  0.1883E+01  0.1563E-01
    -18.496  0.1747E+01  0.7085E-01
    -18.468  0.2032E+01  0.1240E+00
    -18.439  0.1906E+01  0.1808E+00
    -18.411  0.1952E+01  0.2342E+00
    -18.383  0.2072E+01  0.2907E+00
    -18.355  0.2075E+01  0.3502E+00
    -18.327  0.2114E+01  0.4091E+00
    -18.299  0.2175E+01  0.4692E+00
    -18.271  0.2266E+01  0.5316E+00
    -18.243  0.2357E+01  0.5965E+00
    -18.215  0.2443E+01  0.6639E+00
    -18.187  0.2561E+01  0.7342E+00
    -18.158  0.2681E+01  0.8078E+00
    -18.130  0.2817E+01  0.8851E+00
    -18.102  0.3061E+01  0.9663E+00
    -18.074  0.3453E+01  0.1058E+01
    -18.046  0.3908E+01  0.1161E+01
    -18.018  0.4500E+01  0.1278E+01
    -17.990  0.5366E+01  0.1417E+01
    -17.962  0.6449E+01  0.1650E+01
    -17.934  0.4057E+01  0.1797E+01
    -17.906  0.4416E+01  0.1908E+01
    -17.877  0.6395E+00  0.1999E+01
    -17.849  0.0000E+00  0.2000E+01
    -17.821  0.0000E+00  0.2000E+01
    -17.793  0.0000E+00  0.2000E+01
    -17.765  0.0000E+00  0.2000E+01
    -17.737  0.0000E+00  0.2000E+01
    -17.709  0.0000E+00  0.2000E+01
    -17.681  0.0000E+00  0.2000E+01
    -17.653  0.0000E+00  0.2000E+01
    -17.625  0.0000E+00  0.2000E+01
    -17.596  0.0000E+00  0.2000E+01
    -17.568  0.0000E+00  0.2000E+01
    -17.540  0.0000E+00  0.2000E+01
    -17.512  0.0000E+00  0.2000E+01
    -17.484  0.0000E+00  0.2000E+01
    -17.456  0.0000E+00  0.2000E+01
    -17.428  0.0000E+00  0.2000E+01
    -17.400  0.0000E+00  0.2000E+01
    -17.372  0.0000E+00  0.2000E+01
    -17.343  0.0000E+00  0.2000E+01
    -17.315  0.0000E+00  0.2000E+01
    -17.287  0.0000E+00  0.2000E+01
    -17.259  0.0000E+00  0.2000E+01
    -17.231  0.0000E+00  0.2000E+01
    -17.203  0.0000E+00  0.2000E+01
    -17.175  0.0000E+00  0.2000E+01
    -17.147  0.0000E+00  0.2000E+01
    -17.119  0.0000E+00  0.2000E+01
    -17.091  0.0000E+00  0.2000E+01
    -17.062  0.0000E+00  0.2000E+01
    -17.034  0.0000E+00  0.2000E+01
    -17.006  0.0000E+00  0.2000E+01
    -16.978  0.0000E+00  0.2000E+01
    -16.950  0.0000E+00  0.2000E+01
    -16.922  0.0000E+00  0.2000E+01
    -16.894  0.0000E+00  0.2000E+01
    -16.866  0.0000E+00  0.2000E+01
    -16.838  0.0000E+00  0.2000E+01
    -16.810  0.0000E+00  0.2000E+01
    -16.781  0.0000E+00  0.2000E+01
    -16.753  0.0000E+00  0.2000E+01
    -16.725  0.0000E+00  0.2000E+01
    -16.697  0.0000E+00  0.2000E+01
    -16.669  0.0000E+00  0.2000E+01
    -16.641  0.0000E+00  0.2000E+01
    -16.613  0.0000E+00  0.2000E+01
    -16.585  0.0000E+00  0.2000E+01
    -16.557  0.0000E+00  0.2000E+01
    -16.529  0.0000E+00  0.2000E+01
    -16.500  0.0000E+00  0.2000E+01
    -16.472  0.0000E+00  0.2000E+01
    -16.444  0.0000E+00  0.2000E+01
    -16.416  0.0000E+00  0.2000E+01
    -16.388  0.0000E+00  0.2000E+01
    -16.360  0.0000E+00  0.2000E+01
    -16.332  0.0000E+00  0.2000E+01
    -16.304  0.0000E+00  0.2000E+01
    -16.276  0.0000E+00  0.2000E+01
    -16.247  0.1652E+01  0.2020E+01
    -16.219  0.3692E+01  0.2095E+01
    -16.191  0.2800E+01  0.2186E+01
    -16.163  0.2762E+01  0.2263E+01
    -16.135  0.3119E+01  0.2345E+01
    -16.107  0.3478E+01  0.2438E+01
    -16.079  0.3989E+01  0.2542E+01
    -16.051  0.4775E+01  0.2684E+01
    -16.023  0.3543E+01  0.2800E+01
    -15.995  0.2507E+01  0.2884E+01
    -15.966  0.2162E+01  0.2949E+01
    -15.938  0.1861E+01  0.3005E+01
    -15.910  0.1876E+01  0.3058E+01
    -15.882  0.1891E+01  0.3111E+01
    -15.854  0.1589E+01  0.3158E+01
    -15.826  0.1652E+01  0.3204E+01
    -15.798  0.1715E+01  0.3251E+01
    -15.770  0.1778E+01  0.3300E+01
    -15.742  0.1841E+01  0.3351E+01
    -15.714  0.2072E+01  0.3404E+01
    -15.685  0.2055E+01  0.3462E+01
    -15.657  0.2018E+01  0.3519E+01
    -15.629  0.1981E+01  0.3575E+01
    -15.601  0.1944E+01  0.3630E+01
    -15.573  0.1950E+01  0.3685E+01
    -15.545  0.2008E+01  0.3740E+01
    -15.517  0.2078E+01  0.3798E+01
    -15.489  0.2145E+01  0.3857E+01
    -15.461  0.2225E+01  0.3918E+01
    -15.433  0.2358E+01  0.3983E+01
    -15.404  0.2407E+01  0.4050E+01
    -15.376  0.2447E+01  0.4118E+01
    -15.348  0.2487E+01  0.4187E+01
    -15.320  0.2463E+01  0.4257E+01
    -15.292  0.2637E+01  0.4330E+01
    -15.264  0.2694E+01  0.4405E+01
    -15.236  0.2750E+01  0.4481E+01
    -15.208  0.3480E+01  0.4565E+01
    -15.180  0.4036E+01  0.4671E+01
    -15.151  0.4461E+01  0.4791E+01
    -15.123  0.4739E+01  0.4920E+01
    -15.095  0.3663E+01  0.5042E+01
    -15.067  0.3373E+01  0.5140E+01
    -15.039  0.3008E+01  0.5230E+01
    -15.011  0.2704E+01  0.5309E+01
    -14.983  0.2508E+01  0.5383E+01
    -14.955  0.2313E+01  0.5450E+01
    -14.927  0.2118E+01  0.5513E+01
    -14.899  0.2256E+01  0.5577E+01
    -14.870  0.2082E+01  0.5638E+01
    -14.842  0.1909E+01  0.5694E+01
    -14.814  0.1735E+01  0.5746E+01
    -14.786  0.1857E+01  0.5793E+01
    -14.758  0.1949E+01  0.5851E+01
    -14.730  0.1605E+01  0.5901E+01
    -14.702  0.1261E+01  0.5941E+01
    -14.674  0.1273E+01  0.5984E+01
    -14.646  0.0000E+00  0.6000E+01
    -14.618  0.0000E+00  0.6000E+01
    -14.589  0.0000E+00  0.6000E+01
    -14.561  0.0000E+00  0.6000E+01
    -14.533  0.0000E+00  0.6000E+01
    -14.505  0.0000E+00  0.6000E+01
    -14.477  0.0000E+00  0.6000E+01
    -14.449  0.0000E+00  0.6000E+01
    -14.421  0.0000E+00  0.6000E+01
    -14.393  0.0000E+00  0.6000E+01
    -14.365  0.0000E+00  0.6000E+01
    -14.337  0.0000E+00  0.6000E+01
    -14.308  0.0000E+00  0.6000E+01
    -14.280  0.0000E+00  0.6000E+01
    -14.252  0.0000E+00  0.6000E+01
    -14.224  0.0000E+00  0.6000E+01
    -14.196  0.0000E+00  0.6000E+01
    -14.168  0.0000E+00  0.6000E+01
    -14.140  0.0000E+00  0.6000E+01
    -14.112  0.0000E+00  0.6000E+01
    -14.084  0.0000E+00  0.6000E+01
    -14.055  0.0000E+00  0.6000E+01
    -14.027  0.0000E+00  0.6000E+01
    -13.999  0.0000E+00  0.6000E+01
    -13.971  0.0000E+00  0.6000E+01
    -13.943  0.0000E+00  0.6000E+01
    -13.915  0.0000E+00  0.6000E+01
    -13.887  0.0000E+00  0.6000E+01
    -13.859  0.0000E+00  0.6000E+01
    -13.831  0.0000E+00  0.6000E+01
    -13.803  0.0000E+00  0.6000E+01
    -13.774  0.0000E+00  0.6000E+01
    -13.746  0.0000E+00  0.6000E+01
    -13.718  0.0000E+00  0.6000E+01
    -13.690  0.0000E+00  0.6000E+01
    -13.662  0.0000E+00  0.6000E+01
    -13.634  0.0000E+00  0.6000E+01
    -13.606  0.0000E+00  0.6000E+01
    -13.578  0.0000E+00  0.6000E+01
    -13.550  0.0000E+00  0.6000E+01
    -13.522  0.0000E+00  0.6000E+01
    -13.493  0.0000E+00  0.6000E+01
    -13.465  0.0000E+00  0.6000E+01
    -13.437  0.0000E+00  0.6000E+01
    -13.409  0.0000E+00  0.6000E+01
    -13.381  0.0000E+00  0.6000E+01
    -13.353  0.0000E+00  0.6000E+01
    -13.325  0.0000E+00  0.6000E+01
    -13.297  0.0000E+00  0.6000E+01
    -13.269  0.0000E+00  0.6000E+01
    -13.241  0.0000E+00  0.6000E+01
    -13.212  0.0000E+00  0.6000E+01
    -13.184  0.0000E+00  0.6000E+01
    -13.156  0.0000E+00  0.6000E+01
    -13.128  0.0000E+00  0.6000E+01
    -13.100  0.0000E+00  0.6000E+01
    -13.072  0.0000E+00  0.6000E+01
    -13.044  0.0000E+00  0.6000E+01
    -13.016  0.0000E+00  0.6000E+01
    -12.988  0.0000E+00  0.6000E+01
    -12.959  0.0000E+00  0.6000E+01
    -12.931  0.0000E+00  0.6000E+01
    -12.903  0.0000E+00  0.6000E+01
    -12.875  0.0000E+00  0.6000E+01
    -12.847  0.0000E+00  0.6000E+01
    -12.819  0.1070E+01  0.6014E+01
    -12.791  0.1533E+01  0.6052E+01
    -12.763  0.1917E+01  0.6100E+01
    -12.735  0.2302E+01  0.6159E+01
    -12.707  0.2567E+01  0.6228E+01
    -12.678  0.2355E+01  0.6298E+01
    -12.650  0.2282E+01  0.6364E+01
    -12.622  0.2314E+01  0.6428E+01
    -12.594  0.2420E+01  0.6494E+01
    -12.566  0.2561E+01  0.6564E+01
    -12.538  0.2713E+01  0.6638E+01
    -12.510  0.2891E+01  0.6717E+01
    -12.482  0.3069E+01  0.6801E+01
    -12.454  0.3323E+01  0.6889E+01
    -12.426  0.5869E+01  0.7025E+01
    -12.397  0.4766E+01  0.7174E+01
    -12.369  0.3664E+01  0.7292E+01
    -12.341  0.4607E+01  0.7406E+01
    -12.313  0.3328E+01  0.7504E+01
    -12.285  0.1378E+01  0.7577E+01
    -12.257  0.1555E+01  0.7618E+01
    -12.229  0.1731E+01  0.7664E+01
    -12.201  0.1719E+01  0.7715E+01
    -12.173  0.1644E+01  0.7763E+01
    -12.145  0.1570E+01  0.7808E+01
    -12.116  0.1495E+01  0.7851E+01
    -12.088  0.1420E+01  0.7892E+01
    -12.060  0.1373E+01  0.7931E+01
    -12.032  0.1352E+01  0.7969E+01
    -12.004  0.1422E+01  0.8008E+01
    -11.976  0.1518E+01  0.8049E+01
    -11.948  0.1615E+01  0.8093E+01
    -11.920  0.1683E+01  0.8140E+01
    -11.892  0.1228E+01  0.8182E+01
    -11.863  0.1177E+01  0.8216E+01
    -11.835  0.1125E+01  0.8248E+01
    -11.807  0.1504E+01  0.8286E+01
    -11.779  0.1374E+01  0.8326E+01
    -11.751  0.1244E+01  0.8363E+01
    -11.723  0.1114E+01  0.8396E+01
    -11.695  0.1105E+01  0.8427E+01
    -11.667  0.1121E+01  0.8458E+01
    -11.639  0.1137E+01  0.8490E+01
    -11.611  0.1152E+01  0.8522E+01
    -11.582  0.1168E+01  0.8555E+01
    -11.554  0.1184E+01  0.8588E+01
    -11.526  0.1189E+01  0.8621E+01
    -11.498  0.1231E+01  0.8655E+01
    -11.470  0.1325E+01  0.8691E+01
    -11.442  0.1419E+01  0.8729E+01
    -11.414  0.2065E+01  0.8791E+01
    -11.386  0.1522E+01  0.8841E+01
    -11.358  0.1751E+01  0.8887E+01
    -11.330  0.1981E+01  0.8939E+01
    -11.301  0.2210E+01  0.8998E+01
    -11.273  0.2439E+01  0.9063E+01
    -11.245  0.2669E+01  0.9135E+01
    -11.217  0.1848E+01  0.9195E+01
    -11.189  0.1912E+01  0.9248E+01
    -11.161  0.1975E+01  0.9302E+01
    -11.133  0.2038E+01  0.9359E+01
    -11.105  0.2103E+01  0.9417E+01
    -11.077  0.1781E+01  0.9470E+01
    -11.049  0.1761E+01  0.9520E+01
    -11.020  0.1741E+01  0.9569E+01
    -10.992  0.1706E+01  0.9618E+01
    -10.964  0.1662E+01  0.9665E+01
    -10.936  0.1619E+01  0.9711E+01
    -10.908  0.1576E+01  0.9756E+01
    -10.880  0.1544E+01  0.9800E+01
    -10.852  0.1526E+01  0.9843E+01
    -10.824  0.1507E+01  0.9886E+01
    -10.796  0.1461E+01  0.9927E+01
    -10.767  0.1415E+01  0.9968E+01
    -10.739  0.1369E+01  0.1001E+02
    -10.711  0.1326E+01  0.1004E+02
    -10.683  0.1797E+01  0.1009E+02
    -10.655  0.1557E+01  0.1013E+02
    -10.627  0.1316E+01  0.1017E+02
    -10.599  0.1075E+01  0.1021E+02
    -10.571  0.8340E+00  0.1023E+02
    -10.543  0.5931E+00  0.1025E+02
    -10.515  0.4293E+00  0.1027E+02
    -10.486  0.4366E+00  0.1028E+02
    -10.458  0.4440E+00  0.1029E+02
    -10.430  0.4513E+00  0.1031E+02
    -10.402  0.4587E+00  0.1032E+02
    -10.374  0.4660E+00  0.1033E+02
    -10.346  0.4734E+00  0.1034E+02
    -10.318  0.4509E+00  0.1036E+02
    -10.290  0.4518E+00  0.1037E+02
    -10.262  0.4528E+00  0.1038E+02
    -10.234  0.4538E+00  0.1040E+02
    -10.205  0.4547E+00  0.1041E+02
    -10.177  0.4557E+00  0.1042E+02
    -10.149  0.4607E+00  0.1043E+02
    -10.121  0.4666E+00  0.1045E+02
    -10.093  0.4724E+00  0.1046E+02
    -10.065  0.4783E+00  0.1047E+02
    -10.037  0.4842E+00  0.1049E+02
    -10.009  0.4900E+00  0.1050E+02
     -9.981  0.4959E+00  0.1051E+02
     -9.953  0.5018E+00  0.1053E+02
     -9.924  0.5076E+00  0.1054E+02
     -9.896  0.5691E+00  0.1056E+02
     -9.868  0.6660E+00  0.1057E+02
     -9.840  0.7629E+00  0.1060E+02
     -9.812  0.8598E+00  0.1062E+02
     -9.784  0.9567E+00  0.1064E+02
     -9.756  0.1054E+01  0.1067E+02
     -9.728  0.8312E+00  0.1070E+02
     -9.700  0.8463E+00  0.1072E+02
     -9.671  0.8613E+00  0.1074E+02
     -9.643  0.8763E+00  0.1077E+02
     -9.615  0.8913E+00  0.1079E+02
     -9.587  0.9064E+00  0.1082E+02
     -9.559  0.9214E+00  0.1084E+02
     -9.531  0.1033E+01  0.1087E+02
     -9.503  0.1199E+01  0.1090E+02
     -9.475  0.1365E+01  0.1094E+02
     -9.447  0.1524E+01  0.1098E+02
     -9.419  0.1676E+01  0.1102E+02
     -9.390  0.1829E+01  0.1107E+02
     -9.362  0.1619E+01  0.1112E+02
     -9.334  0.1640E+01  0.1117E+02
     -9.306  0.1665E+01  0.1121E+02
     -9.278  0.1694E+01  0.1126E+02
     -9.250  0.1723E+01  0.1131E+02
     -9.222  0.1751E+01  0.1136E+02
     -9.194  0.1780E+01  0.1141E+02
     -9.166  0.1808E+01  0.1146E+02
     -9.138  0.1853E+01  0.1151E+02
     -9.109  0.3105E+01  0.1157E+02
     -9.081  0.3644E+01  0.1167E+02
     -9.053  0.3674E+01  0.1178E+02
     -9.025  0.3570E+01  0.1188E+02
     -8.997  0.2764E+01  0.1197E+02
     -8.969  0.2046E+01  0.1203E+02
     -8.941  0.1934E+01  0.1209E+02
     -8.913  0.1828E+01  0.1214E+02
     -8.885  0.1717E+01  0.1219E+02
     -8.857  0.1603E+01  0.1224E+02
     -8.828  0.1489E+01  0.1228E+02
     -8.800  0.1732E+01  0.1232E+02
     -8.772  0.1464E+01  0.1237E+02
     -8.744  0.1197E+01  0.1241E+02
     -8.716  0.9289E+00  0.1244E+02
     -8.688  0.6634E+00  0.1246E+02
     -8.660  0.4718E+00  0.1247E+02
     -8.632  0.4776E+00  0.1249E+02
     -8.604  0.4835E+00  0.1250E+02
     -8.575  0.4893E+00  0.1251E+02
     -8.547  0.4951E+00  0.1253E+02
     -8.519  0.5010E+00  0.1254E+02
     -8.491  0.5068E+00  0.1256E+02
     -8.463  0.4878E+01  0.1261E+02
     -8.435  0.2833E+01  0.1277E+02
     -8.407  0.3895E+01  0.1285E+02
     -8.379  0.9343E+01  0.1302E+02
     -8.351  0.6545E+01  0.1324E+02
     -8.323  0.3996E+01  0.1339E+02
     -8.294  0.2459E+01  0.1348E+02
     -8.266  0.1582E+01  0.1353E+02
     -8.238  0.1420E+01  0.1358E+02
     -8.210  0.1258E+01  0.1361E+02
     -8.182  0.1096E+01  0.1365E+02
     -8.154  0.9344E+00  0.1367E+02
     -8.126  0.7726E+00  0.1370E+02
     -8.098  0.6107E+00  0.1372E+02
     -8.070  0.5263E+00  0.1373E+02
     -8.042  0.5040E+00  0.1375E+02
     -8.013  0.4817E+00  0.1376E+02
     -7.985  0.9215E+00  0.1378E+02
     -7.957  0.1409E+01  0.1381E+02
     -7.929  0.2960E+01  0.1388E+02
     -7.901  0.2928E+01  0.1396E+02
     -7.873  0.2896E+01  0.1404E+02
     -7.845  0.2893E+01  0.1412E+02
     -7.817  0.2949E+01  0.1420E+02
     -7.789  0.2534E+01  0.1428E+02
     -7.761  0.2562E+01  0.1436E+02
     -7.732  0.2590E+01  0.1443E+02
     -7.704  0.2618E+01  0.1450E+02
     -7.676  0.2649E+01  0.1457E+02
     -7.648  0.2570E+01  0.1465E+02
     -7.620  0.3165E+01  0.1473E+02
     -7.592  0.4653E+01  0.1483E+02
     -7.564  0.2392E+01  0.1495E+02
     -7.536  0.2323E+01  0.1502E+02
     -7.508  0.2253E+01  0.1509E+02
     -7.479  0.2184E+01  0.1515E+02
     -7.451  0.2115E+01  0.1521E+02
     -7.423  0.2046E+01  0.1527E+02
     -7.395  0.1977E+01  0.1532E+02
     -7.367  0.1908E+01  0.1538E+02
     -7.339  0.3021E+01  0.1544E+02
     -7.311  0.5285E+01  0.1556E+02
     -7.283  0.9893E+00  0.1566E+02
     -7.255  0.1241E+01  0.1569E+02
     -7.227  0.1163E+01  0.1572E+02
     -7.198  0.5446E+01  0.1581E+02
     -7.170  0.3344E+01  0.1596E+02
     -7.142  0.2597E+01  0.1604E+02
     -7.114  0.2124E+01  0.1611E+02
     -7.086  0.2090E+01  0.1617E+02
     -7.058  0.1960E+01  0.1622E+02
     -7.030  0.3073E+01  0.1629E+02
     -7.002  0.4727E+01  0.1640E+02
     -6.974  0.1266E+01  0.1645E+02
     -6.946  0.1292E+01  0.1649E+02
     -6.917  0.1318E+01  0.1652E+02
     -6.889  0.1344E+01  0.1656E+02
     -6.861  0.1361E+01  0.1660E+02
     -6.833  0.1330E+01  0.1664E+02
     -6.805  0.1481E+01  0.1668E+02
     -6.777  0.2045E+01  0.1672E+02
     -6.749  0.2891E+01  0.1679E+02
     -6.721  0.3738E+01  0.1689E+02
     -6.693  0.2825E+01  0.1698E+02
     -6.665  0.2042E+01  0.1705E+02
     -6.636  0.2749E+01  0.1711E+02
     -6.608  0.3456E+01  0.1720E+02
     -6.580  0.3078E+01  0.1729E+02
     -6.552  0.3043E+01  0.1738E+02
     -6.524  0.5332E+01  0.1749E+02
     -6.496  0.5476E+01  0.1764E+02
     -6.468  0.6031E+01  0.1781E+02
     -6.440  0.5105E+01  0.1797E+02
     -6.412  0.4320E+01  0.1810E+02
     -6.383  0.3681E+01  0.1821E+02
     -6.355  0.3562E+01  0.1831E+02
     -6.327  0.6533E+01  0.1844E+02
     -6.299  0.5895E+01  0.1862E+02
     -6.271  0.6639E+01  0.1880E+02
     -6.243  0.3883E+01  0.1894E+02
     -6.215  0.2838E+01  0.1903E+02
     -6.187  0.2446E+01  0.1910E+02
     -6.159  0.2520E+01  0.1917E+02
     -6.131  0.3036E+01  0.1925E+02
     -6.102  0.2247E+01  0.1932E+02
     -6.074  0.1601E+01  0.1937E+02
     -6.046  0.9556E+00  0.1941E+02
     -6.018  0.7856E+00  0.1943E+02
     -5.990  0.7549E+00  0.1946E+02
     -5.962  0.7452E+00  0.1948E+02
     -5.934  0.8670E+00  0.1950E+02
     -5.906  0.1365E+01  0.1953E+02
     -5.878  0.2821E+01  0.1959E+02
     -5.850  0.4278E+01  0.1969E+02
     -5.821  0.1863E+01  0.1976E+02
     -5.793  0.1958E+01  0.1982E+02
     -5.765  0.2053E+01  0.1987E+02
     -5.737  0.2148E+01  0.1993E+02
     -5.709  0.2243E+01  0.1999E+02
     -5.681  0.2338E+01  0.2006E+02
     -5.653  0.1699E+01  0.2011E+02
     -5.625  0.1675E+01  0.2016E+02
     -5.597  0.1651E+01  0.2021E+02
     -5.569  0.1676E+01  0.2026E+02
     -5.540  0.1708E+01  0.2030E+02
     -5.512  0.1741E+01  0.2035E+02
     -5.484  0.1774E+01  0.2040E+02
     -5.456  0.1806E+01  0.2045E+02
     -5.428  0.1778E+01  0.2050E+02
     -5.400  0.1741E+01  0.2055E+02
     -5.372  0.1703E+01  0.2060E+02
     -5.344  0.1666E+01  0.2065E+02
     -5.316  0.2465E+01  0.2070E+02
     -5.287  0.2527E+01  0.2076E+02
     -5.259  0.2852E+01  0.2084E+02
     -5.231  0.3375E+01  0.2093E+02
     -5.203  0.5693E+01  0.2104E+02
     -5.175  0.4130E+01  0.2117E+02
     -5.147  0.4769E+01  0.2130E+02
     -5.119  0.5408E+01  0.2144E+02
     -5.091  0.8381E+01  0.2162E+02
     -5.063  0.9813E+01  0.2188E+02
     -5.035  0.1121E+02  0.2217E+02
     -5.006  0.1030E+02  0.2248E+02
     -4.978  0.9231E+01  0.2278E+02
     -4.950  0.5621E+01  0.2297E+02
     -4.922  0.4439E+01  0.2311E+02
     -4.894  0.3565E+01  0.2322E+02
     -4.866  0.3358E+01  0.2332E+02
     -4.838  0.5443E+01  0.2344E+02
     -4.810  0.5218E+01  0.2361E+02
     -4.782  0.3363E+01  0.2373E+02
     -4.754  0.2289E+01  0.2380E+02
     -4.725  0.2311E+01  0.2387E+02
     -4.697  0.2334E+01  0.2393E+02
     -4.669  0.2356E+01  0.2400E+02
     -4.641  0.2379E+01  0.2406E+02
     -4.613  0.2401E+01  0.2413E+02
     -4.585  0.2424E+01  0.2420E+02
     -4.557  0.2385E+01  0.2427E+02
     -4.529  0.2423E+01  0.2433E+02
     -4.501  0.2460E+01  0.2440E+02
     -4.473  0.2498E+01  0.2447E+02
     -4.444  0.2551E+01  0.2454E+02
     -4.416  0.2551E+01  0.2461E+02
     -4.388  0.2555E+01  0.2469E+02
     -4.360  0.2567E+01  0.2476E+02
     -4.332  0.2571E+01  0.2483E+02
     -4.304  0.2565E+01  0.2490E+02
     -4.276  0.2560E+01  0.2497E+02
     -4.248  0.2564E+01  0.2505E+02
     -4.220  0.2587E+01  0.2512E+02
     -4.191  0.2610E+01  0.2519E+02
     -4.163  0.2642E+01  0.2527E+02
     -4.135  0.2685E+01  0.2534E+02
     -4.107  0.2728E+01  0.2542E+02
     -4.079  0.2798E+01  0.2549E+02
     -4.051  0.2906E+01  0.2557E+02
     -4.023  0.3030E+01  0.2566E+02
     -3.995  0.3108E+01  0.2574E+02
     -3.967  0.3150E+01  0.2583E+02
     -3.939  0.3183E+01  0.2592E+02
     -3.910  0.3211E+01  0.2601E+02
     -3.882  0.3239E+01  0.2610E+02
     -3.854  0.3356E+01  0.2619E+02
     -3.826  0.3399E+01  0.2629E+02
     -3.798  0.3441E+01  0.2639E+02
     -3.770  0.3484E+01  0.2648E+02
     -3.742  0.4337E+01  0.2660E+02
     -3.714  0.4379E+01  0.2672E+02
     -3.686  0.4422E+01  0.2684E+02
     -3.658  0.4339E+01  0.2696E+02
     -3.629  0.4277E+01  0.2709E+02
     -3.601  0.4595E+01  0.2721E+02
     -3.573  0.4709E+01  0.2734E+02
     -3.545  0.4861E+01  0.2748E+02
     -3.517  0.5005E+01  0.2761E+02
     -3.489  0.5149E+01  0.2776E+02
     -3.461  0.5255E+01  0.2790E+02
     -3.433  0.5346E+01  0.2805E+02
     -3.405  0.4629E+01  0.2820E+02
     -3.377  0.4492E+01  0.2832E+02
     -3.348  0.4503E+01  0.2845E+02
     -3.320  0.3825E+01  0.2857E+02
     -3.292  0.3253E+01  0.2867E+02
     -3.264  0.3453E+01  0.2876E+02
     -3.236  0.3365E+01  0.2886E+02
     -3.208  0.4303E+01  0.2898E+02
     -3.180  0.3320E+01  0.2909E+02
     -3.152  0.2018E+01  0.2919E+02
     -3.124  0.1468E+01  0.2923E+02
     -3.095  0.1411E+01  0.2927E+02
     -3.067  0.1355E+01  0.2931E+02
     -3.039  0.1298E+01  0.2935E+02
     -3.011  0.1248E+01  0.2939E+02
     -2.983  0.1246E+01  0.2942E+02
     -2.955  0.1253E+01  0.2946E+02
     -2.927  0.1333E+01  0.2949E+02
     -2.899  0.1306E+01  0.2953E+02
     -2.871  0.1277E+01  0.2956E+02
     -2.843  0.1238E+01  0.2960E+02
     -2.814  0.1199E+01  0.2963E+02
     -2.786  0.1159E+01  0.2967E+02
     -2.758  0.1120E+01  0.2970E+02
     -2.730  0.1080E+01  0.2973E+02
     -2.702  0.1139E+01  0.2976E+02
     -2.674  0.1204E+01  0.2979E+02
     -2.646  0.1139E+01  0.2983E+02
     -2.618  0.1075E+01  0.2986E+02
     -2.590  0.1207E+01  0.2989E+02
     -2.562  0.1038E+01  0.2992E+02
     -2.533  0.1450E+01  0.2995E+02
     -2.505  0.8406E+00  0.2998E+02
     -2.477  0.2308E+00  0.3000E+02
     -2.449  0.0000E+00  0.3000E+02
     -2.421  0.0000E+00  0.3000E+02
     -2.393  0.0000E+00  0.3000E+02
     -2.365  0.0000E+00  0.3000E+02
     -2.337  0.0000E+00  0.3000E+02
     -2.309  0.0000E+00  0.3000E+02
     -2.281  0.0000E+00  0.3000E+02
     -2.252  0.0000E+00  0.3000E+02
     -2.224  0.0000E+00  0.3000E+02
     -2.196  0.0000E+00  0.3000E+02
     -2.168  0.0000E+00  0.3000E+02
     -2.140  0.0000E+00  0.3000E+02
     -2.112  0.0000E+00  0.3000E+02
     -2.084  0.0000E+00  0.3000E+02
     -2.056  0.0000E+00  0.3000E+02
     -2.028  0.0000E+00  0.3000E+02
     -1.999  0.0000E+00  0.3000E+02
     -1.971  0.0000E+00  0.3000E+02
     -1.943  0.0000E+00  0.3000E+02
     -1.915  0.0000E+00  0.3000E+02
     -1.887  0.0000E+00  0.3000E+02
     -1.859  0.0000E+00  0.3000E+02
     -1.831  0.0000E+00  0.3000E+02
     -1.803  0.4036E+00  0.3000E+02
     -1.775  0.8416E+00  0.3002E+02
     -1.747  0.1050E+01  0.3005E+02
     -1.718  0.1258E+01  0.3008E+02
     -1.690  0.1466E+01  0.3012E+02
     -1.662  0.1664E+01  0.3016E+02
     -1.634  0.1832E+01  0.3021E+02
     -1.606  0.1999E+01  0.3027E+02
     -1.578  0.1900E+01  0.3032E+02
     -1.550  0.1830E+01  0.3038E+02
     -1.522  0.1846E+01  0.3043E+02
     -1.494  0.1885E+01  0.3048E+02
     -1.466  0.1988E+01  0.3053E+02
     -1.437  0.2254E+01  0.3059E+02
     -1.409  0.2424E+01  0.3066E+02
     -1.381  0.2594E+01  0.3073E+02
     -1.353  0.2764E+01  0.3081E+02
     -1.325  0.2934E+01  0.3089E+02
     -1.297  0.5963E+01  0.3099E+02
     -1.269  0.2529E+01  0.3109E+02
     -1.241  0.2595E+01  0.3116E+02
     -1.213  0.2662E+01  0.3123E+02
     -1.185  0.1952E+01  0.3130E+02
     -1.156  0.1847E+01  0.3135E+02
     -1.128  0.1732E+01  0.3140E+02
     -1.100  0.1543E+01  0.3145E+02
     -1.072  0.1396E+01  0.3149E+02
     -1.044  0.1332E+01  0.3153E+02
     -1.016  0.1268E+01  0.3156E+02
     -0.988  0.1203E+01  0.3160E+02
     -0.960  0.1139E+01  0.3163E+02
     -0.932  0.1074E+01  0.3166E+02
     -0.903  0.1010E+01  0.3169E+02
     -0.875  0.9456E+00  0.3172E+02
     -0.847  0.9082E+00  0.3174E+02
     -0.819  0.9206E+00  0.3177E+02
     -0.791  0.8564E+00  0.3180E+02
     -0.763  0.7923E+00  0.3182E+02
     -0.735  0.7281E+00  0.3184E+02
     -0.707  0.6639E+00  0.3186E+02
     -0.679  0.5998E+00  0.3188E+02
     -0.651  0.5356E+00  0.3189E+02
     -0.622  0.4893E+00  0.3191E+02
     -0.594  0.2925E+00  0.3192E+02
     -0.566  0.2776E+00  0.3193E+02
     -0.538  0.2627E+00  0.3194E+02
     -0.510  0.2478E+00  0.3194E+02
     -0.482  0.2328E+00  0.3195E+02
     -0.454  0.2179E+00  0.3196E+02
     -0.426  0.2030E+00  0.3196E+02
     -0.398  0.1880E+00  0.3197E+02
     -0.370  0.1731E+00  0.3197E+02
     -0.341  0.1582E+00  0.3198E+02
     -0.313  0.1432E+00  0.3198E+02
     -0.285  0.1283E+00  0.3198E+02
     -0.257  0.1134E+00  0.3199E+02
     -0.229  0.9842E-01  0.3199E+02
     -0.201  0.8349E-01  0.3199E+02
     -0.173  0.6855E-01  0.3200E+02
     -0.145  0.5362E-01  0.3200E+02
     -0.117  0.3869E-01  0.3200E+02
     -0.089  0.2375E-01  0.3200E+02
     -0.060  0.8820E-02  0.3200E+02
     -0.032  0.6145E-02  0.3200E+02
     -0.004  0.2122E-01  0.3200E+02
      0.024  0.3629E-01  0.3200E+02
      0.052  0.5136E-01  0.3200E+02
      0.080  0.6643E-01  0.3200E+02
      0.108  0.8150E-01  0.3201E+02
      0.136  0.9657E-01  0.3201E+02
      0.164  0.1116E+00  0.3201E+02
      0.193  0.1267E+00  0.3201E+02
      0.221  0.1418E+00  0.3202E+02
      0.249  0.1569E+00  0.3202E+02
      0.277  0.1719E+00  0.3203E+02
      0.305  0.1870E+00  0.3203E+02
      0.333  0.2021E+00  0.3204E+02
      0.361  0.2171E+00  0.3204E+02
      0.389  0.2322E+00  0.3205E+02
      0.417  0.2473E+00  0.3206E+02
      0.445  0.2624E+00  0.3206E+02
      0.474  0.2774E+00  0.3207E+02
      0.502  0.2925E+00  0.3208E+02
      0.530  0.5132E+00  0.3209E+02
      0.558  0.5160E+00  0.3211E+02
      0.586  0.5188E+00  0.3212E+02
      0.614  0.5216E+00  0.3214E+02
      0.642  0.5243E+00  0.3215E+02
      0.670  0.5271E+00  0.3216E+02
      0.698  0.5299E+00  0.3218E+02
      0.726  0.5327E+00  0.3219E+02
      0.755  0.5476E+00  0.3221E+02
      0.783  0.5993E+00  0.3223E+02
      0.811  0.6510E+00  0.3224E+02
      0.839  0.7027E+00  0.3226E+02
      0.867  0.7543E+00  0.3228E+02
      0.895  0.8060E+00  0.3230E+02
      0.923  0.8577E+00  0.3233E+02
      0.951  0.9094E+00  0.3235E+02
      0.979  0.9611E+00  0.3238E+02
      1.007  0.1013E+01  0.3241E+02
      1.036  0.1064E+01  0.3244E+02
      1.064  0.8975E+00  0.3246E+02
      1.092  0.1588E+01  0.3251E+02
      1.120  0.1763E+01  0.3256E+02
      1.148  0.2485E+01  0.3262E+02
      1.176  0.3468E+01  0.3271E+02
      1.204  0.3272E+01  0.3280E+02
      1.232  0.4374E+01  0.3290E+02
      1.260  0.3565E+01  0.3304E+02
      1.289  0.3010E+01  0.3313E+02
      1.317  0.2456E+01  0.3321E+02
      1.345  0.2242E+01  0.3327E+02
      1.373  0.2145E+01  0.3334E+02
      1.401  0.2058E+01  0.3340E+02
      1.429  0.1874E+01  0.3345E+02
      1.457  0.1790E+01  0.3350E+02
      1.485  0.1706E+01  0.3355E+02
      1.513  0.1622E+01  0.3360E+02
      1.541  0.1540E+01  0.3364E+02
      1.570  0.1502E+01  0.3368E+02
      1.598  0.1481E+01  0.3373E+02
      1.626  0.1461E+01  0.3377E+02
      1.654  0.1479E+01  0.3381E+02
      1.682  0.1424E+01  0.3385E+02
      1.710  0.1369E+01  0.3389E+02
      1.738  0.1313E+01  0.3393E+02
      1.766  0.1258E+01  0.3396E+02
      1.794  0.1222E+01  0.3400E+02
      1.822  0.1310E+01  0.3403E+02
      1.851  0.1399E+01  0.3407E+02
      1.879  0.1487E+01  0.3411E+02
      1.907  0.1641E+01  0.3416E+02
      1.935  0.1982E+01  0.3420E+02
      1.963  0.2849E+01  0.3427E+02
      1.991  0.1867E+01  0.3434E+02
      2.019  0.1738E+01  0.3439E+02
      2.047  0.1678E+01  0.3443E+02
      2.075  0.1734E+01  0.3448E+02
      2.103  0.1600E+01  0.3453E+02
      2.132  0.1485E+01  0.3457E+02
      2.160  0.1530E+01  0.3461E+02
      2.188  0.1576E+01  0.3466E+02
      2.216  0.1623E+01  0.3470E+02
      2.244  0.1670E+01  0.3475E+02
      2.272  0.1769E+01  0.3480E+02
      2.300  0.1931E+01  0.3485E+02
      2.328  0.1981E+01  0.3491E+02
      2.356  0.2030E+01  0.3496E+02
      2.385  0.2080E+01  0.3502E+02
      2.413  0.1996E+01  0.3508E+02
      2.441  0.1831E+01  0.3513E+02
      2.469  0.1867E+01  0.3518E+02
      2.497  0.1904E+01  0.3524E+02
      2.525  0.1940E+01  0.3529E+02
      2.553  0.1951E+01  0.3534E+02
      2.581  0.1884E+01  0.3540E+02
      2.609  0.1876E+01  0.3545E+02
      2.637  0.1922E+01  0.3550E+02
      2.666  0.1967E+01  0.3556E+02
      2.694  0.2013E+01  0.3561E+02
      2.722  0.2059E+01  0.3567E+02
      2.750  0.2108E+01  0.3573E+02
      2.778  0.2168E+01  0.3579E+02
      2.806  0.2228E+01  0.3585E+02
      2.834  0.2300E+01  0.3592E+02
      2.862  0.2429E+01  0.3598E+02
      2.890  0.2509E+01  0.3605E+02
      2.918  0.2493E+01  0.3612E+02
      2.947  0.2449E+01  0.3619E+02
      2.975  0.2404E+01  0.3626E+02
      3.003  0.2364E+01  0.3633E+02
      3.031  0.2350E+01  0.3639E+02
      3.059  0.2336E+01  0.3646E+02
      3.087  0.2322E+01  0.3652E+02
      3.115  0.2308E+01  0.3659E+02
      3.143  0.2319E+01  0.3665E+02
      3.171  0.2341E+01  0.3672E+02
      3.199  0.2363E+01  0.3679E+02
      3.228  0.2349E+01  0.3685E+02
      3.256  0.2336E+01  0.3692E+02
      3.284  0.2323E+01  0.3698E+02
      3.312  0.2305E+01  0.3705E+02
      3.340  0.2075E+01  0.3711E+02
      3.368  0.1984E+01  0.3717E+02