   8   8   1   0
  0.2469169E+02  0.5174038E-09  0.5174038E-09  0.8520222E-09  0.5000000E-15
  1.000000000000000E-004
  CAR 
 BC3                                     
      8.25100231    -19.81972033  301     -2.16339483      1.00000000
    -19.820  0.0000E+00  0.0000E+00
    -19.726  0.0000E+00  0.0000E+00
    -19.633  0.0000E+00  0.0000E+00
    -19.539  0.0000E+00  0.0000E+00
    -19.445  0.0000E+00  0.0000E+00
    -19.352  0.3795E-03  0.3551E-04
    -19.258  0.8303E-03  0.1132E-03
    -19.165  0.2635E-02  0.3598E-03
    -19.071  0.6548E-02  0.9724E-03
    -18.978  0.1656E-01  0.2522E-02
    -18.884  0.4182E-01  0.6435E-02
    -18.790  0.1043E+00  0.1620E-01
    -18.697  0.2442E+00  0.3905E-01
    -18.603  0.5241E+00  0.8809E-01
    -18.510  0.9630E+00  0.1782E+00
    -18.416  0.1469E+01  0.3156E+00
    -18.323  0.1926E+01  0.4958E+00
    -18.229  0.2328E+01  0.7136E+00
    -18.135  0.2712E+01  0.9674E+00
    -18.042  0.3010E+01  0.1249E+01
    -17.948  0.2957E+01  0.1526E+01
    -17.855  0.2349E+01  0.1746E+01
    -17.761  0.1452E+01  0.1881E+01
    -17.668  0.7276E+00  0.1950E+01
    -17.574  0.3195E+00  0.1980E+01
    -17.480  0.1309E+00  0.1992E+01
    -17.387  0.5148E-01  0.1997E+01
    -17.293  0.1933E-01  0.1999E+01
    -17.200  0.6851E-02  0.2000E+01
    -17.106  0.5852E-03  0.2000E+01
    -17.013  0.1016E-02  0.2000E+01
    -16.919  0.3291E-02  0.2000E+01
    -16.826  0.7574E-02  0.2001E+01
    -16.732  0.1942E-01  0.2003E+01
    -16.638  0.4845E-01  0.2007E+01
    -16.545  0.1211E+00  0.2019E+01
    -16.451  0.2888E+00  0.2046E+01
    -16.358  0.6357E+00  0.2105E+01
    -16.264  0.1208E+01  0.2218E+01
    -16.171  0.1875E+01  0.2394E+01
    -16.077  0.2357E+01  0.2614E+01
    -15.983  0.2478E+01  0.2846E+01
    -15.890  0.2322E+01  0.3064E+01
    -15.796  0.2131E+01  0.3263E+01
    -15.703  0.2047E+01  0.3454E+01
    -15.609  0.2051E+01  0.3646E+01
    -15.516  0.2123E+01  0.3845E+01
    -15.422  0.2290E+01  0.4059E+01
    -15.328  0.2516E+01  0.4295E+01
    -15.235  0.2750E+01  0.4552E+01
    -15.141  0.2943E+01  0.4828E+01
    -15.048  0.2949E+01  0.5104E+01
    -14.954  0.2679E+01  0.5355E+01
    -14.861  0.2250E+01  0.5565E+01
    -14.767  0.1787E+01  0.5733E+01
    -14.673  0.1298E+01  0.5854E+01
    -14.580  0.8073E+00  0.5930E+01
    -14.486  0.4206E+00  0.5970E+01
    -14.393  0.1908E+00  0.5988E+01
    -14.299  0.7870E-01  0.5995E+01
    -14.206  0.3071E-01  0.5998E+01
    -14.112  0.1079E-01  0.5999E+01
    -14.018  0.4254E-02  0.6000E+01
    -13.925  0.9420E-03  0.6000E+01
    -13.831  0.0000E+00  0.6000E+01
    -13.738  0.6109E-04  0.6000E+01
    -13.644  0.3273E-03  0.6000E+01
    -13.551  0.1198E-02  0.6000E+01
    -13.457  0.3155E-02  0.6000E+01
    -13.363  0.7845E-02  0.6001E+01
    -13.270  0.2006E-01  0.6003E+01
    -13.176  0.5117E-01  0.6008E+01
    -13.083  0.1241E+00  0.6019E+01
    -12.989  0.2886E+00  0.6046E+01
    -12.896  0.6075E+00  0.6103E+01
    -12.802  0.1097E+01  0.6206E+01
    -12.708  0.1665E+01  0.6362E+01
    -12.615  0.2145E+01  0.6562E+01
    -12.521  0.2463E+01  0.6793E+01
    -12.428  0.2711E+01  0.7046E+01
    -12.334  0.2842E+01  0.7312E+01
    -12.241  0.2603E+01  0.7556E+01
    -12.147  0.2078E+01  0.7750E+01
    -12.053  0.1688E+01  0.7908E+01
    -11.960  0.1574E+01  0.8056E+01
    -11.866  0.1555E+01  0.8201E+01
    -11.773  0.1445E+01  0.8337E+01
    -11.679  0.1293E+01  0.8458E+01
    -11.586  0.1299E+01  0.8579E+01
    -11.492  0.1514E+01  0.8721E+01
    -11.399  0.1711E+01  0.8882E+01
    -11.305  0.1719E+01  0.9042E+01
    -11.211  0.1703E+01  0.9202E+01
    -11.118  0.1781E+01  0.9369E+01
    -11.024  0.1809E+01  0.9538E+01
    -10.931  0.1669E+01  0.9694E+01
    -10.837  0.1498E+01  0.9834E+01
    -10.744  0.1410E+01  0.9966E+01
    -10.650  0.1287E+01  0.1009E+02
    -10.556  0.1032E+01  0.1018E+02
    -10.463  0.7977E+00  0.1026E+02
    -10.369  0.7076E+00  0.1032E+02
    -10.276  0.6761E+00  0.1039E+02
    -10.182  0.5936E+00  0.1044E+02
    -10.089  0.4782E+00  0.1049E+02
     -9.995  0.4230E+00  0.1053E+02
     -9.901  0.5227E+00  0.1058E+02
     -9.808  0.7866E+00  0.1065E+02
     -9.714  0.1055E+01  0.1075E+02
     -9.621  0.1153E+01  0.1086E+02
     -9.527  0.1173E+01  0.1097E+02
     -9.434  0.1252E+01  0.1108E+02
     -9.340  0.1370E+01  0.1121E+02
     -9.246  0.1525E+01  0.1136E+02
     -9.153  0.1807E+01  0.1152E+02
     -9.059  0.2135E+01  0.1172E+02
     -8.966  0.2261E+01  0.1194E+02
     -8.872  0.2097E+01  0.1213E+02
     -8.779  0.1787E+01  0.1230E+02
     -8.685  0.1546E+01  0.1244E+02
     -8.591  0.1569E+01  0.1259E+02
     -8.498  0.1985E+01  0.1278E+02
     -8.404  0.2564E+01  0.1302E+02
     -8.311  0.2735E+01  0.1327E+02
     -8.217  0.2343E+01  0.1349E+02
     -8.124  0.1879E+01  0.1367E+02
     -8.030  0.1764E+01  0.1383E+02
     -7.936  0.1899E+01  0.1401E+02
     -7.843  0.2041E+01  0.1420E+02
     -7.749  0.2222E+01  0.1441E+02
     -7.656  0.2508E+01  0.1464E+02
     -7.562  0.2661E+01  0.1489E+02
     -7.469  0.2525E+01  0.1513E+02
     -7.375  0.2435E+01  0.1536E+02
     -7.281  0.2574E+01  0.1560E+02
     -7.188  0.2662E+01  0.1585E+02
     -7.094  0.2569E+01  0.1609E+02
     -7.001  0.2440E+01  0.1632E+02
     -6.907  0.2353E+01  0.1654E+02
     -6.814  0.2403E+01  0.1676E+02
     -6.720  0.2671E+01  0.1701E+02
     -6.626  0.3131E+01  0.1731E+02
     -6.533  0.3591E+01  0.1764E+02
     -6.439  0.3802E+01  0.1800E+02
     -6.346  0.3803E+01  0.1835E+02
     -6.252  0.3694E+01  0.1870E+02
     -6.159  0.3345E+01  0.1901E+02
     -6.065  0.2791E+01  0.1927E+02
     -5.971  0.2325E+01  0.1949E+02
     -5.878  0.2067E+01  0.1969E+02
     -5.784  0.1912E+01  0.1986E+02
     -5.691  0.1854E+01  0.2004E+02
     -5.597  0.1870E+01  0.2021E+02
     -5.504  0.1947E+01  0.2040E+02
     -5.410  0.2240E+01  0.2061E+02
     -5.317  0.2845E+01  0.2087E+02
     -5.223  0.3757E+01  0.2122E+02
     -5.129  0.4871E+01  0.2168E+02
     -5.036  0.5811E+01  0.2222E+02
     -4.942  0.5977E+01  0.2278E+02
     -4.849  0.5296E+01  0.2328E+02
     -4.755  0.4242E+01  0.2368E+02
     -4.662  0.3283E+01  0.2398E+02
     -4.568  0.2806E+01  0.2424E+02
     -4.474  0.2754E+01  0.2450E+02
     -4.381  0.2703E+01  0.2476E+02
     -4.287  0.2490E+01  0.2499E+02
     -4.194  0.2412E+01  0.2522E+02
     -4.100  0.2684E+01  0.2547E+02
     -4.007  0.3090E+01  0.2576E+02
     -3.913  0.3317E+01  0.2607E+02
     -3.819  0.3388E+01  0.2638E+02
     -3.726  0.3557E+01  0.2672E+02
     -3.632  0.3960E+01  0.2709E+02
     -3.539  0.4303E+01  0.2749E+02
     -3.445  0.4337E+01  0.2790E+02
     -3.352  0.4209E+01  0.2829E+02
     -3.258  0.3881E+01  0.2865E+02
     -3.164  0.3204E+01  0.2895E+02
     -3.071  0.2422E+01  0.2918E+02
     -2.977  0.1887E+01  0.2936E+02
     -2.884  0.1563E+01  0.2950E+02
     -2.790  0.1303E+01  0.2963E+02
     -2.697  0.1126E+01  0.2973E+02
     -2.603  0.9928E+00  0.2982E+02
     -2.509  0.7990E+00  0.2990E+02
     -2.416  0.5404E+00  0.2995E+02
     -2.322  0.3049E+00  0.2998E+02
     -2.229  0.1575E+00  0.2999E+02
     -2.135  0.1023E+00  0.3000E+02
     -2.042  0.1266E+00  0.3001E+02
     -1.948  0.2431E+00  0.3004E+02
     -1.854  0.4714E+00  0.3008E+02
     -1.761  0.8036E+00  0.3016E+02
     -1.667  0.1203E+01  0.3027E+02
     -1.574  0.1615E+01  0.3042E+02
     -1.480  0.1896E+01  0.3060E+02
     -1.387  0.1992E+01  0.3078E+02
     -1.293  0.2056E+01  0.3098E+02
     -1.199  0.2124E+01  0.3118E+02
     -1.106  0.2005E+01  0.3136E+02
     -1.012  0.1615E+01  0.3151E+02
     -0.919  0.1186E+01  0.3163E+02
     -0.825  0.9182E+00  0.3171E+02
     -0.732  0.7664E+00  0.3178E+02
     -0.638  0.6782E+00  0.3185E+02
     -0.544  0.5784E+00  0.3190E+02
     -0.451  0.3990E+00  0.3194E+02
     -0.357  0.2242E+00  0.3196E+02
     -0.264  0.1290E+00  0.3197E+02
     -0.170  0.1127E+00  0.3198E+02
     -0.077  0.1376E+00  0.3200E+02
      0.017  0.1493E+00  0.3201E+02
      0.110  0.1261E+00  0.3202E+02
      0.204  0.1080E+00  0.3203E+02
      0.298  0.1436E+00  0.3204E+02
      0.391  0.2547E+00  0.3207E+02
      0.485  0.4138E+00  0.3211E+02
      0.578  0.5185E+00  0.3216E+02
      0.672  0.5326E+00  0.3221E+02
      0.765  0.5625E+00  0.3226E+02
      0.859  0.7101E+00  0.3232E+02
      0.953  0.1078E+01  0.3243E+02
      1.046  0.1639E+01  0.3258E+02
      1.140  0.2081E+01  0.3277E+02
      1.233  0.2196E+01  0.3298E+02
      1.327  0.2120E+01  0.3318E+02
      1.420  0.2004E+01  0.3337E+02
      1.514  0.1880E+01  0.3354E+02
      1.608  0.1738E+01  0.3370E+02
      1.701  0.1574E+01  0.3385E+02
      1.795  0.1516E+01  0.3399E+02
      1.888  0.1647E+01  0.3415E+02
      1.982  0.1810E+01  0.3432E+02
      2.075  0.1843E+01  0.3449E+02
      2.169  0.1820E+01  0.3466E+02
      2.263  0.1843E+01  0.3483E+02
      2.356  0.1911E+01  0.3501E+02
      2.450  0.1977E+01  0.3520E+02
      2.543  0.1991E+01  0.3538E+02
      2.637  0.1970E+01  0.3557E+02
      2.730  0.2034E+01  0.3576E+02
      2.824  0.2234E+01  0.3597E+02
      2.918  0.2328E+01  0.3618E+02
      3.011  0.2197E+01  0.3639E+02
      3.105  0.2072E+01  0.3658E+02
      3.198  0.2145E+01  0.3679E+02
      3.292  0.2323E+01  0.3700E+02
      3.385  0.2311E+01  0.3722E+02
      3.479  0.2023E+01  0.3741E+02
      3.573  0.1756E+01  0.3757E+02
      3.666  0.1741E+01  0.3774E+02
      3.760  0.1946E+01  0.3792E+02
      3.853  0.2144E+01  0.3812E+02
      3.947  0.2144E+01  0.3832E+02
      4.040  0.1980E+01  0.3850E+02
      4.134  0.1824E+01  0.3868E+02
      4.228  0.1793E+01  0.3884E+02
      4.321  0.1897E+01  0.3902E+02
      4.415  0.2070E+01  0.3921E+02
      4.508  0.2229E+01  0.3942E+02
      4.602  0.2378E+01  0.3965E+02
      4.695  0.2591E+01  0.3989E+02
      4.789  0.2795E+01  0.4015E+02
      4.883  0.2800E+01  0.4041E+02
      4.976  0.2690E+01  0.4066E+02
      5.070  0.2741E+01  0.4092E+02
      5.163  0.2912E+01  0.4119E+02
      5.257  0.2887E+01  0.4146E+02
      5.350  0.2665E+01  0.4171E+02
      5.444  0.2594E+01  0.4196E+02
      5.537  0.2792E+01  0.4222E+02
      5.631  0.3009E+01  0.4250E+02
      5.725  0.3053E+01  0.4278E+02
      5.818  0.3083E+01  0.4307E+02
      5.912  0.3274E+01  0.4338E+02
      6.005  0.3481E+01  0.4371E+02
      6.099  0.3559E+01  0.4404E+02
      6.192  0.3576E+01  0.4437E+02
      6.286  0.3692E+01  0.4472E+02
      6.380  0.4014E+01  0.4509E+02
      6.473  0.4527E+01  0.4552E+02
      6.567  0.4947E+01  0.4598E+02
      6.660  0.4912E+01  0.4644E+02
      6.754  0.4600E+01  0.4687E+02
      6.847  0.4118E+01  0.4726E+02
      6.941  0.3316E+01  0.4757E+02
      7.035  0.2278E+01  0.4778E+02
      7.128  0.1285E+01  0.4790E+02
      7.222  0.6115E+00  0.4796E+02
      7.315  0.2600E+00  0.4798E+02
      7.409  0.1034E+00  0.4799E+02
      7.502  0.4081E-01  0.4800E+02
      7.596  0.1278E-01  0.4800E+02
      7.690  0.4900E-02  0.4800E+02
      7.783  0.0000E+00  0.4800E+02
      7.877  0.0000E+00  0.4800E+02
      7.970  0.0000E+00  0.4800E+02
      8.064  0.0000E+00  0.4800E+02
      8.157  0.0000E+00  0.4800E+02
      8.251  0.0000E+00  0.4800E+02
      8.25100231    -19.81972033  301     -2.16339483      1.00000000
    -19.820  0.0000E+00  0.0000E+00  0.0000E+00  0.0000E+00  0.0000E+00  0.0000E+00  0.0000E+00  0.0000E+00  0.0000E+00
    -19.726  0.0000E+00  0.0000E+00  0.0000E+00  0.0000E+00  0.0000E+00  0.0000E+00  0.0000E+00  0.0000E+00  0.0000E+00
    -19.633  0.0000E+00  0.0000E+00  0.0000E+00  0.0000E+00  0.0000E+00  0.0000E+00  0.0000E+00  0.0000E+00  0.0000E+00
    -19.539  0.0000E+00  0.0000E+00  0.0000E+00  0.0000E+00  0.0000E+00  0.0000E+00  0.0000E+00  0.0000E+00  0.0000E+00
    -19.445  0.0000E+00  0.0000E+00  0.0000E+00  0.0000E+00  0.0000E+00  0.0000E+00  0.0000E+00  0.0000E+00  0.0000E+00
    -19.352  0.1013E-04  0.1651E-06  0.1830E-17  0.1782E-07  0.0000E+00  0.0000E+00  0.0000E+00  0.0000E+00  0.0000E+00
    -19.258  0.2170E-04  0.4848E-06  0.3055E-17  0.1040E-06  0.0000E+00  0.0000E+00  0.0000E+00  0.0000E+00  0.0000E+00
    -19.165  0.6605E-04  0.2589E-05  0.8320E-17  0.3913E-06  0.0000E+00  0.0000E+00  0.0000E+00  0.0000E+00  0.0000E+00
    -19.071  0.1620E-03  0.7157E-05  0.2304E-16  0.1019E-05  0.0000E+00  0.0000E+00  0.0000E+00  0.0000E+00  0.0000E+00
    -18.978  0.4075E-03  0.1852E-04  0.5661E-16  0.2884E-05  0.0000E+00  0.0000E+00  0.0000E+00  0.0000E+00  0.0000E+00
    -18.884  0.1024E-02  0.4828E-04  0.1448E-15  0.7704E-05  0.0000E+00  0.0000E+00  0.0000E+00  0.0000E+00  0.0000E+00
    -18.790  0.2521E-02  0.1290E-03  0.3539E-15  0.2216E-04  0.0000E+00  0.0000E+00  0.0000E+00  0.0000E+00  0.0000E+00
    -18.697  0.5895E-02  0.3064E-03  0.8321E-15  0.5121E-04  0.0000E+00  0.0000E+00  0.0000E+00  0.0000E+00  0.0000E+00
    -18.603  0.1246E-01  0.7198E-03  0.1769E-14  0.1201E-03  0.0000E+00  0.0000E+00  0.0000E+00  0.0000E+00  0.0000E+00
    -18.510  0.2215E-01  0.1560E-02  0.3148E-14  0.2628E-03  0.0000E+00  0.0000E+00  0.0000E+00  0.0000E+00  0.0000E+00
    -18.416  0.3171E-01  0.3020E-02  0.4495E-14  0.5255E-03  0.0000E+00  0.0000E+00  0.0000E+00  0.0000E+00  0.0000E+00
    -18.323  0.3738E-01  0.5206E-02  0.5500E-14  0.9706E-03  0.0000E+00  0.0000E+00  0.0000E+00  0.0000E+00  0.0000E+00
    -18.229  0.3850E-01  0.8137E-02  0.6315E-14  0.1686E-02  0.0000E+00  0.0000E+00  0.0000E+00  0.0000E+00  0.0000E+00
    -18.135  0.3624E-01  0.1165E-01  0.6595E-14  0.2745E-02  0.0000E+00  0.0000E+00  0.0000E+00  0.0000E+00  0.0000E+00
    -18.042  0.3136E-01  0.1489E-01  0.5783E-14  0.4013E-02  0.0000E+00  0.0000E+00  0.0000E+00  0.0000E+00  0.0000E+00
    -17.948  0.2408E-01  0.1590E-01  0.3989E-14  0.4847E-02  0.0000E+00  0.0000E+00  0.0000E+00  0.0000E+00  0.0000E+00
    -17.855  0.1557E-01  0.1315E-01  0.2162E-14  0.4443E-02  0.0000E+00  0.0000E+00  0.0000E+00  0.0000E+00  0.0000E+00
    -17.761  0.8331E-02  0.8270E-02  0.9906E-15  0.3007E-02  0.0000E+00  0.0000E+00  0.0000E+00  0.0000E+00  0.0000E+00
    -17.668  0.3832E-02  0.4170E-02  0.4147E-15  0.1583E-02  0.0000E+00  0.0000E+00  0.0000E+00  0.0000E+00  0.0000E+00
    -17.574  0.1607E-02  0.1837E-02  0.1652E-15  0.7128E-03  0.0000E+00  0.0000E+00  0.0000E+00  0.0000E+00  0.0000E+00
    -17.480  0.6341E-03  0.7556E-03  0.6417E-16  0.2963E-03  0.0000E+00  0.0000E+00  0.0000E+00  0.0000E+00  0.0000E+00
    -17.387  0.2363E-03  0.2993E-03  0.2117E-16  0.1187E-03  0.0000E+00  0.0000E+00  0.0000E+00  0.0000E+00  0.0000E+00
    -17.293  0.7984E-04  0.1135E-03  0.6188E-17  0.4621E-04  0.0000E+00  0.0000E+00  0.0000E+00  0.0000E+00  0.0000E+00
    -17.200  0.2406E-04  0.4073E-04  0.3361E-20  0.1715E-04  0.0000E+00  0.0000E+00  0.0000E+00  0.0000E+00  0.0000E+00
    -17.106  0.1866E-04  0.2083E-05  0.9994E-20  0.1633E-05  0.0000E+00  0.0000E+00  0.0000E+00  0.0000E+00  0.0000E+00
    -17.013  0.4895E-04  0.3357E-05  0.1646E-19  0.1791E-05  0.0000E+00  0.0000E+00  0.0000E+00  0.0000E+00  0.0000E+00
    -16.919  0.1532E-03  0.9445E-05  0.6934E-19  0.9261E-05  0.0000E+00  0.0000E+00  0.0000E+00  0.0000E+00  0.0000E+00
    -16.826  0.3543E-03  0.2196E-04  0.1481E-18  0.2047E-04  0.0000E+00  0.0000E+00  0.0000E+00  0.0000E+00  0.0000E+00
    -16.732  0.9046E-03  0.5684E-04  0.4305E-18  0.5248E-04  0.0000E+00  0.0000E+00  0.0000E+00  0.0000E+00  0.0000E+00
    -16.638  0.2262E-02  0.1417E-03  0.1033E-17  0.1299E-03  0.0000E+00  0.0000E+00  0.0000E+00  0.0000E+00  0.0000E+00
    -16.545  0.5633E-02  0.3560E-03  0.2576E-17  0.3301E-03  0.0000E+00  0.0000E+00  0.0000E+00  0.0000E+00  0.0000E+00
    -16.451  0.1341E-01  0.8457E-03  0.6215E-17  0.8004E-03  0.0000E+00  0.0000E+00  0.0000E+00  0.0000E+00  0.0000E+00
    -16.358  0.2935E-01  0.1851E-02  0.1395E-16  0.1836E-02  0.0000E+00  0.0000E+00  0.0000E+00  0.0000E+00  0.0000E+00
    -16.264  0.5509E-01  0.3474E-02  0.2766E-16  0.3781E-02  0.0000E+00  0.0000E+00  0.0000E+00  0.0000E+00  0.0000E+00
    -16.171  0.8360E-01  0.5272E-02  0.4762E-16  0.6644E-02  0.0000E+00  0.0000E+00  0.0000E+00  0.0000E+00  0.0000E+00
    -16.077  0.1017E+00  0.6508E-02  0.7209E-16  0.9641E-02  0.0000E+00  0.0000E+00  0.0000E+00  0.0000E+00  0.0000E+00
    -15.983  0.1021E+00  0.7044E-02  0.9610E-16  0.1148E-01  0.0000E+00  0.0000E+00  0.0000E+00  0.0000E+00  0.0000E+00
    -15.890  0.8968E-01  0.7387E-02  0.1073E-15  0.1190E-01  0.0000E+00  0.0000E+00  0.0000E+00  0.0000E+00  0.0000E+00
    -15.796  0.7542E-01  0.8179E-02  0.9954E-16  0.1197E-01  0.0000E+00  0.0000E+00  0.0000E+00  0.0000E+00  0.0000E+00
    -15.703  0.6518E-01  0.9623E-02  0.8598E-16  0.1258E-01  0.0000E+00  0.0000E+00  0.0000E+00  0.0000E+00  0.0000E+00
    -15.609  0.5785E-01  0.1137E-01  0.9509E-16  0.1387E-01  0.0000E+00  0.0000E+00  0.0000E+00  0.0000E+00  0.0000E+00
    -15.516  0.5169E-01  0.1340E-01  0.1515E-15  0.1608E-01  0.0000E+00  0.0000E+00  0.0000E+00  0.0000E+00  0.0000E+00
    -15.422  0.4677E-01  0.1588E-01  0.2683E-15  0.1953E-01  0.0000E+00  0.0000E+00  0.0000E+00  0.0000E+00  0.0000E+00
    -15.328  0.4180E-01  0.1847E-01  0.4043E-15  0.2396E-01  0.0000E+00  0.0000E+00  0.0000E+00  0.0000E+00  0.0000E+00
    -15.235  0.3533E-01  0.2080E-01  0.4467E-15  0.2920E-01  0.0000E+00  0.0000E+00  0.0000E+00  0.0000E+00  0.0000E+00
    -15.141  0.2818E-01  0.2252E-01  0.3662E-15  0.3388E-01  0.0000E+00  0.0000E+00  0.0000E+00  0.0000E+00  0.0000E+00
    -15.048  0.2145E-01  0.2251E-01  0.2495E-15  0.3502E-01  0.0000E+00  0.0000E+00  0.0000E+00  0.0000E+00  0.0000E+00
    -14.954  0.1516E-01  0.2004E-01  0.1528E-15  0.3169E-01  0.0000E+00  0.0000E+00  0.0000E+00  0.0000E+00  0.0000E+00
    -14.861  0.9718E-02  0.1618E-01  0.8428E-16  0.2598E-01  0.0000E+00  0.0000E+00  0.0000E+00  0.0000E+00  0.0000E+00
    -14.767  0.5766E-02  0.1220E-01  0.4161E-16  0.1987E-01  0.0000E+00  0.0000E+00  0.0000E+00  0.0000E+00  0.0000E+00
    -14.673  0.3172E-02  0.8396E-02  0.1910E-16  0.1389E-01  0.0000E+00  0.0000E+00  0.0000E+00  0.0000E+00  0.0000E+00
    -14.580  0.1555E-02  0.4995E-02  0.8438E-17  0.8400E-02  0.0000E+00  0.0000E+00  0.0000E+00  0.0000E+00  0.0000E+00
    -14.486  0.6694E-03  0.2531E-02  0.2980E-17  0.4308E-02  0.0000E+00  0.0000E+00  0.0000E+00  0.0000E+00  0.0000E+00
    -14.393  0.2738E-03  0.1133E-02  0.1238E-17  0.1932E-02  0.0000E+00  0.0000E+00  0.0000E+00  0.0000E+00  0.0000E+00
    -14.299  0.9775E-04  0.4611E-03  0.4068E-18  0.7933E-03  0.0000E+00  0.0000E+00  0.0000E+00  0.0000E+00  0.0000E+00
    -14.206  0.3614E-04  0.1783E-03  0.9364E-19  0.3035E-03  0.0000E+00  0.0000E+00  0.0000E+00  0.0000E+00  0.0000E+00
    -14.112  0.9426E-05  0.6054E-04  0.2277E-19  0.1040E-03  0.0000E+00  0.0000E+00  0.0000E+00  0.0000E+00  0.0000E+00
    -14.018  0.3707E-05  0.2387E-04  0.8982E-20  0.4101E-04  0.0000E+00  0.0000E+00  0.0000E+00  0.0000E+00  0.0000E+00
    -13.925  0.1933E-12  0.4524E-05  0.2681E-20  0.9217E-05  0.0000E+00  0.0000E+00  0.0000E+00  0.0000E+00  0.0000E+00
    -13.831  0.0000E+00  0.0000E+00  0.0000E+00  0.0000E+00  0.0000E+00  0.0000E+00  0.0000E+00  0.0000E+00  0.0000E+00
    -13.738  0.5586E-05  0.4507E-07  0.1111E-25  0.1502E-07  0.0000E+00  0.0000E+00  0.0000E+00  0.0000E+00  0.0000E+00
    -13.644  0.2932E-04  0.5255E-06  0.5316E-23  0.1751E-06  0.0000E+00  0.0000E+00  0.0000E+00  0.0000E+00  0.0000E+00
    -13.551  0.1034E-03  0.2550E-05  0.2420E-19  0.1658E-05  0.0000E+00  0.0000E+00  0.0000E+00  0.0000E+00  0.0000E+00
    -13.457  0.2673E-03  0.7918E-05  0.6163E-19  0.5821E-05  0.0000E+00  0.0000E+00  0.0000E+00  0.0000E+00  0.0000E+00
    -13.363  0.6625E-03  0.2023E-04  0.1335E-18  0.1480E-04  0.0000E+00  0.0000E+00  0.0000E+00  0.0000E+00  0.0000E+00
    -13.270  0.1676E-02  0.6129E-04  0.3510E-18  0.3894E-04  0.0000E+00  0.0000E+00  0.0000E+00  0.0000E+00  0.0000E+00
    -13.176  0.4247E-02  0.1617E-03  0.9954E-18  0.1041E-03  0.0000E+00  0.0000E+00  0.0000E+00  0.0000E+00  0.0000E+00
    -13.083  0.1031E-01  0.3849E-03  0.2371E-17  0.2564E-03  0.0000E+00  0.0000E+00  0.0000E+00  0.0000E+00  0.0000E+00
    -12.989  0.2386E-01  0.9278E-03  0.5764E-17  0.6218E-03  0.0000E+00  0.0000E+00  0.0000E+00  0.0000E+00  0.0000E+00
    -12.896  0.4958E-01  0.2110E-02  0.1314E-16  0.1458E-02  0.0000E+00  0.0000E+00  0.0000E+00  0.0000E+00  0.0000E+00
    -12.802  0.8738E-01  0.4379E-02  0.2635E-16  0.3093E-02  0.0000E+00  0.0000E+00  0.0000E+00  0.0000E+00  0.0000E+00
    -12.708  0.1273E+00  0.8200E-02  0.4349E-16  0.5755E-02  0.0000E+00  0.0000E+00  0.0000E+00  0.0000E+00  0.0000E+00
    -12.615  0.1538E+00  0.1396E-01  0.5994E-16  0.9157E-02  0.0000E+00  0.0000E+00  0.0000E+00  0.0000E+00  0.0000E+00
    -12.521  0.1608E+00  0.2152E-01  0.8059E-16  0.1297E-01  0.0000E+00  0.0000E+00  0.0000E+00  0.0000E+00  0.0000E+00
    -12.428  0.1591E+00  0.2893E-01  0.1195E-15  0.1751E-01  0.0000E+00  0.0000E+00  0.0000E+00  0.0000E+00  0.0000E+00
    -12.334  0.1532E+00  0.3167E-01  0.1703E-15  0.2270E-01  0.0000E+00  0.0000E+00  0.0000E+00  0.0000E+00  0.0000E+00
    -12.241  0.1303E+00  0.2692E-01  0.1862E-15  0.2702E-01  0.0000E+00  0.0000E+00  0.0000E+00  0.0000E+00  0.0000E+00
    -12.147  0.9351E-01  0.1828E-01  0.1414E-15  0.2964E-01  0.0000E+00  0.0000E+00  0.0000E+00  0.0000E+00  0.0000E+00
    -12.053  0.6644E-01  0.1126E-01  0.7879E-16  0.3172E-01  0.0000E+00  0.0000E+00  0.0000E+00  0.0000E+00  0.0000E+00
    -11.960  0.5574E-01  0.7676E-02  0.3642E-16  0.3444E-01  0.0000E+00  0.0000E+00  0.0000E+00  0.0000E+00  0.0000E+00
    -11.866  0.5007E-01  0.6162E-02  0.1549E-16  0.3759E-01  0.0000E+00  0.0000E+00  0.0000E+00  0.0000E+00  0.0000E+00
    -11.773  0.4111E-01  0.5060E-02  0.6509E-17  0.3871E-01  0.0000E+00  0.0000E+00  0.0000E+00  0.0000E+00  0.0000E+00
    -11.679  0.3221E-01  0.4357E-02  0.2911E-17  0.3715E-01  0.0000E+00  0.0000E+00  0.0000E+00  0.0000E+00  0.0000E+00
    -11.586  0.2993E-01  0.4552E-02  0.1580E-17  0.3753E-01  0.0000E+00  0.0000E+00  0.0000E+00  0.0000E+00  0.0000E+00
    -11.492  0.3540E-01  0.5108E-02  0.9607E-18  0.4253E-01  0.0000E+00  0.0000E+00  0.0000E+00  0.0000E+00  0.0000E+00
    -11.399  0.4386E-01  0.5075E-02  0.1438E-17  0.4615E-01  0.0000E+00  0.0000E+00  0.0000E+00  0.0000E+00  0.0000E+00
    -11.305  0.5085E-01  0.4653E-02  0.2213E-17  0.4275E-01  0.0000E+00  0.0000E+00  0.0000E+00  0.0000E+00  0.0000E+00
    -11.211  0.5794E-01  0.4766E-02  0.3701E-17  0.3774E-01  0.0000E+00  0.0000E+00  0.0000E+00  0.0000E+00  0.0000E+00
    -11.118  0.6419E-01  0.5515E-02  0.5782E-17  0.3690E-01  0.0000E+00  0.0000E+00  0.0000E+00  0.0000E+00  0.0000E+00
    -11.024  0.6495E-01  0.6221E-02  0.7135E-17  0.3689E-01  0.0000E+00  0.0000E+00  0.0000E+00  0.0000E+00  0.0000E+00
    -10.931  0.6125E-01  0.6580E-02  0.6790E-17  0.3268E-01  0.0000E+00  0.0000E+00  0.0000E+00  0.0000E+00  0.0000E+00
    -10.837  0.5967E-01  0.7013E-02  0.5430E-17  0.2659E-01  0.0000E+00  0.0000E+00  0.0000E+00  0.0000E+00  0.0000E+00
    -10.744  0.5821E-01  0.7547E-02  0.3841E-17  0.2330E-01  0.0000E+00  0.0000E+00  0.0000E+00  0.0000E+00  0.0000E+00
    -10.650  0.5064E-01  0.7485E-02  0.2297E-17  0.2128E-01  0.0000E+00  0.0000E+00  0.0000E+00  0.0000E+00  0.0000E+00
    -10.556  0.4042E-01  0.6597E-02  0.1162E-17  0.1669E-01  0.0000E+00  0.0000E+00  0.0000E+00  0.0000E+00  0.0000E+00
    -10.463  0.3798E-01  0.5990E-02  0.5410E-18  0.1085E-01  0.0000E+00  0.0000E+00  0.0000E+00  0.0000E+00  0.0000E+00
    -10.369  0.4613E-01  0.6338E-02  0.2789E-18  0.6289E-02  0.0000E+00  0.0000E+00  0.0000E+00  0.0000E+00  0.0000E+00
    -10.276  0.5415E-01  0.6646E-02  0.1996E-18  0.3572E-02  0.0000E+00  0.0000E+00  0.0000E+00  0.0000E+00  0.0000E+00
    -10.182  0.5282E-01  0.5985E-02  0.2173E-18  0.2185E-02  0.0000E+00  0.0000E+00  0.0000E+00  0.0000E+00  0.0000E+00
    -10.089  0.4606E-01  0.4906E-02  0.3001E-18  0.1440E-02  0.0000E+00  0.0000E+00  0.0000E+00  0.0000E+00  0.0000E+00
     -9.995  0.4433E-01  0.4717E-02  0.4976E-18  0.1086E-02  0.0000E+00  0.0000E+00  0.0000E+00  0.0000E+00  0.0000E+00
     -9.901  0.5750E-01  0.6662E-02  0.9529E-18  0.1196E-02  0.0000E+00  0.0000E+00  0.0000E+00  0.0000E+00  0.0000E+00
     -9.808  0.8521E-01  0.1111E-01  0.1650E-17  0.1935E-02  0.0000E+00  0.0000E+00  0.0000E+00  0.0000E+00  0.0000E+00
     -9.714  0.1097E+00  0.1613E-01  0.2181E-17  0.3308E-02  0.0000E+00  0.0000E+00  0.0000E+00  0.0000E+00  0.0000E+00
     -9.621  0.1127E+00  0.1954E-01  0.2124E-17  0.5390E-02  0.0000E+00  0.0000E+00  0.0000E+00  0.0000E+00  0.0000E+00
     -9.527  0.1050E+00  0.2303E-01  0.1753E-17  0.8310E-02  0.0000E+00  0.0000E+00  0.0000E+00  0.0000E+00  0.0000E+00
     -9.434  0.1002E+00  0.2863E-01  0.1490E-17  0.1171E-01  0.0000E+00  0.0000E+00  0.0000E+00  0.0000E+00  0.0000E+00
     -9.340  0.9682E-01  0.3498E-01  0.1604E-17  0.1428E-01  0.0000E+00  0.0000E+00  0.0000E+00  0.0000E+00  0.0000E+00
     -9.246  0.9630E-01  0.4149E-01  0.2326E-17  0.1481E-01  0.0000E+00  0.0000E+00  0.0000E+00  0.0000E+00  0.0000E+00
     -9.153  0.1049E+00  0.5134E-01  0.3527E-17  0.1461E-01  0.0000E+00  0.0000E+00  0.0000E+00  0.0000E+00  0.0000E+00
     -9.059  0.1204E+00  0.6249E-01  0.4269E-17  0.1506E-01  0.0000E+00  0.0000E+00  0.0000E+00  0.0000E+00  0.0000E+00
     -8.966  0.1290E+00  0.6643E-01  0.3818E-17  0.1592E-01  0.0000E+00  0.0000E+00  0.0000E+00  0.0000E+00  0.0000E+00
     -8.872  0.1206E+00  0.5922E-01  0.2961E-17  0.1644E-01  0.0000E+00  0.0000E+00  0.0000E+00  0.0000E+00  0.0000E+00
     -8.779  0.1006E+00  0.4611E-01  0.2643E-17  0.1615E-01  0.0000E+00  0.0000E+00  0.0000E+00  0.0000E+00  0.0000E+00
     -8.685  0.8699E-01  0.3470E-01  0.2791E-17  0.1490E-01  0.0000E+00  0.0000E+00  0.0000E+00  0.0000E+00  0.0000E+00
     -8.591  0.9210E-01  0.2935E-01  0.3005E-17  0.1377E-01  0.0000E+00  0.0000E+00  0.0000E+00  0.0000E+00  0.0000E+00
     -8.498  0.1213E+00  0.3263E-01  0.3663E-17  0.1456E-01  0.0000E+00  0.0000E+00  0.0000E+00  0.0000E+00  0.0000E+00
     -8.404  0.1602E+00  0.4137E-01  0.5048E-17  0.1667E-01  0.0000E+00  0.0000E+00  0.0000E+00  0.0000E+00  0.0000E+00
     -8.311  0.1735E+00  0.4546E-01  0.6347E-17  0.1702E-01  0.0000E+00  0.0000E+00  0.0000E+00  0.0000E+00  0.0000E+00
     -8.217  0.1475E+00  0.3989E-01  0.7960E-06  0.1488E-01  0.0000E+00  0.0000E+00  0.0000E+00  0.0000E+00  0.0000E+00
     -8.124  0.1086E+00  0.3191E-01  0.9203E-05  0.1315E-01  0.0000E+00  0.0000E+00  0.0000E+00  0.0000E+00  0.0000E+00
     -8.030  0.8867E-01  0.3053E-01  0.2998E-04  0.1381E-01  0.0000E+00  0.0000E+00  0.0000E+00  0.0000E+00  0.0000E+00
     -7.936  0.8934E-01  0.3614E-01  0.7024E-04  0.1567E-01  0.0000E+00  0.0000E+00  0.0000E+00  0.0000E+00  0.0000E+00
     -7.843  0.9853E-01  0.4492E-01  0.1748E-03  0.1736E-01  0.0000E+00  0.0000E+00  0.0000E+00  0.0000E+00  0.0000E+00
     -7.749  0.1110E+00  0.5382E-01  0.4411E-03  0.1970E-01  0.0000E+00  0.0000E+00  0.0000E+00  0.0000E+00  0.0000E+00
     -7.656  0.1191E+00  0.6095E-01  0.1111E-02  0.2350E-01  0.0000E+00  0.0000E+00  0.0000E+00  0.0000E+00  0.0000E+00
     -7.562  0.1109E+00  0.6240E-01  0.2696E-02  0.2609E-01  0.0000E+00  0.0000E+00  0.0000E+00  0.0000E+00  0.0000E+00
     -7.469  0.8736E-01  0.5435E-01  0.6162E-02  0.2426E-01  0.0000E+00  0.0000E+00  0.0000E+00  0.0000E+00  0.0000E+00
     -7.375  0.6975E-01  0.4395E-01  0.1245E-01  0.2096E-01  0.0000E+00  0.0000E+00  0.0000E+00  0.0000E+00  0.0000E+00
     -7.281  0.6724E-01  0.3750E-01  0.2086E-01  0.1946E-01  0.0000E+00  0.0000E+00  0.0000E+00  0.0000E+00  0.0000E+00
     -7.188  0.6761E-01  0.3145E-01  0.2843E-01  0.1814E-01  0.0000E+00  0.0000E+00  0.0000E+00  0.0000E+00  0.0000E+00
     -7.094  0.6346E-01  0.2463E-01  0.3302E-01  0.1630E-01  0.0000E+00  0.0000E+00  0.0000E+00  0.0000E+00  0.0000E+00
     -7.001  0.5923E-01  0.2190E-01  0.3487E-01  0.1568E-01  0.0000E+00  0.0000E+00  0.0000E+00  0.0000E+00  0.0000E+00
     -6.907  0.5432E-01  0.2644E-01  0.3511E-01  0.1607E-01  0.0000E+00  0.0000E+00  0.0000E+00  0.0000E+00  0.0000E+00
     -6.814  0.5148E-01  0.3975E-01  0.3476E-01  0.1788E-01  0.0000E+00  0.0000E+00  0.0000E+00  0.0000E+00  0.0000E+00
     -6.720  0.5720E-01  0.6103E-01  0.3362E-01  0.2234E-01  0.0000E+00  0.0000E+00  0.0000E+00  0.0000E+00  0.0000E+00
     -6.626  0.7155E-01  0.8480E-01  0.3246E-01  0.2811E-01  0.0000E+00  0.0000E+00  0.0000E+00  0.0000E+00  0.0000E+00
     -6.533  0.8796E-01  0.1015E+00  0.3130E-01  0.3208E-01  0.0000E+00  0.0000E+00  0.0000E+00  0.0000E+00  0.0000E+00
     -6.439  0.9420E-01  0.1032E+00  0.2904E-01  0.3184E-01  0.0000E+00  0.0000E+00  0.0000E+00  0.0000E+00  0.0000E+00
     -6.346  0.8779E-01  0.9557E-01  0.2636E-01  0.2877E-01  0.0000E+00  0.0000E+00  0.0000E+00  0.0000E+00  0.0000E+00
     -6.252  0.7868E-01  0.9273E-01  0.2254E-01  0.2706E-01  0.0000E+00  0.0000E+00  0.0000E+00  0.0000E+00  0.0000E+00
     -6.159  0.6644E-01  0.9650E-01  0.1664E-01  0.2763E-01  0.0000E+00  0.0000E+00  0.0000E+00  0.0000E+00  0.0000E+00
     -6.065  0.4850E-01  0.1059E+00  0.1041E-01  0.2974E-01  0.0000E+00  0.0000E+00  0.0000E+00  0.0000E+00  0.0000E+00
     -5.971  0.3339E-01  0.1268E+00  0.5581E-02  0.3395E-01  0.0000E+00  0.0000E+00  0.0000E+00  0.0000E+00  0.0000E+00
     -5.878  0.2604E-01  0.1508E+00  0.2729E-02  0.3697E-01  0.0000E+00  0.0000E+00  0.0000E+00  0.0000E+00  0.0000E+00
     -5.784  0.2444E-01  0.1615E+00  0.1483E-02  0.3591E-01  0.0000E+00  0.0000E+00  0.0000E+00  0.0000E+00  0.0000E+00
     -5.691  0.2612E-01  0.1623E+00  0.1444E-02  0.3492E-01  0.0000E+00  0.0000E+00  0.0000E+00  0.0000E+00  0.0000E+00
     -5.597  0.2689E-01  0.1585E+00  0.2693E-02  0.3717E-01  0.0000E+00  0.0000E+00  0.0000E+00  0.0000E+00  0.0000E+00
     -5.504  0.2451E-01  0.1507E+00  0.6162E-02  0.4529E-01  0.0000E+00  0.0000E+00  0.0000E+00  0.0000E+00  0.0000E+00
     -5.410  0.2180E-01  0.1455E+00  0.1384E-01  0.6733E-01  0.0000E+00  0.0000E+00  0.0000E+00  0.0000E+00  0.0000E+00
     -5.317  0.2052E-01  0.1421E+00  0.2753E-01  0.1106E+00  0.0000E+00  0.0000E+00  0.0000E+00  0.0000E+00  0.0000E+00
     -5.223  0.2097E-01  0.1396E+00  0.4536E-01  0.1778E+00  0.0000E+00  0.0000E+00  0.0000E+00  0.0000E+00  0.0000E+00