    8    8    1    1
  0.2469169E+02  0.5174038E-09  0.5174038E-09  0.8520221E-09  0.5000000E-15
  1.000000000000000E-004
  CAR 
 BC3                                     
     30     19     24
 
  0.0000000E+00  0.0000000E+00  0.0000000E+00  0.6944444E-02
    1      -18.540463   1.000000
    2      -14.648954   1.000000
    3      -14.648901   1.000000
    4      -12.299231   1.000000
    5      -12.299169   1.000000
    6      -11.230753   1.000000
    7       -9.913417   1.000000
    8       -7.345252   1.000000
    9       -7.124977   1.000000
   10       -4.970975   1.000000
   11       -4.970956   1.000000
   12       -3.149363   1.000000
   13       -3.149326   1.000000
   14       -2.466686   0.999997
   15       -2.466582   0.999997
   16       -0.631364   0.000000
   17        1.101097   0.000000
   18        1.101138   0.000000
   19        1.790619   0.000000
   20        1.921237   0.000000
   21        4.520667   0.000000
   22        5.911945   0.000000
   23        6.315103   0.000000
   24        6.315123   0.000000
 
  0.8333333E-01  0.6938894E-17  0.0000000E+00  0.4166667E-01
    1      -18.513353   1.000000
    2      -14.781043   1.000000
    3      -14.691303   1.000000
    4      -12.338409   1.000000
    5      -12.200774   1.000000
    6      -11.096175   1.000000
    7       -9.753019   1.000000
    8       -7.304052   1.000000
    9       -7.182285   1.000000
   10       -5.094397   1.000000
   11       -4.993440   1.000000
   12       -3.273827   1.000000
   13       -3.169779   1.000000
   14       -2.609238   1.000000
   15       -2.535397   1.000000
   16       -0.836052   0.000000
   17        1.160430   0.000000
   18        1.411541   0.000000
   19        1.915335   0.000000
   20        1.972971   0.000000
   21        4.572782   0.000000
   22        5.968148   0.000000
   23        6.386617   0.000000
   24        6.478106   0.000000
 
  0.1666667E+00  0.0000000E+00  0.0000000E+00  0.4166667E-01
    1      -18.434283   1.000000
    2      -15.106031   1.000000
    3      -14.795531   1.000000
    4      -12.454893   1.000000
    5      -11.931668   1.000000
    6      -10.714966   1.000000
    7       -9.323612   1.000000
    8       -7.364602   1.000000
    9       -7.181654   1.000000
   10       -5.440385   1.000000
   11       -5.029602   1.000000
   12       -3.615776   1.000000
   13       -3.224064   1.000000
   14       -3.016467   1.000000
   15       -2.727161   1.000000
   16       -1.183859   0.000000
   17        1.323765   0.000000
   18        1.888083   0.000000
   19        2.127708   0.000000
   20        2.435798   0.000000
   21        4.729431   0.000000
   22        6.122972   0.000000
   23        6.555058   0.000000
   24        6.959356   0.000000
 
  0.2500000E+00 -0.1387779E-16  0.0000000E+00  0.4166667E-01
    1      -18.311250   1.000000
    2      -15.502570   1.000000
    3      -14.917874   1.000000
    4      -12.602594   1.000000
    5      -11.547140   1.000000
    6      -10.172413   1.000000
    7       -8.713859   1.000000
    8       -7.678285   1.000000
    9       -6.982336   1.000000
   10       -5.947330   1.000000
   11       -5.020756   1.000000
   12       -4.093062   1.000000
   13       -3.634009   1.000000
   14       -3.294196   1.000000
   15       -3.002818   1.000000
   16       -1.470653   0.000000
   17        1.552156   0.000000
   18        2.244534   0.000000
   19        2.384507   0.000000
   20        3.318980   0.000000
   21        4.992678   0.000000
   22        6.020640   0.000000
   23        6.357516   0.000000
   24        6.750946   0.000000
 
  0.3333333E+00 -0.8326673E-16  0.0000000E+00  0.4166667E-01
    1      -18.162696   1.000000
    2      -15.879790   1.000000
    3      -15.023981   1.000000
    4      -12.731561   1.000000
    5      -11.109215   1.000000
    6       -9.549175   1.000000
    7       -8.085258   1.000000
    8       -8.010775   1.000000
    9       -6.717778   1.000000
   10       -6.524727   1.000000
   11       -4.941702   1.000000
   12       -4.610310   1.000000
   13       -4.395411   1.000000
   14       -3.360227   1.000000
   15       -3.307212   1.000000
   16       -1.668878   0.000000
   17        1.788776   0.000000
   18        2.568510   0.000000
   19        2.742529   0.000000
   20        4.290319   0.000000
   21        5.173432   0.000000
   22        5.372269   0.000000
   23        6.629358   0.000000
   24        6.921447   0.000000
 
  0.4166667E+00  0.0000000E+00  0.0000000E+00  0.4166667E-01
    1      -18.027364   1.000000
    2      -16.162941   1.000000
    3      -15.094014   1.000000
    4      -12.816026   1.000000
    5      -10.708014   1.000000
    6       -8.904244   1.000000
    7       -8.481614   1.000000
    8       -7.574502   1.000000
    9       -6.792865   1.000000
   10       -6.425339   1.000000
   11       -5.234245   1.000000
   12       -5.073307   1.000000
   13       -4.825540   1.000000
   14       -3.568501   1.000000
   15       -3.406368   1.000000
   16       -1.784684   0.000000
   17        1.969105   0.000000
   18        2.812057   0.000000
   19        3.201195   0.000000
   20        4.417975   0.000000
   21        5.200673   0.000000
   22        5.893717   0.000000
   23        6.744267   0.000000
   24        6.797286   0.000000
 
  0.5000000E+00 -0.2775558E-16  0.0000000E+00  0.2083333E-01
    1      -17.968874   1.000000
    2      -16.272240   1.000000
    3      -15.118305   1.000000
    4      -12.845169   1.000000
    5      -10.523305   1.000000
    6       -8.667460   1.000000
    7       -8.460299   1.000000
    8       -7.854013   1.000000
    9       -6.257942   1.000000
   10       -6.228440   1.000000
   11       -5.975105   1.000000
   12       -5.300384   1.000000
   13       -4.762987   1.000000
   14       -3.680529   1.000000
   15       -3.422820   1.000000
   16       -1.822805   0.000002
   17        2.036823   0.000000
   18        2.904257   0.000000
   19        3.758434   0.000000
   20        3.761481   0.000000
   21        5.829486   0.000000
   22        6.017741   0.000000
   23        6.683276   0.000000
   24        6.832323   0.000000
 
  0.8333333E-01  0.8333333E-01  0.0000000E+00  0.4166667E-01
    1      -18.460232   1.000000
    2      -14.994424   1.000000
    3      -14.780993   1.000000
    4      -12.366965   1.000000
    5      -12.074385   1.000000
    6      -10.825580   1.000000
    7       -9.461486   1.000000
    8       -7.304541   1.000000
    9       -7.222244   1.000000
   10       -5.304462   1.000000
   11       -5.045379   1.000000
   12       -3.486551   1.000000
   13       -3.234040   1.000000
   14       -2.875033   1.000000
   15       -2.674843   1.000000
   16       -1.076404   0.000000
   17        1.192801   0.000000
   18        1.920117   0.000000
   19        2.076211   0.000000
   20        2.172125   0.000000
   21        4.677067   0.000000
   22        6.076578   0.000000
   23        6.537956   0.000000
   24        6.751597   0.000000
 
  0.1666667E+00  0.8333333E-01  0.0000000E+00  0.8333333E-01
    1      -18.358859   1.000000
    2      -15.329748   1.000000
    3      -14.924484   1.000000
    4      -12.437435   1.000000
    5      -11.822100   1.000000
    6      -10.333629   1.000000
    7       -8.953616   1.000000
    8       -7.566974   1.000000
    9       -7.061186   1.000000
   10       -5.674556   1.000000
   11       -5.102728   1.000000
   12       -3.863681   1.000000
   13       -3.365492   1.000000
   14       -3.356529   1.000000
   15       -2.929958   1.000000
   16       -1.303412   0.000000
   17        1.259978   0.000000
   18        2.282019   0.000000
   19        2.427895   0.000000
   20        2.851029   0.000000
   21        4.886102   0.000000
   22        6.279745   0.000000
   23        6.507457   0.000000
   24        6.772286   0.000000
 
  0.2500000E+00  0.8333333E-01  0.0000000E+00  0.8333333E-01
    1      -18.221707   1.000000
    2      -15.700480   1.000000
    3      -15.061742   1.000000
    4      -12.546900   1.000000
    5      -11.438260   1.000000
    6       -9.729597   1.000000
    7       -8.307232   1.000000
    8       -7.956011   1.000000
    9       -6.828151   1.000000
   10       -6.168846   1.000000
   11       -5.088694   1.000000
   12       -4.344620   1.000000
   13       -4.029041   1.000000
   14       -3.480283   1.000000
   15       -3.243503   1.000000
   16       -1.453235   0.000000
   17        1.390939   0.000000
   18        2.589491   0.000000
   19        2.806694   0.000000
   20        3.795041   0.000000
   21        5.202919   0.000000
   22        5.624661   0.000000
   23        6.556120   0.000000
   24        6.767225   0.000000
 
  0.3333333E+00  0.8333333E-01  0.0000000E+00  0.8333333E-01
    1      -18.075797   1.000000
    2      -16.025277   1.000000
    3      -15.163447   1.000000
    4      -12.640372   1.000000
    5      -11.011610   1.000000
    6       -9.096157   1.000000
    7       -8.395656   1.000000
    8       -7.630611   1.000000
    9       -6.668522   1.000000
   10       -6.543537   1.000000
   11       -5.039944   1.000000
   12       -4.833981   1.000000
   13       -4.765864   1.000000
   14       -3.574234   1.000000
   15       -3.549500   1.000000
   16       -1.543947   0.000000
   17        1.537505   0.000000
   18        2.997917   0.000000
   19        3.124309   0.000000
   20        4.755342   0.000000
   21        4.822250   0.000000
   22        5.642163   0.000000
   23        6.579895   0.000000
   24        6.919775   0.000000
 
  0.4166667E+00  0.8333333E-01  0.0000000E+00  0.8333333E-01
    1      -17.972714   1.000000
    2      -16.223707   1.000000
    3      -15.216792   1.000000
    4      -12.691741   1.000000
    5      -10.684127   1.000000
    6       -8.803763   1.000000
    7       -8.439343   1.000000
    8       -7.570910   1.000000
    9       -6.491007   1.000000
   10       -6.283658   1.000000
   11       -5.665052   1.000000
   12       -5.206673   1.000000
   13       -4.863113   1.000000
   14       -3.758943   1.000000
   15       -3.624121   1.000000
   16       -1.587985   0.000000
   17        1.633656   0.000000
   18        3.312015   0.000000
   19        3.506729   0.000000
   20        4.115265   0.000000
   21        5.588590   0.000000
   22        6.133581   0.000000
   23        6.494464   0.000000
   24        6.532037   0.000000
 
  0.1666667E+00  0.1666667E+00  0.0000000E+00  0.4166667E-01
    1      -18.242452   1.000000
    2      -15.594731   1.000000
    3      -15.133509   1.000000
    4      -12.326690   1.000000
    5      -11.718241   1.000000
    6       -9.751493   1.000000
    7       -8.423438   1.000000
    8       -7.929755   1.000000
    9       -6.865763   1.000000
   10       -5.921499   1.000000
   11       -5.246476   1.000000
   12       -4.176117   1.000000
   13       -3.860630   1.000000
   14       -3.632179   1.000000
   15       -3.263893   1.000000
   16       -1.283883   0.000000
   17        1.131129   0.000000
   18        2.538557   0.000000
   19        3.233439   0.000000
   20        3.340600   0.000000
   21        5.145868   0.000000
   22        6.156348   0.000000
   23        6.183869   0.000000
   24        6.550192   0.000000
 
  0.2500000E+00  0.1666667E+00  0.0000000E+00  0.8333333E-01
    1      -18.103849   1.000000
    2      -15.871811   1.000000
    3      -15.317173   1.000000
    4      -12.296828   1.000000
    5      -11.437963   1.000000
    6       -9.120524   1.000000
    7       -8.376108   1.000000
    8       -7.795212   1.000000
    9       -6.608122   1.000000
   10       -6.264392   1.000000
   11       -5.318635   1.000000
   12       -4.571605   1.000000
   13       -4.464978   1.000000
   14       -3.873589   1.000000
   15       -3.639428   1.000000
   16       -1.199544   0.000000
   17        1.063902   0.000000
   18        2.896543   0.000000
   19        3.662157   0.000000
   20        4.250554   0.000000
   21        5.326376   0.000000
   22        5.508881   0.000000
   23        5.925675   0.000000
   24        6.897716   0.000000
 
  0.3333333E+00  0.1666667E+00  0.0000000E+00  0.8333333E-01
    1      -17.980241   1.000000
    2      -16.097667   1.000000
    3      -15.429847   1.000000
    4      -12.321371   1.000000
    5      -11.077169   1.000000
    6       -8.972479   1.000000
    7       -8.332933   1.000000
    8       -7.261288   1.000000
    9       -6.569845   1.000000
   10       -6.328163   1.000000
   11       -5.453738   1.000000
   12       -4.976954   1.000000
   13       -4.974137   1.000000
   14       -4.010059   1.000000
   15       -3.955481   1.000000
   16       -1.130627   0.000000
   17        1.048848   0.000000
   18        3.355256   0.000000
   19        3.951268   0.000000
   20        4.571788   0.000000
   21        5.171656   0.000000
   22        5.777489   0.000000
   23        5.978991   0.000000
   24        6.756413   0.000000
 
  0.4166667E+00  0.1666667E+00  0.0000000E+00  0.4166667E-01
    1      -17.927894   1.000000
    2      -16.187527   1.000000
    3      -15.467062   1.000000
    4      -12.335096   1.000000
    5      -10.891395   1.000000
    6       -9.156825   1.000000
    7       -7.954402   1.000000
    8       -7.355357   1.000000
    9       -6.238156   1.000000
   10       -6.173097   1.000000
   11       -5.941868   1.000000
   12       -5.176736   1.000000
   13       -5.034893   1.000000
   14       -4.090358   1.000000
   15       -4.053321   1.000000
   16       -1.106230   0.000000
   17        1.050206   0.000000
   18        3.910190   0.000000
   19        3.917833   0.000000
   20        4.059379   0.000000
   21        5.727976   0.000000
   22        5.879672   0.000000
   23        6.077694   0.000000
   24        6.509143   0.000000
 
  0.2500000E+00  0.2500000E+00  0.0000000E+00  0.4166667E-01
    1      -17.983925   1.000000
    2      -15.999997   1.000000
    3      -15.566073   1.000000
    4      -12.025620   1.000000
    5      -11.386356   1.000000
    6       -9.029661   1.000000
    7       -8.267722   1.000000
    8       -7.256505   1.000000
    9       -6.379553   1.000000
   10       -6.347788   1.000000
   11       -5.592542   1.000000
   12       -4.868023   1.000000
   13       -4.786339   1.000000
   14       -4.257765   1.000000
   15       -4.096398   1.000000
   16       -0.865965   0.000000
   17        0.747588   0.000000
   18        3.304864   0.000000
   19        4.481337   0.000000
   20        4.715479   0.000000
   21        5.116683   0.000000
   22        5.138395   0.000000
   23        5.898040   0.000000
   24        6.976243   0.000000
 
  0.3333333E+00  0.2500000E+00  0.0000000E+00  0.8333333E-01
    1      -17.903734   1.000000
    2      -16.073466   1.000000
    3      -15.714061   1.000000
    4      -11.903352   1.000000
    5      -11.235670   1.000000
    6       -9.372517   1.000000
    7       -7.653943   1.000000
    8       -6.997010   1.000000
    9       -6.483828   1.000000
   10       -6.127207   1.000000
   11       -5.840409   1.000000
   12       -5.082068   1.000000
   13       -4.987004   1.000000
   14       -4.462823   1.000000
   15       -4.448575   1.000000
   16       -0.603862   0.000000
   17        0.513688   0.000000
   18        3.813535   0.000000
   19        4.421680   0.000000
   20        4.797287   0.000000
   21        5.028055   0.000000
   22        5.498940   0.000000
   23        6.276815   0.000000
   24        6.356578   0.000000
 
  0.3333333E+00  0.3333333E+00  0.0000000E+00  0.1388889E-01
    1      -17.874172   1.000000
    2      -15.941828   1.000000
    3      -15.941792   1.000000
    4      -11.510434   1.000000
    5      -11.510368   1.000000
    6       -9.549000   1.000000
    7       -7.049235   1.000000
    8       -7.049196   1.000000
    9       -6.688075   1.000000
   10       -6.039943   1.000000
   11       -5.907967   1.000000
   12       -4.895495   1.000000
   13       -4.895444   1.000000
   14       -4.815596   1.000000
   15       -4.815578   1.000000
   16       -0.043823   0.000000
   17       -0.043778   0.000000
   18        4.356400   0.000000
   19        4.379422   0.000000
   20        4.379426   0.000000
   21        5.569662   0.000000
   22        5.569682   0.000000
   23        5.700530   0.000000
   24        6.554628   0.000000
