    8    8    1    1
  0.2469169E+02  0.5174038E-09  0.5174038E-09  0.8520221E-09  0.5000000E-15
  1.000000000000000E-004
  CAR 
 BC3                                     
     30     19     24
 
  0.0000000E+00  0.0000000E+00  0.0000000E+00  0.6944444E-02
    1      -18.543778   1.000000
    2      -14.652414   1.000000
    3      -14.652361   1.000000
    4      -12.302567   1.000000
    5      -12.302505   1.000000
    6      -11.233907   1.000000
    7       -9.916242   1.000000
    8       -7.347267   1.000000
    9       -7.128867   1.000000
   10       -4.974409   1.000000
   11       -4.974391   1.000000
   12       -3.151694   0.999949
   13       -3.151657   0.999949
   14       -2.470283   0.955591
   15       -2.470178   0.955546
   16       -0.633207   0.000000
   17        1.099000   0.000000
   18        1.099040   0.000000
   19        1.788919   0.000000
   20        1.922039   0.000000
   21        4.520851   0.000000
   22        5.912754   0.000000
   23        6.312257   0.000000
   24        6.312277   0.000000
 
  0.8333333E-01  0.6938894E-17  0.0000000E+00  0.4166667E-01
    1      -18.516672   1.000000
    2      -14.784480   1.000000
    3      -14.694756   1.000000
    4      -12.341719   1.000000
    5      -12.204121   1.000000
    6      -11.099345   1.000000
    7       -9.755881   1.000000
    8       -7.306070   1.000000
    9       -7.186165   1.000000
   10       -5.097822   1.000000
   11       -4.996873   1.000000
   12       -3.276134   0.999985
   13       -3.172104   0.999958
   14       -2.612820   0.988950
   15       -2.538986   0.977155
   16       -0.837904   0.000002
   17        1.158316   0.000000
   18        1.409449   0.000000
   19        1.913608   0.000000
   20        1.973773   0.000000
   21        4.572962   0.000000
   22        5.968969   0.000000
   23        6.383789   0.000000
   24        6.475253   0.000000
 
  0.1666667E+00  0.0000000E+00  0.0000000E+00  0.4166667E-01
    1      -18.437613   1.000000
    2      -15.109417   1.000000
    3      -14.798968   1.000000
    4      -12.458148   1.000000
    5      -11.935044   1.000000
    6      -10.718173   1.000000
    7       -9.326555   1.000000
    8       -7.368450   1.000000
    9       -7.183681   1.000000
   10       -5.443787   1.000000
   11       -5.033041   1.000000
   12       -3.618021   1.000000
   13       -3.226374   0.999976
   14       -3.020007   0.999810
   15       -2.730729   0.996575
   16       -1.185725   0.000057
   17        1.321606   0.000000
   18        1.886117   0.000000
   19        2.128510   0.000000
   20        2.433876   0.000000
   21        4.729594   0.000000
   22        6.123717   0.000000
   23        6.552471   0.000000
   24        6.959841   0.000000
 
  0.2500000E+00 -0.1387779E-16  0.0000000E+00  0.4166667E-01
    1      -18.314599   1.000000
    2      -15.505901   1.000000
    3      -14.921294   1.000000
    4      -12.605802   1.000000
    5      -11.550552   1.000000
    6      -10.175649   1.000000
    7       -8.716896   1.000000
    8       -7.682076   1.000000
    9       -6.984381   1.000000
   10       -5.950700   1.000000
   11       -5.024221   1.000000
   12       -4.095230   1.000000
   13       -3.637491   1.000000
   14       -3.296488   0.999988
   15       -3.006356   0.999782
   16       -1.472533   0.000998
   17        1.549930   0.000000
   18        2.242596   0.000000
   19        2.385308   0.000000
   20        3.316956   0.000000
   21        4.992797   0.000000
   22        6.021353   0.000000
   23        6.357843   0.000000
   24        6.748748   0.000000
 
  0.3333333E+00 -0.8326673E-16  0.0000000E+00  0.4166667E-01
    1      -18.166071   1.000000
    2      -15.883068   1.000000
    3      -15.027389   1.000000
    4      -12.734740   1.000000
    5      -11.112667   1.000000
    6       -9.552427   1.000000
    7       -8.088979   1.000000
    8       -8.013919   1.000000
    9       -6.719852   1.000000
   10       -6.528056   1.000000
   11       -4.945210   1.000000
   12       -4.612403   1.000000
   13       -4.398822   1.000000
   14       -3.362502   0.999994
   15       -3.310711   0.999990
   16       -1.670767   0.007201
   17        1.786477   0.000000
   18        2.566525   0.000000
   19        2.743325   0.000000
   20        4.288367   0.000000
   21        5.174166   0.000000
   22        5.372248   0.000000
   23        6.628602   0.000000
   24        6.920454   0.000000
 
  0.4166667E+00  0.0000000E+00  0.0000000E+00  0.4166667E-01
    1      -18.030770   1.000000
    2      -16.166173   1.000000
    3      -15.097414   1.000000
    4      -12.819188   1.000000
    5      -10.711504   1.000000
    6       -8.907500   1.000000
    7       -8.485273   1.000000
    8       -7.577820   1.000000
    9       -6.796099   1.000000
   10       -6.427463   1.000000
   11       -5.237576   1.000000
   12       -5.075322   1.000000
   13       -4.829098   1.000000
   14       -3.571957   0.999999
   15       -3.408633   0.999996
   16       -1.786577   0.022573
   17        1.966747   0.000000
   18        2.810016   0.000000
   19        3.201984   0.000000
   20        4.418733   0.000000
   21        5.199228   0.000000
   22        5.893262   0.000000
   23        6.743840   0.000000
   24        6.795204   0.000000
 
  0.5000000E+00 -0.2775558E-16  0.0000000E+00  0.2083333E-01
    1      -17.972296   1.000000
    2      -16.275450   1.000000
    3      -15.121702   1.000000
    4      -12.848327   1.000000
    5      -10.526815   1.000000
    6       -8.671090   1.000000
    7       -8.463531   1.000000
    8       -7.857386   1.000000
    9       -6.260116   1.000000
   10       -6.231793   1.000000
   11       -5.978286   1.000000
   12       -5.302341   1.000000
   13       -4.766573   1.000000
   14       -3.683959   1.000000
   15       -3.425081   0.999997
   16       -1.824699   0.032706
   17        2.034441   0.000000
   18        2.902191   0.000000
   19        3.759588   0.000000
   20        3.761880   0.000000
   21        5.828493   0.000000
   22        6.017838   0.000000
   23        6.681131   0.000000
   24        6.830130   0.000000
 
  0.8333333E-01  0.8333333E-01  0.0000000E+00  0.4166667E-01
    1      -18.463558   1.000000
    2      -14.997829   1.000000
    3      -14.784428   1.000000
    4      -12.370249   1.000000
    5      -12.077732   1.000000
    6      -10.828786   1.000000
    7       -9.464404   1.000000
    8       -7.308400   1.000000
    9       -7.224268   1.000000
   10       -5.307880   1.000000
   11       -5.048807   1.000000
   12       -3.488822   0.999998
   13       -3.236342   0.999978
   14       -2.878587   0.999217
   15       -2.678417   0.994235
   16       -1.078274   0.000019
   17        1.190695   0.000000
   18        1.917988   0.000000
   19        2.077013   0.000000
   20        2.170351   0.000000
   21        4.677236   0.000000
   22        6.077417   0.000000
   23        6.535135   0.000000
   24        6.748804   0.000000
 
  0.1666667E+00  0.8333333E-01  0.0000000E+00  0.8333333E-01
    1      -18.362200   1.000000
    2      -15.333106   1.000000
    3      -14.927894   1.000000
    4      -12.440683   1.000000
    5      -11.825462   1.000000
    6      -10.336882   1.000000
    7       -8.956613   1.000000
    8       -7.570778   1.000000
    9       -7.063223   1.000000
   10       -5.677967   1.000000
   11       -5.106162   1.000000
   12       -3.865892   1.000000
   13       -3.368996   0.999994
   14       -3.358791   0.999994
   15       -2.933505   0.999548
   16       -1.305316   0.000188
   17        1.257853   0.000000
   18        2.282821   0.000000
   19        2.425888   0.000000
   20        2.849025   0.000000
   21        4.886245   0.000000
   22        6.280587   0.000000
   23        6.507869   0.000000
   24        6.769992   0.000000
 
  0.2500000E+00  0.8333333E-01  0.0000000E+00  0.8333333E-01
    1      -18.225071   1.000000
    2      -15.703786   1.000000
    3      -15.065133   1.000000
    4      -12.550116   1.000000
    5      -11.441657   1.000000
    6       -9.732879   1.000000
    7       -8.310321   1.000000
    8       -7.959736   1.000000
    9       -6.830211   1.000000
   10       -6.172238   1.000000
   11       -5.092162   1.000000
   12       -4.346754   1.000000
   13       -4.032481   1.000000
   14       -3.482511   0.999998
   15       -3.247015   0.999980
   16       -1.455170   0.000839
   17        1.388760   0.000000
   18        2.590290   0.000000
   19        2.804661   0.000000
   20        3.792999   0.000000
   21        5.202995   0.000000
   22        5.625381   0.000000
   23        6.556523   0.000000
   24        6.767131   0.000000
 
  0.3333333E+00  0.8333333E-01  0.0000000E+00  0.8333333E-01
    1      -18.079191   1.000000
    2      -16.028532   1.000000
    3      -15.166825   1.000000
    4      -12.643567   1.000000
    5      -11.015049   1.000000
    6       -9.099456   1.000000
    7       -8.399290   1.000000
    8       -7.633835   1.000000
    9       -6.671864   1.000000
   10       -6.545637   1.000000
   11       -5.043444   1.000000
   12       -4.836039   1.000000
   13       -4.769248   1.000000
   14       -3.576441   0.999999
   15       -3.552969   0.999999
   16       -1.545900   0.002077
   17        1.535264   0.000000
   18        2.998710   0.000000
   19        3.122213   0.000000
   20        4.753495   0.000000
   21        4.822998   0.000000
   22        5.642010   0.000000
   23        6.580199   0.000000
   24        6.919317   0.000000
 
  0.4166667E+00  0.8333333E-01  0.0000000E+00  0.8333333E-01
    1      -17.976135   1.000000
    2      -16.226925   1.000000
    3      -15.220165   1.000000
    4      -12.694928   1.000000
    5      -10.687602   1.000000
    6       -8.807312   1.000000
    7       -8.442650   1.000000
    8       -7.574327   1.000000
    9       -6.494276   1.000000
   10       -6.285818   1.000000
   11       -5.668336   1.000000
   12       -5.208651   1.000000
   13       -4.866662   1.000000
   14       -3.762371   1.000000
   15       -3.626318   1.000000
   16       -1.589943   0.003222
   17        1.631374   0.000000
   18        3.309869   0.000000
   19        3.507515   0.000000
   20        4.116032   0.000000
   21        5.587433   0.000000
   22        6.133306   0.000000
   23        6.494898   0.000000
   24        6.530819   0.000000
 
  0.1666667E+00  0.1666667E+00  0.0000000E+00  0.4166667E-01
    1      -18.245812   1.000000
    2      -15.598056   1.000000
    3      -15.136877   1.000000
    4      -12.329950   1.000000
    5      -11.721584   1.000000
    6       -9.754805   1.000000
    7       -8.426499   1.000000
    8       -7.933474   1.000000
    9       -6.867819   1.000000
   10       -5.924958   1.000000
   11       -5.249894   1.000000
   12       -4.178290   1.000000
   13       -3.864079   1.000000
   14       -3.634354   1.000000
   15       -3.267407   0.999984
   16       -1.285859   0.000154
   17        1.129001   0.000000
   18        2.539357   0.000000
   19        3.231555   0.000000
   20        3.338364   0.000000
   21        5.145975   0.000000
   22        6.157386   0.000000
   23        6.184200   0.000000
   24        6.550947   0.000000
 
  0.2500000E+00  0.1666667E+00  0.0000000E+00  0.8333333E-01
    1      -18.107236   1.000000
    2      -15.875093   1.000000
    3      -15.320513   1.000000
    4      -12.300082   1.000000
    5      -11.441328   1.000000
    6       -9.123882   1.000000
    7       -8.379720   1.000000
    8       -7.798359   1.000000
    9       -6.610210   1.000000
   10       -6.267867   1.000000
   11       -5.322079   1.000000
   12       -4.573713   1.000000
   13       -4.468356   1.000000
   14       -3.875715   1.000000
   15       -3.642900   1.000000
   16       -1.201569   0.000066
   17        1.061736   0.000000
   18        2.897339   0.000000
   19        3.660105   0.000000
   20        4.248438   0.000000
   21        5.327117   0.000000
   22        5.508911   0.000000
   23        5.926352   0.000000
   24        6.898452   0.000000
 
  0.3333333E+00  0.1666667E+00  0.0000000E+00  0.8333333E-01
    1      -17.983658   1.000000
    2      -16.100906   1.000000
    3      -15.433173   1.000000
    4      -12.324616   1.000000
    5      -11.080575   1.000000
    6       -8.975983   1.000000
    7       -8.336327   1.000000
    8       -7.264625   1.000000
    9       -6.573228   1.000000
   10       -6.330304   1.000000
   11       -5.457144   1.000000
   12       -4.980336   1.000000
   13       -4.976162   1.000000
   14       -4.012170   1.000000
   15       -3.958905   1.000000
   16       -1.132672   0.000033
   17        1.046637   0.000000
   18        3.356046   0.000000
   19        3.949125   0.000000
   20        4.572547   0.000000
   21        5.169810   0.000000
   22        5.778184   0.000000
   23        5.978805   0.000000
   24        6.755676   0.000000
 
  0.4166667E+00  0.1666667E+00  0.0000000E+00  0.4166667E-01
    1      -17.931326   1.000000
    2      -16.190746   1.000000
    3      -15.470384   1.000000
    4      -12.338338   1.000000
    5      -10.894825   1.000000
    6       -9.160315   1.000000
    7       -7.957730   1.000000
    8       -7.358879   1.000000
    9       -6.241580   1.000000
   10       -6.175286   1.000000
   11       -5.945038   1.000000
   12       -5.178702   1.000000
   13       -5.038367   1.000000
   14       -4.093752   1.000000
   15       -4.055429   1.000000
   16       -1.108278   0.000026
   17        1.047976   0.000000
   18        3.911341   0.000000
   19        3.918237   0.000000
   20        4.057195   0.000000
   21        5.728674   0.000000
   22        5.878268   0.000000
   23        6.077216   0.000000
   24        6.507711   0.000000
 
  0.2500000E+00  0.2500000E+00  0.0000000E+00  0.4166667E-01
    1      -17.987340   1.000000
    2      -16.003255   1.000000
    3      -15.569371   1.000000
    4      -12.028908   1.000000
    5      -11.389714   1.000000
    6       -9.033157   1.000000
    7       -8.271159   1.000000
    8       -7.259730   1.000000
    9       -6.383109   1.000000
   10       -6.349921   1.000000
   11       -5.595929   1.000000
   12       -4.871339   1.000000
   13       -4.788407   1.000000
   14       -4.259821   1.000000
   15       -4.099824   1.000000
   16       -0.868051   0.000002
   17        0.745412   0.000000
   18        3.305656   0.000000
   19        4.479463   0.000000
   20        4.713117   0.000000
   21        5.117762   0.000000
   22        5.138790   0.000000
   23        5.898044   0.000000
   24        6.975060   0.000000
 
  0.3333333E+00  0.2500000E+00  0.0000000E+00  0.8333333E-01
    1      -17.907171   1.000000
    2      -16.076701   1.000000
    3      -15.717341   1.000000
    4      -11.906650   1.000000
    5      -11.239047   1.000000
    6       -9.375972   1.000000
    7       -7.657368   1.000000
    8       -7.000471   1.000000
    9       -6.487335   1.000000
   10       -6.129401   1.000000
   11       -5.843641   1.000000
   12       -5.085412   1.000000
   13       -4.988999   1.000000
   14       -4.464862   1.000000
   15       -4.451950   1.000000
   16       -0.605974   0.000000
   17        0.511499   0.000000
   18        3.814324   0.000000
   19        4.422447   0.000000
   20        4.795175   0.000000
   21        5.028785   0.000000
   22        5.496900   0.000000
   23        6.275706   0.000000
   24        6.356057   0.000000
 
  0.3333333E+00  0.3333333E+00  0.0000000E+00  0.1388889E-01
    1      -17.877618   1.000000
    2      -15.945075   1.000000
    3      -15.945040   1.000000
    4      -11.513779   1.000000
    5      -11.513713   1.000000
    6       -9.552428   1.000000
    7       -7.052686   1.000000
    8       -7.052648   1.000000
    9       -6.691716   1.000000
   10       -6.042167   1.000000
   11       -5.911093   1.000000
   12       -4.898836   1.000000
   13       -4.898785   1.000000
   14       -4.817590   1.000000
   15       -4.817573   1.000000
   16       -0.045981   0.000000
   17       -0.045937   0.000000
   18        4.357883   0.000000
   19        4.379830   0.000000
   20        4.379833   0.000000
   21        5.567779   0.000000
   22        5.567799   0.000000
   23        5.698063   0.000000
   24        6.554968   0.000000
