    8    8    1    1
  0.2469169E+02  0.5174038E-09  0.5174038E-09  0.8520221E-09  0.5000000E-15
  1.000000000000000E-004
  CAR 
 BC3                                     
     30     19     24
 
  0.0000000E+00  0.0000000E+00  0.0000000E+00  0.6944444E-02
    1      -18.540398   1.000000
    2      -14.648894   1.000000
    3      -14.648840   1.000000
    4      -12.299231   1.000000
    5      -12.299169   1.000000
    6      -11.230736   1.000000
    7       -9.913482   1.000000
    8       -7.345229   1.000000
    9       -7.124938   1.000000
   10       -4.970976   1.000000
   11       -4.970958   1.000000
   12       -3.149322   1.000000
   13       -3.149286   1.000000
   14       -2.466684   1.000000
   15       -2.466580   1.000000
   16       -0.631415   0.000000
   17        1.101112   0.000000
   18        1.101153   0.000000
   19        1.790608   0.000000
   20        1.921237   0.000000
   21        4.520663   0.000000
   22        5.911943   0.000000
   23        6.315098   0.000000
   24        6.315118   0.000000
 
  0.8333333E-01  0.6938894E-17  0.0000000E+00  0.4166667E-01
    1      -18.513288   1.000000
    2      -14.780986   1.000000
    3      -14.691245   1.000000
    4      -12.338411   1.000000
    5      -12.200772   1.000000
    6      -11.096157   1.000000
    7       -9.753081   1.000000
    8       -7.304028   1.000000
    9       -7.182246   1.000000
   10       -5.094398   1.000000
   11       -4.993441   1.000000
   12       -3.273788   1.000000
   13       -3.169738   1.000000
   14       -2.609237   1.000000
   15       -2.535395   1.000000
   16       -0.836095   0.000000
   17        1.160446   0.000000
   18        1.411549   0.000000
   19        1.915326   0.000000
   20        1.972971   0.000000
   21        4.572778   0.000000
   22        5.968146   0.000000
   23        6.386614   0.000000
   24        6.478103   0.000000
 
  0.1666667E+00  0.0000000E+00  0.0000000E+00  0.4166667E-01
    1      -18.434216   1.000000
    2      -15.105982   1.000000
    3      -14.795476   1.000000
    4      -12.454899   1.000000
    5      -11.931662   1.000000
    6      -10.714945   1.000000
    7       -9.323666   1.000000
    8       -7.364564   1.000000
    9       -7.181629   1.000000
   10       -5.440384   1.000000
   11       -5.029601   1.000000
   12       -3.615742   1.000000
   13       -3.224025   1.000000
   14       -3.016469   1.000000
   15       -2.727162   1.000000
   16       -1.183894   0.000000
   17        1.323783   0.000000
   18        1.888078   0.000000
   19        2.127708   0.000000
   20        2.435798   0.000000
   21        4.729427   0.000000
   22        6.122969   0.000000
   23        6.555143   0.000000
   24        6.959376   0.000000
 
  0.2500000E+00 -0.1387779E-16  0.0000000E+00  0.4166667E-01
    1      -18.311179   1.000000
    2      -15.502530   1.000000
    3      -14.917823   1.000000
    4      -12.602603   1.000000
    5      -11.547129   1.000000
    6      -10.172391   1.000000
    7       -8.713904   1.000000
    8       -7.678251   1.000000
    9       -6.982309   1.000000
   10       -5.947328   1.000000
   11       -5.020751   1.000000
   12       -4.093035   1.000000
   13       -3.634015   1.000000
   14       -3.294158   1.000000
   15       -3.002823   1.000000
   16       -1.470683   0.000000
   17        1.552176   0.000000
   18        2.244525   0.000000
   19        2.384507   0.000000
   20        3.318984   0.000000
   21        4.992673   0.000000
   22        6.020639   0.000000
   23        6.357513   0.000000
   24        6.750966   0.000000
 
  0.3333333E+00 -0.8326673E-16  0.0000000E+00  0.4166667E-01
    1      -18.162619   1.000000
    2      -15.879760   1.000000
    3      -15.023933   1.000000
    4      -12.731572   1.000000
    5      -11.109200   1.000000
    6       -9.549155   1.000000
    7       -8.085228   1.000000
    8       -8.010807   1.000000
    9       -6.717748   1.000000
   10       -6.524725   1.000000
   11       -4.941691   1.000000
   12       -4.610291   1.000000
   13       -4.395422   1.000000
   14       -3.360190   1.000000
   15       -3.307223   1.000000
   16       -1.668905   0.000000
   17        1.788798   0.000000
   18        2.568499   0.000000
   19        2.742529   0.000000
   20        4.290326   0.000000
   21        5.173432   0.000000
   22        5.372265   0.000000
   23        6.629357   0.000000
   24        6.921519   0.000000
 
  0.4166667E+00  0.0000000E+00  0.0000000E+00  0.4166667E-01
    1      -18.027280   1.000000
    2      -16.162920   1.000000
    3      -15.093967   1.000000
    4      -12.816037   1.000000
    5      -10.707995   1.000000
    6       -8.904227   1.000000
    7       -8.481587   1.000000
    8       -7.574503   1.000000
    9       -6.792882   1.000000
   10       -6.425302   1.000000
   11       -5.234264   1.000000
   12       -5.073296   1.000000
   13       -4.825522   1.000000
   14       -3.568518   1.000000
   15       -3.406332   1.000000
   16       -1.784708   0.000000
   17        1.969130   0.000000
   18        2.812045   0.000000
   19        3.201195   0.000000
   20        4.417975   0.000000
   21        5.200682   0.000000
   22        5.893715   0.000000
   23        6.744282   0.000000
   24        6.797534   0.000000
 
  0.5000000E+00 -0.2775558E-16  0.0000000E+00  0.2083333E-01
    1      -17.968786   1.000000
    2      -16.272223   1.000000
    3      -15.118258   1.000000
    4      -12.845180   1.000000
    5      -10.523284   1.000000
    6       -8.667435   1.000000
    7       -8.460284   1.000000
    8       -7.854003   1.000000
    9       -6.257898   1.000000
   10       -6.228446   1.000000
   11       -5.975143   1.000000
   12       -5.300381   1.000000
   13       -4.762965   1.000000
   14       -3.680551   1.000000
   15       -3.422783   1.000000
   16       -1.822829   0.000000
   17        2.036848   0.000000
   18        2.904245   0.000000
   19        3.758440   0.000000
   20        3.761475   0.000000
   21        5.829494   0.000000
   22        6.017752   0.000000
   23        6.684423   0.000000
   24        6.833054   0.000000
 
  0.8333333E-01  0.8333333E-01  0.0000000E+00  0.4166667E-01
    1      -18.460166   1.000000
    2      -14.994372   1.000000
    3      -14.780938   1.000000
    4      -12.366968   1.000000
    5      -12.074381   1.000000
    6      -10.825559   1.000000
    7       -9.461543   1.000000
    8       -7.304503   1.000000
    9       -7.222220   1.000000
   10       -5.304462   1.000000
   11       -5.045379   1.000000
   12       -3.486515   1.000000
   13       -3.234001   1.000000
   14       -2.875034   1.000000
   15       -2.674843   1.000000
   16       -1.076442   0.000000
   17        1.192815   0.000000
   18        1.920123   0.000000
   19        2.076211   0.000000
   20        2.172119   0.000000
   21        4.677063   0.000000
   22        6.076576   0.000000
   23        6.537960   0.000000
   24        6.751694   0.000000
 
  0.1666667E+00  0.8333333E-01  0.0000000E+00  0.8333333E-01
    1      -18.358790   1.000000
    2      -15.329703   1.000000
    3      -14.924434   1.000000
    4      -12.437439   1.000000
    5      -11.822094   1.000000
    6      -10.333606   1.000000
    7       -8.953665   1.000000
    8       -7.566939   1.000000
    9       -7.061160   1.000000
   10       -5.674553   1.000000
   11       -5.102725   1.000000
   12       -3.863650   1.000000
   13       -3.365497   1.000000
   14       -3.356495   1.000000
   15       -2.929961   1.000000
   16       -1.303442   0.000000
   17        1.259990   0.000000
   18        2.282019   0.000000
   19        2.427894   0.000000
   20        2.851031   0.000000
   21        4.886098   0.000000
   22        6.279742   0.000000
   23        6.507457   0.000000
   24        6.772434   0.000000
 
  0.2500000E+00  0.8333333E-01  0.0000000E+00  0.8333333E-01
    1      -18.221633   1.000000
    2      -15.700444   1.000000
    3      -15.061696   1.000000
    4      -12.546906   1.000000
    5      -11.438249   1.000000
    6       -9.729573   1.000000
    7       -8.307271   1.000000
    8       -7.955980   1.000000
    9       -6.828122   1.000000
   10       -6.168841   1.000000
   11       -5.088686   1.000000
   12       -4.344595   1.000000
   13       -4.029051   1.000000
   14       -3.480251   1.000000
   15       -3.243511   1.000000
   16       -1.453258   0.000000
   17        1.390952   0.000000
   18        2.589491   0.000000
   19        2.806693   0.000000
   20        3.795047   0.000000
   21        5.202915   0.000000
   22        5.624661   0.000000
   23        6.556126   0.000000
   24        6.767315   0.000000
 
  0.3333333E+00  0.8333333E-01  0.0000000E+00  0.8333333E-01
    1      -18.075716   1.000000
    2      -16.025252   1.000000
    3      -15.163403   1.000000
    4      -12.640379   1.000000
    5      -11.011594   1.000000
    6       -9.096136   1.000000
    7       -8.395630   1.000000
    8       -7.630633   1.000000
    9       -6.668521   1.000000
   10       -6.543504   1.000000
   11       -5.039932   1.000000
   12       -4.833965   1.000000
   13       -4.765879   1.000000
   14       -3.574204   1.000000
   15       -3.549514   1.000000
   16       -1.543966   0.000000
   17        1.537519   0.000000
   18        2.997917   0.000000
   19        3.124307   0.000000
   20        4.755350   0.000000
   21        4.822250   0.000000
   22        5.642159   0.000000
   23        6.579904   0.000000
   24        6.920924   0.000000
 
  0.4166667E+00  0.8333333E-01  0.0000000E+00  0.8333333E-01
    1      -17.972627   1.000000
    2      -16.223689   1.000000
    3      -15.216750   1.000000
    4      -12.691748   1.000000
    5      -10.684108   1.000000
    6       -8.803743   1.000000
    7       -8.439324   1.000000
    8       -7.570897   1.000000
    9       -6.491025   1.000000
   10       -6.283616   1.000000
   11       -5.665075   1.000000
   12       -5.206667   1.000000
   13       -4.863096   1.000000
   14       -3.758963   1.000000
   15       -3.624092   1.000000
   16       -1.588001   0.000000
   17        1.633671   0.000000
   18        3.312013   0.000000
   19        3.506729   0.000000
   20        4.115265   0.000000
   21        5.588599   0.000000
   22        6.133587   0.000000
   23        6.494464   0.000000
   24        6.532051   0.000000
 
  0.1666667E+00  0.1666667E+00  0.0000000E+00  0.4166667E-01
    1      -18.242379   1.000000
    2      -15.594692   1.000000
    3      -15.133467   1.000000
    4      -12.326691   1.000000
    5      -11.718234   1.000000
    6       -9.751466   1.000000
    7       -8.423481   1.000000
    8       -7.929725   1.000000
    9       -6.865735   1.000000
   10       -5.921491   1.000000
   11       -5.246471   1.000000
   12       -4.176088   1.000000
   13       -3.860641   1.000000
   14       -3.632154   1.000000
   15       -3.263899   1.000000
   16       -1.283903   0.000000
   17        1.131139   0.000000
   18        2.538557   0.000000
   19        3.233442   0.000000
   20        3.340603   0.000000
   21        5.145863   0.000000
   22        6.156353   0.000000
   23        6.183863   0.000000
   24        6.550193   0.000000
 
  0.2500000E+00  0.1666667E+00  0.0000000E+00  0.8333333E-01
    1      -18.103770   1.000000
    2      -15.871780   1.000000
    3      -15.317137   1.000000
    4      -12.296827   1.000000
    5      -11.437953   1.000000
    6       -9.120498   1.000000
    7       -8.376082   1.000000
    8       -7.795246   1.000000
    9       -6.608090   1.000000
   10       -6.264381   1.000000
   11       -5.318624   1.000000
   12       -4.571583   1.000000
   13       -4.464998   1.000000
   14       -3.873569   1.000000
   15       -3.639438   1.000000
   16       -1.199556   0.000000
   17        1.063911   0.000000
   18        2.896543   0.000000
   19        3.662161   0.000000
   20        4.250560   0.000000
   21        5.326376   0.000000
   22        5.508877   0.000000
   23        5.925674   0.000000
   24        6.897717   0.000000
 
  0.3333333E+00  0.1666667E+00  0.0000000E+00  0.8333333E-01
    1      -17.980155   1.000000
    2      -16.097645   1.000000
    3      -15.429812   1.000000
    4      -12.321371   1.000000
    5      -11.077155   1.000000
    6       -8.972462   1.000000
    7       -8.332906   1.000000
    8       -7.261292   1.000000
    9       -6.569846   1.000000
   10       -6.328124   1.000000
   11       -5.453737   1.000000
   12       -4.976966   1.000000
   13       -4.974125   1.000000
   14       -4.010040   1.000000
   15       -3.955498   1.000000
   16       -1.130635   0.000000
   17        1.048857   0.000000
   18        3.355256   0.000000
   19        3.951272   0.000000
   20        4.571788   0.000000
   21        5.171665   0.000000
   22        5.777489   0.000000
   23        5.978988   0.000000
   24        6.756481   0.000000
 
  0.4166667E+00  0.1666667E+00  0.0000000E+00  0.4166667E-01
    1      -17.927805   1.000000
    2      -16.187509   1.000000
    3      -15.467028   1.000000
    4      -12.335096   1.000000
    5      -10.891379   1.000000
    6       -9.156811   1.000000
    7       -7.954380   1.000000
    8       -7.355334   1.000000
    9       -6.238152   1.000000
   10       -6.173051   1.000000
   11       -5.941911   1.000000
   12       -5.176733   1.000000
   13       -5.034885   1.000000
   14       -4.090380   1.000000
   15       -4.053302   1.000000
   16       -1.106237   0.000000
   17        1.050215   0.000000
   18        3.910196   0.000000
   19        3.917827   0.000000
   20        4.059383   0.000000
   21        5.727976   0.000000
   22        5.879683   0.000000
   23        6.077706   0.000000
   24        6.509185   0.000000
 
  0.2500000E+00  0.2500000E+00  0.0000000E+00  0.4166667E-01
    1      -17.983839   1.000000
    2      -15.999971   1.000000
    3      -15.566043   1.000000
    4      -12.025615   1.000000
    5      -11.386346   1.000000
    6       -9.029646   1.000000
    7       -8.267689   1.000000
    8       -7.256527   1.000000
    9       -6.379535   1.000000
   10       -6.347750   1.000000
   11       -5.592535   1.000000
   12       -4.868052   1.000000
   13       -4.786321   1.000000
   14       -4.257753   1.000000
   15       -4.096411   1.000000
   16       -0.865971   0.000000
   17        0.747596   0.000000
   18        3.304864   0.000000
   19        4.481344   0.000000
   20        4.715486   0.000000
   21        5.116689   0.000000
   22        5.138388   0.000000
   23        5.898036   0.000000
   24        6.981824   0.000000
 
  0.3333333E+00  0.2500000E+00  0.0000000E+00  0.8333333E-01
    1      -17.903644   1.000000
    2      -16.073445   1.000000
    3      -15.714034   1.000000
    4      -11.903345   1.000000
    5      -11.235657   1.000000
    6       -9.372506   1.000000
    7       -7.653912   1.000000
    8       -6.996993   1.000000
    9       -6.483816   1.000000
   10       -6.127160   1.000000
   11       -5.840440   1.000000
   12       -5.082083   1.000000
   13       -4.986997   1.000000
   14       -4.462812   1.000000
   15       -4.448593   1.000000
   16       -0.603864   0.000000
   17        0.513694   0.000000
   18        3.813535   0.000000
   19        4.421680   0.000000
   20        4.797294   0.000000
   21        5.028055   0.000000
   22        5.498950   0.000000
   23        6.276858   0.000000
   24        6.356583   0.000000
 
  0.3333333E+00  0.3333333E+00  0.0000000E+00  0.1388889E-01
    1      -17.874080   1.000000
    2      -15.941805   1.000000
    3      -15.941770   1.000000
    4      -11.510423   1.000000
    5      -11.510357   1.000000
    6       -9.548991   1.000000
    7       -7.049202   1.000000
    8       -7.049164   1.000000
    9       -6.688051   1.000000
   10       -6.039892   1.000000
   11       -5.908024   1.000000
   12       -4.895512   1.000000
   13       -4.895461   1.000000
   14       -4.815589   1.000000
   15       -4.815572   1.000000
   16       -0.043820   0.000000
   17       -0.043775   0.000000
   18        4.356412   0.000000
   19        4.379416   0.000000
   20        4.379420   0.000000
   21        5.569673   0.000000
   22        5.569693   0.000000
   23        5.700547   0.000000
   24        6.554643   0.000000
