    8    8    1    1
  0.2469169E+02  0.5174038E-09  0.5174038E-09  0.8520221E-09  0.5000000E-15
  1.000000000000000E-004
  CAR 
 BC3                                     
     30     19     24
 
  0.0000000E+00  0.0000000E+00  0.0000000E+00  0.6944444E-02
    1      -18.543784   1.000000
    2      -14.652420   1.000000
    3      -14.652367   1.000000
    4      -12.302571   1.000000
    5      -12.302508   1.000000
    6      -11.233909   1.000000
    7       -9.916241   1.000000
    8       -7.347270   1.000000
    9       -7.128873   1.000000
   10       -4.974411   1.000000
   11       -4.974393   1.000000
   12       -3.151699   0.999949
   13       -3.151662   0.999949
   14       -2.470286   0.955591
   15       -2.470182   0.955547
   16       -0.633207   0.000000
   17        1.098996   0.000000
   18        1.099037   0.000000
   19        1.788919   0.000000
   20        1.922021   0.000000
   21        4.520849   0.000000
   22        5.912718   0.000000
   23        6.312254   0.000000
   24        6.312274   0.000000
 
  0.8333333E-01  0.6938894E-17  0.0000000E+00  0.4166667E-01
    1      -18.516678   1.000000
    2      -14.784485   1.000000
    3      -14.694762   1.000000
    4      -12.341723   1.000000
    5      -12.204125   1.000000
    6      -11.099348   1.000000
    7       -9.755881   1.000000
    8       -7.306073   1.000000
    9       -7.186172   1.000000
   10       -5.097824   1.000000
   11       -4.996875   1.000000
   12       -3.276139   0.999985
   13       -3.172109   0.999958
   14       -2.612823   0.988950
   15       -2.538989   0.977155
   16       -0.837904   0.000002
   17        1.158312   0.000000
   18        1.409445   0.000000
   19        1.913607   0.000000
   20        1.973755   0.000000
   21        4.572960   0.000000
   22        5.968933   0.000000
   23        6.383786   0.000000
   24        6.475251   0.000000
 
  0.1666667E+00  0.0000000E+00  0.0000000E+00  0.4166667E-01
    1      -18.437619   1.000000
    2      -15.109423   1.000000
    3      -14.798973   1.000000
    4      -12.458151   1.000000
    5      -11.935048   1.000000
    6      -10.718176   1.000000
    7       -9.326555   1.000000
    8       -7.368456   1.000000
    9       -7.183684   1.000000
   10       -5.443789   1.000000
   11       -5.033044   1.000000
   12       -3.618025   1.000000
   13       -3.226379   0.999976
   14       -3.020010   0.999810
   15       -2.730732   0.996575
   16       -1.185725   0.000057
   17        1.321602   0.000000
   18        1.886115   0.000000
   19        2.128492   0.000000
   20        2.433874   0.000000
   21        4.729591   0.000000
   22        6.123681   0.000000
   23        6.552466   0.000000
   24        6.959824   0.000000
 
  0.2500000E+00 -0.1387779E-16  0.0000000E+00  0.4166667E-01
    1      -18.314604   1.000000
    2      -15.505906   1.000000
    3      -14.921299   1.000000
    4      -12.605805   1.000000
    5      -11.550556   1.000000
    6      -10.175652   1.000000
    7       -8.716897   1.000000
    8       -7.682082   1.000000
    9       -6.984384   1.000000
   10       -5.950702   1.000000
   11       -5.024224   1.000000
   12       -4.095234   1.000000
   13       -3.637493   1.000000
   14       -3.296493   0.999988
   15       -3.006359   0.999782
   16       -1.472533   0.000998
   17        1.549926   0.000000
   18        2.242595   0.000000
   19        2.385290   0.000000
   20        3.316954   0.000000
   21        4.992795   0.000000
   22        6.021337   0.000000
   23        6.357811   0.000000
   24        6.748739   0.000000
 
  0.3333333E+00 -0.8326673E-16  0.0000000E+00  0.4166667E-01
    1      -18.166076   1.000000
    2      -15.883072   1.000000
    3      -15.027394   1.000000
    4      -12.734743   1.000000
    5      -11.112672   1.000000
    6       -9.552430   1.000000
    7       -8.088984   1.000000
    8       -8.013920   1.000000
    9       -6.719856   1.000000
   10       -6.528058   1.000000
   11       -4.945213   1.000000
   12       -4.612407   1.000000
   13       -4.398824   1.000000
   14       -3.362507   0.999994
   15       -3.310714   0.999990
   16       -1.670768   0.007201
   17        1.786473   0.000000
   18        2.566524   0.000000
   19        2.743307   0.000000
   20        4.288364   0.000000
   21        5.174149   0.000000
   22        5.372246   0.000000
   23        6.628582   0.000000
   24        6.920432   0.000000
 
  0.4166667E+00  0.0000000E+00  0.0000000E+00  0.4166667E-01
    1      -18.030776   1.000000
    2      -16.166177   1.000000
    3      -15.097419   1.000000
    4      -12.819191   1.000000
    5      -10.711509   1.000000
    6       -8.907503   1.000000
    7       -8.485278   1.000000
    8       -7.577822   1.000000
    9       -6.796101   1.000000
   10       -6.427467   1.000000
   11       -5.237578   1.000000
   12       -5.075325   1.000000
   13       -4.829101   1.000000
   14       -3.571959   0.999999
   15       -3.408638   0.999996
   16       -1.786577   0.022572
   17        1.966742   0.000000
   18        2.810015   0.000000
   19        3.201967   0.000000
   20        4.418716   0.000000
   21        5.199225   0.000000
   22        5.893260   0.000000
   23        6.743837   0.000000
   24        6.795196   0.000000
 
  0.5000000E+00 -0.2775558E-16  0.0000000E+00  0.2083333E-01
    1      -17.972302   1.000000
    2      -16.275454   1.000000
    3      -15.121707   1.000000
    4      -12.848329   1.000000
    5      -10.526820   1.000000
    6       -8.671095   1.000000
    7       -8.463534   1.000000
    8       -7.857389   1.000000
    9       -6.260120   1.000000
   10       -6.231795   1.000000
   11       -5.978287   1.000000
   12       -5.302343   1.000000
   13       -4.766577   1.000000
   14       -3.683961   1.000000
   15       -3.425085   0.999997
   16       -1.824700   0.032705
   17        2.034436   0.000000
   18        2.902190   0.000000
   19        3.759573   0.000000
   20        3.761860   0.000000
   21        5.828489   0.000000
   22        6.017836   0.000000
   23        6.681129   0.000000
   24        6.830126   0.000000
 
  0.8333333E-01  0.8333333E-01  0.0000000E+00  0.4166667E-01
    1      -18.463564   1.000000
    2      -14.997834   1.000000
    3      -14.784434   1.000000
    4      -12.370253   1.000000
    5      -12.077736   1.000000
    6      -10.828788   1.000000
    7       -9.464404   1.000000
    8       -7.308406   1.000000
    9       -7.224272   1.000000
   10       -5.307882   1.000000
   11       -5.048810   1.000000
   12       -3.488827   0.999998
   13       -3.236347   0.999978
   14       -2.878590   0.999217
   15       -2.678420   0.994235
   16       -1.078274   0.000019
   17        1.190691   0.000000
   18        1.917985   0.000000
   19        2.076996   0.000000
   20        2.170350   0.000000
   21        4.677234   0.000000
   22        6.077381   0.000000
   23        6.535133   0.000000
   24        6.748801   0.000000
 
  0.1666667E+00  0.8333333E-01  0.0000000E+00  0.8333333E-01
    1      -18.362206   1.000000
    2      -15.333111   1.000000
    3      -14.927899   1.000000
    4      -12.440687   1.000000
    5      -11.825466   1.000000
    6      -10.336885   1.000000
    7       -8.956613   1.000000
    8       -7.570784   1.000000
    9       -7.063227   1.000000
   10       -5.677969   1.000000
   11       -5.106164   1.000000
   12       -3.865896   1.000000
   13       -3.368999   0.999994
   14       -3.358796   0.999994
   15       -2.933508   0.999548
   16       -1.305317   0.000188
   17        1.257849   0.000000
   18        2.282803   0.000000
   19        2.425886   0.000000
   20        2.849023   0.000000
   21        4.886243   0.000000
   22        6.280552   0.000000
   23        6.507854   0.000000
   24        6.769985   0.000000
 
  0.2500000E+00  0.8333333E-01  0.0000000E+00  0.8333333E-01
    1      -18.225076   1.000000
    2      -15.703790   1.000000
    3      -15.065138   1.000000
    4      -12.550119   1.000000
    5      -11.441661   1.000000
    6       -9.732882   1.000000
    7       -8.310322   1.000000
    8       -7.959741   1.000000
    9       -6.830215   1.000000
   10       -6.172241   1.000000
   11       -5.092165   1.000000
   12       -4.346758   1.000000
   13       -4.032483   1.000000
   14       -3.482516   0.999998
   15       -3.247018   0.999980
   16       -1.455171   0.000839
   17        1.388757   0.000000
   18        2.590272   0.000000
   19        2.804659   0.000000
   20        3.792996   0.000000
   21        5.202993   0.000000
   22        5.625365   0.000000
   23        6.556491   0.000000
   24        6.767110   0.000000
 
  0.3333333E+00  0.8333333E-01  0.0000000E+00  0.8333333E-01
    1      -18.079197   1.000000
    2      -16.028537   1.000000
    3      -15.166830   1.000000
    4      -12.643570   1.000000
    5      -11.015053   1.000000
    6       -9.099459   1.000000
    7       -8.399295   1.000000
    8       -7.633837   1.000000
    9       -6.671866   1.000000
   10       -6.545641   1.000000
   11       -5.043447   1.000000
   12       -4.836042   1.000000
   13       -4.769250   1.000000
   14       -3.576446   0.999999
   15       -3.552972   0.999999
   16       -1.545901   0.002077
   17        1.535261   0.000000
   18        2.998692   0.000000
   19        3.122210   0.000000
   20        4.753491   0.000000
   21        4.822981   0.000000
   22        5.642009   0.000000
   23        6.580185   0.000000
   24        6.919275   0.000000
 
  0.4166667E+00  0.8333333E-01  0.0000000E+00  0.8333333E-01
    1      -17.976141   1.000000
    2      -16.226929   1.000000
    3      -15.220170   1.000000
    4      -12.694930   1.000000
    5      -10.687607   1.000000
    6       -8.807317   1.000000
    7       -8.442653   1.000000
    8       -7.574331   1.000000
    9       -6.494278   1.000000
   10       -6.285823   1.000000
   11       -5.668338   1.000000
   12       -5.208654   1.000000
   13       -4.866665   1.000000
   14       -3.762373   1.000000
   15       -3.626322   1.000000
   16       -1.589945   0.003222
   17        1.631370   0.000000
   18        3.309867   0.000000
   19        3.507497   0.000000
   20        4.116015   0.000000
   21        5.587429   0.000000
   22        6.133305   0.000000
   23        6.494883   0.000000
   24        6.530816   0.000000
 
  0.1666667E+00  0.1666667E+00  0.0000000E+00  0.4166667E-01
    1      -18.245818   1.000000
    2      -15.598060   1.000000
    3      -15.136882   1.000000
    4      -12.329953   1.000000
    5      -11.721587   1.000000
    6       -9.754808   1.000000
    7       -8.426500   1.000000
    8       -7.933479   1.000000
    9       -6.867823   1.000000
   10       -5.924961   1.000000
   11       -5.249897   1.000000
   12       -4.178294   1.000000
   13       -3.864082   1.000000
   14       -3.634358   1.000000
   15       -3.267410   0.999984
   16       -1.285860   0.000154
   17        1.128998   0.000000
   18        2.539339   0.000000
   19        3.231553   0.000000
   20        3.338361   0.000000
   21        5.145973   0.000000
   22        6.157373   0.000000
   23        6.184181   0.000000
   24        6.550909   0.000000
 
  0.2500000E+00  0.1666667E+00  0.0000000E+00  0.8333333E-01
    1      -18.107242   1.000000
    2      -15.875098   1.000000
    3      -15.320518   1.000000
    4      -12.300085   1.000000
    5      -11.441332   1.000000
    6       -9.123886   1.000000
    7       -8.379725   1.000000
    8       -7.798361   1.000000
    9       -6.610213   1.000000
   10       -6.267870   1.000000
   11       -5.322081   1.000000
   12       -4.573717   1.000000
   13       -4.468359   1.000000
   14       -3.875719   1.000000
   15       -3.642902   1.000000
   16       -1.201571   0.000066
   17        1.061732   0.000000
   18        2.897322   0.000000
   19        3.660102   0.000000
   20        4.248435   0.000000
   21        5.327100   0.000000
   22        5.508909   0.000000
   23        5.926336   0.000000
   24        6.898415   0.000000
 
  0.3333333E+00  0.1666667E+00  0.0000000E+00  0.8333333E-01
    1      -17.983664   1.000000
    2      -16.100910   1.000000
    3      -15.433178   1.000000
    4      -12.324619   1.000000
    5      -11.080579   1.000000
    6       -8.975987   1.000000
    7       -8.336330   1.000000
    8       -7.264628   1.000000
    9       -6.573230   1.000000
   10       -6.330308   1.000000
   11       -5.457147   1.000000
   12       -4.980339   1.000000
   13       -4.976165   1.000000
   14       -4.012174   1.000000
   15       -3.958907   1.000000
   16       -1.132673   0.000033
   17        1.046634   0.000000
   18        3.356029   0.000000
   19        3.949122   0.000000
   20        4.572530   0.000000
   21        5.169807   0.000000
   22        5.778167   0.000000
   23        5.978803   0.000000
   24        6.755673   0.000000
 
  0.4166667E+00  0.1666667E+00  0.0000000E+00  0.4166667E-01
    1      -17.931332   1.000000
    2      -16.190750   1.000000
    3      -15.470389   1.000000
    4      -12.338341   1.000000
    5      -10.894830   1.000000
    6       -9.160319   1.000000
    7       -7.957733   1.000000
    8       -7.358883   1.000000
    9       -6.241583   1.000000
   10       -6.175291   1.000000
   11       -5.945039   1.000000
   12       -5.178704   1.000000
   13       -5.038369   1.000000
   14       -4.093754   1.000000
   15       -4.055432   1.000000
   16       -1.108280   0.000026
   17        1.047973   0.000000
   18        3.911326   0.000000
   19        3.918217   0.000000
   20        4.057192   0.000000
   21        5.728658   0.000000
   22        5.878264   0.000000
   23        6.077214   0.000000
   24        6.507709   0.000000
 
  0.2500000E+00  0.2500000E+00  0.0000000E+00  0.4166667E-01
    1      -17.987346   1.000000
    2      -16.003259   1.000000
    3      -15.569376   1.000000
    4      -12.028912   1.000000
    5      -11.389718   1.000000
    6       -9.033161   1.000000
    7       -8.271163   1.000000
    8       -7.259732   1.000000
    9       -6.383113   1.000000
   10       -6.349925   1.000000
   11       -5.595931   1.000000
   12       -4.871341   1.000000
   13       -4.788411   1.000000
   14       -4.259824   1.000000
   15       -4.099826   1.000000
   16       -0.868053   0.000002
   17        0.745409   0.000000
   18        3.305638   0.000000
   19        4.479460   0.000000
   20        4.713114   0.000000
   21        5.117747   0.000000
   22        5.138771   0.000000
   23        5.898042   0.000000
   24        6.975056   0.000000
 
  0.3333333E+00  0.2500000E+00  0.0000000E+00  0.8333333E-01
    1      -17.907177   1.000000
    2      -16.076705   1.000000
    3      -15.717345   1.000000
    4      -11.906654   1.000000
    5      -11.239051   1.000000
    6       -9.375976   1.000000
    7       -7.657371   1.000000
    8       -7.000474   1.000000
    9       -6.487338   1.000000
   10       -6.129406   1.000000
   11       -5.843643   1.000000
   12       -5.085414   1.000000
   13       -4.989002   1.000000
   14       -4.464865   1.000000
   15       -4.451952   1.000000
   16       -0.605976   0.000000
   17        0.511496   0.000000
   18        3.814307   0.000000
   19        4.422429   0.000000
   20        4.795172   0.000000
   21        5.028768   0.000000
   22        5.496897   0.000000
   23        6.275703   0.000000
   24        6.356055   0.000000
 
  0.3333333E+00  0.3333333E+00  0.0000000E+00  0.1388889E-01
    1      -17.877624   1.000000
    2      -15.945080   1.000000
    3      -15.945044   1.000000
    4      -11.513783   1.000000
    5      -11.513717   1.000000
    6       -9.552432   1.000000
    7       -7.052690   1.000000
    8       -7.052652   1.000000
    9       -6.691721   1.000000
   10       -6.042172   1.000000
   11       -5.911094   1.000000
   12       -4.898837   1.000000
   13       -4.898787   1.000000
   14       -4.817593   1.000000
   15       -4.817576   1.000000
   16       -0.045984   0.000000
   17       -0.045939   0.000000
   18        4.357871   0.000000
   19        4.379810   0.000000
   20        4.379813   0.000000
   21        5.567776   0.000000
   22        5.567796   0.000000
   23        5.698059   0.000000
   24        6.554946   0.000000
