Automatically generated mesh
      19
Reciprocal lattice
    0.00000000000000    0.00000000000000    0.00000000000000             1
    0.08333333333333    0.00000000000000    0.00000000000000             6
    0.16666666666667    0.00000000000000    0.00000000000000             6
    0.25000000000000   -0.00000000000000    0.00000000000000             6
    0.33333333333333   -0.00000000000000    0.00000000000000             6
    0.41666666666667    0.00000000000000    0.00000000000000             6
    0.50000000000000   -0.00000000000000    0.00000000000000             3
    0.08333333333333    0.08333333333333    0.00000000000000             6
    0.16666666666667    0.08333333333333    0.00000000000000            12
    0.25000000000000    0.08333333333333    0.00000000000000            12
    0.33333333333333    0.08333333333333    0.00000000000000            12
    0.41666666666667    0.08333333333333    0.00000000000000            12
    0.16666666666667    0.16666666666667    0.00000000000000             6
    0.25000000000000    0.16666666666667    0.00000000000000            12
    0.33333333333333    0.16666666666667    0.00000000000000            12
    0.41666666666667    0.16666666666667    0.00000000000000             6
    0.25000000000000    0.25000000000000    0.00000000000000             6
    0.33333333333333    0.25000000000000    0.00000000000000            12
    0.33333333333333    0.33333333333333    0.00000000000000             2
Tetrahedra
        76    0.00115740740741
        12         2         2         2         8
        12         1         2         2         2
         6         1         1         2         2
         6         2         2         8         8
        12         3         8         8         9
        12         2         3         8         8
        12         2         2         3         8
        12         3         8         9         9
        12         3         3         8         9
        12         2         3         3         8
        12         4         9         9        10
        12         3         4         9         9
        12         3         3         4         9
        12         4         9        10        10
        12         4         4         9        10
        12         3         4         4         9
        12         5        10        10        11
        12         4         5        10        10
        12         4         4         5        10
        12         5        10        11        11
        12         5         5        10        11
        12         4         5         5        10
        12         6        11        11        12
        12         5         6        11        11
        12         5         5         6        11
        12         6        11        12        12
        12         6         6        11        12
        12         5         6         6        11
        12         7        12        12        12
        12         6         7        12        12
        12         6         6         7        12
         6         7         7        12        12
        12         6         7         7        12
        12         9         9         9        13
        12         8         9         9         9
         6         8         8         9         9
         6         9         9        13        13
        12        10        13        13        14
        12         9        10        13        13
        12         9         9        10        13
        12        10        13        14        14
        12        10        10        13        14
        12         9        10        10        13
        12        11        14        14        15
        12        10        11        14        14
        12        10        10        11        14
        12        11        14        15        15
        12        11        11        14        15
        12        10        11        11        14
        12        12        15        15        16
        12        11        12        15        15
        12        11        11        12        15
        12        12        15        16        16
        12        12        12        15        16
        12        11        12        12        15
         6        12        12        16        16
        12        12        12        12        16
        12        14        14        14        17
        12        13        14        14        14
         6        13        13        14        14
         6        14        14        17        17
        12        15        17        17        18
        12        14        15        17        17
        12        14        14        15        17
        12        15        17        18        18
        12        15        15        17        18
        12        14        15        15        17
        12        16        18        18        18
        12        15        16        18        18
        12        15        15        16        18
         6        16        16        18        18
        12        15        16        16        18
        24        18        18        18        19
        12        17        18        18        18
         6        17        17        18        18
        12        18        18        19        19
