       N       E                     dE             d eps       ncg     rms          rms(c)
DAV:   1    -0.672287490392E+02   -0.67229E+02   -0.61898E-09   840   0.464E-04    0.464E-05
DAV:   2    -0.672287490396E+02   -0.41314E-09   -0.13444E-09  1056   0.206E-04
   1 F= -.67228749E+02 E0= -.67226101E+02  d E =-.529553E-02
