       N       E                     dE             d eps       ncg     rms          rms(c)
DAV:   1    -0.672277302791E+02   -0.67228E+02   -0.47057E-08   912   0.125E-03
DAV:   2    -0.672277302799E+02   -0.80786E-09   -0.82346E-09   828   0.538E-04
   1 F= -.67227730E+02 E0= -.67227730E+02  d E =-.655236E-07
