       N       E                     dE             d eps       ncg     rms          rms(c)
DAV:   1    -0.672287490404E+02   -0.67229E+02   -0.11961E-09   840   0.184E-04    0.303E-05
DAV:   2    -0.672287490408E+02   -0.31741E-09   -0.37166E-10   732   0.115E-04
   1 F= -.67228749E+02 E0= -.67226101E+02  d E =-.529549E-02
