<?xml version="1.0" encoding="ISO-8859-1"?>
<modeling>
 <generator>
  <i name="program" type="string">vasp </i>
  <i name="version" type="string">5.4.4.18Apr17-6-g9f103f2a35  </i>
  <i name="subversion" type="string">(build Mar 30 2023 15:39:25) complex            parallel </i>
  <i name="platform" type="string">LinuxIFC </i>
  <i name="date" type="string">2023 06 23 </i>
  <i name="time" type="string">14:31:24 </i>
 </generator>
 <incar>
  <i type="string" name="SYSTEM"> BC3</i>
  <i type="int" name="ISTART">     1</i>
  <i type="string" name="PREC">accurate</i>
  <i type="string" name="ALGO"> Normal</i>
  <i type="int" name="ICHARG">    11</i>
  <i type="int" name="IBRION">    -1</i>
  <i name="EDIFF">      0.00000100</i>
  <i name="EDIFFG">     -0.00100000</i>
  <i type="int" name="NSW">     0</i>
  <i name="ENCUT">    450.00000000</i>
  <i type="int" name="NEDOS">  1000</i>
  <i type="int" name="ISMEAR">     0</i>
  <i name="SIGMA">      0.10000000</i>
  <i type="int" name="LORBIT">    11</i>
  <v type="int" name="KPOINT_BSE">    -1     0     0     0</v>
 </incar>
 <structure name="primitive_cell" >
  <crystal>
   <varray name="basis" >
    <v>       4.48084843       2.58701885       0.00000000 </v>
    <v>      -4.48084843       2.58701885       0.00000000 </v>
    <v>       0.00000000       0.00000000       8.52022140 </v>
   </varray>
   <i name="volume">    197.53348383 </i>
   <varray name="rec_basis" >
    <v>       0.11158601       0.19327265       0.00000000 </v>
    <v>      -0.11158601       0.19327265       0.00000000 </v>
    <v>       0.00000000       0.00000000       0.11736784 </v>
   </varray>
  </crystal>
  <varray name="positions" >
   <v>       0.33333300      -0.33333400       0.25000000 </v>
   <v>       0.15869124       0.31738348       0.25000000 </v>
   <v>      -0.31738448      -0.15869224       0.25000000 </v>
   <v>       0.15869124      -0.15869224       0.25000000 </v>
   <v>      -0.15869224       0.15869124       0.25000000 </v>
   <v>       0.31738348       0.15869124       0.25000000 </v>
   <v>      -0.15869224      -0.31738448       0.25000000 </v>
   <v>      -0.33333400       0.33333300       0.25000000 </v>
  </varray>
 </structure>
 <varray name="primitive_index" >
  <v type="int" >        1 </v>
  <v type="int" >        3 </v>
  <v type="int" >        7 </v>
  <v type="int" >        5 </v>
  <v type="int" >        6 </v>
  <v type="int" >        4 </v>
  <v type="int" >        8 </v>
  <v type="int" >        2 </v>
 </varray>
 <kpoints>
  <generation param="Gamma">
   <v type="int" name="divisions">      12       12        1 </v>
   <v name="usershift">      0.00000000       0.00000000       0.00000000 </v>
   <v name="genvec1">      0.08333333       0.00000000       0.00000000 </v>
   <v name="genvec2">      0.00000000       0.08333333       0.00000000 </v>
   <v name="genvec3">      0.00000000       0.00000000       1.00000000 </v>
   <v name="shift">      0.00000000       0.00000000       0.00000000 </v>
  </generation>
  <varray name="kpointlist" >
   <v>       0.00000000       0.00000000       0.00000000 </v>
   <v>       0.08333333       0.00000000       0.00000000 </v>
   <v>       0.16666667       0.00000000       0.00000000 </v>
   <v>       0.25000000      -0.00000000       0.00000000 </v>
   <v>       0.33333333      -0.00000000       0.00000000 </v>
   <v>       0.41666667       0.00000000       0.00000000 </v>
   <v>       0.50000000      -0.00000000       0.00000000 </v>
   <v>       0.08333333       0.08333333       0.00000000 </v>
   <v>       0.16666667       0.08333333       0.00000000 </v>
   <v>       0.25000000       0.08333333       0.00000000 </v>
   <v>       0.33333333       0.08333333       0.00000000 </v>
   <v>       0.41666667       0.08333333       0.00000000 </v>
   <v>       0.16666667       0.16666667       0.00000000 </v>
   <v>       0.25000000       0.16666667       0.00000000 </v>
   <v>       0.33333333       0.16666667       0.00000000 </v>
   <v>       0.41666667       0.16666667       0.00000000 </v>
   <v>       0.25000000       0.25000000       0.00000000 </v>
   <v>       0.33333333       0.25000000       0.00000000 </v>
   <v>       0.33333333       0.33333333       0.00000000 </v>
  </varray>
  <varray name="weights" >
   <v>       0.00694444 </v>
   <v>       0.04166667 </v>
   <v>       0.04166667 </v>
   <v>       0.04166667 </v>
   <v>       0.04166667 </v>
   <v>       0.04166667 </v>
   <v>       0.02083333 </v>
   <v>       0.04166667 </v>
   <v>       0.08333333 </v>
   <v>       0.08333333 </v>
   <v>       0.08333333 </v>
   <v>       0.08333333 </v>
   <v>       0.04166667 </v>
   <v>       0.08333333 </v>
   <v>       0.08333333 </v>
   <v>       0.04166667 </v>
   <v>       0.04166667 </v>
   <v>       0.08333333 </v>
   <v>       0.01388889 </v>
  </varray>
 </kpoints>
 <parameters>
  <separator name="general" >
   <i type="string" name="SYSTEM">BC3</i>
   <i type="logical" name="LCOMPAT"> F  </i>
  </separator>
  <separator name="electronic" >
   <i type="string" name="PREC">accura</i>
   <i name="ENMAX">    450.00000000</i>
   <i name="ENAUG">    644.87300000</i>
   <i name="EDIFF">      0.00000100</i>
   <i type="int" name="IALGO">    38</i>
   <i type="int" name="IWAVPR">    10</i>
   <i type="int" name="NBANDS">    24</i>
   <i name="NELECT">     30.00000000</i>
   <i type="int" name="TURBO">     0</i>
   <i type="int" name="IRESTART">     0</i>
   <i type="int" name="NREBOOT">     0</i>
   <i type="int" name="NMIN">     0</i>
   <i name="EREF">      0.00000000</i>
   <separator name="electronic smearing" >
    <i type="int" name="ISMEAR">     0</i>
    <i name="SIGMA">      0.10000000</i>
    <i name="KSPACING">      0.50000000</i>
    <i type="logical" name="KGAMMA"> T  </i>
   </separator>
   <separator name="electronic projectors" >
    <i type="logical" name="LREAL"> F  </i>
    <v name="ROPT">      0.00000000      0.00000000</v>
    <i type="int" name="LMAXPAW">  -100</i>
    <i type="int" name="LMAXMIX">     2</i>
    <i type="logical" name="NLSPLINE"> F  </i>
   </separator>
   <separator name="electronic startup" >
    <i type="int" name="ISTART">     1</i>
    <i type="int" name="ICHARG">    11</i>
    <i type="int" name="INIWAV">     1</i>
   </separator>
   <separator name="electronic spin" >
    <i type="int" name="ISPIN">     1</i>
    <i type="logical" name="LNONCOLLINEAR"> F  </i>
    <v name="MAGMOM">      1.00000000      1.00000000      1.00000000      1.00000000      1.00000000      1.00000000      1.00000000      1.00000000</v>
    <i name="NUPDOWN">     -1.00000000</i>
    <i type="logical" name="LSORBIT"> F  </i>
    <v name="SAXIS">      0.00000000      0.00000000      1.00000000</v>
    <i type="logical" name="LSPIRAL"> F  </i>
    <v name="QSPIRAL">      0.00000000      0.00000000      0.00000000</v>
    <i type="logical" name="LZEROZ"> F  </i>
   </separator>
   <separator name="electronic exchange-correlation" >
    <i type="logical" name="LASPH"> F  </i>
    <i type="logical" name="LMETAGGA"> F  </i>
   </separator>
   <separator name="electronic convergence" >
    <i type="int" name="NELM">    60</i>
    <i type="int" name="NELMDL">     0</i>
    <i type="int" name="NELMIN">     2</i>
    <i name="ENINI">    450.00000000</i>
    <separator name="electronic convergence detail" >
     <i type="logical" name="LDIAG"> T  </i>
     <i type="logical" name="LSUBROT"> F  </i>
     <i name="WEIMIN">      0.00000000</i>
     <i name="EBREAK">      0.00000001</i>
     <i name="DEPER">      0.30000000</i>
     <i type="int" name="NRMM">     4</i>
     <i name="TIME">      0.40000000</i>
    </separator>
   </separator>
   <separator name="electronic mixer" >
    <i name="AMIX">      0.40000000</i>
    <i name="BMIX">      1.00000000</i>
    <i name="AMIN">      0.10000000</i>
    <i name="AMIX_MAG">      1.60000000</i>
    <i name="BMIX_MAG">      1.00000000</i>
    <separator name="electronic mixer details" >
     <i type="int" name="IMIX">     4</i>
     <i type="logical" name="MIXFIRST"> F  </i>
     <i type="int" name="MAXMIX">   -45</i>
     <i name="WC">    100.00000000</i>
     <i type="int" name="INIMIX">     1</i>
     <i type="int" name="MIXPRE">     1</i>
     <i type="int" name="MREMOVE">     5</i>
    </separator>
   </separator>
   <separator name="electronic dipolcorrection" >
    <i type="logical" name="LDIPOL"> F  </i>
    <i type="logical" name="LMONO"> F  </i>
    <i type="int" name="IDIPOL">     0</i>
    <i name="EPSILON">      1.00000000</i>
    <v name="DIPOL">   -100.00000000   -100.00000000   -100.00000000</v>
    <i name="EFIELD">      0.00000000</i>
   </separator>
  </separator>
  <separator name="grids" >
   <i type="int" name="NGX">    36</i>
   <i type="int" name="NGY">    36</i>
   <i type="int" name="NGZ">    60</i>
   <i type="int" name="NGXF">    72</i>
   <i type="int" name="NGYF">    72</i>
   <i type="int" name="NGZF">   120</i>
   <i type="logical" name="ADDGRID"> F  </i>
  </separator>
  <separator name="ionic" >
   <i type="int" name="NSW">     0</i>
   <i type="int" name="IBRION">    -1</i>
   <i type="int" name="MDALGO">     0</i>
   <i type="int" name="ISIF">     2</i>
   <i name="PSTRESS">      0.00000000</i>
   <i name="EDIFFG">     -0.00100000</i>
   <i type="int" name="NFREE">     0</i>
   <i name="POTIM">      0.50000000</i>
   <i name="SMASS">     -3.00000000</i>
   <i name="SCALEE">      1.00000000</i>
  </separator>
  <separator name="ionic md" >
   <i name="TEBEG">      0.00010000</i>
   <i name="TEEND">      0.00010000</i>
   <i type="int" name="NBLOCK">     1</i>
   <i type="int" name="KBLOCK">     1</i>
   <i type="int" name="NPACO">   256</i>
   <i name="APACO">     16.00000000</i>
  </separator>
  <separator name="symmetry" >
   <i type="int" name="ISYM">     2</i>
   <i name="SYMPREC">      0.00001000</i>
  </separator>
  <separator name="dos" >
   <i type="int" name="LORBIT">    11</i>
   <v name="RWIGS">     -1.00000000     -1.00000000</v>
   <i type="int" name="NEDOS">  1000</i>
   <i name="EMIN">     10.00000000</i>
   <i name="EMAX">    -10.00000000</i>
   <i name="EFERMI">      0.00000000</i>
  </separator>
  <separator name="writing" >
   <i type="int" name="NWRITE">     2</i>
   <i type="logical" name="LWAVE"> T  </i>
   <i type="logical" name="LDOWNSAMPLE"> F  </i>
   <i type="logical" name="LCHARG"> T  </i>
   <i type="logical" name="LPARD"> F  </i>
   <i type="logical" name="LVTOT"> F  </i>
   <i type="logical" name="LVHAR"> F  </i>
   <i type="logical" name="LELF"> F  </i>
   <i type="logical" name="LOPTICS"> F  </i>
   <v name="STM">      0.00000000      0.00000000      0.00000000      0.00000000      0.00000000      0.00000000      0.00000000</v>
  </separator>
  <separator name="performance" >
   <i type="int" name="NPAR">    12</i>
   <i type="int" name="NSIM">     4</i>
   <i type="int" name="NBLK">    -1</i>
   <i type="logical" name="LPLANE"> T  </i>
   <i type="logical" name="LSCALAPACK"> T  </i>
   <i type="logical" name="LSCAAWARE"> F  </i>
   <i type="logical" name="LSCALU"> F  </i>
   <i type="logical" name="LASYNC"> F  </i>
   <i type="logical" name="LORBITALREAL"> F  </i>
  </separator>
  <separator name="miscellaneous" >
   <i type="int" name="IDIOT">     3</i>
   <i type="int" name="ISPECIAL">     0</i>
   <i type="logical" name="LMUSIC"> F  </i>
   <v name="POMASS">     10.81100000     12.01100000</v>
   <v name="DARWINR">      0.00000000      0.00000000</v>
   <v name="DARWINV">      1.00000000      1.00000000</v>
   <i type="logical" name="LCORR"> T  </i>
  </separator>
  <i type="logical" name="GGA_COMPAT"> T  </i>
  <i type="logical" name="LBERRY"> F  </i>
  <i type="int" name="ICORELEVEL">     0</i>
  <i type="logical" name="LDAU"> F  </i>
  <i type="int" name="I_CONSTRAINED_M">     0</i>
  <separator name="electronic exchange-correlation" >
   <i type="string" name="GGA">--</i>
   <i type="int" name="VOSKOWN">     0</i>
   <i type="logical" name="LHFCALC"> F  </i>
   <i type="string" name="PRECFOCK"></i>
   <i type="logical" name="LSYMGRAD"> F  </i>
   <i type="logical" name="LHFONE"> F  </i>
   <i type="logical" name="LRHFCALC"> F  </i>
   <i type="logical" name="LTHOMAS"> F  </i>
   <i type="logical" name="LMODELHF"> F  </i>
   <i name="ENCUT4O">     -1.00000000</i>
   <i type="int" name="EXXOEP">     0</i>
   <i type="int" name="FOURORBIT">     0</i>
   <i name="AEXX">      0.00000000</i>
   <i name="HFALPHA">      0.00000000</i>
   <i name="MCALPHA">      0.00000000</i>
   <i name="ALDAX">      1.00000000</i>
   <i name="AGGAX">      1.00000000</i>
   <i name="ALDAC">      1.00000000</i>
   <i name="AGGAC">      1.00000000</i>
   <i type="int" name="NKREDX">     1</i>
   <i type="int" name="NKREDY">     1</i>
   <i type="int" name="NKREDZ">     1</i>
   <i type="logical" name="SHIFTRED"> F  </i>
   <i type="logical" name="ODDONLY"> F  </i>
   <i type="logical" name="EVENONLY"> F  </i>
   <i type="int" name="LMAXFOCK">     0</i>
   <i type="int" name="NMAXFOCKAE">     0</i>
   <i type="logical" name="LFOCKAEDFT"> F  </i>
   <i name="HFSCREEN">      0.00000000</i>
   <i name="HFSCREENC">      0.00000000</i>
   <i type="int" name="NBANDSGWLOW">     0</i>
  </separator>
  <separator name="vdW DFT" >
   <i type="logical" name="LUSE_VDW"> F  </i>
   <i name="Zab_VDW">     -0.84910000</i>
   <i name="PARAM1">      0.12340000</i>
   <i name="PARAM2">      1.00000000</i>
   <i name="PARAM3">      0.00000000</i>
  </separator>
  <separator name="model GW" >
   <i type="int" name="MODEL_GW">     0</i>
   <i name="MODEL_EPS0">     14.81501129</i>
   <i name="MODEL_ALPHA">      1.00000000</i>
  </separator>
  <separator name="linear response parameters" >
   <i type="logical" name="LEPSILON"> F  </i>
   <i type="logical" name="LRPA"> F  </i>
   <i type="logical" name="LNABLA"> F  </i>
   <i type="logical" name="LVEL"> F  </i>
   <i type="int" name="KINTER">     0</i>
   <i name="CSHIFT">      0.10000000</i>
   <i name="OMEGAMAX">     -1.00000000</i>
   <i name="DEG_THRESHOLD">      0.00200000</i>
   <i name="RTIME">     -0.10000000</i>
   <i name="WPLASMAI">      0.00000000</i>
   <v name="DFIELD">      0.00000000      0.00000000      0.00000000</v>
   <v name="WPLASMA">      0.00000000      0.00000000      0.00000000      0.00000000      0.00000000      0.00000000      0.00000000      0.00000000      0.00000000</v>
  </separator>
  <separator name="orbital magnetization" >
   <i type="logical" name="NUCIND"> F  </i>
   <v name="MAGPOS">      0.00000000      0.00000000      0.00000000</v>
   <i type="logical" name="LNICSALL"> T  </i>
   <i type="logical" name="ORBITALMAG"> F  </i>
   <i type="logical" name="LMAGBLOCH"> F  </i>
   <i type="logical" name="LCHIMAG"> F  </i>
   <i type="logical" name="LGAUGE"> T  </i>
   <i type="int" name="MAGATOM">     0</i>
   <v name="MAGDIPOL">      0.00000000      0.00000000      0.00000000</v>
   <v name="AVECCONST">      0.00000000      0.00000000      0.00000000</v>
  </separator>
  <separator name="response functions" >
   <i type="logical" name="LADDER"> F  </i>
   <i type="logical" name="LRPAFORCE"> F  </i>
   <i type="logical" name="LFXC"> F  </i>
   <i type="logical" name="LHARTREE"> T  </i>
   <i type="int" name="IBSE">     0</i>
   <v type="int" name="KPOINT">    -1     0     0     0</v>
   <i type="logical" name="LTCTE"> F  </i>
   <i type="logical" name="LTETE"> F  </i>
   <i type="logical" name="LTRIPLET"> F  </i>
   <i type="logical" name="LFXCEPS"> F  </i>
   <i type="logical" name="LFXHEG"> F  </i>
   <i type="int" name="NATURALO">     2</i>
   <i type="logical" name="L2ORDER"> F  </i>
   <i type="logical" name="LMP2LT"> F  </i>
   <i type="logical" name="LUSEW"> F  </i>
   <i name="ENCUTGW">     -2.00000000</i>
   <i name="ENCUTGWSOFT">     -2.00000000</i>
   <i name="ENCUTLF">     -1.00000000</i>
   <i type="int" name="LMAXMP2">    -1</i>
   <i name="SCISSOR">      0.00000000</i>
   <i type="int" name="NOMEGA">     0</i>
   <i type="int" name="NOMEGAR">     0</i>
   <i type="int" name="NBANDSGW">    -1</i>
   <i type="int" name="NBANDSO">    -1</i>
   <i type="int" name="NBANDSV">    -1</i>
   <i type="int" name="NELM">     1</i>
   <i type="int" name="NELMHF">     1</i>
   <i type="int" name="DIM">     3</i>
   <i type="int" name="ANTIRES">     0</i>
   <i name="OMEGAMAX">    -30.00000000</i>
   <i name="OMEGAMIN">    -30.00000000</i>
   <i name="OMEGATL">   -200.00000000</i>
   <i type="int" name="OMEGAGRID">   140</i>
   <i name="CSHIFT">     -0.10000000</i>
   <i type="logical" name="SELFENERGY"> F  </i>
   <i type="logical" name="LSPECTRAL"> F  </i>
   <i type="logical" name="LSPECTRALGW"> F  </i>
   <i type="logical" name="LSINGLES"> F  </i>
   <i type="logical" name="LFERMIGW"> F  </i>
   <i type="logical" name="ODDONLYGW"> F  </i>
   <i type="logical" name="EVENONLYGW"> F  </i>
   <i type="int" name="NKREDLFX">     1</i>
   <i type="int" name="NKREDLFY">     1</i>
   <i type="int" name="NKREDLFZ">     1</i>
   <i type="int" name="MAXMEM">  2800</i>
   <i type="int" name="TELESCOPE">     0</i>
   <i type="int" name="TAUPAR">     1</i>
   <i type="int" name="OMEGAPAR">    -1</i>
   <i name="LAMBDA">      1.00000000</i>
  </separator>
  <separator name="External order field" >
   <i name="OFIELD_KAPPA">      0.00000000</i>
   <v name="OFIELD_K">      0.00000000      0.00000000      0.00000000</v>
   <i name="OFIELD_Q6_NEAR">      0.00000000</i>
   <i name="OFIELD_Q6_FAR">      0.00000000</i>
   <i name="OFIELD_A">      0.00000000</i>
  </separator>
 </parameters>
 <atominfo>
  <atoms>       8 </atoms>
  <types>       2 </types>
  <array name="atoms" >
   <dimension dim="1">ion</dimension>
   <field type="string">element</field>
   <field type="int">atomtype</field>
   <set>
    <rc><c>B </c><c>   1</c></rc>
    <rc><c>B </c><c>   1</c></rc>
    <rc><c>C </c><c>   2</c></rc>
    <rc><c>C </c><c>   2</c></rc>
    <rc><c>C </c><c>   2</c></rc>
    <rc><c>C </c><c>   2</c></rc>
    <rc><c>C </c><c>   2</c></rc>
    <rc><c>C </c><c>   2</c></rc>
   </set>
  </array>
  <array name="atomtypes" >
   <dimension dim="1">type</dimension>
   <field type="int">atomspertype</field>
   <field type="string">element</field>
   <field>mass</field>
   <field>valence</field>
   <field type="string">pseudopotential</field>
   <set>
    <rc><c>   2</c><c>B </c><c>     10.81100000</c><c>      3.00000000</c><c>  PAW_PBE B 06Sep2000                   </c></rc>
    <rc><c>   6</c><c>C </c><c>     12.01100000</c><c>      4.00000000</c><c>  PAW_PBE C 08Apr2002                   </c></rc>
   </set>
  </array>
 </atominfo>
 <structure name="initialpos" >
  <crystal>
   <varray name="basis" >
    <v>       4.48084843       2.58701885       0.00000000 </v>
    <v>      -4.48084843       2.58701885       0.00000000 </v>
    <v>       0.00000000       0.00000000       8.52022140 </v>
   </varray>
   <i name="volume">    197.53348383 </i>
   <varray name="rec_basis" >
    <v>       0.11158601       0.19327265       0.00000000 </v>
    <v>      -0.11158601       0.19327265       0.00000000 </v>
    <v>       0.00000000       0.00000000       0.11736784 </v>
   </varray>
  </crystal>
  <varray name="positions" >
   <v>       0.33333300       0.66666600       0.25000000 </v>
   <v>       0.66666600       0.33333300       0.25000000 </v>
   <v>       0.15869124       0.31738348       0.25000000 </v>
   <v>       0.31738348       0.15869124       0.25000000 </v>
   <v>       0.15869124       0.84130776       0.25000000 </v>
   <v>       0.84130776       0.15869124       0.25000000 </v>
   <v>       0.68261552       0.84130776       0.25000000 </v>
   <v>       0.84130776       0.68261552       0.25000000 </v>
  </varray>
 </structure>
 <calculation>
  <scstep>
   <time name="dav">    0.59    0.59</time>
   <time name="total">    0.62    0.62</time>
   <energy>
    <i name="alphaZ">     25.67921176 </i>
    <i name="ewald">    700.27145080 </i>
    <i name="hartreedc">  -1646.75180825 </i>
    <i name="XCdc">     96.02423578 </i>
    <i name="pawpsdc">   2894.38173162 </i>
    <i name="pawaedc">  -2896.90894473 </i>
    <i name="eentropy">     -0.00000007 </i>
    <i name="bandstr">   -265.12750672 </i>
    <i name="atom">   1025.20389953 </i>
    <i name="e_fr_energy">    -67.22773028 </i>
    <i name="e_wo_entrp">    -67.22773021 </i>
    <i name="e_0_energy">    -67.22773025 </i>
   </energy>
  </scstep>
  <scstep>
   <time name="dav">    0.54    0.54</time>
   <time name="total">    0.54    0.54</time>
   <energy>
    <i name="alphaZ">     25.67921176 </i>
    <i name="ewald">    700.27145080 </i>
    <i name="hartreedc">  -1646.75180825 </i>
    <i name="XCdc">     96.02423578 </i>
    <i name="pawpsdc">   2894.38173162 </i>
    <i name="pawaedc">  -2896.90894473 </i>
    <i name="eentropy">     -0.00000007 </i>
    <i name="bandstr">   -265.12750672 </i>
    <i name="atom">   1025.20389953 </i>
    <i name="e_fr_energy">    -67.22773028 </i>
    <i name="e_wo_entrp">    -67.22773021 </i>
    <i name="e_0_energy">    -67.22773025 </i>
   </energy>
  </scstep>
  <structure>
   <crystal>
    <varray name="basis" >
     <v>       4.48084843       2.58701885       0.00000000 </v>
     <v>      -4.48084843       2.58701885       0.00000000 </v>
     <v>       0.00000000       0.00000000       8.52022140 </v>
    </varray>
    <i name="volume">    197.53348383 </i>
    <varray name="rec_basis" >
     <v>       0.11158601       0.19327265       0.00000000 </v>
     <v>      -0.11158601       0.19327265       0.00000000 </v>
     <v>       0.00000000       0.00000000       0.11736784 </v>
    </varray>
   </crystal>
   <varray name="positions" >
    <v>       0.33333300       0.66666600       0.25000000 </v>
    <v>       0.66666600       0.33333300       0.25000000 </v>
    <v>       0.15869124       0.31738348       0.25000000 </v>
    <v>       0.31738348       0.15869124       0.25000000 </v>
    <v>       0.15869124       0.84130776       0.25000000 </v>
    <v>       0.84130776       0.15869124       0.25000000 </v>
    <v>       0.68261552       0.84130776       0.25000000 </v>
    <v>       0.84130776       0.68261552       0.25000000 </v>
   </varray>
  </structure>
  <varray name="forces" >
   <v>      -0.00000000      -0.00000000       0.00000000 </v>
   <v>       0.00000000      -0.00000000       0.00000000 </v>
   <v>      -0.00044118       0.00076414       0.00000000 </v>
   <v>       0.00044118       0.00076414       0.00000000 </v>
   <v>       0.00088236      -0.00000000      -0.00000000 </v>
   <v>      -0.00088236      -0.00000000       0.00000000 </v>
   <v>      -0.00044118      -0.00076414      -0.00000000 </v>
   <v>       0.00044118      -0.00076414      -0.00000000 </v>
  </varray>
  <varray name="stress" >
   <v>      -0.52783093       0.00000000      -0.00000000 </v>
   <v>       0.00000000      -0.52783085      -0.00000000 </v>
   <v>       0.00000000      -0.00000000      -1.26145892 </v>
  </varray>
  <energy>
   <i name="e_fr_energy">    -67.22773028 </i>
   <i name="e_wo_entrp">    -67.22773025 </i>
   <i name="e_0_energy">     -0.00000007 </i>
  </energy>
  <time name="totalsc">    2.81    3.01</time>
  <eigenvalues>
   <array>
    <dimension dim="1">band</dimension>
    <dimension dim="2">kpoint</dimension>
    <dimension dim="3">spin</dimension>
    <field>eigene</field>
    <field>occ</field>
    <set>
     <set comment="spin 1">
      <set comment="kpoint 1">
       <r>  -18.5405    1.0000 </r>
       <r>  -14.6490    1.0000 </r>
       <r>  -14.6489    1.0000 </r>
       <r>  -12.2992    1.0000 </r>
       <r>  -12.2992    1.0000 </r>
       <r>  -11.2308    1.0000 </r>
       <r>   -9.9134    1.0000 </r>
       <r>   -7.3453    1.0000 </r>
       <r>   -7.1250    1.0000 </r>
       <r>   -4.9710    1.0000 </r>
       <r>   -4.9710    1.0000 </r>
       <r>   -3.1494    1.0000 </r>
       <r>   -3.1493    1.0000 </r>
       <r>   -2.4667    1.0000 </r>
       <r>   -2.4666    1.0000 </r>
       <r>   -0.6314    0.0000 </r>
       <r>    1.1011    0.0000 </r>
       <r>    1.1011    0.0000 </r>
       <r>    1.7906    0.0000 </r>
       <r>    1.9212    0.0000 </r>
       <r>    4.5207    0.0000 </r>
       <r>    5.9119    0.0000 </r>
       <r>    6.3151    0.0000 </r>
       <r>    6.3151    0.0000 </r>
      </set>
      <set comment="kpoint 2">
       <r>  -18.5134    1.0000 </r>
       <r>  -14.7810    1.0000 </r>
       <r>  -14.6913    1.0000 </r>
       <r>  -12.3384    1.0000 </r>
       <r>  -12.2008    1.0000 </r>
       <r>  -11.0962    1.0000 </r>
       <r>   -9.7530    1.0000 </r>
       <r>   -7.3041    1.0000 </r>
       <r>   -7.1823    1.0000 </r>
       <r>   -5.0944    1.0000 </r>
       <r>   -4.9934    1.0000 </r>
       <r>   -3.2738    1.0000 </r>
       <r>   -3.1698    1.0000 </r>
       <r>   -2.6092    1.0000 </r>
       <r>   -2.5354    1.0000 </r>
       <r>   -0.8361    0.0000 </r>
       <r>    1.1604    0.0000 </r>
       <r>    1.4115    0.0000 </r>
       <r>    1.9153    0.0000 </r>
       <r>    1.9730    0.0000 </r>
       <r>    4.5728    0.0000 </r>
       <r>    5.9681    0.0000 </r>
       <r>    6.3866    0.0000 </r>
       <r>    6.4781    0.0000 </r>
      </set>
      <set comment="kpoint 3">
       <r>  -18.4343    1.0000 </r>
       <r>  -15.1060    1.0000 </r>
       <r>  -14.7955    1.0000 </r>
       <r>  -12.4549    1.0000 </r>
       <r>  -11.9317    1.0000 </r>
       <r>  -10.7150    1.0000 </r>
       <r>   -9.3236    1.0000 </r>
       <r>   -7.3646    1.0000 </r>
       <r>   -7.1817    1.0000 </r>
       <r>   -5.4404    1.0000 </r>
       <r>   -5.0296    1.0000 </r>
       <r>   -3.6158    1.0000 </r>
       <r>   -3.2241    1.0000 </r>
       <r>   -3.0165    1.0000 </r>
       <r>   -2.7272    1.0000 </r>
       <r>   -1.1839    0.0000 </r>
       <r>    1.3238    0.0000 </r>
       <r>    1.8881    0.0000 </r>
       <r>    2.1277    0.0000 </r>
       <r>    2.4358    0.0000 </r>
       <r>    4.7294    0.0000 </r>
       <r>    6.1230    0.0000 </r>
       <r>    6.5551    0.0000 </r>
       <r>    6.9594    0.0000 </r>
      </set>
      <set comment="kpoint 4">
       <r>  -18.3113    1.0000 </r>
       <r>  -15.5026    1.0000 </r>
       <r>  -14.9179    1.0000 </r>
       <r>  -12.6026    1.0000 </r>
       <r>  -11.5471    1.0000 </r>
       <r>  -10.1724    1.0000 </r>
       <r>   -8.7139    1.0000 </r>
       <r>   -7.6783    1.0000 </r>
       <r>   -6.9823    1.0000 </r>
       <r>   -5.9473    1.0000 </r>
       <r>   -5.0208    1.0000 </r>
       <r>   -4.0931    1.0000 </r>
       <r>   -3.6340    1.0000 </r>
       <r>   -3.2942    1.0000 </r>
       <r>   -3.0028    1.0000 </r>
       <r>   -1.4707    0.0000 </r>
       <r>    1.5522    0.0000 </r>
       <r>    2.2445    0.0000 </r>
       <r>    2.3845    0.0000 </r>
       <r>    3.3190    0.0000 </r>
       <r>    4.9927    0.0000 </r>
       <r>    6.0206    0.0000 </r>
       <r>    6.3575    0.0000 </r>
       <r>    6.7509    0.0000 </r>
      </set>
      <set comment="kpoint 5">
       <r>  -18.1627    1.0000 </r>
       <r>  -15.8798    1.0000 </r>
       <r>  -15.0240    1.0000 </r>
       <r>  -12.7316    1.0000 </r>
       <r>  -11.1092    1.0000 </r>
       <r>   -9.5492    1.0000 </r>
       <r>   -8.0853    1.0000 </r>
       <r>   -8.0108    1.0000 </r>
       <r>   -6.7178    1.0000 </r>
       <r>   -6.5247    1.0000 </r>
       <r>   -4.9417    1.0000 </r>
       <r>   -4.6103    1.0000 </r>
       <r>   -4.3954    1.0000 </r>
       <r>   -3.3602    1.0000 </r>
       <r>   -3.3072    1.0000 </r>
       <r>   -1.6689    0.0000 </r>
       <r>    1.7888    0.0000 </r>
       <r>    2.5685    0.0000 </r>
       <r>    2.7425    0.0000 </r>
       <r>    4.2903    0.0000 </r>
       <r>    5.1734    0.0000 </r>
       <r>    5.3723    0.0000 </r>
       <r>    6.6294    0.0000 </r>
       <r>    6.9214    0.0000 </r>
      </set>
      <set comment="kpoint 6">
       <r>  -18.0274    1.0000 </r>
       <r>  -16.1629    1.0000 </r>
       <r>  -15.0940    1.0000 </r>
       <r>  -12.8160    1.0000 </r>
       <r>  -10.7080    1.0000 </r>
       <r>   -8.9042    1.0000 </r>
       <r>   -8.4816    1.0000 </r>
       <r>   -7.5745    1.0000 </r>
       <r>   -6.7929    1.0000 </r>
       <r>   -6.4253    1.0000 </r>
       <r>   -5.2342    1.0000 </r>
       <r>   -5.0733    1.0000 </r>
       <r>   -4.8255    1.0000 </r>
       <r>   -3.5685    1.0000 </r>
       <r>   -3.4064    1.0000 </r>
       <r>   -1.7847    0.0000 </r>
       <r>    1.9691    0.0000 </r>
       <r>    2.8121    0.0000 </r>
       <r>    3.2012    0.0000 </r>
       <r>    4.4180    0.0000 </r>
       <r>    5.2007    0.0000 </r>
       <r>    5.8937    0.0000 </r>
       <r>    6.7443    0.0000 </r>
       <r>    6.7973    0.0000 </r>
      </set>
      <set comment="kpoint 7">
       <r>  -17.9689    1.0000 </r>
       <r>  -16.2722    1.0000 </r>
       <r>  -15.1183    1.0000 </r>
       <r>  -12.8452    1.0000 </r>
       <r>  -10.5233    1.0000 </r>
       <r>   -8.6675    1.0000 </r>
       <r>   -8.4603    1.0000 </r>
       <r>   -7.8540    1.0000 </r>
       <r>   -6.2579    1.0000 </r>
       <r>   -6.2284    1.0000 </r>
       <r>   -5.9751    1.0000 </r>
       <r>   -5.3004    1.0000 </r>
       <r>   -4.7630    1.0000 </r>
       <r>   -3.6805    1.0000 </r>
       <r>   -3.4228    1.0000 </r>
       <r>   -1.8228    0.0000 </r>
       <r>    2.0368    0.0000 </r>
       <r>    2.9043    0.0000 </r>
       <r>    3.7584    0.0000 </r>
       <r>    3.7615    0.0000 </r>
       <r>    5.8295    0.0000 </r>
       <r>    6.0177    0.0000 </r>
       <r>    6.6833    0.0000 </r>
       <r>    6.8323    0.0000 </r>
      </set>
      <set comment="kpoint 8">
       <r>  -18.4602    1.0000 </r>
       <r>  -14.9944    1.0000 </r>
       <r>  -14.7810    1.0000 </r>
       <r>  -12.3670    1.0000 </r>
       <r>  -12.0744    1.0000 </r>
       <r>  -10.8256    1.0000 </r>
       <r>   -9.4615    1.0000 </r>
       <r>   -7.3045    1.0000 </r>
       <r>   -7.2222    1.0000 </r>
       <r>   -5.3045    1.0000 </r>
       <r>   -5.0454    1.0000 </r>
       <r>   -3.4866    1.0000 </r>
       <r>   -3.2340    1.0000 </r>
       <r>   -2.8750    1.0000 </r>
       <r>   -2.6748    1.0000 </r>
       <r>   -1.0764    0.0000 </r>
       <r>    1.1928    0.0000 </r>
       <r>    1.9201    0.0000 </r>
       <r>    2.0762    0.0000 </r>
       <r>    2.1721    0.0000 </r>
       <r>    4.6771    0.0000 </r>
       <r>    6.0766    0.0000 </r>
       <r>    6.5380    0.0000 </r>
       <r>    6.7516    0.0000 </r>
      </set>
      <set comment="kpoint 9">
       <r>  -18.3589    1.0000 </r>
       <r>  -15.3297    1.0000 </r>
       <r>  -14.9245    1.0000 </r>
       <r>  -12.4374    1.0000 </r>
       <r>  -11.8221    1.0000 </r>
       <r>  -10.3336    1.0000 </r>
       <r>   -8.9536    1.0000 </r>
       <r>   -7.5670    1.0000 </r>
       <r>   -7.0612    1.0000 </r>
       <r>   -5.6746    1.0000 </r>
       <r>   -5.1027    1.0000 </r>
       <r>   -3.8637    1.0000 </r>
       <r>   -3.3655    1.0000 </r>
       <r>   -3.3565    1.0000 </r>
       <r>   -2.9300    1.0000 </r>
       <r>   -1.3034    0.0000 </r>
       <r>    1.2600    0.0000 </r>
       <r>    2.2820    0.0000 </r>
       <r>    2.4279    0.0000 </r>
       <r>    2.8510    0.0000 </r>
       <r>    4.8861    0.0000 </r>
       <r>    6.2797    0.0000 </r>
       <r>    6.5075    0.0000 </r>
       <r>    6.7723    0.0000 </r>
      </set>
      <set comment="kpoint 10">
       <r>  -18.2217    1.0000 </r>
       <r>  -15.7005    1.0000 </r>
       <r>  -15.0617    1.0000 </r>
       <r>  -12.5469    1.0000 </r>
       <r>  -11.4383    1.0000 </r>
       <r>   -9.7296    1.0000 </r>
       <r>   -8.3072    1.0000 </r>
       <r>   -7.9560    1.0000 </r>
       <r>   -6.8282    1.0000 </r>
       <r>   -6.1688    1.0000 </r>
       <r>   -5.0887    1.0000 </r>
       <r>   -4.3446    1.0000 </r>
       <r>   -4.0290    1.0000 </r>
       <r>   -3.4803    1.0000 </r>
       <r>   -3.2435    1.0000 </r>
       <r>   -1.4532    0.0000 </r>
       <r>    1.3909    0.0000 </r>
       <r>    2.5895    0.0000 </r>
       <r>    2.8067    0.0000 </r>
       <r>    3.7950    0.0000 </r>
       <r>    5.2029    0.0000 </r>
       <r>    5.6247    0.0000 </r>
       <r>    6.5561    0.0000 </r>
       <r>    6.7672    0.0000 </r>
      </set>
      <set comment="kpoint 11">
       <r>  -18.0758    1.0000 </r>
       <r>  -16.0253    1.0000 </r>
       <r>  -15.1634    1.0000 </r>
       <r>  -12.6404    1.0000 </r>
       <r>  -11.0116    1.0000 </r>
       <r>   -9.0962    1.0000 </r>
       <r>   -8.3957    1.0000 </r>
       <r>   -7.6306    1.0000 </r>
       <r>   -6.6685    1.0000 </r>
       <r>   -6.5435    1.0000 </r>
       <r>   -5.0399    1.0000 </r>
       <r>   -4.8340    1.0000 </r>
       <r>   -4.7659    1.0000 </r>
       <r>   -3.5742    1.0000 </r>
       <r>   -3.5495    1.0000 </r>
       <r>   -1.5439    0.0000 </r>
       <r>    1.5375    0.0000 </r>
       <r>    2.9979    0.0000 </r>
       <r>    3.1243    0.0000 </r>
       <r>    4.7553    0.0000 </r>
       <r>    4.8222    0.0000 </r>
       <r>    5.6422    0.0000 </r>
       <r>    6.5799    0.0000 </r>
       <r>    6.9198    0.0000 </r>
      </set>
      <set comment="kpoint 12">
       <r>  -17.9727    1.0000 </r>
       <r>  -16.2237    1.0000 </r>
       <r>  -15.2168    1.0000 </r>
       <r>  -12.6917    1.0000 </r>
       <r>  -10.6841    1.0000 </r>
       <r>   -8.8038    1.0000 </r>
       <r>   -8.4393    1.0000 </r>
       <r>   -7.5709    1.0000 </r>
       <r>   -6.4910    1.0000 </r>
       <r>   -6.2837    1.0000 </r>
       <r>   -5.6651    1.0000 </r>
       <r>   -5.2067    1.0000 </r>
       <r>   -4.8631    1.0000 </r>
       <r>   -3.7589    1.0000 </r>
       <r>   -3.6241    1.0000 </r>
       <r>   -1.5880    0.0000 </r>
       <r>    1.6337    0.0000 </r>
       <r>    3.3120    0.0000 </r>
       <r>    3.5067    0.0000 </r>
       <r>    4.1153    0.0000 </r>
       <r>    5.5886    0.0000 </r>
       <r>    6.1336    0.0000 </r>
       <r>    6.4945    0.0000 </r>
       <r>    6.5320    0.0000 </r>
      </set>
      <set comment="kpoint 13">
       <r>  -18.2425    1.0000 </r>
       <r>  -15.5947    1.0000 </r>
       <r>  -15.1335    1.0000 </r>
       <r>  -12.3267    1.0000 </r>
       <r>  -11.7182    1.0000 </r>
       <r>   -9.7515    1.0000 </r>
       <r>   -8.4234    1.0000 </r>
       <r>   -7.9298    1.0000 </r>
       <r>   -6.8658    1.0000 </r>
       <r>   -5.9215    1.0000 </r>
       <r>   -5.2465    1.0000 </r>
       <r>   -4.1761    1.0000 </r>
       <r>   -3.8606    1.0000 </r>
       <r>   -3.6322    1.0000 </r>
       <r>   -3.2639    1.0000 </r>
       <r>   -1.2839    0.0000 </r>
       <r>    1.1311    0.0000 </r>
       <r>    2.5386    0.0000 </r>
       <r>    3.2334    0.0000 </r>
       <r>    3.3406    0.0000 </r>
       <r>    5.1459    0.0000 </r>
       <r>    6.1563    0.0000 </r>
       <r>    6.1839    0.0000 </r>
       <r>    6.5502    0.0000 </r>
      </set>
      <set comment="kpoint 14">
       <r>  -18.1038    1.0000 </r>
       <r>  -15.8718    1.0000 </r>
       <r>  -15.3172    1.0000 </r>
       <r>  -12.2968    1.0000 </r>
       <r>  -11.4380    1.0000 </r>
       <r>   -9.1205    1.0000 </r>
       <r>   -8.3761    1.0000 </r>
       <r>   -7.7952    1.0000 </r>
       <r>   -6.6081    1.0000 </r>
       <r>   -6.2644    1.0000 </r>
       <r>   -5.3186    1.0000 </r>
       <r>   -4.5716    1.0000 </r>
       <r>   -4.4650    1.0000 </r>
       <r>   -3.8736    1.0000 </r>
       <r>   -3.6394    1.0000 </r>
       <r>   -1.1995    0.0000 </r>
       <r>    1.0639    0.0000 </r>
       <r>    2.8965    0.0000 </r>
       <r>    3.6622    0.0000 </r>
       <r>    4.2506    0.0000 </r>
       <r>    5.3264    0.0000 </r>
       <r>    5.5089    0.0000 </r>
       <r>    5.9257    0.0000 </r>
       <r>    6.8977    0.0000 </r>
      </set>
      <set comment="kpoint 15">
       <r>  -17.9802    1.0000 </r>
       <r>  -16.0977    1.0000 </r>
       <r>  -15.4298    1.0000 </r>
       <r>  -12.3214    1.0000 </r>
       <r>  -11.0772    1.0000 </r>
       <r>   -8.9725    1.0000 </r>
       <r>   -8.3329    1.0000 </r>
       <r>   -7.2613    1.0000 </r>
       <r>   -6.5698    1.0000 </r>
       <r>   -6.3282    1.0000 </r>
       <r>   -5.4537    1.0000 </r>
       <r>   -4.9770    1.0000 </r>
       <r>   -4.9741    1.0000 </r>
       <r>   -4.0101    1.0000 </r>
       <r>   -3.9555    1.0000 </r>
       <r>   -1.1306    0.0000 </r>
       <r>    1.0488    0.0000 </r>
       <r>    3.3553    0.0000 </r>
       <r>    3.9513    0.0000 </r>
       <r>    4.5718    0.0000 </r>
       <r>    5.1717    0.0000 </r>
       <r>    5.7775    0.0000 </r>
       <r>    5.9790    0.0000 </r>
       <r>    6.7564    0.0000 </r>
      </set>
      <set comment="kpoint 16">
       <r>  -17.9279    1.0000 </r>
       <r>  -16.1875    1.0000 </r>
       <r>  -15.4671    1.0000 </r>
       <r>  -12.3351    1.0000 </r>
       <r>  -10.8914    1.0000 </r>
       <r>   -9.1568    1.0000 </r>
       <r>   -7.9544    1.0000 </r>
       <r>   -7.3554    1.0000 </r>
       <r>   -6.2382    1.0000 </r>
       <r>   -6.1731    1.0000 </r>
       <r>   -5.9419    1.0000 </r>
       <r>   -5.1767    1.0000 </r>
       <r>   -5.0349    1.0000 </r>
       <r>   -4.0904    1.0000 </r>
       <r>   -4.0533    1.0000 </r>
       <r>   -1.1062    0.0000 </r>
       <r>    1.0502    0.0000 </r>
       <r>    3.9102    0.0000 </r>
       <r>    3.9178    0.0000 </r>
       <r>    4.0594    0.0000 </r>
       <r>    5.7280    0.0000 </r>
       <r>    5.8797    0.0000 </r>
       <r>    6.0777    0.0000 </r>
       <r>    6.5091    0.0000 </r>
      </set>
      <set comment="kpoint 17">
       <r>  -17.9839    1.0000 </r>
       <r>  -16.0000    1.0000 </r>
       <r>  -15.5661    1.0000 </r>
       <r>  -12.0256    1.0000 </r>
       <r>  -11.3864    1.0000 </r>
       <r>   -9.0297    1.0000 </r>
       <r>   -8.2677    1.0000 </r>
       <r>   -7.2565    1.0000 </r>
       <r>   -6.3796    1.0000 </r>
       <r>   -6.3478    1.0000 </r>
       <r>   -5.5925    1.0000 </r>
       <r>   -4.8680    1.0000 </r>
       <r>   -4.7863    1.0000 </r>
       <r>   -4.2578    1.0000 </r>
       <r>   -4.0964    1.0000 </r>
       <r>   -0.8660    0.0000 </r>
       <r>    0.7476    0.0000 </r>
       <r>    3.3049    0.0000 </r>
       <r>    4.4813    0.0000 </r>
       <r>    4.7155    0.0000 </r>
       <r>    5.1167    0.0000 </r>
       <r>    5.1384    0.0000 </r>
       <r>    5.8980    0.0000 </r>
       <r>    6.9762    0.0000 </r>
      </set>
      <set comment="kpoint 18">
       <r>  -17.9037    1.0000 </r>
       <r>  -16.0735    1.0000 </r>
       <r>  -15.7141    1.0000 </r>
       <r>  -11.9034    1.0000 </r>
       <r>  -11.2357    1.0000 </r>
       <r>   -9.3725    1.0000 </r>
       <r>   -7.6539    1.0000 </r>
       <r>   -6.9970    1.0000 </r>
       <r>   -6.4838    1.0000 </r>
       <r>   -6.1272    1.0000 </r>
       <r>   -5.8404    1.0000 </r>
       <r>   -5.0821    1.0000 </r>
       <r>   -4.9870    1.0000 </r>
       <r>   -4.4628    1.0000 </r>
       <r>   -4.4486    1.0000 </r>
       <r>   -0.6039    0.0000 </r>
       <r>    0.5137    0.0000 </r>
       <r>    3.8135    0.0000 </r>
       <r>    4.4217    0.0000 </r>
       <r>    4.7973    0.0000 </r>
       <r>    5.0281    0.0000 </r>
       <r>    5.4989    0.0000 </r>
       <r>    6.2768    0.0000 </r>
       <r>    6.3566    0.0000 </r>
      </set>
      <set comment="kpoint 19">
       <r>  -17.8742    1.0000 </r>
       <r>  -15.9418    1.0000 </r>
       <r>  -15.9418    1.0000 </r>
       <r>  -11.5104    1.0000 </r>
       <r>  -11.5104    1.0000 </r>
       <r>   -9.5490    1.0000 </r>
       <r>   -7.0492    1.0000 </r>
       <r>   -7.0492    1.0000 </r>
       <r>   -6.6881    1.0000 </r>
       <r>   -6.0399    1.0000 </r>
       <r>   -5.9080    1.0000 </r>
       <r>   -4.8955    1.0000 </r>
       <r>   -4.8954    1.0000 </r>
       <r>   -4.8156    1.0000 </r>
       <r>   -4.8156    1.0000 </r>
       <r>   -0.0438    0.0000 </r>
       <r>   -0.0438    0.0000 </r>
       <r>    4.3564    0.0000 </r>
       <r>    4.3794    0.0000 </r>
       <r>    4.3794    0.0000 </r>
       <r>    5.5697    0.0000 </r>
       <r>    5.5697    0.0000 </r>
       <r>    5.7005    0.0000 </r>
       <r>    6.5546    0.0000 </r>
      </set>
     </set>
    </set>
   </array>
  </eigenvalues>
  <separator name="orbital magnetization" >
   <v name="MAGDIPOLOUT">      0.00000000      0.00000000      0.00000000</v>
  </separator>
  <dos>
   <i name="efermi">     -2.14849798 </i>
   <total>
    <array>
     <dimension dim="1">gridpoints</dimension>
     <dimension dim="2">spin</dimension>
     <field>energy</field>
     <field>total</field>
     <field>integrated</field>
     <set>
      <set comment="spin 1">
       <r>   -19.8163     0.0000     0.0000 </r>
       <r>   -19.7882     0.0000     0.0000 </r>
       <r>   -19.7601     0.0000     0.0000 </r>
       <r>   -19.7320     0.0000     0.0000 </r>
       <r>   -19.7039     0.0000     0.0000 </r>
       <r>   -19.6758     0.0000     0.0000 </r>
       <r>   -19.6477     0.0000     0.0000 </r>
       <r>   -19.6196     0.0000     0.0000 </r>
       <r>   -19.5915     0.0000     0.0000 </r>
       <r>   -19.5634     0.0000     0.0000 </r>
       <r>   -19.5353     0.0000     0.0000 </r>
       <r>   -19.5072     0.0000     0.0000 </r>
       <r>   -19.4791     0.0000     0.0000 </r>
       <r>   -19.4510     0.0000     0.0000 </r>
       <r>   -19.4229     0.0000     0.0000 </r>
       <r>   -19.3949     0.0000     0.0000 </r>
       <r>   -19.3668     0.0000     0.0000 </r>
       <r>   -19.3387     0.0000     0.0000 </r>
       <r>   -19.3106     0.0000     0.0000 </r>
       <r>   -19.2825     0.0000     0.0000 </r>
       <r>   -19.2544     0.0000     0.0000 </r>
       <r>   -19.2263     0.0000     0.0000 </r>
       <r>   -19.1982     0.0000     0.0000 </r>
       <r>   -19.1701     0.0000     0.0000 </r>
       <r>   -19.1420     0.0000     0.0000 </r>
       <r>   -19.1139     0.0000     0.0000 </r>
       <r>   -19.0858     0.0000     0.0000 </r>
       <r>   -19.0577     0.0000     0.0000 </r>
       <r>   -19.0296     0.0000     0.0000 </r>
       <r>   -19.0015     0.0000     0.0000 </r>
       <r>   -18.9734     0.0000     0.0000 </r>
       <r>   -18.9453     0.0000     0.0000 </r>
       <r>   -18.9172     0.0000     0.0000 </r>
       <r>   -18.8891     0.0000     0.0000 </r>
       <r>   -18.8610     0.0000     0.0000 </r>
       <r>   -18.8329     0.0000     0.0000 </r>
       <r>   -18.8048     0.0001     0.0000 </r>
       <r>   -18.7767     0.0004     0.0000 </r>
       <r>   -18.7486     0.0017     0.0001 </r>
       <r>   -18.7205     0.0060     0.0002 </r>
       <r>   -18.6924     0.0184     0.0007 </r>
       <r>   -18.6643     0.0493     0.0021 </r>
       <r>   -18.6362     0.1151     0.0054 </r>
       <r>   -18.6081     0.2357     0.0120 </r>
       <r>   -18.5801     0.4254     0.0239 </r>
       <r>   -18.5520     0.6817     0.0431 </r>
       <r>   -18.5239     0.9798     0.0706 </r>
       <r>   -18.4958     1.2787     0.1065 </r>
       <r>   -18.4677     1.5389     0.1498 </r>
       <r>   -18.4396     1.7394     0.1987 </r>
       <r>   -18.4115     1.8819     0.2515 </r>
       <r>   -18.3834     1.9806     0.3072 </r>
       <r>   -18.3553     2.0503     0.3648 </r>
       <r>   -18.3272     2.1052     0.4239 </r>
       <r>   -18.2991     2.1621     0.4847 </r>
       <r>   -18.2710     2.2351     0.5475 </r>
       <r>   -18.2429     2.3250     0.6128 </r>
       <r>   -18.2148     2.4223     0.6809 </r>
       <r>   -18.1867     2.5280     0.7519 </r>
       <r>   -18.1586     2.6651     0.8268 </r>
       <r>   -18.1305     2.8635     0.9072 </r>
       <r>   -18.1024     3.1353     0.9953 </r>
       <r>   -18.0743     3.4680     1.0928 </r>
       <r>   -18.0462     3.8335     1.2005 </r>
       <r>   -18.0181     4.1826     1.3180 </r>
       <r>   -17.9900     4.4293     1.4424 </r>
       <r>   -17.9619     4.4613     1.5678 </r>
       <r>   -17.9338     4.1932     1.6856 </r>
       <r>   -17.9057     3.6248     1.7874 </r>
       <r>   -17.8776     2.8535     1.8676 </r>
       <r>   -17.8495     2.0311     1.9247 </r>
       <r>   -17.8214     1.2989     1.9612 </r>
       <r>   -17.7934     0.7417     1.9820 </r>
       <r>   -17.7653     0.3757     1.9926 </r>
       <r>   -17.7372     0.1678     1.9973 </r>
       <r>   -17.7091     0.0657     1.9991 </r>
       <r>   -17.6810     0.0225     1.9998 </r>
       <r>   -17.6529     0.0067     1.9999 </r>
       <r>   -17.6248     0.0017     2.0000 </r>
       <r>   -17.5967     0.0004     2.0000 </r>
       <r>   -17.5686     0.0001     2.0000 </r>
       <r>   -17.5405     0.0000     2.0000 </r>
       <r>   -17.5124     0.0000     2.0000 </r>
       <r>   -17.4843     0.0000     2.0000 </r>
       <r>   -17.4562     0.0000     2.0000 </r>
       <r>   -17.4281     0.0000     2.0000 </r>
       <r>   -17.4000     0.0000     2.0000 </r>
       <r>   -17.3719     0.0000     2.0000 </r>
       <r>   -17.3438     0.0000     2.0000 </r>
       <r>   -17.3157     0.0000     2.0000 </r>
       <r>   -17.2876     0.0000     2.0000 </r>
       <r>   -17.2595     0.0000     2.0000 </r>
       <r>   -17.2314     0.0000     2.0000 </r>
       <r>   -17.2033     0.0000     2.0000 </r>
       <r>   -17.1752     0.0000     2.0000 </r>
       <r>   -17.1471     0.0000     2.0000 </r>
       <r>   -17.1190     0.0000     2.0000 </r>
       <r>   -17.0909     0.0000     2.0000 </r>
       <r>   -17.0628     0.0000     2.0000 </r>
       <r>   -17.0347     0.0000     2.0000 </r>
       <r>   -17.0067     0.0000     2.0000 </r>
       <r>   -16.9786     0.0000     2.0000 </r>
       <r>   -16.9505     0.0000     2.0000 </r>
       <r>   -16.9224     0.0000     2.0000 </r>
       <r>   -16.8943     0.0000     2.0000 </r>
       <r>   -16.8662     0.0000     2.0000 </r>
       <r>   -16.8381     0.0000     2.0000 </r>
       <r>   -16.8100     0.0000     2.0000 </r>
       <r>   -16.7819     0.0000     2.0000 </r>
       <r>   -16.7538     0.0000     2.0000 </r>
       <r>   -16.7257     0.0000     2.0000 </r>
       <r>   -16.6976     0.0000     2.0000 </r>
       <r>   -16.6695     0.0000     2.0000 </r>
       <r>   -16.6414     0.0000     2.0000 </r>
       <r>   -16.6133     0.0000     2.0000 </r>
       <r>   -16.5852     0.0000     2.0000 </r>
       <r>   -16.5571     0.0000     2.0000 </r>
       <r>   -16.5290     0.0002     2.0000 </r>
       <r>   -16.5009     0.0009     2.0000 </r>
       <r>   -16.4728     0.0036     2.0001 </r>
       <r>   -16.4447     0.0119     2.0005 </r>
       <r>   -16.4166     0.0350     2.0015 </r>
       <r>   -16.3885     0.0900     2.0040 </r>
       <r>   -16.3604     0.2034     2.0097 </r>
       <r>   -16.3323     0.4056     2.0211 </r>
       <r>   -16.3042     0.7158     2.0412 </r>
       <r>   -16.2761     1.1238     2.0728 </r>
       <r>   -16.2480     1.5826     2.1172 </r>
       <r>   -16.2199     2.0253     2.1741 </r>
       <r>   -16.1919     2.4019     2.2416 </r>
       <r>   -16.1638     2.7061     2.3177 </r>
       <r>   -16.1357     2.9623     2.4009 </r>
       <r>   -16.1076     3.1821     2.4903 </r>
       <r>   -16.0795     3.3328     2.5839 </r>
       <r>   -16.0514     3.3540     2.6782 </r>
       <r>   -16.0233     3.2108     2.7684 </r>
       <r>   -15.9952     2.9364     2.8509 </r>
       <r>   -15.9671     2.6218     2.9246 </r>
       <r>   -15.9390     2.3591     2.9908 </r>
       <r>   -15.9109     2.1810     3.0521 </r>
       <r>   -15.8828     2.0502     3.1097 </r>
       <r>   -15.8547     1.9130     3.1635 </r>
       <r>   -15.8266     1.7679     3.2131 </r>
       <r>   -15.7985     1.6807     3.2604 </r>
       <r>   -15.7704     1.7219     3.3087 </r>
       <r>   -15.7423     1.8860     3.3617 </r>
       <r>   -15.7142     2.0750     3.4200 </r>
       <r>   -15.6861     2.1700     3.4810 </r>
       <r>   -15.6580     2.1232     3.5407 </r>
       <r>   -15.6299     1.9851     3.5964 </r>
       <r>   -15.6018     1.8514     3.6484 </r>
       <r>   -15.5737     1.7921     3.6988 </r>
       <r>   -15.5456     1.8236     3.7500 </r>
       <r>   -15.5175     1.9240     3.8041 </r>
       <r>   -15.4894     2.0566     3.8619 </r>
       <r>   -15.4613     2.1864     3.9233 </r>
       <r>   -15.4332     2.2945     3.9878 </r>
       <r>   -15.4052     2.3865     4.0548 </r>
       <r>   -15.3771     2.4797     4.1245 </r>
       <r>   -15.3490     2.5729     4.1968 </r>
       <r>   -15.3209     2.6392     4.2709 </r>
       <r>   -15.2928     2.6599     4.3457 </r>
       <r>   -15.2647     2.6642     4.4205 </r>
       <r>   -15.2366     2.7216     4.4970 </r>
       <r>   -15.2085     2.8871     4.5781 </r>
       <r>   -15.1804     3.1528     4.6667 </r>
       <r>   -15.1523     3.4476     4.7636 </r>
       <r>   -15.1242     3.6756     4.8668 </r>
       <r>   -15.0961     3.7612     4.9725 </r>
       <r>   -15.0680     3.6784     5.0759 </r>
       <r>   -15.0399     3.4574     5.1730 </r>
       <r>   -15.0118     3.1672     5.2620 </r>
       <r>   -14.9837     2.8786     5.3429 </r>
       <r>   -14.9556     2.6276     5.4167 </r>
       <r>   -14.9275     2.4091     5.4844 </r>
       <r>   -14.8994     2.2083     5.5464 </r>
       <r>   -14.8713     2.0363     5.6036 </r>
       <r>   -14.8432     1.9247     5.6577 </r>
       <r>   -14.8151     1.8825     5.7106 </r>
       <r>   -14.7870     1.8673     5.7631 </r>
       <r>   -14.7589     1.8090     5.8139 </r>
       <r>   -14.7308     1.6628     5.8606 </r>
       <r>   -14.7027     1.4341     5.9009 </r>
       <r>   -14.6746     1.1607     5.9335 </r>
       <r>   -14.6465     0.8816     5.9583 </r>
       <r>   -14.6185     0.6238     5.9758 </r>
       <r>   -14.5904     0.4054     5.9872 </r>
       <r>   -14.5623     0.2382     5.9939 </r>
       <r>   -14.5342     0.1247     5.9974 </r>
       <r>   -14.5061     0.0576     5.9990 </r>
       <r>   -14.4780     0.0233     5.9997 </r>
       <r>   -14.4499     0.0082     5.9999 </r>
       <r>   -14.4218     0.0025     6.0000 </r>
       <r>   -14.3937     0.0007     6.0000 </r>
       <r>   -14.3656     0.0002     6.0000 </r>
       <r>   -14.3375     0.0000     6.0000 </r>
       <r>   -14.3094     0.0000     6.0000 </r>
       <r>   -14.2813     0.0000     6.0000 </r>
       <r>   -14.2532     0.0000     6.0000 </r>
       <r>   -14.2251     0.0000     6.0000 </r>
       <r>   -14.1970     0.0000     6.0000 </r>
       <r>   -14.1689     0.0000     6.0000 </r>
       <r>   -14.1408     0.0000     6.0000 </r>
       <r>   -14.1127     0.0000     6.0000 </r>
       <r>   -14.0846     0.0000     6.0000 </r>
       <r>   -14.0565     0.0000     6.0000 </r>
       <r>   -14.0284     0.0000     6.0000 </r>
       <r>   -14.0003     0.0000     6.0000 </r>
       <r>   -13.9722     0.0000     6.0000 </r>
       <r>   -13.9441     0.0000     6.0000 </r>
       <r>   -13.9160     0.0000     6.0000 </r>
       <r>   -13.8879     0.0000     6.0000 </r>
       <r>   -13.8598     0.0000     6.0000 </r>
       <r>   -13.8317     0.0000     6.0000 </r>
       <r>   -13.8037     0.0000     6.0000 </r>
       <r>   -13.7756     0.0000     6.0000 </r>
       <r>   -13.7475     0.0000     6.0000 </r>
       <r>   -13.7194     0.0000     6.0000 </r>
       <r>   -13.6913     0.0000     6.0000 </r>
       <r>   -13.6632     0.0000     6.0000 </r>
       <r>   -13.6351     0.0000     6.0000 </r>
       <r>   -13.6070     0.0000     6.0000 </r>
       <r>   -13.5789     0.0000     6.0000 </r>
       <r>   -13.5508     0.0000     6.0000 </r>
       <r>   -13.5227     0.0000     6.0000 </r>
       <r>   -13.4946     0.0000     6.0000 </r>
       <r>   -13.4665     0.0000     6.0000 </r>
       <r>   -13.4384     0.0000     6.0000 </r>
       <r>   -13.4103     0.0000     6.0000 </r>
       <r>   -13.3822     0.0000     6.0000 </r>
       <r>   -13.3541     0.0000     6.0000 </r>
       <r>   -13.3260     0.0000     6.0000 </r>
       <r>   -13.2979     0.0000     6.0000 </r>
       <r>   -13.2698     0.0000     6.0000 </r>
       <r>   -13.2417     0.0000     6.0000 </r>
       <r>   -13.2136     0.0000     6.0000 </r>
       <r>   -13.1855     0.0000     6.0000 </r>
       <r>   -13.1574     0.0000     6.0000 </r>
       <r>   -13.1293     0.0000     6.0000 </r>
       <r>   -13.1012     0.0002     6.0000 </r>
       <r>   -13.0731     0.0011     6.0000 </r>
       <r>   -13.0450     0.0039     6.0001 </r>
       <r>   -13.0170     0.0127     6.0005 </r>
       <r>   -12.9889     0.0353     6.0015 </r>
       <r>   -12.9608     0.0850     6.0039 </r>
       <r>   -12.9327     0.1774     6.0089 </r>
       <r>   -12.9046     0.3235     6.0180 </r>
       <r>   -12.8765     0.5203     6.0326 </r>
       <r>   -12.8484     0.7512     6.0537 </r>
       <r>   -12.8203     0.9985     6.0817 </r>
       <r>   -12.7922     1.2603     6.1171 </r>
       <r>   -12.7641     1.5502     6.1607 </r>
       <r>   -12.7360     1.8749     6.2134 </r>
       <r>   -12.7079     2.2089     6.2754 </r>
       <r>   -12.6798     2.4949     6.3455 </r>
       <r>   -12.6517     2.6734     6.4206 </r>
       <r>   -12.6236     2.7163     6.4970 </r>
       <r>   -12.5955     2.6413     6.5712 </r>
       <r>   -12.5674     2.5011     6.6415 </r>
       <r>   -12.5393     2.3634     6.7079 </r>
       <r>   -12.5112     2.2928     6.7723 </r>
       <r>   -12.4831     2.3373     6.8379 </r>
       <r>   -12.4550     2.5215     6.9088 </r>
       <r>   -12.4269     2.8472     6.9888 </r>
       <r>   -12.3988     3.2869     7.0811 </r>
       <r>   -12.3707     3.7608     7.1868 </r>
       <r>   -12.3426     4.1235     7.3027 </r>
       <r>   -12.3145     4.2063     7.4208 </r>
       <r>   -12.2864     3.9141     7.5308 </r>
       <r>   -12.2583     3.3000     7.6235 </r>
       <r>   -12.2303     2.5418     7.6949 </r>
       <r>   -12.2022     1.8393     7.7466 </r>
       <r>   -12.1741     1.3225     7.7838 </r>
       <r>   -12.1460     1.0277     7.8127 </r>
       <r>   -12.1179     0.9256     7.8387 </r>
       <r>   -12.0898     0.9565     7.8655 </r>
       <r>   -12.0617     1.0562     7.8952 </r>
       <r>   -12.0336     1.1798     7.9284 </r>
       <r>   -12.0055     1.3160     7.9653 </r>
       <r>   -11.9774     1.4775     8.0069 </r>
       <r>   -11.9493     1.6683     8.0537 </r>
       <r>   -11.9212     1.8582     8.1059 </r>
       <r>   -11.8931     1.9909     8.1619 </r>
       <r>   -11.8650     2.0182     8.2186 </r>
       <r>   -11.8369     1.9270     8.2727 </r>
       <r>   -11.8088     1.7399     8.3216 </r>
       <r>   -11.7807     1.4988     8.3637 </r>
       <r>   -11.7526     1.2451     8.3987 </r>
       <r>   -11.7245     1.0082     8.4270 </r>
       <r>   -11.6964     0.8057     8.4497 </r>
       <r>   -11.6683     0.6548     8.4681 </r>
       <r>   -11.6402     0.5819     8.4844 </r>
       <r>   -11.6121     0.6176     8.5018 </r>
       <r>   -11.5840     0.7815     8.5237 </r>
       <r>   -11.5559     1.0707     8.5538 </r>
       <r>   -11.5278     1.4587     8.5948 </r>
       <r>   -11.4997     1.8933     8.6480 </r>
       <r>   -11.4716     2.2899     8.7123 </r>
       <r>   -11.4435     2.5391     8.7837 </r>
       <r>   -11.4155     2.5504     8.8553 </r>
       <r>   -11.3874     2.3129     8.9203 </r>
       <r>   -11.3593     1.9215     8.9743 </r>
       <r>   -11.3312     1.5327     9.0174 </r>
       <r>   -11.3031     1.2781     9.0533 </r>
       <r>   -11.2750     1.1985     9.0869 </r>
       <r>   -11.2469     1.2479     9.1220 </r>
       <r>   -11.2188     1.3565     9.1601 </r>
       <r>   -11.1907     1.4963     9.2022 </r>
       <r>   -11.1626     1.6892     9.2496 </r>
       <r>   -11.1345     1.9537     9.3045 </r>
       <r>   -11.1064     2.2474     9.3676 </r>
       <r>   -11.0783     2.4686     9.4370 </r>
       <r>   -11.0502     2.5171     9.5077 </r>
       <r>   -11.0221     2.3598     9.5740 </r>
       <r>   -10.9940     2.0489     9.6316 </r>
       <r>   -10.9659     1.6892     9.6791 </r>
       <r>   -10.9378     1.3822     9.7179 </r>
       <r>   -10.9097     1.1842     9.7512 </r>
       <r>   -10.8816     1.0963     9.7820 </r>
       <r>   -10.8535     1.0895     9.8126 </r>
       <r>   -10.8254     1.1433     9.8447 </r>
       <r>   -10.7973     1.2635     9.8802 </r>
       <r>   -10.7692     1.4605     9.9212 </r>
       <r>   -10.7411     1.7046     9.9691 </r>
       <r>   -10.7130     1.9056    10.0227 </r>
       <r>   -10.6849     1.9521    10.0775 </r>
       <r>   -10.6568     1.7866    10.1277 </r>
       <r>   -10.6288     1.4511    10.1685 </r>
       <r>   -10.6007     1.0604    10.1983 </r>
       <r>   -10.5726     0.7270    10.2187 </r>
       <r>   -10.5445     0.5034    10.2328 </r>
       <r>   -10.5164     0.3806    10.2435 </r>
       <r>   -10.4883     0.3283    10.2528 </r>
       <r>   -10.4602     0.3327    10.2621 </r>
       <r>   -10.4321     0.4023    10.2734 </r>
       <r>   -10.4040     0.5430    10.2887 </r>
       <r>   -10.3759     0.7282    10.3091 </r>
       <r>   -10.3478     0.8950    10.3343 </r>
       <r>   -10.3197     0.9767    10.3617 </r>
       <r>   -10.2916     0.9479    10.3883 </r>
       <r>   -10.2635     0.8424    10.4120 </r>
       <r>   -10.2354     0.7244    10.4324 </r>
       <r>   -10.2073     0.6380    10.4503 </r>
       <r>   -10.1792     0.5811    10.4666 </r>
       <r>   -10.1511     0.5215    10.4813 </r>
       <r>   -10.1230     0.4341    10.4935 </r>
       <r>   -10.0949     0.3221    10.5025 </r>
       <r>   -10.0668     0.2109    10.5084 </r>
       <r>   -10.0387     0.1257    10.5120 </r>
       <r>   -10.0106     0.0780    10.5142 </r>
       <r>    -9.9825     0.0648    10.5160 </r>
       <r>    -9.9544     0.0780    10.5182 </r>
       <r>    -9.9263     0.1148    10.5214 </r>
       <r>    -9.8982     0.1877    10.5267 </r>
       <r>    -9.8701     0.3276    10.5359 </r>
       <r>    -9.8420     0.5712    10.5519 </r>
       <r>    -9.8140     0.9277    10.5780 </r>
       <r>    -9.7859     1.3432    10.6157 </r>
       <r>    -9.7578     1.6985    10.6635 </r>
       <r>    -9.7297     1.8629    10.7158 </r>
       <r>    -9.7016     1.7774    10.7657 </r>
       <r>    -9.6735     1.4998    10.8079 </r>
       <r>    -9.6454     1.1713    10.8408 </r>
       <r>    -9.6173     0.9289    10.8669 </r>
       <r>    -9.5892     0.8335    10.8903 </r>
       <r>    -9.5611     0.8612    10.9145 </r>
       <r>    -9.5330     0.9484    10.9411 </r>
       <r>    -9.5049     1.0458    10.9705 </r>
       <r>    -9.4768     1.1430    11.0026 </r>
       <r>    -9.4487     1.2537    11.0379 </r>
       <r>    -9.4206     1.3829    11.0767 </r>
       <r>    -9.3925     1.5020    11.1189 </r>
       <r>    -9.3644     1.5550    11.1626 </r>
       <r>    -9.3363     1.4942    11.2046 </r>
       <r>    -9.3082     1.3222    11.2417 </r>
       <r>    -9.2801     1.1092    11.2729 </r>
       <r>    -9.2520     0.9687    11.3001 </r>
       <r>    -9.2239     1.0057    11.3284 </r>
       <r>    -9.1958     1.2631    11.3639 </r>
       <r>    -9.1677     1.6931    11.4114 </r>
       <r>    -9.1396     2.1718    11.4725 </r>
       <r>    -9.1115     2.5605    11.5444 </r>
       <r>    -9.0834     2.7834    11.6226 </r>
       <r>    -9.0553     2.8634    11.7031 </r>
       <r>    -9.0273     2.8826    11.7841 </r>
       <r>    -8.9992     2.8974    11.8655 </r>
       <r>    -8.9711     2.8872    11.9466 </r>
       <r>    -8.9430     2.7852    12.0248 </r>
       <r>    -8.9149     2.5566    12.0967 </r>
       <r>    -8.8868     2.2444    12.1597 </r>
       <r>    -8.8587     1.9398    12.2142 </r>
       <r>    -8.8306     1.7117    12.2623 </r>
       <r>    -8.8025     1.5656    12.3063 </r>
       <r>    -8.7744     1.4598    12.3473 </r>
       <r>    -8.7463     1.3482    12.3852 </r>
       <r>    -8.7182     1.2071    12.4191 </r>
       <r>    -8.6901     1.0352    12.4482 </r>
       <r>    -8.6620     0.8462    12.4720 </r>
       <r>    -8.6339     0.6711    12.4908 </r>
       <r>    -8.6058     0.5625    12.5066 </r>
       <r>    -8.5777     0.5894    12.5232 </r>
       <r>    -8.5496     0.8192    12.5462 </r>
       <r>    -8.5215     1.2900    12.5825 </r>
       <r>    -8.4934     1.9819    12.6381 </r>
       <r>    -8.4653     2.8041    12.7169 </r>
       <r>    -8.4372     3.6100    12.8184 </r>
       <r>    -8.4091     4.2421    12.9375 </r>
       <r>    -8.3810     4.5823    13.0663 </r>
       <r>    -8.3529     4.5795    13.1950 </r>
       <r>    -8.3248     4.2485    13.3143 </r>
       <r>    -8.2967     3.6555    13.4170 </r>
       <r>    -8.2686     2.9044    13.4986 </r>
       <r>    -8.2406     2.1241    13.5583 </r>
       <r>    -8.2125     1.4431    13.5989 </r>
       <r>    -8.1844     0.9566    13.6257 </r>
       <r>    -8.1563     0.7037    13.6455 </r>
       <r>    -8.1282     0.6686    13.6643 </r>
       <r>    -8.1001     0.8054    13.6869 </r>
       <r>    -8.0720     1.0662    13.7169 </r>
       <r>    -8.0439     1.4122    13.7566 </r>
       <r>    -8.0158     1.7989    13.8071 </r>
       <r>    -7.9877     2.1541    13.8676 </r>
       <r>    -7.9596     2.3842    13.9346 </r>
       <r>    -7.9315     2.4215    14.0026 </r>
       <r>    -7.9034     2.2754    14.0666 </r>
       <r>    -7.8753     2.0343    14.1237 </r>
       <r>    -7.8472     1.8079    14.1745 </r>
       <r>    -7.8191     1.6637    14.2213 </r>
       <r>    -7.7910     1.6180    14.2667 </r>
       <r>    -7.7629     1.6787    14.3139 </r>
       <r>    -7.7348     1.8784    14.3667 </r>
       <r>    -7.7067     2.2534    14.4300 </r>
       <r>    -7.6786     2.7847    14.5082 </r>
       <r>    -7.6505     3.3646    14.6028 </r>
       <r>    -7.6224     3.8219    14.7101 </r>
       <r>    -7.5943     3.9911    14.8223 </r>
       <r>    -7.5662     3.7838    14.9286 </r>
       <r>    -7.5381     3.2350    15.0195 </r>
       <r>    -7.5100     2.5009    15.0897 </r>
       <r>    -7.4819     1.8032    15.1404 </r>
       <r>    -7.4538     1.3415    15.1781 </r>
       <r>    -7.4258     1.2220    15.2124 </r>
       <r>    -7.3977     1.4370    15.2528 </r>
       <r>    -7.3696     1.8918    15.3060 </r>
       <r>    -7.3415     2.4500    15.3748 </r>
       <r>    -7.3134     2.9748    15.4584 </r>
       <r>    -7.2853     3.3538    15.5526 </r>
       <r>    -7.2572     3.5151    15.6514 </r>
       <r>    -7.2291     3.4394    15.7480 </r>
       <r>    -7.2010     3.1689    15.8370 </r>
       <r>    -7.1729     2.8029    15.9158 </r>
       <r>    -7.1448     2.4709    15.9852 </r>
       <r>    -7.1167     2.2835    16.0494 </r>
       <r>    -7.0886     2.2798    16.1134 </r>
       <r>    -7.0605     2.4039    16.1810 </r>
       <r>    -7.0324     2.5328    16.2521 </r>
       <r>    -7.0043     2.5477    16.3237 </r>
       <r>    -6.9762     2.4063    16.3913 </r>
       <r>    -6.9481     2.1687    16.4523 </r>
       <r>    -6.9200     1.9558    16.5072 </r>
       <r>    -6.8919     1.8675    16.5597 </r>
       <r>    -6.8638     1.9166    16.6135 </r>
       <r>    -6.8357     2.0321    16.6706 </r>
       <r>    -6.8076     2.1255    16.7303 </r>
       <r>    -6.7795     2.1644    16.7912 </r>
       <r>    -6.7514     2.1912    16.8527 </r>
       <r>    -6.7233     2.2809    16.9168 </r>
       <r>    -6.6952     2.4842    16.9866 </r>
       <r>    -6.6671     2.8063    17.0654 </r>
       <r>    -6.6391     3.2205    17.1559 </r>
       <r>    -6.6110     3.6849    17.2595 </r>
       <r>    -6.5829     4.1391    17.3758 </r>
       <r>    -6.5548     4.4982    17.5021 </r>
       <r>    -6.5267     4.6685    17.6333 </r>
       <r>    -6.4986     4.5933    17.7624 </r>
       <r>    -6.4705     4.2989    17.8831 </r>
       <r>    -6.4424     3.9049    17.9929 </r>
       <r>    -6.4143     3.5798    18.0934 </r>
       <r>    -6.3862     3.4609    18.1907 </r>
       <r>    -6.3581     3.5871    18.2915 </r>
       <r>    -6.3300     3.8850    18.4006 </r>
       <r>    -6.3019     4.2131    18.5190 </r>
       <r>    -6.2738     4.4339    18.6436 </r>
       <r>    -6.2457     4.4716    18.7692 </r>
       <r>    -6.2176     4.3259    18.8907 </r>
       <r>    -6.1895     4.0365    19.0042 </r>
       <r>    -6.1614     3.6377    19.1064 </r>
       <r>    -6.1333     3.1483    19.1948 </r>
       <r>    -6.1052     2.6047    19.2680 </r>
       <r>    -6.0771     2.0904    19.3267 </r>
       <r>    -6.0490     1.7200    19.3751 </r>
       <r>    -6.0209     1.5785    19.4194 </r>
       <r>    -5.9928     1.6665    19.4662 </r>
       <r>    -5.9647     1.8924    19.5194 </r>
       <r>    -5.9366     2.1183    19.5789 </r>
       <r>    -5.9085     2.2288    19.6415 </r>
       <r>    -5.8804     2.1770    19.7027 </r>
       <r>    -5.8524     1.9864    19.7585 </r>
       <r>    -5.8243     1.7283    19.8071 </r>
       <r>    -5.7962     1.4993    19.8492 </r>
       <r>    -5.7681     1.3979    19.8885 </r>
       <r>    -5.7400     1.4840    19.9302 </r>
       <r>    -5.7119     1.7313    19.9788 </r>
       <r>    -5.6838     2.0189    20.0355 </r>
       <r>    -5.6557     2.1903    20.0971 </r>
       <r>    -5.6276     2.1492    20.1575 </r>
       <r>    -5.5995     1.9184    20.2114 </r>
       <r>    -5.5714     1.6209    20.2569 </r>
       <r>    -5.5433     1.4012    20.2963 </r>
       <r>    -5.5152     1.3451    20.3341 </r>
       <r>    -5.4871     1.4424    20.3746 </r>
       <r>    -5.4590     1.6114    20.4199 </r>
       <r>    -5.4309     1.7695    20.4696 </r>
       <r>    -5.4028     1.8983    20.5229 </r>
       <r>    -5.3747     2.0473    20.5804 </r>
       <r>    -5.3466     2.2741    20.6443 </r>
       <r>    -5.3185     2.5827    20.7169 </r>
       <r>    -5.2904     2.9185    20.7989 </r>
       <r>    -5.2623     3.2190    20.8893 </r>
       <r>    -5.2342     3.4713    20.9869 </r>
       <r>    -5.2061     3.7384    21.0919 </r>
       <r>    -5.1780     4.1419    21.2083 </r>
       <r>    -5.1499     4.8005    21.3432 </r>
       <r>    -5.1218     5.7402    21.5044 </r>
       <r>    -5.0937     6.8351    21.6965 </r>
       <r>    -5.0656     7.8349    21.9166 </r>
       <r>    -5.0376     8.4740    22.1547 </r>
       <r>    -5.0095     8.5891    22.3960 </r>
       <r>    -4.9814     8.1849    22.6260 </r>
       <r>    -4.9533     7.4295    22.8347 </r>
       <r>    -4.9252     6.5858    23.0198 </r>
       <r>    -4.8971     5.8912    23.1853 </r>
       <r>    -4.8690     5.4399    23.3381 </r>
       <r>    -4.8409     5.1476    23.4828 </r>
       <r>    -4.8128     4.8295    23.6185 </r>
       <r>    -4.7847     4.3330    23.7402 </r>
       <r>    -4.7566     3.6330    23.8423 </r>
       <r>    -4.7285     2.8377    23.9220 </r>
       <r>    -4.7004     2.1239    23.9817 </r>
       <r>    -4.6723     1.6459    24.0279 </r>
       <r>    -4.6442     1.4680    24.0692 </r>
       <r>    -4.6161     1.5538    24.1128 </r>
       <r>    -4.5880     1.8137    24.1638 </r>
       <r>    -4.5599     2.1726    24.2248 </r>
       <r>    -4.5318     2.5945    24.2977 </r>
       <r>    -4.5037     3.0467    24.3833 </r>
       <r>    -4.4756     3.4476    24.4802 </r>
       <r>    -4.4475     3.6747    24.5834 </r>
       <r>    -4.4194     3.6382    24.6857 </r>
       <r>    -4.3913     3.3466    24.7797 </r>
       <r>    -4.3632     2.8976    24.8611 </r>
       <r>    -4.3351     2.4118    24.9289 </r>
       <r>    -4.3070     1.9771    24.9844 </r>
       <r>    -4.2789     1.6397    25.0305 </r>
       <r>    -4.2509     1.4241    25.0705 </r>
       <r>    -4.2228     1.3503    25.1084 </r>
       <r>    -4.1947     1.4399    25.1489 </r>
       <r>    -4.1666     1.7085    25.1969 </r>
       <r>    -4.1385     2.1470    25.2572 </r>
       <r>    -4.1104     2.7010    25.3331 </r>
       <r>    -4.0823     3.2664    25.4249 </r>
       <r>    -4.0542     3.7176    25.5293 </r>
       <r>    -4.0261     3.9604    25.6406 </r>
       <r>    -3.9980     3.9800    25.7524 </r>
       <r>    -3.9699     3.8494    25.8606 </r>
       <r>    -3.9418     3.6826    25.9640 </r>
       <r>    -3.9137     3.5565    26.0640 </r>
       <r>    -3.8856     3.4615    26.1612 </r>
       <r>    -3.8575     3.3251    26.2546 </r>
       <r>    -3.8294     3.0941    26.3416 </r>
       <r>    -3.8013     2.8012    26.4203 </r>
       <r>    -3.7732     2.5630    26.4923 </r>
       <r>    -3.7451     2.5232    26.5632 </r>
       <r>    -3.7170     2.7875    26.6415 </r>
       <r>    -3.6889     3.3697    26.7362 </r>
       <r>    -3.6608     4.1593    26.8530 </r>
       <r>    -3.6327     4.9372    26.9918 </r>
       <r>    -3.6046     5.4623    27.1452 </r>
       <r>    -3.5765     5.5894    27.3023 </r>
       <r>    -3.5484     5.3369    27.4522 </r>
       <r>    -3.5203     4.8594    27.5888 </r>
       <r>    -3.4922     4.3616    27.7113 </r>
       <r>    -3.4642     4.0145    27.8241 </r>
       <r>    -3.4361     3.9101    27.9340 </r>
       <r>    -3.4080     4.0474    28.0477 </r>
       <r>    -3.3799     4.3441    28.1697 </r>
       <r>    -3.3518     4.6762    28.3011 </r>
       <r>    -3.3237     4.9293    28.4396 </r>
       <r>    -3.2956     5.0256    28.5808 </r>
       <r>    -3.2675     4.9161    28.7189 </r>
       <r>    -3.2394     4.5700    28.8473 </r>
       <r>    -3.2113     3.9927    28.9595 </r>
       <r>    -3.1832     3.2532    29.0509 </r>
       <r>    -3.1551     2.4806    29.1206 </r>
       <r>    -3.1270     1.8205    29.1718 </r>
       <r>    -3.0989     1.3821    29.2106 </r>
       <r>    -3.0708     1.2042    29.2444 </r>
       <r>    -3.0427     1.2513    29.2796 </r>
       <r>    -3.0146     1.4345    29.3199 </r>
       <r>    -2.9865     1.6469    29.3662 </r>
       <r>    -2.9584     1.7977    29.4167 </r>
       <r>    -2.9303     1.8297    29.4681 </r>
       <r>    -2.9022     1.7253    29.5166 </r>
       <r>    -2.8741     1.5072    29.5589 </r>
       <r>    -2.8460     1.2366    29.5937 </r>
       <r>    -2.8179     0.9960    29.6216 </r>
       <r>    -2.7898     0.8558    29.6457 </r>
       <r>    -2.7617     0.8431    29.6694 </r>
       <r>    -2.7336     0.9312    29.6955 </r>
       <r>    -2.7055     1.0600    29.7253 </r>
       <r>    -2.6774     1.1695    29.7582 </r>
       <r>    -2.6494     1.2260    29.7926 </r>
       <r>    -2.6213     1.2258    29.8271 </r>
       <r>    -2.5932     1.1805    29.8602 </r>
       <r>    -2.5651     1.1014    29.8912 </r>
       <r>    -2.5370     0.9921    29.9190 </r>
       <r>    -2.5089     0.8532    29.9430 </r>
       <r>    -2.4808     0.6906    29.9624 </r>
       <r>    -2.4527     0.5190    29.9770 </r>
       <r>    -2.4246     0.3579    29.9871 </r>
       <r>    -2.3965     0.2244    29.9934 </r>
       <r>    -2.3684     0.1268    29.9969 </r>
       <r>    -2.3403     0.0640    29.9987 </r>
       <r>    -2.3122     0.0287    29.9995 </r>
       <r>    -2.2841     0.0113    29.9998 </r>
       <r>    -2.2560     0.0039    30.0000 </r>
       <r>    -2.2279     0.0012    30.0000 </r>
       <r>    -2.1998     0.0003    30.0000 </r>
       <r>    -2.1717     0.0001    30.0000 </r>
       <r>    -2.1436     0.0000    30.0000 </r>
       <r>    -2.1155     0.0000    30.0000 </r>
       <r>    -2.0874     0.0001    30.0000 </r>
       <r>    -2.0593     0.0006    30.0000 </r>
       <r>    -2.0312     0.0023    30.0001 </r>
       <r>    -2.0031     0.0079    30.0003 </r>
       <r>    -1.9750     0.0228    30.0009 </r>
       <r>    -1.9469     0.0573    30.0026 </r>
       <r>    -1.9188     0.1245    30.0061 </r>
       <r>    -1.8907     0.2347    30.0127 </r>
       <r>    -1.8627     0.3847    30.0235 </r>
       <r>    -1.8346     0.5513    30.0390 </r>
       <r>    -1.8065     0.6982    30.0586 </r>
       <r>    -1.7784     0.7984    30.0810 </r>
       <r>    -1.7503     0.8564    30.1051 </r>
       <r>    -1.7222     0.9123    30.1307 </r>
       <r>    -1.6941     1.0203    30.1594 </r>
       <r>    -1.6660     1.2182    30.1936 </r>
       <r>    -1.6379     1.5059    30.2359 </r>
       <r>    -1.6098     1.8428    30.2877 </r>
       <r>    -1.5817     2.1621    30.3484 </r>
       <r>    -1.5536     2.3977    30.4158 </r>
       <r>    -1.5255     2.5092    30.4863 </r>
       <r>    -1.4974     2.4874    30.5562 </r>
       <r>    -1.4693     2.3447    30.6221 </r>
       <r>    -1.4412     2.1127    30.6814 </r>
       <r>    -1.4131     1.8532    30.7335 </r>
       <r>    -1.3850     1.6554    30.7800 </r>
       <r>    -1.3569     1.5981    30.8249 </r>
       <r>    -1.3288     1.7009    30.8727 </r>
       <r>    -1.3007     1.9155    30.9265 </r>
       <r>    -1.2726     2.1692    30.9874 </r>
       <r>    -1.2445     2.4146    31.0553 </r>
       <r>    -1.2164     2.6364    31.1294 </r>
       <r>    -1.1883     2.8179    31.2085 </r>
       <r>    -1.1602     2.9147    31.2904 </r>
       <r>    -1.1321     2.8650    31.3709 </r>
       <r>    -1.1040     2.6276    31.4448 </r>
       <r>    -1.0760     2.2150    31.5070 </r>
       <r>    -1.0479     1.7001    31.5548 </r>
       <r>    -1.0198     1.1924    31.5883 </r>
       <r>    -0.9917     0.7966    31.6106 </r>
       <r>    -0.9636     0.5776    31.6269 </r>
       <r>    -0.9355     0.5430    31.6421 </r>
       <r>    -0.9074     0.6455    31.6603 </r>
       <r>    -0.8793     0.7983    31.6827 </r>
       <r>    -0.8512     0.9061    31.7081 </r>
       <r>    -0.8231     0.9051    31.7336 </r>
       <r>    -0.7950     0.7924    31.7558 </r>
       <r>    -0.7669     0.6259    31.7734 </r>
       <r>    -0.7388     0.4906    31.7872 </r>
       <r>    -0.7107     0.4565    31.8000 </r>
       <r>    -0.6826     0.5467    31.8154 </r>
       <r>    -0.6545     0.7253    31.8358 </r>
       <r>    -0.6264     0.9095    31.8613 </r>
       <r>    -0.5983     1.0068    31.8896 </r>
       <r>    -0.5702     0.9630    31.9167 </r>
       <r>    -0.5421     0.7911    31.9389 </r>
       <r>    -0.5140     0.5571    31.9546 </r>
       <r>    -0.4859     0.3361    31.9640 </r>
       <r>    -0.4578     0.1737    31.9689 </r>
       <r>    -0.4297     0.0769    31.9710 </r>
       <r>    -0.4016     0.0291    31.9719 </r>
       <r>    -0.3735     0.0095    31.9721 </r>
       <r>    -0.3454     0.0026    31.9722 </r>
       <r>    -0.3173     0.0007    31.9722 </r>
       <r>    -0.2892     0.0005    31.9722 </r>
       <r>    -0.2612     0.0016    31.9723 </r>
       <r>    -0.2331     0.0053    31.9724 </r>
       <r>    -0.2050     0.0150    31.9729 </r>
       <r>    -0.1769     0.0368    31.9739 </r>
       <r>    -0.1488     0.0769    31.9760 </r>
       <r>    -0.1207     0.1377    31.9799 </r>
       <r>    -0.0926     0.2109    31.9858 </r>
       <r>    -0.0645     0.2765    31.9936 </r>
       <r>    -0.0364     0.3100    32.0023 </r>
       <r>    -0.0083     0.2975    32.0107 </r>
       <r>     0.0198     0.2443    32.0175 </r>
       <r>     0.0479     0.1717    32.0224 </r>
       <r>     0.0760     0.1033    32.0253 </r>
       <r>     0.1041     0.0531    32.0268 </r>
       <r>     0.1322     0.0234    32.0274 </r>
       <r>     0.1603     0.0088    32.0277 </r>
       <r>     0.1884     0.0029    32.0277 </r>
       <r>     0.2165     0.0008    32.0278 </r>
       <r>     0.2446     0.0005    32.0278 </r>
       <r>     0.2727     0.0016    32.0278 </r>
       <r>     0.3008     0.0058    32.0280 </r>
       <r>     0.3289     0.0188    32.0285 </r>
       <r>     0.3570     0.0525    32.0300 </r>
       <r>     0.3851     0.1253    32.0335 </r>
       <r>     0.4132     0.2557    32.0407 </r>
       <r>     0.4413     0.4466    32.0533 </r>
       <r>     0.4694     0.6674    32.0720 </r>
       <r>     0.4975     0.8538    32.0960 </r>
       <r>     0.5255     0.9356    32.1223 </r>
       <r>     0.5536     0.8808    32.1470 </r>
       <r>     0.5817     0.7197    32.1672 </r>
       <r>     0.6098     0.5283    32.1821 </r>
       <r>     0.6379     0.3849    32.1929 </r>
       <r>     0.6660     0.3310    32.2022 </r>
       <r>     0.6941     0.3587    32.2123 </r>
       <r>     0.7222     0.4230    32.2242 </r>
       <r>     0.7503     0.4684    32.2373 </r>
       <r>     0.7784     0.4568    32.2502 </r>
       <r>     0.8065     0.3861    32.2610 </r>
       <r>     0.8346     0.2871    32.2691 </r>
       <r>     0.8627     0.2070    32.2749 </r>
       <r>     0.8908     0.1957    32.2804 </r>
       <r>     0.9189     0.3036    32.2889 </r>
       <r>     0.9470     0.5787    32.3052 </r>
       <r>     0.9751     1.0447    32.3345 </r>
       <r>     1.0032     1.6632    32.3813 </r>
       <r>     1.0313     2.3143    32.4463 </r>
       <r>     1.0594     2.8335    32.5259 </r>
       <r>     1.0875     3.0963    32.6129 </r>
       <r>     1.1156     3.0861    32.6996 </r>
       <r>     1.1437     2.8895    32.7808 </r>
       <r>     1.1718     2.6294    32.8547 </r>
       <r>     1.1999     2.3977    32.9220 </r>
       <r>     1.2280     2.2309    32.9847 </r>
       <r>     1.2561     2.1260    33.0444 </r>
       <r>     1.2842     2.0689    33.1026 </r>
       <r>     1.3122     2.0500    33.1602 </r>
       <r>     1.3403     2.0581    33.2180 </r>
       <r>     1.3684     2.0659    33.2760 </r>
       <r>     1.3965     2.0364    33.3333 </r>
       <r>     1.4246     1.9554    33.3882 </r>
       <r>     1.4527     1.8579    33.4404 </r>
       <r>     1.4808     1.8088    33.4912 </r>
       <r>     1.5089     1.8454    33.5431 </r>
       <r>     1.5370     1.9383    33.5975 </r>
       <r>     1.5651     2.0087    33.6540 </r>
       <r>     1.5932     1.9840    33.7097 </r>
       <r>     1.6213     1.8373    33.7613 </r>
       <r>     1.6494     1.5930    33.8061 </r>
       <r>     1.6775     1.3099    33.8429 </r>
       <r>     1.7056     1.0603    33.8727 </r>
       <r>     1.7337     0.9049    33.8981 </r>
       <r>     1.7618     0.8735    33.9226 </r>
       <r>     1.7899     0.9642    33.9497 </r>
       <r>     1.8180     1.1619    33.9824 </r>
       <r>     1.8461     1.4484    34.0231 </r>
       <r>     1.8742     1.7898    34.0734 </r>
       <r>     1.9023     2.1192    34.1329 </r>
       <r>     1.9304     2.3480    34.1989 </r>
       <r>     1.9585     2.4113    34.2666 </r>
       <r>     1.9866     2.3087    34.3315 </r>
       <r>     2.0147     2.1062    34.3907 </r>
       <r>     2.0428     1.8941    34.4439 </r>
       <r>     2.0709     1.7374    34.4927 </r>
       <r>     2.0990     1.6530    34.5391 </r>
       <r>     2.1270     1.6241    34.5848 </r>
       <r>     2.1551     1.6298    34.6306 </r>
       <r>     2.1832     1.6620    34.6773 </r>
       <r>     2.2113     1.7192    34.7256 </r>
       <r>     2.2394     1.7876    34.7758 </r>
       <r>     2.2675     1.8401    34.8275 </r>
       <r>     2.2956     1.8610    34.8798 </r>
       <r>     2.3237     1.8706    34.9323 </r>
       <r>     2.3518     1.9126    34.9861 </r>
       <r>     2.3799     2.0074    35.0425 </r>
       <r>     2.4080     2.1205    35.1021 </r>
[...]
        <r>  0.0000  0.0000  0.0005  0.0000  0.0000  0.0000  0.0000  0.0000  0.0000 </r>
        <r>  0.0000  0.0000  0.0532  0.0000  0.0000  0.0000  0.0000  0.0000  0.0000 </r>
        <r>  0.0000  0.0000  0.0142  0.0000  0.0000  0.0000  0.0000  0.0000  0.0000 </r>
        <r>  0.0000  0.0000  0.0142  0.0000  0.0000  0.0000  0.0000  0.0000  0.0000 </r>
        <r>  0.0000  0.0000  0.0532  0.0000  0.0000  0.0000  0.0000  0.0000  0.0000 </r>
        <r>  0.0000  0.0000  0.0005  0.0000  0.0000  0.0000  0.0000  0.0000  0.0000 </r>
       </set>
      </set>
      <set comment="kpoint 19">
       <set comment="band 1">
        <r>  0.0000  0.0047  0.0000  0.0047  0.0000  0.0000  0.0000  0.0000  0.0000 </r>
        <r>  0.0000  0.0047  0.0000  0.0047  0.0000  0.0000  0.0000  0.0000  0.0000 </r>
        <r>  0.0961  0.0081  0.0000  0.0028  0.0000  0.0000  0.0000  0.0000  0.0000 </r>
        <r>  0.0961  0.0081  0.0000  0.0028  0.0000  0.0000  0.0000  0.0000  0.0000 </r>
        <r>  0.0961  0.0001  0.0000  0.0107  0.0000  0.0000  0.0000  0.0000  0.0000 </r>
        <r>  0.0961  0.0001  0.0000  0.0107  0.0000  0.0000  0.0000  0.0000  0.0000 </r>
        <r>  0.0961  0.0081  0.0000  0.0028  0.0000  0.0000  0.0000  0.0000  0.0000 </r>
        <r>  0.0961  0.0081  0.0000  0.0028  0.0000  0.0000  0.0000  0.0000  0.0000 </r>
       </set>
       <set comment="band 2">
        <r>  0.0394  0.0050  0.0000  0.0050  0.0000  0.0000  0.0000  0.0000  0.0000 </r>
        <r>  0.0394  0.0050  0.0000  0.0050  0.0000  0.0000  0.0000  0.0000  0.0000 </r>
        <r>  0.0427  0.0053  0.0000  0.0120  0.0000  0.0000  0.0000  0.0000  0.0000 </r>
        <r>  0.0427  0.0053  0.0000  0.0120  0.0000  0.0000  0.0000  0.0000  0.0000 </r>
        <r>  0.1610  0.0018  0.0000  0.0004  0.0000  0.0000  0.0000  0.0000  0.0000 </r>
        <r>  0.1610  0.0018  0.0000  0.0004  0.0000  0.0000  0.0000  0.0000  0.0000 </r>
        <r>  0.0427  0.0053  0.0000  0.0120  0.0000  0.0000  0.0000  0.0000  0.0000 </r>
        <r>  0.0427  0.0053  0.0000  0.0120  0.0000  0.0000  0.0000  0.0000  0.0000 </r>
       </set>
       <set comment="band 3">
        <r>  0.0394  0.0050  0.0000  0.0050  0.0000  0.0000  0.0000  0.0000  0.0000 </r>
        <r>  0.0394  0.0050  0.0000  0.0050  0.0000  0.0000  0.0000  0.0000  0.0000 </r>
        <r>  0.1216  0.0013  0.0000  0.0059  0.0000  0.0000  0.0000  0.0000  0.0000 </r>
        <r>  0.1216  0.0013  0.0000  0.0059  0.0000  0.0000  0.0000  0.0000  0.0000 </r>
        <r>  0.0032  0.0217  0.0000  0.0006  0.0000  0.0000  0.0000  0.0000  0.0000 </r>
        <r>  0.0032  0.0217  0.0000  0.0006  0.0000  0.0000  0.0000  0.0000  0.0000 </r>
        <r>  0.1216  0.0013  0.0000  0.0059  0.0000  0.0000  0.0000  0.0000  0.0000 </r>
        <r>  0.1216  0.0013  0.0000  0.0059  0.0000  0.0000  0.0000  0.0000  0.0000 </r>
       </set>
       <set comment="band 4">
        <r>  0.0525  0.0051  0.0000  0.0051  0.0000  0.0000  0.0000  0.0000  0.0000 </r>
        <r>  0.0525  0.0051  0.0000  0.0051  0.0000  0.0000  0.0000  0.0000  0.0000 </r>
        <r>  0.0771  0.0054  0.0000  0.0203  0.0000  0.0000  0.0000  0.0000  0.0000 </r>
        <r>  0.0771  0.0054  0.0000  0.0203  0.0000  0.0000  0.0000  0.0000  0.0000 </r>
        <r>  0.0163  0.0619  0.0000  0.0104  0.0000  0.0000  0.0000  0.0000  0.0000 </r>
        <r>  0.0163  0.0619  0.0000  0.0104  0.0000  0.0000  0.0000  0.0000  0.0000 </r>
        <r>  0.0771  0.0054  0.0000  0.0203  0.0000  0.0000  0.0000  0.0000  0.0000 </r>
        <r>  0.0771  0.0054  0.0000  0.0203  0.0000  0.0000  0.0000  0.0000  0.0000 </r>
       </set>
       <set comment="band 5">
        <r>  0.0525  0.0051  0.0000  0.0051  0.0000  0.0000  0.0000  0.0000  0.0000 </r>
        <r>  0.0525  0.0051  0.0000  0.0051  0.0000  0.0000  0.0000  0.0000  0.0000 </r>
        <r>  0.0366  0.0232  0.0000  0.0336  0.0000  0.0000  0.0000  0.0000  0.0000 </r>
        <r>  0.0366  0.0232  0.0000  0.0336  0.0000  0.0000  0.0000  0.0000  0.0000 </r>
        <r>  0.0974  0.0045  0.0000  0.0056  0.0000  0.0000  0.0000  0.0000  0.0000 </r>
        <r>  0.0974  0.0045  0.0000  0.0056  0.0000  0.0000  0.0000  0.0000  0.0000 </r>
        <r>  0.0366  0.0232  0.0000  0.0336  0.0000  0.0000  0.0000  0.0000  0.0000 </r>
        <r>  0.0366  0.0232  0.0000  0.0336  0.0000  0.0000  0.0000  0.0000  0.0000 </r>
       </set>
       <set comment="band 6">
        <r>  0.0000  0.0310  0.0000  0.0310  0.0000  0.0000  0.0000  0.0000  0.0000 </r>
        <r>  0.0000  0.0310  0.0000  0.0310  0.0000  0.0000  0.0000  0.0000  0.0000 </r>
        <r>  0.0003  0.0349  0.0000  0.0501  0.0000  0.0000  0.0000  0.0000  0.0000 </r>
        <r>  0.0003  0.0349  0.0000  0.0501  0.0000  0.0000  0.0000  0.0000  0.0000 </r>
        <r>  0.0003  0.0577  0.0000  0.0274  0.0000  0.0000  0.0000  0.0000  0.0000 </r>
        <r>  0.0003  0.0577  0.0000  0.0274  0.0000  0.0000  0.0000  0.0000  0.0000 </r>
        <r>  0.0003  0.0349  0.0000  0.0501  0.0000  0.0000  0.0000  0.0000  0.0000 </r>
        <r>  0.0003  0.0349  0.0000  0.0501  0.0000  0.0000  0.0000  0.0000  0.0000 </r>
       </set>
       <set comment="band 7">
        <r>  0.0855  0.0056  0.0000  0.0056  0.0000  0.0000  0.0000  0.0000  0.0000 </r>
        <r>  0.0855  0.0056  0.0000  0.0056  0.0000  0.0000  0.0000  0.0000  0.0000 </r>
        <r>  0.0125  0.0456  0.0000  0.0035  0.0000  0.0000  0.0000  0.0000  0.0000 </r>
        <r>  0.0125  0.0456  0.0000  0.0035  0.0000  0.0000  0.0000  0.0000  0.0000 </r>
        <r>  0.0047  0.0535  0.0000  0.0937  0.0000  0.0000  0.0000  0.0000  0.0000 </r>
        <r>  0.0047  0.0535  0.0000  0.0937  0.0000  0.0000  0.0000  0.0000  0.0000 </r>
        <r>  0.0125  0.0456  0.0000  0.0035  0.0000  0.0000  0.0000  0.0000  0.0000 </r>
        <r>  0.0125  0.0456  0.0000  0.0035  0.0000  0.0000  0.0000  0.0000  0.0000 </r>
       </set>
       <set comment="band 8">
        <r>  0.0855  0.0056  0.0000  0.0056  0.0000  0.0000  0.0000  0.0000  0.0000 </r>
        <r>  0.0855  0.0056  0.0000  0.0056  0.0000  0.0000  0.0000  0.0000  0.0000 </r>
        <r>  0.0073  0.0470  0.0000  0.0675  0.0000  0.0000  0.0000  0.0000  0.0000 </r>
        <r>  0.0073  0.0470  0.0000  0.0675  0.0000  0.0000  0.0000  0.0000  0.0000 </r>
        <r>  0.0151  0.0068  0.0000  0.0097  0.0000  0.0000  0.0000  0.0000  0.0000 </r>
        <r>  0.0151  0.0068  0.0000  0.0097  0.0000  0.0000  0.0000  0.0000  0.0000 </r>
        <r>  0.0073  0.0470  0.0000  0.0675  0.0000  0.0000  0.0000  0.0000  0.0000 </r>
        <r>  0.0073  0.0470  0.0000  0.0675  0.0000  0.0000  0.0000  0.0000  0.0000 </r>
       </set>
       <set comment="band 9">
        <r>  0.0000  0.0194  0.0000  0.0194  0.0000  0.0000  0.0000  0.0000  0.0000 </r>
        <r>  0.0000  0.0194  0.0000  0.0194  0.0000  0.0000  0.0000  0.0000  0.0000 </r>
        <r>  0.0046  0.0467  0.0000  0.0531  0.0000  0.0000  0.0000  0.0000  0.0000 </r>
        <r>  0.0046  0.0467  0.0000  0.0531  0.0000  0.0000  0.0000  0.0000  0.0000 </r>
        <r>  0.0046  0.0563  0.0000  0.0435  0.0000  0.0000  0.0000  0.0000  0.0000 </r>
        <r>  0.0046  0.0563  0.0000  0.0435  0.0000  0.0000  0.0000  0.0000  0.0000 </r>
        <r>  0.0046  0.0467  0.0000  0.0531  0.0000  0.0000  0.0000  0.0000  0.0000 </r>
        <r>  0.0046  0.0467  0.0000  0.0531  0.0000  0.0000  0.0000  0.0000  0.0000 </r>
       </set>
       <set comment="band 10">
        <r>  0.0000  0.0000  0.0000  0.0000  0.0000  0.0000  0.0000  0.0000  0.0000 </r>
        <r>  0.0000  0.0000  0.0000  0.0000  0.0000  0.0000  0.0000  0.0000  0.0000 </r>
        <r>  0.0000  0.0000  0.0729  0.0000  0.0000  0.0000  0.0000  0.0000  0.0000 </r>
        <r>  0.0000  0.0000  0.0729  0.0000  0.0000  0.0000  0.0000  0.0000  0.0000 </r>
        <r>  0.0000  0.0000  0.0729  0.0000  0.0000  0.0000  0.0000  0.0000  0.0000 </r>
        <r>  0.0000  0.0000  0.0729  0.0000  0.0000  0.0000  0.0000  0.0000  0.0000 </r>
        <r>  0.0000  0.0000  0.0729  0.0000  0.0000  0.0000  0.0000  0.0000  0.0000 </r>
        <r>  0.0000  0.0000  0.0729  0.0000  0.0000  0.0000  0.0000  0.0000  0.0000 </r>
       </set>
       <set comment="band 11">
        <r>  0.0000  0.0774  0.0000  0.0774  0.0000  0.0000  0.0000  0.0000  0.0000 </r>
        <r>  0.0000  0.0774  0.0000  0.0774  0.0000  0.0000  0.0000  0.0000  0.0000 </r>
        <r>  0.0451  0.0218  0.0000  0.0074  0.0000  0.0000  0.0000  0.0000  0.0000 </r>
        <r>  0.0451  0.0218  0.0000  0.0074  0.0000  0.0000  0.0000  0.0000  0.0000 </r>
        <r>  0.0451  0.0003  0.0000  0.0290  0.0000  0.0000  0.0000  0.0000  0.0000 </r>
        <r>  0.0451  0.0003  0.0000  0.0290  0.0000  0.0000  0.0000  0.0000  0.0000 </r>
        <r>  0.0451  0.0218  0.0000  0.0074  0.0000  0.0000  0.0000  0.0000  0.0000 </r>
        <r>  0.0451  0.0218  0.0000  0.0074  0.0000  0.0000  0.0000  0.0000  0.0000 </r>
       </set>
       <set comment="band 12">
        <r>  0.0183  0.0608  0.0000  0.0608  0.0000  0.0000  0.0000  0.0000  0.0000 </r>
        <r>  0.0183  0.0608  0.0000  0.0608  0.0000  0.0000  0.0000  0.0000  0.0000 </r>
        <r>  0.0036  0.0639  0.0000  0.0012  0.0000  0.0000  0.0000  0.0000  0.0000 </r>
        <r>  0.0036  0.0639  0.0000  0.0012  0.0000  0.0000  0.0000  0.0000  0.0000 </r>
        <r>  0.0006  0.0547  0.0000  0.0393  0.0000  0.0000  0.0000  0.0000  0.0000 </r>
        <r>  0.0006  0.0547  0.0000  0.0393  0.0000  0.0000  0.0000  0.0000  0.0000 </r>
        <r>  0.0036  0.0639  0.0000  0.0012  0.0000  0.0000  0.0000  0.0000  0.0000 </r>
        <r>  0.0036  0.0639  0.0000  0.0012  0.0000  0.0000  0.0000  0.0000  0.0000 </r>
       </set>
       <set comment="band 13">
        <r>  0.0183  0.0608  0.0000  0.0608  0.0000  0.0000  0.0000  0.0000  0.0000 </r>
        <r>  0.0183  0.0608  0.0000  0.0608  0.0000  0.0000  0.0000  0.0000  0.0000 </r>
        <r>  0.0016  0.0207  0.0000  0.0637  0.0000  0.0000  0.0000  0.0000  0.0000 </r>
        <r>  0.0016  0.0207  0.0000  0.0637  0.0000  0.0000  0.0000  0.0000  0.0000 </r>
        <r>  0.0046  0.0004  0.0000  0.0550  0.0000  0.0000  0.0000  0.0000  0.0000 </r>
        <r>  0.0046  0.0004  0.0000  0.0550  0.0000  0.0000  0.0000  0.0000  0.0000 </r>
        <r>  0.0016  0.0207  0.0000  0.0637  0.0000  0.0000  0.0000  0.0000  0.0000 </r>
        <r>  0.0016  0.0207  0.0000  0.0637  0.0000  0.0000  0.0000  0.0000  0.0000 </r>
       </set>
       <set comment="band 14">
        <r>  0.0000  0.0000  0.0475  0.0000  0.0000  0.0000  0.0000  0.0000  0.0000 </r>
        <r>  0.0000  0.0000  0.0475  0.0000  0.0000  0.0000  0.0000  0.0000  0.0000 </r>
        <r>  0.0000  0.0000  0.0303  0.0000  0.0000  0.0000  0.0000  0.0000  0.0000 </r>
        <r>  0.0000  0.0000  0.0303  0.0000  0.0000  0.0000  0.0000  0.0000  0.0000 </r>
        <r>  0.0000  0.0000  0.1085  0.0000  0.0000  0.0000  0.0000  0.0000  0.0000 </r>
        <r>  0.0000  0.0000  0.1085  0.0000  0.0000  0.0000  0.0000  0.0000  0.0000 </r>
        <r>  0.0000  0.0000  0.0303  0.0000  0.0000  0.0000  0.0000  0.0000  0.0000 </r>
        <r>  0.0000  0.0000  0.0303  0.0000  0.0000  0.0000  0.0000  0.0000  0.0000 </r>
       </set>
       <set comment="band 15">
        <r>  0.0000  0.0000  0.0475  0.0000  0.0000  0.0000  0.0000  0.0000  0.0000 </r>
        <r>  0.0000  0.0000  0.0475  0.0000  0.0000  0.0000  0.0000  0.0000  0.0000 </r>
        <r>  0.0000  0.0000  0.0824  0.0000  0.0000  0.0000  0.0000  0.0000  0.0000 </r>
        <r>  0.0000  0.0000  0.0824  0.0000  0.0000  0.0000  0.0000  0.0000  0.0000 </r>
        <r>  0.0000  0.0000  0.0043  0.0000  0.0000  0.0000  0.0000  0.0000  0.0000 </r>
        <r>  0.0000  0.0000  0.0043  0.0000  0.0000  0.0000  0.0000  0.0000  0.0000 </r>
        <r>  0.0000  0.0000  0.0824  0.0000  0.0000  0.0000  0.0000  0.0000  0.0000 </r>
        <r>  0.0000  0.0000  0.0824  0.0000  0.0000  0.0000  0.0000  0.0000  0.0000 </r>
       </set>
       <set comment="band 16">
        <r>  0.0000  0.0000  0.0662  0.0000  0.0000  0.0000  0.0000  0.0000  0.0000 </r>
        <r>  0.0000  0.0000  0.0662  0.0000  0.0000  0.0000  0.0000  0.0000  0.0000 </r>
        <r>  0.0000  0.0000  0.0718  0.0000  0.0000  0.0000  0.0000  0.0000  0.0000 </r>
        <r>  0.0000  0.0000  0.0718  0.0000  0.0000  0.0000  0.0000  0.0000  0.0000 </r>
        <r>  0.0000  0.0000  0.0382  0.0000  0.0000  0.0000  0.0000  0.0000  0.0000 </r>
        <r>  0.0000  0.0000  0.0382  0.0000  0.0000  0.0000  0.0000  0.0000  0.0000 </r>
        <r>  0.0000  0.0000  0.0718  0.0000  0.0000  0.0000  0.0000  0.0000  0.0000 </r>
        <r>  0.0000  0.0000  0.0718  0.0000  0.0000  0.0000  0.0000  0.0000  0.0000 </r>
       </set>
       <set comment="band 17">
        <r>  0.0000  0.0000  0.0662  0.0000  0.0000  0.0000  0.0000  0.0000  0.0000 </r>
        <r>  0.0000  0.0000  0.0662  0.0000  0.0000  0.0000  0.0000  0.0000  0.0000 </r>
        <r>  0.0000  0.0000  0.0494  0.0000  0.0000  0.0000  0.0000  0.0000  0.0000 </r>
        <r>  0.0000  0.0000  0.0494  0.0000  0.0000  0.0000  0.0000  0.0000  0.0000 </r>
        <r>  0.0000  0.0000  0.0830  0.0000  0.0000  0.0000  0.0000  0.0000  0.0000 </r>
        <r>  0.0000  0.0000  0.0830  0.0000  0.0000  0.0000  0.0000  0.0000  0.0000 </r>
        <r>  0.0000  0.0000  0.0494  0.0000  0.0000  0.0000  0.0000  0.0000  0.0000 </r>
        <r>  0.0000  0.0000  0.0494  0.0000  0.0000  0.0000  0.0000  0.0000  0.0000 </r>
       </set>
       <set comment="band 18">
        <r>  0.0000  0.0006  0.0000  0.0006  0.0000  0.0000  0.0000  0.0000  0.0000 </r>
        <r>  0.0000  0.0006  0.0000  0.0006  0.0000  0.0000  0.0000  0.0000  0.0000 </r>
        <r>  0.0026  0.0001  0.0000  0.0001  0.0000  0.0000  0.0000  0.0000  0.0000 </r>
        <r>  0.0026  0.0001  0.0000  0.0001  0.0000  0.0000  0.0000  0.0000  0.0000 </r>
        <r>  0.0026  0.0000  0.0000  0.0002  0.0000  0.0000  0.0000  0.0000  0.0000 </r>
        <r>  0.0026  0.0000  0.0000  0.0002  0.0000  0.0000  0.0000  0.0000  0.0000 </r>
        <r>  0.0026  0.0001  0.0000  0.0001  0.0000  0.0000  0.0000  0.0000  0.0000 </r>
        <r>  0.0026  0.0001  0.0000  0.0001  0.0000  0.0000  0.0000  0.0000  0.0000 </r>
       </set>
       <set comment="band 19">
        <r>  0.0012  0.0000  0.0000  0.0000  0.0000  0.0000  0.0000  0.0000  0.0000 </r>
        <r>  0.0012  0.0000  0.0000  0.0000  0.0000  0.0000  0.0000  0.0000  0.0000 </r>
        <r>  0.0013  0.0007  0.0000  0.0013  0.0000  0.0000  0.0000  0.0000  0.0000 </r>
        <r>  0.0013  0.0007  0.0000  0.0013  0.0000  0.0000  0.0000  0.0000  0.0000 </r>
        <r>  0.0029  0.0000  0.0000  0.0019  0.0000  0.0000  0.0000  0.0000  0.0000 </r>
        <r>  0.0029  0.0000  0.0000  0.0019  0.0000  0.0000  0.0000  0.0000  0.0000 </r>
        <r>  0.0013  0.0007  0.0000  0.0013  0.0000  0.0000  0.0000  0.0000  0.0000 </r>
        <r>  0.0013  0.0007  0.0000  0.0013  0.0000  0.0000  0.0000  0.0000  0.0000 </r>
       </set>
       <set comment="band 20">
        <r>  0.0012  0.0000  0.0000  0.0000  0.0000  0.0000  0.0000  0.0000  0.0000 </r>
        <r>  0.0012  0.0000  0.0000  0.0000  0.0000  0.0000  0.0000  0.0000  0.0000 </r>
        <r>  0.0024  0.0018  0.0000  0.0001  0.0000  0.0000  0.0000  0.0000  0.0000 </r>
        <r>  0.0024  0.0018  0.0000  0.0001  0.0000  0.0000  0.0000  0.0000  0.0000 </r>
        <r>  0.0007  0.0008  0.0000  0.0011  0.0000  0.0000  0.0000  0.0000  0.0000 </r>
        <r>  0.0007  0.0008  0.0000  0.0011  0.0000  0.0000  0.0000  0.0000  0.0000 </r>
        <r>  0.0024  0.0018  0.0000  0.0001  0.0000  0.0000  0.0000  0.0000  0.0000 </r>
        <r>  0.0024  0.0018  0.0000  0.0001  0.0000  0.0000  0.0000  0.0000  0.0000 </r>
       </set>
       <set comment="band 21">
        <r>  0.0000  0.0000  0.0647  0.0000  0.0000  0.0000  0.0000  0.0000  0.0000 </r>
        <r>  0.0000  0.0000  0.0647  0.0000  0.0000  0.0000  0.0000  0.0000  0.0000 </r>
        <r>  0.0000  0.0000  0.0717  0.0000  0.0000  0.0000  0.0000  0.0000  0.0000 </r>
        <r>  0.0000  0.0000  0.0717  0.0000  0.0000  0.0000  0.0000  0.0000  0.0000 </r>
        <r>  0.0000  0.0000  0.0248  0.0000  0.0000  0.0000  0.0000  0.0000  0.0000 </r>
        <r>  0.0000  0.0000  0.0248  0.0000  0.0000  0.0000  0.0000  0.0000  0.0000 </r>
        <r>  0.0000  0.0000  0.0717  0.0000  0.0000  0.0000  0.0000  0.0000  0.0000 </r>
        <r>  0.0000  0.0000  0.0717  0.0000  0.0000  0.0000  0.0000  0.0000  0.0000 </r>
       </set>
       <set comment="band 22">
        <r>  0.0000  0.0000  0.0647  0.0000  0.0000  0.0000  0.0000  0.0000  0.0000 </r>
        <r>  0.0000  0.0000  0.0647  0.0000  0.0000  0.0000  0.0000  0.0000  0.0000 </r>
        <r>  0.0000  0.0000  0.0405  0.0000  0.0000  0.0000  0.0000  0.0000  0.0000 </r>
        <r>  0.0000  0.0000  0.0404  0.0000  0.0000  0.0000  0.0000  0.0000  0.0000 </r>
        <r>  0.0000  0.0000  0.0874  0.0000  0.0000  0.0000  0.0000  0.0000  0.0000 </r>
        <r>  0.0000  0.0000  0.0874  0.0000  0.0000  0.0000  0.0000  0.0000  0.0000 </r>
        <r>  0.0000  0.0000  0.0405  0.0000  0.0000  0.0000  0.0000  0.0000  0.0000 </r>
        <r>  0.0000  0.0000  0.0404  0.0000  0.0000  0.0000  0.0000  0.0000  0.0000 </r>
       </set>
       <set comment="band 23">
        <r>  0.0000  0.0000  0.0000  0.0000  0.0000  0.0000  0.0000  0.0000  0.0000 </r>
        <r>  0.0000  0.0000  0.0000  0.0000  0.0000  0.0000  0.0000  0.0000  0.0000 </r>
        <r>  0.0000  0.0000  0.0966  0.0000  0.0000  0.0000  0.0000  0.0000  0.0000 </r>
        <r>  0.0000  0.0000  0.0966  0.0000  0.0000  0.0000  0.0000  0.0000  0.0000 </r>
        <r>  0.0000  0.0000  0.0966  0.0000  0.0000  0.0000  0.0000  0.0000  0.0000 </r>
        <r>  0.0000  0.0000  0.0966  0.0000  0.0000  0.0000  0.0000  0.0000  0.0000 </r>
        <r>  0.0000  0.0000  0.0966  0.0000  0.0000  0.0000  0.0000  0.0000  0.0000 </r>
        <r>  0.0000  0.0000  0.0966  0.0000  0.0000  0.0000  0.0000  0.0000  0.0000 </r>
       </set>
       <set comment="band 24">
        <r>  0.0000  0.0000  0.0000  0.0000  0.0000  0.0000  0.0000  0.0000  0.0000 </r>
        <r>  0.0000  0.0000  0.0000  0.0000  0.0000  0.0000  0.0000  0.0000  0.0000 </r>
        <r>  0.0000  0.0000  0.0115  0.0000  0.0000  0.0000  0.0000  0.0000  0.0000 </r>
        <r>  0.0000  0.0000  0.0115  0.0000  0.0000  0.0000  0.0000  0.0000  0.0000 </r>
        <r>  0.0000  0.0000  0.0115  0.0000  0.0000  0.0000  0.0000  0.0000  0.0000 </r>
        <r>  0.0000  0.0000  0.0115  0.0000  0.0000  0.0000  0.0000  0.0000  0.0000 </r>
        <r>  0.0000  0.0000  0.0115  0.0000  0.0000  0.0000  0.0000  0.0000  0.0000 </r>
        <r>  0.0000  0.0000  0.0115  0.0000  0.0000  0.0000  0.0000  0.0000  0.0000 </r>
       </set>
      </set>
     </set>
    </set>
   </array>
  </projected>
 </calculation>
 <structure name="finalpos" >
  <crystal>
   <varray name="basis" >
    <v>       4.48084843       2.58701885       0.00000000 </v>
    <v>      -4.48084843       2.58701885       0.00000000 </v>
    <v>       0.00000000       0.00000000       8.52022140 </v>
   </varray>
   <i name="volume">    197.53348383 </i>
   <varray name="rec_basis" >
    <v>       0.11158601       0.19327265       0.00000000 </v>
    <v>      -0.11158601       0.19327265       0.00000000 </v>
    <v>       0.00000000       0.00000000       0.11736784 </v>
   </varray>
  </crystal>
  <varray name="positions" >
   <v>       0.33333300       0.66666600       0.25000000 </v>
   <v>       0.66666600       0.33333300       0.25000000 </v>
   <v>       0.15869124       0.31738348       0.25000000 </v>
   <v>       0.31738348       0.15869124       0.25000000 </v>
   <v>       0.15869124       0.84130776       0.25000000 </v>
   <v>       0.84130776       0.15869124       0.25000000 </v>
   <v>       0.68261552       0.84130776       0.25000000 </v>
   <v>       0.84130776       0.68261552       0.25000000 </v>
  </varray>
 </structure>
</modeling>
