<?xml version="1.0" encoding="ISO-8859-1"?>
<modeling>
 <generator>
  <i name="program" type="string">vasp </i>
  <i name="version" type="string">5.4.4.18Apr17-6-g9f103f2a35  </i>
  <i name="subversion" type="string">(build Mar 30 2023 15:39:25) complex            parallel </i>
  <i name="platform" type="string">LinuxIFC </i>
  <i name="date" type="string">2023 06 16 </i>
  <i name="time" type="string">04:24:32 </i>
 </generator>
 <incar>
  <i type="string" name="SYSTEM"> BC3</i>
  <i type="int" name="ISTART">     1</i>
  <i type="string" name="PREC">accurate</i>
  <i type="string" name="ALGO"> Normal</i>
  <i type="int" name="ICHARG">     0</i>
  <i type="int" name="IBRION">    -1</i>
  <i name="EDIFF">      0.00000100</i>
  <i name="EDIFFG">     -0.00100000</i>
  <i type="int" name="NSW">     0</i>
  <i name="ENCUT">    450.00000000</i>
  <i type="int" name="ISMEAR">    -1</i>
  <i name="SIGMA">      0.10000000</i>
  <i type="int" name="LORBIT">    11</i>
  <v type="int" name="KPOINT_BSE">    -1     0     0     0</v>
 </incar>
 <structure name="primitive_cell" >
  <crystal>
   <varray name="basis" >
    <v>       4.48084843       2.58701885       0.00000000 </v>
    <v>      -4.48084843       2.58701885       0.00000000 </v>
    <v>       0.00000000       0.00000000       8.52022140 </v>
   </varray>
   <i name="volume">    197.53348383 </i>
   <varray name="rec_basis" >
    <v>       0.11158601       0.19327265       0.00000000 </v>
    <v>      -0.11158601       0.19327265       0.00000000 </v>
    <v>       0.00000000       0.00000000       0.11736784 </v>
   </varray>
  </crystal>
  <varray name="positions" >
   <v>       0.33333300      -0.33333400       0.25000000 </v>
   <v>       0.15869124       0.31738348       0.25000000 </v>
   <v>      -0.31738448      -0.15869224       0.25000000 </v>
   <v>       0.15869124      -0.15869224       0.25000000 </v>
   <v>      -0.15869224       0.15869124       0.25000000 </v>
   <v>       0.31738348       0.15869124       0.25000000 </v>
   <v>      -0.15869224      -0.31738448       0.25000000 </v>
   <v>      -0.33333400       0.33333300       0.25000000 </v>
  </varray>
 </structure>
 <varray name="primitive_index" >
  <v type="int" >        1 </v>
  <v type="int" >        3 </v>
  <v type="int" >        7 </v>
  <v type="int" >        5 </v>
  <v type="int" >        6 </v>
  <v type="int" >        4 </v>
  <v type="int" >        8 </v>
  <v type="int" >        2 </v>
 </varray>
 <kpoints>
  <generation param="Gamma">
   <v type="int" name="divisions">      12       12        1 </v>
   <v name="usershift">      0.00000000       0.00000000       0.00000000 </v>
   <v name="genvec1">      0.08333333       0.00000000       0.00000000 </v>
   <v name="genvec2">      0.00000000       0.08333333       0.00000000 </v>
   <v name="genvec3">      0.00000000       0.00000000       1.00000000 </v>
   <v name="shift">      0.00000000       0.00000000       0.00000000 </v>
  </generation>
  <varray name="kpointlist" >
   <v>       0.00000000       0.00000000       0.00000000 </v>
   <v>       0.08333333       0.00000000       0.00000000 </v>
   <v>       0.16666667       0.00000000       0.00000000 </v>
   <v>       0.25000000      -0.00000000       0.00000000 </v>
   <v>       0.33333333      -0.00000000       0.00000000 </v>
   <v>       0.41666667       0.00000000       0.00000000 </v>
   <v>       0.50000000      -0.00000000       0.00000000 </v>
   <v>       0.08333333       0.08333333       0.00000000 </v>
   <v>       0.16666667       0.08333333       0.00000000 </v>
   <v>       0.25000000       0.08333333       0.00000000 </v>
   <v>       0.33333333       0.08333333       0.00000000 </v>
   <v>       0.41666667       0.08333333       0.00000000 </v>
   <v>       0.16666667       0.16666667       0.00000000 </v>
   <v>       0.25000000       0.16666667       0.00000000 </v>
   <v>       0.33333333       0.16666667       0.00000000 </v>
   <v>       0.41666667       0.16666667       0.00000000 </v>
   <v>       0.25000000       0.25000000       0.00000000 </v>
   <v>       0.33333333       0.25000000       0.00000000 </v>
   <v>       0.33333333       0.33333333       0.00000000 </v>
  </varray>
  <varray name="weights" >
   <v>       0.00694444 </v>
   <v>       0.04166667 </v>
   <v>       0.04166667 </v>
   <v>       0.04166667 </v>
   <v>       0.04166667 </v>
   <v>       0.04166667 </v>
   <v>       0.02083333 </v>
   <v>       0.04166667 </v>
   <v>       0.08333333 </v>
   <v>       0.08333333 </v>
   <v>       0.08333333 </v>
   <v>       0.08333333 </v>
   <v>       0.04166667 </v>
   <v>       0.08333333 </v>
   <v>       0.08333333 </v>
   <v>       0.04166667 </v>
   <v>       0.04166667 </v>
   <v>       0.08333333 </v>
   <v>       0.01388889 </v>
  </varray>
 </kpoints>
 <parameters>
  <separator name="general" >
   <i type="string" name="SYSTEM">BC3</i>
   <i type="logical" name="LCOMPAT"> F  </i>
  </separator>
  <separator name="electronic" >
   <i type="string" name="PREC">accura</i>
   <i name="ENMAX">    450.00000000</i>
   <i name="ENAUG">    644.87300000</i>
   <i name="EDIFF">      0.00000100</i>
   <i type="int" name="IALGO">    38</i>
   <i type="int" name="IWAVPR">    10</i>
   <i type="int" name="NBANDS">    24</i>
   <i name="NELECT">     30.00000000</i>
   <i type="int" name="TURBO">     0</i>
   <i type="int" name="IRESTART">     0</i>
   <i type="int" name="NREBOOT">     0</i>
   <i type="int" name="NMIN">     0</i>
   <i name="EREF">      0.00000000</i>
   <separator name="electronic smearing" >
    <i type="int" name="ISMEAR">    -1</i>
    <i name="SIGMA">      0.10000000</i>
    <i name="KSPACING">      0.50000000</i>
    <i type="logical" name="KGAMMA"> T  </i>
   </separator>
   <separator name="electronic projectors" >
    <i type="logical" name="LREAL"> F  </i>
    <v name="ROPT">      0.00000000      0.00000000</v>
    <i type="int" name="LMAXPAW">  -100</i>
    <i type="int" name="LMAXMIX">     2</i>
    <i type="logical" name="NLSPLINE"> F  </i>
   </separator>
   <separator name="electronic startup" >
    <i type="int" name="ISTART">     1</i>
    <i type="int" name="ICHARG">     0</i>
    <i type="int" name="INIWAV">     1</i>
   </separator>
   <separator name="electronic spin" >
    <i type="int" name="ISPIN">     1</i>
    <i type="logical" name="LNONCOLLINEAR"> F  </i>
    <v name="MAGMOM">      1.00000000      1.00000000      1.00000000      1.00000000      1.00000000      1.00000000      1.00000000      1.00000000</v>
    <i name="NUPDOWN">     -1.00000000</i>
    <i type="logical" name="LSORBIT"> F  </i>
    <v name="SAXIS">      0.00000000      0.00000000      1.00000000</v>
    <i type="logical" name="LSPIRAL"> F  </i>
    <v name="QSPIRAL">      0.00000000      0.00000000      0.00000000</v>
    <i type="logical" name="LZEROZ"> F  </i>
   </separator>
   <separator name="electronic exchange-correlation" >
    <i type="logical" name="LASPH"> F  </i>
    <i type="logical" name="LMETAGGA"> F  </i>
   </separator>
   <separator name="electronic convergence" >
    <i type="int" name="NELM">    60</i>
    <i type="int" name="NELMDL">     0</i>
    <i type="int" name="NELMIN">     2</i>
    <i name="ENINI">    450.00000000</i>
    <separator name="electronic convergence detail" >
     <i type="logical" name="LDIAG"> T  </i>
     <i type="logical" name="LSUBROT"> F  </i>
     <i name="WEIMIN">      0.00000000</i>
     <i name="EBREAK">      0.00000001</i>
     <i name="DEPER">      0.30000000</i>
     <i type="int" name="NRMM">     4</i>
     <i name="TIME">      0.40000000</i>
    </separator>
   </separator>
   <separator name="electronic mixer" >
    <i name="AMIX">      0.40000000</i>
    <i name="BMIX">      1.00000000</i>
    <i name="AMIN">      0.10000000</i>
    <i name="AMIX_MAG">      1.60000000</i>
    <i name="BMIX_MAG">      1.00000000</i>
    <separator name="electronic mixer details" >
     <i type="int" name="IMIX">     4</i>
     <i type="logical" name="MIXFIRST"> F  </i>
     <i type="int" name="MAXMIX">   -45</i>
     <i name="WC">    100.00000000</i>
     <i type="int" name="INIMIX">     1</i>
     <i type="int" name="MIXPRE">     1</i>
     <i type="int" name="MREMOVE">     5</i>
    </separator>
   </separator>
   <separator name="electronic dipolcorrection" >
    <i type="logical" name="LDIPOL"> F  </i>
    <i type="logical" name="LMONO"> F  </i>
    <i type="int" name="IDIPOL">     0</i>
    <i name="EPSILON">      1.00000000</i>
    <v name="DIPOL">   -100.00000000   -100.00000000   -100.00000000</v>
    <i name="EFIELD">      0.00000000</i>
   </separator>
  </separator>
  <separator name="grids" >
   <i type="int" name="NGX">    36</i>
   <i type="int" name="NGY">    36</i>
   <i type="int" name="NGZ">    60</i>
   <i type="int" name="NGXF">    72</i>
   <i type="int" name="NGYF">    72</i>
   <i type="int" name="NGZF">   120</i>
   <i type="logical" name="ADDGRID"> F  </i>
  </separator>
  <separator name="ionic" >
   <i type="int" name="NSW">     0</i>
   <i type="int" name="IBRION">    -1</i>
   <i type="int" name="MDALGO">     0</i>
   <i type="int" name="ISIF">     2</i>
   <i name="PSTRESS">      0.00000000</i>
   <i name="EDIFFG">     -0.00100000</i>
   <i type="int" name="NFREE">     0</i>
   <i name="POTIM">      0.50000000</i>
   <i name="SMASS">     -3.00000000</i>
   <i name="SCALEE">      1.00000000</i>
  </separator>
  <separator name="ionic md" >
   <i name="TEBEG">      0.00010000</i>
   <i name="TEEND">      0.00010000</i>
   <i type="int" name="NBLOCK">     1</i>
   <i type="int" name="KBLOCK">     1</i>
   <i type="int" name="NPACO">   256</i>
   <i name="APACO">     16.00000000</i>
  </separator>
  <separator name="symmetry" >
   <i type="int" name="ISYM">     2</i>
   <i name="SYMPREC">      0.00001000</i>
  </separator>
  <separator name="dos" >
   <i type="int" name="LORBIT">    11</i>
   <v name="RWIGS">     -1.00000000     -1.00000000</v>
   <i type="int" name="NEDOS">   301</i>
   <i name="EMIN">     10.00000000</i>
   <i name="EMAX">    -10.00000000</i>
   <i name="EFERMI">      0.00000000</i>
  </separator>
  <separator name="writing" >
   <i type="int" name="NWRITE">     2</i>
   <i type="logical" name="LWAVE"> T  </i>
   <i type="logical" name="LDOWNSAMPLE"> F  </i>
   <i type="logical" name="LCHARG"> T  </i>
   <i type="logical" name="LPARD"> F  </i>
   <i type="logical" name="LVTOT"> F  </i>
   <i type="logical" name="LVHAR"> F  </i>
   <i type="logical" name="LELF"> F  </i>
   <i type="logical" name="LOPTICS"> F  </i>
   <v name="STM">      0.00000000      0.00000000      0.00000000      0.00000000      0.00000000      0.00000000      0.00000000</v>
  </separator>
  <separator name="performance" >
   <i type="int" name="NPAR">    12</i>
   <i type="int" name="NSIM">     4</i>
   <i type="int" name="NBLK">    -1</i>
   <i type="logical" name="LPLANE"> T  </i>
   <i type="logical" name="LSCALAPACK"> T  </i>
   <i type="logical" name="LSCAAWARE"> F  </i>
   <i type="logical" name="LSCALU"> F  </i>
   <i type="logical" name="LASYNC"> F  </i>
   <i type="logical" name="LORBITALREAL"> F  </i>
  </separator>
  <separator name="miscellaneous" >
   <i type="int" name="IDIOT">     3</i>
   <i type="int" name="ISPECIAL">     0</i>
   <i type="logical" name="LMUSIC"> F  </i>
   <v name="POMASS">     10.81100000     12.01100000</v>
   <v name="DARWINR">      0.00000000      0.00000000</v>
   <v name="DARWINV">      1.00000000      1.00000000</v>
   <i type="logical" name="LCORR"> T  </i>
  </separator>
  <i type="logical" name="GGA_COMPAT"> T  </i>
  <i type="logical" name="LBERRY"> F  </i>
  <i type="int" name="ICORELEVEL">     0</i>
  <i type="logical" name="LDAU"> F  </i>
  <i type="int" name="I_CONSTRAINED_M">     0</i>
  <separator name="electronic exchange-correlation" >
   <i type="string" name="GGA">--</i>
   <i type="int" name="VOSKOWN">     0</i>
   <i type="logical" name="LHFCALC"> F  </i>
   <i type="string" name="PRECFOCK"></i>
   <i type="logical" name="LSYMGRAD"> F  </i>
   <i type="logical" name="LHFONE"> F  </i>
   <i type="logical" name="LRHFCALC"> F  </i>
   <i type="logical" name="LTHOMAS"> F  </i>
   <i type="logical" name="LMODELHF"> F  </i>
   <i name="ENCUT4O">     -1.00000000</i>
   <i type="int" name="EXXOEP">     0</i>
   <i type="int" name="FOURORBIT">     0</i>
   <i name="AEXX">      0.00000000</i>
   <i name="HFALPHA">      0.00000000</i>
   <i name="MCALPHA">      0.00000000</i>
   <i name="ALDAX">      1.00000000</i>
   <i name="AGGAX">      1.00000000</i>
   <i name="ALDAC">      1.00000000</i>
   <i name="AGGAC">      1.00000000</i>
   <i type="int" name="NKREDX">     1</i>
   <i type="int" name="NKREDY">     1</i>
   <i type="int" name="NKREDZ">     1</i>
   <i type="logical" name="SHIFTRED"> F  </i>
   <i type="logical" name="ODDONLY"> F  </i>
   <i type="logical" name="EVENONLY"> F  </i>
   <i type="int" name="LMAXFOCK">     0</i>
   <i type="int" name="NMAXFOCKAE">     0</i>
   <i type="logical" name="LFOCKAEDFT"> F  </i>
   <i name="HFSCREEN">      0.00000000</i>
   <i name="HFSCREENC">      0.00000000</i>
   <i type="int" name="NBANDSGWLOW">     0</i>
  </separator>
  <separator name="vdW DFT" >
   <i type="logical" name="LUSE_VDW"> F  </i>
   <i name="Zab_VDW">     -0.84910000</i>
   <i name="PARAM1">      0.12340000</i>
   <i name="PARAM2">      1.00000000</i>
   <i name="PARAM3">      0.00000000</i>
  </separator>
  <separator name="model GW" >
   <i type="int" name="MODEL_GW">     0</i>
   <i name="MODEL_EPS0">     14.81501129</i>
   <i name="MODEL_ALPHA">      1.00000000</i>
  </separator>
  <separator name="linear response parameters" >
   <i type="logical" name="LEPSILON"> F  </i>
   <i type="logical" name="LRPA"> F  </i>
   <i type="logical" name="LNABLA"> F  </i>
   <i type="logical" name="LVEL"> F  </i>
   <i type="int" name="KINTER">     0</i>
   <i name="CSHIFT">      0.10000000</i>
   <i name="OMEGAMAX">     -1.00000000</i>
   <i name="DEG_THRESHOLD">      0.00200000</i>
   <i name="RTIME">     -0.10000000</i>
   <i name="WPLASMAI">      0.00000000</i>
   <v name="DFIELD">      0.00000000      0.00000000      0.00000000</v>
   <v name="WPLASMA">      0.00000000      0.00000000      0.00000000      0.00000000      0.00000000      0.00000000      0.00000000      0.00000000      0.00000000</v>
  </separator>
  <separator name="orbital magnetization" >
   <i type="logical" name="NUCIND"> F  </i>
   <v name="MAGPOS">      0.00000000      0.00000000      0.00000000</v>
   <i type="logical" name="LNICSALL"> T  </i>
   <i type="logical" name="ORBITALMAG"> F  </i>
   <i type="logical" name="LMAGBLOCH"> F  </i>
   <i type="logical" name="LCHIMAG"> F  </i>
   <i type="logical" name="LGAUGE"> T  </i>
   <i type="int" name="MAGATOM">     0</i>
   <v name="MAGDIPOL">      0.00000000      0.00000000      0.00000000</v>
   <v name="AVECCONST">      0.00000000      0.00000000      0.00000000</v>
  </separator>
  <separator name="response functions" >
   <i type="logical" name="LADDER"> F  </i>
   <i type="logical" name="LRPAFORCE"> F  </i>
   <i type="logical" name="LFXC"> F  </i>
   <i type="logical" name="LHARTREE"> T  </i>
   <i type="int" name="IBSE">     0</i>
   <v type="int" name="KPOINT">    -1     0     0     0</v>
   <i type="logical" name="LTCTE"> F  </i>
   <i type="logical" name="LTETE"> F  </i>
   <i type="logical" name="LTRIPLET"> F  </i>
   <i type="logical" name="LFXCEPS"> F  </i>
   <i type="logical" name="LFXHEG"> F  </i>
   <i type="int" name="NATURALO">     2</i>
   <i type="logical" name="L2ORDER"> F  </i>
   <i type="logical" name="LMP2LT"> F  </i>
   <i type="logical" name="LUSEW"> F  </i>
   <i name="ENCUTGW">     -2.00000000</i>
   <i name="ENCUTGWSOFT">     -2.00000000</i>
   <i name="ENCUTLF">     -1.00000000</i>
   <i type="int" name="LMAXMP2">    -1</i>
   <i name="SCISSOR">      0.00000000</i>
   <i type="int" name="NOMEGA">     0</i>
   <i type="int" name="NOMEGAR">     0</i>
   <i type="int" name="NBANDSGW">    -1</i>
   <i type="int" name="NBANDSO">    -1</i>
   <i type="int" name="NBANDSV">    -1</i>
   <i type="int" name="NELM">     1</i>
   <i type="int" name="NELMHF">     1</i>
   <i type="int" name="DIM">     3</i>
   <i type="int" name="ANTIRES">     0</i>
   <i name="OMEGAMAX">    -30.00000000</i>
   <i name="OMEGAMIN">    -30.00000000</i>
   <i name="OMEGATL">   -200.00000000</i>
   <i type="int" name="OMEGAGRID">   140</i>
   <i name="CSHIFT">     -0.10000000</i>
   <i type="logical" name="SELFENERGY"> F  </i>
   <i type="logical" name="LSPECTRAL"> F  </i>
   <i type="logical" name="LSPECTRALGW"> F  </i>
   <i type="logical" name="LSINGLES"> F  </i>
   <i type="logical" name="LFERMIGW"> F  </i>
   <i type="logical" name="ODDONLYGW"> F  </i>
   <i type="logical" name="EVENONLYGW"> F  </i>
   <i type="int" name="NKREDLFX">     1</i>
   <i type="int" name="NKREDLFY">     1</i>
   <i type="int" name="NKREDLFZ">     1</i>
   <i type="int" name="MAXMEM">  2800</i>
   <i type="int" name="TELESCOPE">     0</i>
   <i type="int" name="TAUPAR">     1</i>
   <i type="int" name="OMEGAPAR">    -1</i>
   <i name="LAMBDA">      1.00000000</i>
  </separator>
  <separator name="External order field" >
   <i name="OFIELD_KAPPA">      0.00000000</i>
   <v name="OFIELD_K">      0.00000000      0.00000000      0.00000000</v>
   <i name="OFIELD_Q6_NEAR">      0.00000000</i>
   <i name="OFIELD_Q6_FAR">      0.00000000</i>
   <i name="OFIELD_A">      0.00000000</i>
  </separator>
 </parameters>
 <atominfo>
  <atoms>       8 </atoms>
  <types>       2 </types>
  <array name="atoms" >
   <dimension dim="1">ion</dimension>
   <field type="string">element</field>
   <field type="int">atomtype</field>
   <set>
    <rc><c>B </c><c>   1</c></rc>
    <rc><c>B </c><c>   1</c></rc>
    <rc><c>C </c><c>   2</c></rc>
    <rc><c>C </c><c>   2</c></rc>
    <rc><c>C </c><c>   2</c></rc>
    <rc><c>C </c><c>   2</c></rc>
    <rc><c>C </c><c>   2</c></rc>
    <rc><c>C </c><c>   2</c></rc>
   </set>
  </array>
  <array name="atomtypes" >
   <dimension dim="1">type</dimension>
   <field type="int">atomspertype</field>
   <field type="string">element</field>
   <field>mass</field>
   <field>valence</field>
   <field type="string">pseudopotential</field>
   <set>
    <rc><c>   2</c><c>B </c><c>     10.81100000</c><c>      3.00000000</c><c>  PAW_PBE B 06Sep2000                   </c></rc>
    <rc><c>   6</c><c>C </c><c>     12.01100000</c><c>      4.00000000</c><c>  PAW_PBE C 08Apr2002                   </c></rc>
   </set>
  </array>
 </atominfo>
 <structure name="initialpos" >
  <crystal>
   <varray name="basis" >
    <v>       4.48084843       2.58701885       0.00000000 </v>
    <v>      -4.48084843       2.58701885       0.00000000 </v>
    <v>       0.00000000       0.00000000       8.52022140 </v>
   </varray>
   <i name="volume">    197.53348383 </i>
   <varray name="rec_basis" >
    <v>       0.11158601       0.19327265       0.00000000 </v>
    <v>      -0.11158601       0.19327265       0.00000000 </v>
    <v>       0.00000000       0.00000000       0.11736784 </v>
   </varray>
  </crystal>
  <varray name="positions" >
   <v>       0.33333300       0.66666600       0.25000000 </v>
   <v>       0.66666600       0.33333300       0.25000000 </v>
   <v>       0.15869124       0.31738348       0.25000000 </v>
   <v>       0.31738348       0.15869124       0.25000000 </v>
   <v>       0.15869124       0.84130776       0.25000000 </v>
   <v>       0.84130776       0.15869124       0.25000000 </v>
   <v>       0.68261552       0.84130776       0.25000000 </v>
   <v>       0.84130776       0.68261552       0.25000000 </v>
  </varray>
 </structure>
 <calculation>
  <scstep>
   <time name="dav">    0.56    0.56</time>
   <time name="total">    0.66    0.66</time>
   <energy>
    <i name="alphaZ">     25.67921176 </i>
    <i name="ewald">    700.27145080 </i>
    <i name="hartreedc">  -1646.65440612 </i>
    <i name="XCdc">     96.02034516 </i>
    <i name="pawpsdc">   2893.94910842 </i>
    <i name="pawaedc">  -2896.47605009 </i>
    <i name="eentropy">     -0.00529560 </i>
    <i name="bandstr">   -265.21701288 </i>
    <i name="atom">   1025.20389953 </i>
    <i name="e_fr_energy">    -67.22874904 </i>
    <i name="e_wo_entrp">    -67.22345344 </i>
    <i name="e_0_energy">    -67.22610124 </i>
   </energy>
  </scstep>
  <scstep>
   <time name="dav">    0.65    0.65</time>
   <time name="total">    0.68    0.68</time>
   <energy>
    <i name="alphaZ">     25.67921176 </i>
    <i name="ewald">    700.27145080 </i>
    <i name="hartreedc">  -1646.65429817 </i>
    <i name="XCdc">     96.02033998 </i>
    <i name="pawpsdc">   2893.94808037 </i>
    <i name="pawaedc">  -2896.47502139 </i>
    <i name="eentropy">     -0.00529553 </i>
    <i name="bandstr">   -265.21711639 </i>
    <i name="atom">   1025.20389953 </i>
    <i name="e_fr_energy">    -67.22874904 </i>
    <i name="e_wo_entrp">    -67.22345351 </i>
    <i name="e_0_energy">    -67.22610127 </i>
   </energy>
  </scstep>
  <structure>
   <crystal>
    <varray name="basis" >
     <v>       4.48084843       2.58701885       0.00000000 </v>
     <v>      -4.48084843       2.58701885       0.00000000 </v>
     <v>       0.00000000       0.00000000       8.52022140 </v>
    </varray>
    <i name="volume">    197.53348383 </i>
    <varray name="rec_basis" >
     <v>       0.11158601       0.19327265       0.00000000 </v>
     <v>      -0.11158601       0.19327265       0.00000000 </v>
     <v>       0.00000000       0.00000000       0.11736784 </v>
    </varray>
   </crystal>
   <varray name="positions" >
    <v>       0.33333300       0.66666600       0.25000000 </v>
    <v>       0.66666600       0.33333300       0.25000000 </v>
    <v>       0.15869124       0.31738348       0.25000000 </v>
    <v>       0.31738348       0.15869124       0.25000000 </v>
    <v>       0.15869124       0.84130776       0.25000000 </v>
    <v>       0.84130776       0.15869124       0.25000000 </v>
    <v>       0.68261552       0.84130776       0.25000000 </v>
    <v>       0.84130776       0.68261552       0.25000000 </v>
   </varray>
  </structure>
  <varray name="forces" >
   <v>       0.00000000       0.00000000       0.00000000 </v>
   <v>       0.00000000       0.00000000       0.00000000 </v>
   <v>      -0.00223148       0.00386504       0.00000000 </v>
   <v>       0.00223148       0.00386504       0.00000000 </v>
   <v>       0.00446296       0.00000000      -0.00000000 </v>
   <v>      -0.00446296       0.00000000       0.00000000 </v>
   <v>      -0.00223148      -0.00386504      -0.00000000 </v>
   <v>       0.00223148      -0.00386504       0.00000000 </v>
  </varray>
  <varray name="stress" >
   <v>      -0.67462415       0.00000000       0.00000000 </v>
   <v>       0.00000000      -0.67462404       0.00000000 </v>
   <v>      -0.00000000       0.00000000      -1.27236222 </v>
  </varray>
  <energy>
   <i name="e_fr_energy">    -67.22874904 </i>
   <i name="e_wo_entrp">    -67.22610127 </i>
   <i name="e_0_energy">     -0.00529553 </i>
  </energy>
  <time name="totalsc">    3.02    3.24</time>
  <eigenvalues>
   <array>
    <dimension dim="1">band</dimension>
    <dimension dim="2">kpoint</dimension>
    <dimension dim="3">spin</dimension>
    <field>eigene</field>
    <field>occ</field>
    <set>
     <set comment="spin 1">
      <set comment="kpoint 1">
       <r>  -18.5438    1.0000 </r>
       <r>  -14.6524    1.0000 </r>
       <r>  -14.6524    1.0000 </r>
       <r>  -12.3026    1.0000 </r>
       <r>  -12.3025    1.0000 </r>
       <r>  -11.2339    1.0000 </r>
       <r>   -9.9162    1.0000 </r>
       <r>   -7.3473    1.0000 </r>
       <r>   -7.1289    1.0000 </r>
       <r>   -4.9744    1.0000 </r>
       <r>   -4.9744    1.0000 </r>
       <r>   -3.1517    0.9999 </r>
       <r>   -3.1517    0.9999 </r>
       <r>   -2.4703    0.9556 </r>
       <r>   -2.4702    0.9555 </r>
       <r>   -0.6332    0.0000 </r>
       <r>    1.0990    0.0000 </r>
       <r>    1.0990    0.0000 </r>
       <r>    1.7889    0.0000 </r>
       <r>    1.9220    0.0000 </r>
       <r>    4.5209    0.0000 </r>
       <r>    5.9128    0.0000 </r>
       <r>    6.3123    0.0000 </r>
       <r>    6.3123    0.0000 </r>
      </set>
      <set comment="kpoint 2">
       <r>  -18.5167    1.0000 </r>
       <r>  -14.7845    1.0000 </r>
       <r>  -14.6948    1.0000 </r>
       <r>  -12.3417    1.0000 </r>
       <r>  -12.2041    1.0000 </r>
       <r>  -11.0993    1.0000 </r>
       <r>   -9.7559    1.0000 </r>
       <r>   -7.3061    1.0000 </r>
       <r>   -7.1862    1.0000 </r>
       <r>   -5.0978    1.0000 </r>
       <r>   -4.9969    1.0000 </r>
       <r>   -3.2761    1.0000 </r>
       <r>   -3.1721    1.0000 </r>
       <r>   -2.6128    0.9890 </r>
       <r>   -2.5390    0.9772 </r>
       <r>   -0.8379    0.0000 </r>
       <r>    1.1583    0.0000 </r>
       <r>    1.4094    0.0000 </r>
       <r>    1.9136    0.0000 </r>
       <r>    1.9738    0.0000 </r>
       <r>    4.5730    0.0000 </r>
       <r>    5.9690    0.0000 </r>
       <r>    6.3838    0.0000 </r>
       <r>    6.4753    0.0000 </r>
      </set>
      <set comment="kpoint 3">
       <r>  -18.4376    1.0000 </r>
       <r>  -15.1094    1.0000 </r>
       <r>  -14.7990    1.0000 </r>
       <r>  -12.4581    1.0000 </r>
       <r>  -11.9350    1.0000 </r>
       <r>  -10.7182    1.0000 </r>
       <r>   -9.3266    1.0000 </r>
       <r>   -7.3685    1.0000 </r>
       <r>   -7.1837    1.0000 </r>
       <r>   -5.4438    1.0000 </r>
       <r>   -5.0330    1.0000 </r>
       <r>   -3.6180    1.0000 </r>
       <r>   -3.2264    1.0000 </r>
       <r>   -3.0200    0.9998 </r>
       <r>   -2.7307    0.9966 </r>
       <r>   -1.1857    0.0001 </r>
       <r>    1.3216    0.0000 </r>
       <r>    1.8861    0.0000 </r>
       <r>    2.1285    0.0000 </r>
       <r>    2.4339    0.0000 </r>
       <r>    4.7296    0.0000 </r>
       <r>    6.1237    0.0000 </r>
       <r>    6.5525    0.0000 </r>
       <r>    6.9598    0.0000 </r>
      </set>
      <set comment="kpoint 4">
       <r>  -18.3146    1.0000 </r>
       <r>  -15.5059    1.0000 </r>
       <r>  -14.9213    1.0000 </r>
       <r>  -12.6058    1.0000 </r>
       <r>  -11.5506    1.0000 </r>
       <r>  -10.1756    1.0000 </r>
       <r>   -8.7169    1.0000 </r>
       <r>   -7.6821    1.0000 </r>
       <r>   -6.9844    1.0000 </r>
       <r>   -5.9507    1.0000 </r>
       <r>   -5.0242    1.0000 </r>
       <r>   -4.0952    1.0000 </r>
       <r>   -3.6375    1.0000 </r>
       <r>   -3.2965    1.0000 </r>
       <r>   -3.0064    0.9998 </r>
       <r>   -1.4725    0.0010 </r>
       <r>    1.5499    0.0000 </r>
       <r>    2.2426    0.0000 </r>
       <r>    2.3853    0.0000 </r>
       <r>    3.3170    0.0000 </r>
       <r>    4.9928    0.0000 </r>
       <r>    6.0214    0.0000 </r>
       <r>    6.3578    0.0000 </r>
       <r>    6.7487    0.0000 </r>
      </set>
      <set comment="kpoint 5">
       <r>  -18.1661    1.0000 </r>
       <r>  -15.8831    1.0000 </r>
       <r>  -15.0274    1.0000 </r>
       <r>  -12.7347    1.0000 </r>
       <r>  -11.1127    1.0000 </r>
       <r>   -9.5524    1.0000 </r>
       <r>   -8.0890    1.0000 </r>
       <r>   -8.0139    1.0000 </r>
       <r>   -6.7199    1.0000 </r>
       <r>   -6.5281    1.0000 </r>
       <r>   -4.9452    1.0000 </r>
       <r>   -4.6124    1.0000 </r>
       <r>   -4.3988    1.0000 </r>
       <r>   -3.3625    1.0000 </r>
       <r>   -3.3107    1.0000 </r>
       <r>   -1.6708    0.0072 </r>
       <r>    1.7865    0.0000 </r>
       <r>    2.5665    0.0000 </r>
       <r>    2.7433    0.0000 </r>
       <r>    4.2884    0.0000 </r>
       <r>    5.1742    0.0000 </r>
       <r>    5.3722    0.0000 </r>
       <r>    6.6286    0.0000 </r>
       <r>    6.9205    0.0000 </r>
      </set>
      <set comment="kpoint 6">
       <r>  -18.0308    1.0000 </r>
       <r>  -16.1662    1.0000 </r>
       <r>  -15.0974    1.0000 </r>
       <r>  -12.8192    1.0000 </r>
       <r>  -10.7115    1.0000 </r>
       <r>   -8.9075    1.0000 </r>
       <r>   -8.4853    1.0000 </r>
       <r>   -7.5778    1.0000 </r>
       <r>   -6.7961    1.0000 </r>
       <r>   -6.4275    1.0000 </r>
       <r>   -5.2376    1.0000 </r>
       <r>   -5.0753    1.0000 </r>
       <r>   -4.8291    1.0000 </r>
       <r>   -3.5720    1.0000 </r>
       <r>   -3.4086    1.0000 </r>
       <r>   -1.7866    0.0226 </r>
       <r>    1.9667    0.0000 </r>
       <r>    2.8100    0.0000 </r>
       <r>    3.2020    0.0000 </r>
       <r>    4.4187    0.0000 </r>
       <r>    5.1992    0.0000 </r>
       <r>    5.8933    0.0000 </r>
       <r>    6.7438    0.0000 </r>
       <r>    6.7952    0.0000 </r>
      </set>
      <set comment="kpoint 7">
       <r>  -17.9723    1.0000 </r>
       <r>  -16.2754    1.0000 </r>
       <r>  -15.1217    1.0000 </r>
       <r>  -12.8483    1.0000 </r>
       <r>  -10.5268    1.0000 </r>
       <r>   -8.6711    1.0000 </r>
       <r>   -8.4635    1.0000 </r>
       <r>   -7.8574    1.0000 </r>
       <r>   -6.2601    1.0000 </r>
       <r>   -6.2318    1.0000 </r>
       <r>   -5.9783    1.0000 </r>
       <r>   -5.3023    1.0000 </r>
       <r>   -4.7666    1.0000 </r>
       <r>   -3.6840    1.0000 </r>
       <r>   -3.4251    1.0000 </r>
       <r>   -1.8247    0.0327 </r>
       <r>    2.0344    0.0000 </r>
       <r>    2.9022    0.0000 </r>
       <r>    3.7596    0.0000 </r>
       <r>    3.7619    0.0000 </r>
       <r>    5.8285    0.0000 </r>
       <r>    6.0178    0.0000 </r>
       <r>    6.6811    0.0000 </r>
       <r>    6.8301    0.0000 </r>
      </set>
      <set comment="kpoint 8">
       <r>  -18.4636    1.0000 </r>
       <r>  -14.9978    1.0000 </r>
       <r>  -14.7844    1.0000 </r>
       <r>  -12.3702    1.0000 </r>
       <r>  -12.0777    1.0000 </r>
       <r>  -10.8288    1.0000 </r>
       <r>   -9.4644    1.0000 </r>
       <r>   -7.3084    1.0000 </r>
       <r>   -7.2243    1.0000 </r>
       <r>   -5.3079    1.0000 </r>
       <r>   -5.0488    1.0000 </r>
       <r>   -3.4888    1.0000 </r>
       <r>   -3.2363    1.0000 </r>
       <r>   -2.8786    0.9992 </r>
       <r>   -2.6784    0.9942 </r>
       <r>   -1.0783    0.0000 </r>
       <r>    1.1907    0.0000 </r>
       <r>    1.9180    0.0000 </r>
       <r>    2.0770    0.0000 </r>
       <r>    2.1704    0.0000 </r>
       <r>    4.6772    0.0000 </r>
       <r>    6.0774    0.0000 </r>
       <r>    6.5351    0.0000 </r>
       <r>    6.7488    0.0000 </r>
      </set>
      <set comment="kpoint 9">
       <r>  -18.3622    1.0000 </r>
       <r>  -15.3331    1.0000 </r>
       <r>  -14.9279    1.0000 </r>
       <r>  -12.4407    1.0000 </r>
       <r>  -11.8255    1.0000 </r>
       <r>  -10.3369    1.0000 </r>
       <r>   -8.9566    1.0000 </r>
       <r>   -7.5708    1.0000 </r>
       <r>   -7.0632    1.0000 </r>
       <r>   -5.6780    1.0000 </r>
       <r>   -5.1062    1.0000 </r>
       <r>   -3.8659    1.0000 </r>
       <r>   -3.3690    1.0000 </r>
       <r>   -3.3588    1.0000 </r>
       <r>   -2.9335    0.9995 </r>
       <r>   -1.3053    0.0002 </r>
       <r>    1.2579    0.0000 </r>
       <r>    2.2828    0.0000 </r>
       <r>    2.4259    0.0000 </r>
       <r>    2.8490    0.0000 </r>
       <r>    4.8862    0.0000 </r>
       <r>    6.2806    0.0000 </r>
       <r>    6.5079    0.0000 </r>
       <r>    6.7700    0.0000 </r>
      </set>
      <set comment="kpoint 10">
       <r>  -18.2251    1.0000 </r>
       <r>  -15.7038    1.0000 </r>
       <r>  -15.0651    1.0000 </r>
       <r>  -12.5501    1.0000 </r>
       <r>  -11.4417    1.0000 </r>
       <r>   -9.7329    1.0000 </r>
       <r>   -8.3103    1.0000 </r>
       <r>   -7.9597    1.0000 </r>
       <r>   -6.8302    1.0000 </r>
       <r>   -6.1722    1.0000 </r>
       <r>   -5.0922    1.0000 </r>
       <r>   -4.3468    1.0000 </r>
       <r>   -4.0325    1.0000 </r>
       <r>   -3.4825    1.0000 </r>
       <r>   -3.2470    1.0000 </r>
       <r>   -1.4552    0.0008 </r>
       <r>    1.3888    0.0000 </r>
       <r>    2.5903    0.0000 </r>
       <r>    2.8047    0.0000 </r>
       <r>    3.7930    0.0000 </r>
       <r>    5.2030    0.0000 </r>
       <r>    5.6254    0.0000 </r>
       <r>    6.5565    0.0000 </r>
       <r>    6.7671    0.0000 </r>
      </set>
      <set comment="kpoint 11">
       <r>  -18.0792    1.0000 </r>
       <r>  -16.0285    1.0000 </r>
       <r>  -15.1668    1.0000 </r>
       <r>  -12.6436    1.0000 </r>
       <r>  -11.0150    1.0000 </r>
       <r>   -9.0995    1.0000 </r>
       <r>   -8.3993    1.0000 </r>
       <r>   -7.6338    1.0000 </r>
       <r>   -6.6719    1.0000 </r>
       <r>   -6.5456    1.0000 </r>
       <r>   -5.0434    1.0000 </r>
       <r>   -4.8360    1.0000 </r>
       <r>   -4.7692    1.0000 </r>
       <r>   -3.5764    1.0000 </r>
       <r>   -3.5530    1.0000 </r>
       <r>   -1.5459    0.0021 </r>
       <r>    1.5353    0.0000 </r>
       <r>    2.9987    0.0000 </r>
       <r>    3.1222    0.0000 </r>
       <r>    4.7535    0.0000 </r>
       <r>    4.8230    0.0000 </r>
       <r>    5.6420    0.0000 </r>
       <r>    6.5802    0.0000 </r>
       <r>    6.9193    0.0000 </r>
      </set>
      <set comment="kpoint 12">
       <r>  -17.9761    1.0000 </r>
       <r>  -16.2269    1.0000 </r>
       <r>  -15.2202    1.0000 </r>
       <r>  -12.6949    1.0000 </r>
       <r>  -10.6876    1.0000 </r>
       <r>   -8.8073    1.0000 </r>
       <r>   -8.4427    1.0000 </r>
       <r>   -7.5743    1.0000 </r>
       <r>   -6.4943    1.0000 </r>
       <r>   -6.2858    1.0000 </r>
       <r>   -5.6683    1.0000 </r>
       <r>   -5.2087    1.0000 </r>
       <r>   -4.8667    1.0000 </r>
       <r>   -3.7624    1.0000 </r>
       <r>   -3.6263    1.0000 </r>
       <r>   -1.5899    0.0032 </r>
       <r>    1.6314    0.0000 </r>
       <r>    3.3099    0.0000 </r>
       <r>    3.5075    0.0000 </r>
       <r>    4.1160    0.0000 </r>
       <r>    5.5874    0.0000 </r>
       <r>    6.1333    0.0000 </r>
       <r>    6.4949    0.0000 </r>
       <r>    6.5308    0.0000 </r>
      </set>
      <set comment="kpoint 13">
       <r>  -18.2458    1.0000 </r>
       <r>  -15.5981    1.0000 </r>
       <r>  -15.1369    1.0000 </r>
       <r>  -12.3299    1.0000 </r>
       <r>  -11.7216    1.0000 </r>
       <r>   -9.7548    1.0000 </r>
       <r>   -8.4265    1.0000 </r>
       <r>   -7.9335    1.0000 </r>
       <r>   -6.8678    1.0000 </r>
       <r>   -5.9250    1.0000 </r>
       <r>   -5.2499    1.0000 </r>
       <r>   -4.1783    1.0000 </r>
       <r>   -3.8641    1.0000 </r>
       <r>   -3.6344    1.0000 </r>
       <r>   -3.2674    1.0000 </r>
       <r>   -1.2859    0.0002 </r>
       <r>    1.1290    0.0000 </r>
       <r>    2.5394    0.0000 </r>
       <r>    3.2316    0.0000 </r>
       <r>    3.3384    0.0000 </r>
       <r>    5.1460    0.0000 </r>
       <r>    6.1574    0.0000 </r>
       <r>    6.1842    0.0000 </r>
       <r>    6.5509    0.0000 </r>
      </set>
      <set comment="kpoint 14">
       <r>  -18.1072    1.0000 </r>
       <r>  -15.8751    1.0000 </r>
       <r>  -15.3205    1.0000 </r>
       <r>  -12.3001    1.0000 </r>
       <r>  -11.4413    1.0000 </r>
       <r>   -9.1239    1.0000 </r>
       <r>   -8.3797    1.0000 </r>
       <r>   -7.7984    1.0000 </r>
       <r>   -6.6102    1.0000 </r>
       <r>   -6.2679    1.0000 </r>
       <r>   -5.3221    1.0000 </r>
       <r>   -4.5737    1.0000 </r>
       <r>   -4.4684    1.0000 </r>
       <r>   -3.8757    1.0000 </r>
       <r>   -3.6429    1.0000 </r>
       <r>   -1.2016    0.0001 </r>
       <r>    1.0617    0.0000 </r>
       <r>    2.8973    0.0000 </r>
       <r>    3.6601    0.0000 </r>
       <r>    4.2484    0.0000 </r>
       <r>    5.3271    0.0000 </r>
       <r>    5.5089    0.0000 </r>
       <r>    5.9264    0.0000 </r>
       <r>    6.8985    0.0000 </r>
      </set>
      <set comment="kpoint 15">
       <r>  -17.9837    1.0000 </r>
       <r>  -16.1009    1.0000 </r>
       <r>  -15.4332    1.0000 </r>
       <r>  -12.3246    1.0000 </r>
       <r>  -11.0806    1.0000 </r>
       <r>   -8.9760    1.0000 </r>
       <r>   -8.3363    1.0000 </r>
       <r>   -7.2646    1.0000 </r>
       <r>   -6.5732    1.0000 </r>
       <r>   -6.3303    1.0000 </r>
       <r>   -5.4571    1.0000 </r>
       <r>   -4.9803    1.0000 </r>
       <r>   -4.9762    1.0000 </r>
       <r>   -4.0122    1.0000 </r>
       <r>   -3.9589    1.0000 </r>
       <r>   -1.1327    0.0000 </r>
       <r>    1.0466    0.0000 </r>
       <r>    3.3560    0.0000 </r>
       <r>    3.9491    0.0000 </r>
       <r>    4.5725    0.0000 </r>
       <r>    5.1698    0.0000 </r>
       <r>    5.7782    0.0000 </r>
       <r>    5.9788    0.0000 </r>
       <r>    6.7557    0.0000 </r>
      </set>
      <set comment="kpoint 16">
       <r>  -17.9313    1.0000 </r>
       <r>  -16.1907    1.0000 </r>
       <r>  -15.4704    1.0000 </r>
       <r>  -12.3383    1.0000 </r>
       <r>  -10.8948    1.0000 </r>
       <r>   -9.1603    1.0000 </r>
       <r>   -7.9577    1.0000 </r>
       <r>   -7.3589    1.0000 </r>
       <r>   -6.2416    1.0000 </r>
       <r>   -6.1753    1.0000 </r>
       <r>   -5.9450    1.0000 </r>
       <r>   -5.1787    1.0000 </r>
       <r>   -5.0384    1.0000 </r>
       <r>   -4.0938    1.0000 </r>
       <r>   -4.0554    1.0000 </r>
       <r>   -1.1083    0.0000 </r>
       <r>    1.0480    0.0000 </r>
       <r>    3.9113    0.0000 </r>
       <r>    3.9182    0.0000 </r>
       <r>    4.0572    0.0000 </r>
       <r>    5.7287    0.0000 </r>
       <r>    5.8783    0.0000 </r>
       <r>    6.0772    0.0000 </r>
       <r>    6.5077    0.0000 </r>
      </set>
      <set comment="kpoint 17">
       <r>  -17.9873    1.0000 </r>
       <r>  -16.0033    1.0000 </r>
       <r>  -15.5694    1.0000 </r>
       <r>  -12.0289    1.0000 </r>
       <r>  -11.3897    1.0000 </r>
       <r>   -9.0332    1.0000 </r>
       <r>   -8.2712    1.0000 </r>
       <r>   -7.2597    1.0000 </r>
       <r>   -6.3831    1.0000 </r>
       <r>   -6.3499    1.0000 </r>
       <r>   -5.5959    1.0000 </r>
       <r>   -4.8713    1.0000 </r>
       <r>   -4.7884    1.0000 </r>
       <r>   -4.2598    1.0000 </r>
       <r>   -4.0998    1.0000 </r>
       <r>   -0.8681    0.0000 </r>
       <r>    0.7454    0.0000 </r>
       <r>    3.3057    0.0000 </r>
       <r>    4.4795    0.0000 </r>
       <r>    4.7131    0.0000 </r>
       <r>    5.1178    0.0000 </r>
       <r>    5.1388    0.0000 </r>
       <r>    5.8980    0.0000 </r>
       <r>    6.9751    0.0000 </r>
      </set>
      <set comment="kpoint 18">
       <r>  -17.9072    1.0000 </r>
       <r>  -16.0767    1.0000 </r>
       <r>  -15.7173    1.0000 </r>
       <r>  -11.9067    1.0000 </r>
       <r>  -11.2390    1.0000 </r>
       <r>   -9.3760    1.0000 </r>
       <r>   -7.6574    1.0000 </r>
       <r>   -7.0005    1.0000 </r>
       <r>   -6.4873    1.0000 </r>
       <r>   -6.1294    1.0000 </r>
       <r>   -5.8436    1.0000 </r>
       <r>   -5.0854    1.0000 </r>
       <r>   -4.9890    1.0000 </r>
       <r>   -4.4649    1.0000 </r>
       <r>   -4.4519    1.0000 </r>
       <r>   -0.6060    0.0000 </r>
       <r>    0.5115    0.0000 </r>
       <r>    3.8143    0.0000 </r>
       <r>    4.4224    0.0000 </r>
       <r>    4.7952    0.0000 </r>
       <r>    5.0288    0.0000 </r>
       <r>    5.4969    0.0000 </r>
       <r>    6.2757    0.0000 </r>
       <r>    6.3561    0.0000 </r>
      </set>
      <set comment="kpoint 19">
       <r>  -17.8776    1.0000 </r>
       <r>  -15.9451    1.0000 </r>
       <r>  -15.9450    1.0000 </r>
       <r>  -11.5138    1.0000 </r>
       <r>  -11.5137    1.0000 </r>
       <r>   -9.5524    1.0000 </r>
       <r>   -7.0527    1.0000 </r>
       <r>   -7.0526    1.0000 </r>
       <r>   -6.6917    1.0000 </r>
       <r>   -6.0422    1.0000 </r>
       <r>   -5.9111    1.0000 </r>
       <r>   -4.8988    1.0000 </r>
       <r>   -4.8988    1.0000 </r>
       <r>   -4.8176    1.0000 </r>
       <r>   -4.8176    1.0000 </r>
       <r>   -0.0460    0.0000 </r>
       <r>   -0.0459    0.0000 </r>
       <r>    4.3579    0.0000 </r>
       <r>    4.3798    0.0000 </r>
       <r>    4.3798    0.0000 </r>
       <r>    5.5678    0.0000 </r>
       <r>    5.5678    0.0000 </r>
       <r>    5.6981    0.0000 </r>
       <r>    6.5550    0.0000 </r>
      </set>
     </set>
    </set>
   </array>
  </eigenvalues>
  <separator name="orbital magnetization" >
   <v name="MAGDIPOLOUT">      0.00000000      0.00000000      0.00000000</v>
  </separator>
  <dos>
   <i name="efermi">     -2.16339483 </i>
   <total>
    <array>
     <dimension dim="1">gridpoints</dimension>
     <dimension dim="2">spin</dimension>
     <field>energy</field>
     <field>total</field>
     <field>integrated</field>
     <set>
      <set comment="spin 1">
       <r>   -19.8197     0.0000     0.0000 </r>
       <r>   -19.7262     0.0000     0.0000 </r>
       <r>   -19.6326     0.0000     0.0000 </r>
       <r>   -19.5390     0.0000     0.0000 </r>
       <r>   -19.4454     0.0000     0.0000 </r>
       <r>   -19.3519     0.0004     0.0000 </r>
       <r>   -19.2583     0.0008     0.0001 </r>
       <r>   -19.1647     0.0026     0.0004 </r>
       <r>   -19.0712     0.0065     0.0010 </r>
       <r>   -18.9776     0.0166     0.0025 </r>
       <r>   -18.8840     0.0418     0.0064 </r>
       <r>   -18.7905     0.1043     0.0162 </r>
       <r>   -18.6969     0.2442     0.0390 </r>
       <r>   -18.6033     0.5241     0.0881 </r>
       <r>   -18.5098     0.9630     0.1782 </r>
       <r>   -18.4162     1.4685     0.3156 </r>
       <r>   -18.3226     1.9258     0.4958 </r>
       <r>   -18.2290     2.3278     0.7136 </r>
       <r>   -18.1355     2.7125     0.9674 </r>
       <r>   -18.0419     3.0098     1.2490 </r>
       <r>   -17.9483     2.9572     1.5257 </r>
       <r>   -17.8548     2.3494     1.7456 </r>
       <r>   -17.7612     1.4523     1.8815 </r>
       <r>   -17.6676     0.7276     1.9496 </r>
       <r>   -17.5741     0.3195     1.9795 </r>
       <r>   -17.4805     0.1309     1.9919 </r>
       <r>   -17.3869     0.0515     1.9969 </r>
       <r>   -17.2934     0.0193     1.9988 </r>
       <r>   -17.1998     0.0069     1.9996 </r>
       <r>   -17.1062     0.0006     2.0000 </r>
       <r>   -17.0126     0.0010     2.0001 </r>
       <r>   -16.9191     0.0033     2.0004 </r>
       <r>   -16.8255     0.0076     2.0011 </r>
       <r>   -16.7319     0.0194     2.0030 </r>
       <r>   -16.6384     0.0484     2.0075 </r>
       <r>   -16.5448     0.1211     2.0188 </r>
       <r>   -16.4512     0.2888     2.0458 </r>
       <r>   -16.3577     0.6357     2.1053 </r>
       <r>   -16.2641     1.2082     2.2184 </r>
       <r>   -16.1705     1.8747     2.3938 </r>
       <r>   -16.0770     2.3573     2.6144 </r>
       <r>   -15.9834     2.4783     2.8463 </r>
       <r>   -15.8898     2.3221     3.0635 </r>
       <r>   -15.7963     2.1309     3.2629 </r>
       <r>   -15.7027     2.0473     3.4545 </r>
       <r>   -15.6091     2.0509     3.6464 </r>
       <r>   -15.5155     2.1228     3.8450 </r>
       <r>   -15.4220     2.2901     4.0595 </r>
       <r>   -15.3284     2.5161     4.2950 </r>
       <r>   -15.2348     2.7504     4.5525 </r>
       <r>   -15.1413     2.9426     4.8280 </r>
       <r>   -15.0477     2.9489     5.1041 </r>
       <r>   -14.9541     2.6795     5.3548 </r>
       <r>   -14.8606     2.2498     5.5655 </r>
       <r>   -14.7670     1.7872     5.7328 </r>
       <r>   -14.6734     1.2983     5.8543 </r>
       <r>   -14.5799     0.8073     5.9300 </r>
       <r>   -14.4863     0.4206     5.9695 </r>
       <r>   -14.3927     0.1908     5.9875 </r>
       <r>   -14.2991     0.0787     5.9951 </r>
       <r>   -14.2056     0.0307     5.9981 </r>
       <r>   -14.1120     0.0108     5.9993 </r>
       <r>   -14.0184     0.0043     5.9997 </r>
       <r>   -13.9249     0.0009     5.9999 </r>
       <r>   -13.8313     0.0000     6.0000 </r>
       <r>   -13.7377     0.0001     6.0000 </r>
       <r>   -13.6442     0.0003     6.0000 </r>
       <r>   -13.5506     0.0012     6.0001 </r>
       <r>   -13.4570     0.0032     6.0004 </r>
       <r>   -13.3635     0.0078     6.0012 </r>
       <r>   -13.2699     0.0201     6.0031 </r>
       <r>   -13.1763     0.0512     6.0078 </r>
       <r>   -13.0827     0.1241     6.0195 </r>
       <r>   -12.9892     0.2886     6.0465 </r>
       <r>   -12.8956     0.6075     6.1033 </r>
       <r>   -12.8020     1.0970     6.2059 </r>
       <r>   -12.7085     1.6650     6.3617 </r>
       <r>   -12.6149     2.1447     6.5624 </r>
       <r>   -12.5213     2.4627     6.7929 </r>
       <r>   -12.4278     2.7107     7.0465 </r>
       <r>   -12.3342     2.8419     7.3124 </r>
       <r>   -12.2406     2.6030     7.5560 </r>
       <r>   -12.1471     2.0777     7.7504 </r>
       <r>   -12.0535     1.6882     7.9083 </r>
       <r>   -11.9599     1.5740     8.0557 </r>
       <r>   -11.8663     1.5549     8.2013 </r>
       <r>   -11.7728     1.4453     8.3366 </r>
       <r>   -11.6792     1.2928     8.4577 </r>
       <r>   -11.5856     1.2993     8.5794 </r>
       <r>   -11.4921     1.5135     8.7214 </r>
       <r>   -11.3985     1.7108     8.8816 </r>
       <r>   -11.3049     1.7190     9.0424 </r>
       <r>   -11.2114     1.7030     9.2019 </r>
       <r>   -11.1178     1.7811     9.3686 </r>
       <r>   -11.0242     1.8091     9.5381 </r>
       <r>   -10.9307     1.6692     9.6942 </r>
       <r>   -10.8371     1.4981     9.8345 </r>
       <r>   -10.7435     1.4101     9.9665 </r>
       <r>   -10.6500     1.2869    10.0869 </r>
       <r>   -10.5564     1.0318    10.1836 </r>
       <r>   -10.4628     0.7977    10.2583 </r>
       <r>   -10.3692     0.7076    10.3245 </r>
       <r>   -10.2757     0.6761    10.3880 </r>
       <r>   -10.1821     0.5936    10.4437 </r>
       <r>   -10.0885     0.4782    10.4885 </r>
       <r>    -9.9950     0.4230    10.5281 </r>
       <r>    -9.9014     0.5227    10.5772 </r>
       <r>    -9.8078     0.7866    10.6508 </r>
       <r>    -9.7143     1.0553    10.7496 </r>
       <r>    -9.6207     1.1533    10.8575 </r>
       <r>    -9.5271     1.1725    10.9674 </r>
       <r>    -9.4336     1.2517    11.0845 </r>
       <r>    -9.3400     1.3704    11.2128 </r>
       <r>    -9.2464     1.5248    11.3554 </r>
       <r>    -9.1528     1.8067    11.5245 </r>
       <r>    -9.0593     2.1352    11.7243 </r>
       <r>    -8.9657     2.2605    11.9358 </r>
       <r>    -8.8721     2.0975    12.1322 </r>
       <r>    -8.7786     1.7872    12.2994 </r>
       <r>    -8.6850     1.5456    12.4441 </r>
       <r>    -8.5914     1.5689    12.5909 </r>
       <r>    -8.4979     1.9854    12.7768 </r>
       <r>    -8.4043     2.5638    13.0167 </r>
       <r>    -8.3107     2.7348    13.2728 </r>
       <r>    -8.2172     2.3431    13.4921 </r>
       <r>    -8.1236     1.8790    13.6681 </r>
       <r>    -8.0300     1.7639    13.8332 </r>
       <r>    -7.9364     1.8993    14.0110 </r>
       <r>    -7.8429     2.0412    14.2021 </r>
       <r>    -7.7493     2.2218    14.4100 </r>
       <r>    -7.6557     2.5077    14.6447 </r>
       <r>    -7.5622     2.6612    14.8940 </r>
       <r>    -7.4686     2.5249    15.1305 </r>
       <r>    -7.3750     2.4353    15.3584 </r>
       <r>    -7.2815     2.5739    15.5993 </r>
       <r>    -7.1879     2.6621    15.8484 </r>
       <r>    -7.0943     2.5689    16.0889 </r>
       <r>    -7.0008     2.4403    16.3173 </r>
       <r>    -6.9072     2.3535    16.5376 </r>
       <r>    -6.8136     2.4029    16.7626 </r>
       <r>    -6.7200     2.6705    17.0127 </r>
       <r>    -6.6265     3.1313    17.3057 </r>
       <r>    -6.5329     3.5913    17.6419 </r>
       <r>    -6.4393     3.8024    17.9979 </r>
       <r>    -6.3458     3.8033    18.3539 </r>
       <r>    -6.2522     3.6936    18.6997 </r>
       <r>    -6.1586     3.3448    19.0128 </r>
       <r>    -6.0651     2.7911    19.2740 </r>
       <r>    -5.9715     2.3246    19.4917 </r>
       <r>    -5.8779     2.0671    19.6852 </r>
       <r>    -5.7844     1.9116    19.8642 </r>
       <r>    -5.6908     1.8539    20.0380 </r>
       <r>    -5.5972     1.8705    20.2131 </r>
       <r>    -5.5037     1.9466    20.3955 </r>
       <r>    -5.4101     2.2397    20.6053 </r>
       <r>    -5.3165     2.8451    20.8717 </r>
       <r>    -5.2229     3.7572    21.2233 </r>
       <r>    -5.1294     4.8707    21.6792 </r>
       <r>    -5.0358     5.8115    22.2231 </r>
       <r>    -4.9422     5.9766    22.7824 </r>
       <r>    -4.8487     5.2962    23.2781 </r>
       <r>    -4.7551     4.2425    23.6752 </r>
       <r>    -4.6615     3.2832    23.9824 </r>
       <r>    -4.5680     2.8058    24.2450 </r>
       <r>    -4.4744     2.7541    24.5029 </r>
       <r>    -4.3808     2.7026    24.7559 </r>
       <r>    -4.2873     2.4898    24.9892 </r>
       <r>    -4.1937     2.4115    25.2153 </r>
       <r>    -4.1001     2.6838    25.4667 </r>
       <r>    -4.0065     3.0898    25.7561 </r>
       <r>    -3.9130     3.3167    26.0666 </r>
       <r>    -3.8194     3.3876    26.3836 </r>
       <r>    -3.7258     3.5567    26.7165 </r>
       <r>    -3.6323     3.9604    27.0874 </r>
       <r>    -3.5387     4.3028    27.4902 </r>
       <r>    -3.4451     4.3366    27.8960 </r>
       <r>    -3.3516     4.2090    28.2899 </r>
       <r>    -3.2580     3.8811    28.6532 </r>
       <r>    -3.1644     3.2043    28.9532 </r>
       <r>    -3.0709     2.4219    29.1800 </r>
       <r>    -2.9773     1.8868    29.3567 </r>
       <r>    -2.8837     1.5633    29.5030 </r>
       <r>    -2.7901     1.3033    29.6253 </r>
       <r>    -2.6966     1.1259    29.7308 </r>
       <r>    -2.6030     0.9928    29.8239 </r>
       <r>    -2.5094     0.7990    29.8990 </r>
       <r>    -2.4159     0.5404    29.9499 </r>
       <r>    -2.3223     0.3049    29.9784 </r>
       <r>    -2.2287     0.1575    29.9932 </r>
       <r>    -2.1352     0.1023    30.0028 </r>
       <r>    -2.0416     0.1266    30.0148 </r>
       <r>    -1.9480     0.2431    30.0375 </r>
       <r>    -1.8545     0.4714    30.0817 </r>
       <r>    -1.7609     0.8036    30.1570 </r>
       <r>    -1.6673     1.2033    30.2696 </r>
       <r>    -1.5738     1.6150    30.4207 </r>
       <r>    -1.4802     1.8958    30.5981 </r>
       <r>    -1.3866     1.9925    30.7845 </r>
       <r>    -1.2930     2.0557    30.9769 </r>
       <r>    -1.1995     2.1238    31.1756 </r>
       <r>    -1.1059     2.0046    31.3632 </r>
       <r>    -1.0123     1.6153    31.5144 </r>
       <r>    -0.9188     1.1864    31.6254 </r>
       <r>    -0.8252     0.9182    31.7114 </r>
       <r>    -0.7316     0.7664    31.7833 </r>
       <r>    -0.6381     0.6782    31.8469 </r>
       <r>    -0.5445     0.5784    31.9010 </r>
       <r>    -0.4509     0.3990    31.9385 </r>
       <r>    -0.3574     0.2242    31.9596 </r>
       <r>    -0.2638     0.1290    31.9719 </r>
       <r>    -0.1702     0.1127    31.9824 </r>
       <r>    -0.0766     0.1376    31.9953 </r>
       <r>     0.0169     0.1493    32.0093 </r>
       <r>     0.1105     0.1261    32.0211 </r>
       <r>     0.2041     0.1080    32.0314 </r>
       <r>     0.2976     0.1436    32.0448 </r>
       <r>     0.3912     0.2547    32.0686 </r>
       <r>     0.4848     0.4138    32.1074 </r>
       <r>     0.5783     0.5185    32.1559 </r>
       <r>     0.6719     0.5326    32.2057 </r>
       <r>     0.7655     0.5625    32.2584 </r>
       <r>     0.8590     0.7101    32.3248 </r>
       <r>     0.9526     1.0777    32.4257 </r>
       <r>     1.0462     1.6392    32.5790 </r>
       <r>     1.1398     2.0809    32.7738 </r>
       <r>     1.2333     2.1957    32.9792 </r>
       <r>     1.3269     2.1199    33.1777 </r>
       <r>     1.4205     2.0040    33.3652 </r>
       <r>     1.5140     1.8801    33.5411 </r>
       <r>     1.6076     1.7376    33.7038 </r>
       <r>     1.7012     1.5739    33.8510 </r>
       <r>     1.7947     1.5157    33.9929 </r>
       <r>     1.8883     1.6466    34.1472 </r>
       <r>     1.9819     1.8102    34.3167 </r>
       <r>     2.0754     1.8430    34.4893 </r>
       <r>     2.1690     1.8200    34.6596 </r>
       <r>     2.2626     1.8428    34.8321 </r>
       <r>     2.3562     1.9110    35.0111 </r>
       <r>     2.4497     1.9775    35.1963 </r>
       <r>     2.5433     1.9910    35.3826 </r>
       <r>     2.6369     1.9700    35.5670 </r>
       <r>     2.7304     2.0344    35.7575 </r>
       <r>     2.8240     2.2341    35.9666 </r>
       <r>     2.9176     2.3284    36.1846 </r>
       <r>     3.0111     2.1973    36.3902 </r>
       <r>     3.1047     2.0721    36.5843 </r>
       <r>     3.1983     2.1450    36.7850 </r>
       <r>     3.2918     2.3227    37.0025 </r>
       <r>     3.3854     2.3113    37.2188 </r>
       <r>     3.4790     2.0227    37.4082 </r>
       <r>     3.5725     1.7562    37.5725 </r>
       <r>     3.6661     1.7408    37.7357 </r>
       <r>     3.7597     1.9456    37.9178 </r>
       <r>     3.8533     2.1438    38.1185 </r>
       <r>     3.9468     2.1439    38.3192 </r>
       <r>     4.0404     1.9803    38.5046 </r>
       <r>     4.1340     1.8239    38.6755 </r>
       <r>     4.2275     1.7931    38.8434 </r>
       <r>     4.3211     1.8968    39.0210 </r>
       <r>     4.4147     2.0697    39.2146 </r>
       <r>     4.5082     2.2295    39.4233 </r>
       <r>     4.6018     2.3775    39.6460 </r>
       <r>     4.6954     2.5906    39.8884 </r>
       <r>     4.7889     2.7948    40.1501 </r>
       <r>     4.8825     2.8004    40.4122 </r>
       <r>     4.9761     2.6901    40.6640 </r>
       <r>     5.0697     2.7405    40.9205 </r>
       <r>     5.1632     2.9122    41.1931 </r>
       <r>     5.2568     2.8873    41.4634 </r>
       <r>     5.3504     2.6649    41.7128 </r>
       <r>     5.4439     2.5936    41.9556 </r>
       <r>     5.5375     2.7919    42.2170 </r>
       <r>     5.6311     3.0090    42.4988 </r>
       <r>     5.7246     3.0525    42.7846 </r>
       <r>     5.8182     3.0832    43.0731 </r>
       <r>     5.9118     3.2743    43.3795 </r>
       <r>     6.0053     3.4806    43.7057 </r>
       <r>     6.0989     3.5593    44.0387 </r>
       <r>     6.1925     3.5758    44.3734 </r>
       <r>     6.2861     3.6916    44.7188 </r>
       <r>     6.3796     4.0142    45.0946 </r>
       <r>     6.4732     4.5273    45.5185 </r>
       <r>     6.5668     4.9473    45.9815 </r>
       <r>     6.6603     4.9116    46.4411 </r>
       <r>     6.7539     4.6000    46.8718 </r>
       <r>     6.8475     4.1177    47.2572 </r>
       <r>     6.9410     3.3165    47.5678 </r>
       <r>     7.0346     2.2779    47.7810 </r>
       <r>     7.1282     1.2854    47.9015 </r>
       <r>     7.2217     0.6115    47.9589 </r>
       <r>     7.3153     0.2600    47.9836 </r>
       <r>     7.4089     0.1034    47.9936 </r>
       <r>     7.5024     0.0408    47.9975 </r>
       <r>     7.5960     0.0128    47.9992 </r>
       <r>     7.6896     0.0049    47.9997 </r>
       <r>     7.7832     0.0000    48.0000 </r>
       <r>     7.8767     0.0000    48.0000 </r>
       <r>     7.9703     0.0000    48.0000 </r>
       <r>     8.0639     0.0000    48.0000 </r>
       <r>     8.1574     0.0000    48.0000 </r>
       <r>     8.2510     0.0000    48.0000 </r>
      </set>
     </set>
    </array>
   </total>
   <partial>
    <array>
     <dimension dim="1">gridpoints</dimension>
     <dimension dim="2">spin</dimension>
     <dimension dim="3">ion</dimension>
     <field>energy</field>
     <field>    s</field>
     <field>   py</field>
     <field>   pz</field>
     <field>   px</field>
     <field>  dxy</field>
     <field>  dyz</field>
     <field>  dz2</field>
     <field>  dxz</field>
     <field>x2-y2</field>
     <set>
      <set comment="ion 1">
       <set comment="spin 1">
        <r>   -19.8197     0.0000     0.0000     0.0000     0.0000     0.0000     0.0000     0.0000     0.0000     0.0000 </r>
        <r>   -19.7262     0.0000     0.0000     0.0000     0.0000     0.0000     0.0000     0.0000     0.0000     0.0000 </r>
        <r>   -19.6326     0.0000     0.0000     0.0000     0.0000     0.0000     0.0000     0.0000     0.0000     0.0000 </r>
        <r>   -19.5390     0.0000     0.0000     0.0000     0.0000     0.0000     0.0000     0.0000     0.0000     0.0000 </r>
        <r>   -19.4454     0.0000     0.0000     0.0000     0.0000     0.0000     0.0000     0.0000     0.0000     0.0000 </r>
        <r>   -19.3519     0.0000     0.0000     0.0000     0.0000     0.0000     0.0000     0.0000     0.0000     0.0000 </r>
        <r>   -19.2583     0.0000     0.0000     0.0000     0.0000     0.0000     0.0000     0.0000     0.0000     0.0000 </r>
        <r>   -19.1647     0.0001     0.0000     0.0000     0.0000     0.0000     0.0000     0.0000     0.0000     0.0000 </r>
        <r>   -19.0712     0.0002     0.0000     0.0000     0.0000     0.0000     0.0000     0.0000     0.0000     0.0000 </r>
        <r>   -18.9776     0.0004     0.0000     0.0000     0.0000     0.0000     0.0000     0.0000     0.0000     0.0000 </r>
        <r>   -18.8840     0.0010     0.0000     0.0000     0.0000     0.0000     0.0000     0.0000     0.0000     0.0000 </r>
        <r>   -18.7905     0.0025     0.0001     0.0000     0.0000     0.0000     0.0000     0.0000     0.0000     0.0000 </r>
        <r>   -18.6969     0.0059     0.0003     0.0000     0.0001     0.0000     0.0000     0.0000     0.0000     0.0000 </r>
        <r>   -18.6033     0.0125     0.0007     0.0000     0.0001     0.0000     0.0000     0.0000     0.0000     0.0000 </r>
        <r>   -18.5098     0.0222     0.0016     0.0000     0.0003     0.0000     0.0000     0.0000     0.0000     0.0000 </r>
        <r>   -18.4162     0.0317     0.0030     0.0000     0.0005     0.0000     0.0000     0.0000     0.0000     0.0000 </r>
        <r>   -18.3226     0.0374     0.0052     0.0000     0.0010     0.0000     0.0000     0.0000     0.0000     0.0000 </r>
        <r>   -18.2290     0.0385     0.0081     0.0000     0.0017     0.0000     0.0000     0.0000     0.0000     0.0000 </r>
        <r>   -18.1355     0.0362     0.0116     0.0000     0.0027     0.0000     0.0000     0.0000     0.0000     0.0000 </r>
        <r>   -18.0419     0.0314     0.0149     0.0000     0.0040     0.0000     0.0000     0.0000     0.0000     0.0000 </r>
        <r>   -17.9483     0.0241     0.0159     0.0000     0.0048     0.0000     0.0000     0.0000     0.0000     0.0000 </r>
        <r>   -17.8548     0.0156     0.0132     0.0000     0.0044     0.0000     0.0000     0.0000     0.0000     0.0000 </r>
        <r>   -17.7612     0.0083     0.0083     0.0000     0.0030     0.0000     0.0000     0.0000     0.0000     0.0000 </r>
        <r>   -17.6676     0.0038     0.0042     0.0000     0.0016     0.0000     0.0000     0.0000     0.0000     0.0000 </r>
        <r>   -17.5741     0.0016     0.0018     0.0000     0.0007     0.0000     0.0000     0.0000     0.0000     0.0000 </r>
        <r>   -17.4805     0.0006     0.0008     0.0000     0.0003     0.0000     0.0000     0.0000     0.0000     0.0000 </r>
        <r>   -17.3869     0.0002     0.0003     0.0000     0.0001     0.0000     0.0000     0.0000     0.0000     0.0000 </r>
        <r>   -17.2934     0.0001     0.0001     0.0000     0.0000     0.0000     0.0000     0.0000     0.0000     0.0000 </r>
        <r>   -17.1998     0.0000     0.0000     0.0000     0.0000     0.0000     0.0000     0.0000     0.0000     0.0000 </r>
        <r>   -17.1062     0.0000     0.0000     0.0000     0.0000     0.0000     0.0000     0.0000     0.0000     0.0000 </r>
        <r>   -17.0126     0.0000     0.0000     0.0000     0.0000     0.0000     0.0000     0.0000     0.0000     0.0000 </r>
        <r>   -16.9191     0.0002     0.0000     0.0000     0.0000     0.0000     0.0000     0.0000     0.0000     0.0000 </r>
        <r>   -16.8255     0.0004     0.0000     0.0000     0.0000     0.0000     0.0000     0.0000     0.0000     0.0000 </r>
        <r>   -16.7319     0.0009     0.0001     0.0000     0.0001     0.0000     0.0000     0.0000     0.0000     0.0000 </r>
        <r>   -16.6384     0.0023     0.0001     0.0000     0.0001     0.0000     0.0000     0.0000     0.0000     0.0000 </r>
        <r>   -16.5448     0.0056     0.0004     0.0000     0.0003     0.0000     0.0000     0.0000     0.0000     0.0000 </r>
        <r>   -16.4512     0.0134     0.0008     0.0000     0.0008     0.0000     0.0000     0.0000     0.0000     0.0000 </r>
        <r>   -16.3577     0.0293     0.0019     0.0000     0.0018     0.0000     0.0000     0.0000     0.0000     0.0000 </r>
        <r>   -16.2641     0.0551     0.0035     0.0000     0.0038     0.0000     0.0000     0.0000     0.0000     0.0000 </r>
        <r>   -16.1705     0.0836     0.0053     0.0000     0.0066     0.0000     0.0000     0.0000     0.0000     0.0000 </r>
        <r>   -16.0770     0.1017     0.0065     0.0000     0.0096     0.0000     0.0000     0.0000     0.0000     0.0000 </r>
        <r>   -15.9834     0.1021     0.0070     0.0000     0.0115     0.0000     0.0000     0.0000     0.0000     0.0000 </r>
        <r>   -15.8898     0.0897     0.0074     0.0000     0.0119     0.0000     0.0000     0.0000     0.0000     0.0000 </r>
        <r>   -15.7963     0.0754     0.0082     0.0000     0.0120     0.0000     0.0000     0.0000     0.0000     0.0000 </r>
        <r>   -15.7027     0.0652     0.0096     0.0000     0.0126     0.0000     0.0000     0.0000     0.0000     0.0000 </r>
        <r>   -15.6091     0.0579     0.0114     0.0000     0.0139     0.0000     0.0000     0.0000     0.0000     0.0000 </r>
        <r>   -15.5155     0.0517     0.0134     0.0000     0.0161     0.0000     0.0000     0.0000     0.0000     0.0000 </r>
        <r>   -15.4220     0.0468     0.0159     0.0000     0.0195     0.0000     0.0000     0.0000     0.0000     0.0000 </r>
        <r>   -15.3284     0.0418     0.0185     0.0000     0.0240     0.0000     0.0000     0.0000     0.0000     0.0000 </r>
        <r>   -15.2348     0.0353     0.0208     0.0000     0.0292     0.0000     0.0000     0.0000     0.0000     0.0000 </r>
        <r>   -15.1413     0.0282     0.0225     0.0000     0.0339     0.0000     0.0000     0.0000     0.0000     0.0000 </r>
        <r>   -15.0477     0.0214     0.0225     0.0000     0.0350     0.0000     0.0000     0.0000     0.0000     0.0000 </r>
        <r>   -14.9541     0.0152     0.0200     0.0000     0.0317     0.0000     0.0000     0.0000     0.0000     0.0000 </r>
        <r>   -14.8606     0.0097     0.0162     0.0000     0.0260     0.0000     0.0000     0.0000     0.0000     0.0000 </r>
        <r>   -14.7670     0.0058     0.0122     0.0000     0.0199     0.0000     0.0000     0.0000     0.0000     0.0000 </r>
        <r>   -14.6734     0.0032     0.0084     0.0000     0.0139     0.0000     0.0000     0.0000     0.0000     0.0000 </r>
        <r>   -14.5799     0.0016     0.0050     0.0000     0.0084     0.0000     0.0000     0.0000     0.0000     0.0000 </r>
        <r>   -14.4863     0.0007     0.0025     0.0000     0.0043     0.0000     0.0000     0.0000     0.0000     0.0000 </r>
        <r>   -14.3927     0.0003     0.0011     0.0000     0.0019     0.0000     0.0000     0.0000     0.0000     0.0000 </r>
        <r>   -14.2991     0.0001     0.0005     0.0000     0.0008     0.0000     0.0000     0.0000     0.0000     0.0000 </r>
        <r>   -14.2056     0.0000     0.0002     0.0000     0.0003     0.0000     0.0000     0.0000     0.0000     0.0000 </r>
        <r>   -14.1120     0.0000     0.0001     0.0000     0.0001     0.0000     0.0000     0.0000     0.0000     0.0000 </r>
        <r>   -14.0184     0.0000     0.0000     0.0000     0.0000     0.0000     0.0000     0.0000     0.0000     0.0000 </r>
        <r>   -13.9249     0.0000     0.0000     0.0000     0.0000     0.0000     0.0000     0.0000     0.0000     0.0000 </r>
        <r>   -13.8313     0.0000     0.0000     0.0000     0.0000     0.0000     0.0000     0.0000     0.0000     0.0000 </r>
        <r>   -13.7377     0.0000     0.0000     0.0000     0.0000     0.0000     0.0000     0.0000     0.0000     0.0000 </r>
        <r>   -13.6442     0.0000     0.0000     0.0000     0.0000     0.0000     0.0000     0.0000     0.0000     0.0000 </r>
        <r>   -13.5506     0.0001     0.0000     0.0000     0.0000     0.0000     0.0000     0.0000     0.0000     0.0000 </r>
        <r>   -13.4570     0.0003     0.0000     0.0000     0.0000     0.0000     0.0000     0.0000     0.0000     0.0000 </r>
        <r>   -13.3635     0.0007     0.0000     0.0000     0.0000     0.0000     0.0000     0.0000     0.0000     0.0000 </r>
        <r>   -13.2699     0.0017     0.0001     0.0000     0.0000     0.0000     0.0000     0.0000     0.0000     0.0000 </r>
        <r>   -13.1763     0.0042     0.0002     0.0000     0.0001     0.0000     0.0000     0.0000     0.0000     0.0000 </r>
        <r>   -13.0827     0.0103     0.0004     0.0000     0.0003     0.0000     0.0000     0.0000     0.0000     0.0000 </r>
        <r>   -12.9892     0.0239     0.0009     0.0000     0.0006     0.0000     0.0000     0.0000     0.0000     0.0000 </r>
        <r>   -12.8956     0.0496     0.0021     0.0000     0.0015     0.0000     0.0000     0.0000     0.0000     0.0000 </r>
        <r>   -12.8020     0.0874     0.0044     0.0000     0.0031     0.0000     0.0000     0.0000     0.0000     0.0000 </r>
        <r>   -12.7085     0.1273     0.0082     0.0000     0.0058     0.0000     0.0000     0.0000     0.0000     0.0000 </r>
        <r>   -12.6149     0.1538     0.0140     0.0000     0.0092     0.0000     0.0000     0.0000     0.0000     0.0000 </r>
        <r>   -12.5213     0.1608     0.0215     0.0000     0.0130     0.0000     0.0000     0.0000     0.0000     0.0000 </r>
        <r>   -12.4278     0.1591     0.0289     0.0000     0.0175     0.0000     0.0000     0.0000     0.0000     0.0000 </r>
        <r>   -12.3342     0.1532     0.0317     0.0000     0.0227     0.0000     0.0000     0.0000     0.0000     0.0000 </r>
        <r>   -12.2406     0.1303     0.0269     0.0000     0.0270     0.0000     0.0000     0.0000     0.0000     0.0000 </r>
        <r>   -12.1471     0.0935     0.0183     0.0000     0.0296     0.0000     0.0000     0.0000     0.0000     0.0000 </r>
        <r>   -12.0535     0.0664     0.0113     0.0000     0.0317     0.0000     0.0000     0.0000     0.0000     0.0000 </r>
        <r>   -11.9599     0.0557     0.0077     0.0000     0.0344     0.0000     0.0000     0.0000     0.0000     0.0000 </r>
        <r>   -11.8663     0.0501     0.0062     0.0000     0.0376     0.0000     0.0000     0.0000     0.0000     0.0000 </r>
        <r>   -11.7728     0.0411     0.0051     0.0000     0.0387     0.0000     0.0000     0.0000     0.0000     0.0000 </r>
        <r>   -11.6792     0.0322     0.0044     0.0000     0.0372     0.0000     0.0000     0.0000     0.0000     0.0000 </r>
        <r>   -11.5856     0.0299     0.0046     0.0000     0.0375     0.0000     0.0000     0.0000     0.0000     0.0000 </r>
        <r>   -11.4921     0.0354     0.0051     0.0000     0.0425     0.0000     0.0000     0.0000     0.0000     0.0000 </r>
        <r>   -11.3985     0.0439     0.0051     0.0000     0.0462     0.0000     0.0000     0.0000     0.0000     0.0000 </r>
        <r>   -11.3049     0.0509     0.0047     0.0000     0.0427     0.0000     0.0000     0.0000     0.0000     0.0000 </r>
        <r>   -11.2114     0.0579     0.0048     0.0000     0.0377     0.0000     0.0000     0.0000     0.0000     0.0000 </r>
        <r>   -11.1178     0.0642     0.0055     0.0000     0.0369     0.0000     0.0000     0.0000     0.0000     0.0000 </r>
        <r>   -11.0242     0.0650     0.0062     0.0000     0.0369     0.0000     0.0000     0.0000     0.0000     0.0000 </r>
        <r>   -10.9307     0.0612     0.0066     0.0000     0.0327     0.0000     0.0000     0.0000     0.0000     0.0000 </r>
        <r>   -10.8371     0.0597     0.0070     0.0000     0.0266     0.0000     0.0000     0.0000     0.0000     0.0000 </r>
        <r>   -10.7435     0.0582     0.0075     0.0000     0.0233     0.0000     0.0000     0.0000     0.0000     0.0000 </r>
        <r>   -10.6500     0.0506     0.0075     0.0000     0.0213     0.0000     0.0000     0.0000     0.0000     0.0000 </r>
        <r>   -10.5564     0.0404     0.0066     0.0000     0.0167     0.0000     0.0000     0.0000     0.0000     0.0000 </r>
        <r>   -10.4628     0.0380     0.0060     0.0000     0.0109     0.0000     0.0000     0.0000     0.0000     0.0000 </r>
        <r>   -10.3692     0.0461     0.0063     0.0000     0.0063     0.0000     0.0000     0.0000     0.0000     0.0000 </r>
        <r>   -10.2757     0.0542     0.0066     0.0000     0.0036     0.0000     0.0000     0.0000     0.0000     0.0000 </r>
        <r>   -10.1821     0.0528     0.0060     0.0000     0.0022     0.0000     0.0000     0.0000     0.0000     0.0000 </r>
        <r>   -10.0885     0.0461     0.0049     0.0000     0.0014     0.0000     0.0000     0.0000     0.0000     0.0000 </r>
        <r>    -9.9950     0.0443     0.0047     0.0000     0.0011     0.0000     0.0000     0.0000     0.0000     0.0000 </r>
        <r>    -9.9014     0.0575     0.0067     0.0000     0.0012     0.0000     0.0000     0.0000     0.0000     0.0000 </r>
        <r>    -9.8078     0.0852     0.0111     0.0000     0.0019     0.0000     0.0000     0.0000     0.0000     0.0000 </r>
        <r>    -9.7143     0.1097     0.0161     0.0000     0.0033     0.0000     0.0000     0.0000     0.0000     0.0000 </r>
        <r>    -9.6207     0.1127     0.0195     0.0000     0.0054     0.0000     0.0000     0.0000     0.0000     0.0000 </r>
        <r>    -9.5271     0.1050     0.0230     0.0000     0.0083     0.0000     0.0000     0.0000     0.0000     0.0000 </r>
        <r>    -9.4336     0.1002     0.0286     0.0000     0.0117     0.0000     0.0000     0.0000     0.0000     0.0000 </r>
        <r>    -9.3400     0.0968     0.0350     0.0000     0.0143     0.0000     0.0000     0.0000     0.0000     0.0000 </r>
        <r>    -9.2464     0.0963     0.0415     0.0000     0.0148     0.0000     0.0000     0.0000     0.0000     0.0000 </r>
        <r>    -9.1528     0.1049     0.0513     0.0000     0.0146     0.0000     0.0000     0.0000     0.0000     0.0000 </r>
        <r>    -9.0593     0.1204     0.0625     0.0000     0.0151     0.0000     0.0000     0.0000     0.0000     0.0000 </r>
        <r>    -8.9657     0.1290     0.0664     0.0000     0.0159     0.0000     0.0000     0.0000     0.0000     0.0000 </r>
        <r>    -8.8721     0.1206     0.0592     0.0000     0.0164     0.0000     0.0000     0.0000     0.0000     0.0000 </r>
        <r>    -8.7786     0.1006     0.0461     0.0000     0.0162     0.0000     0.0000     0.0000     0.0000     0.0000 </r>
        <r>    -8.6850     0.0870     0.0347     0.0000     0.0149     0.0000     0.0000     0.0000     0.0000     0.0000 </r>
        <r>    -8.5914     0.0921     0.0293     0.0000     0.0138     0.0000     0.0000     0.0000     0.0000     0.0000 </r>
        <r>    -8.4979     0.1213     0.0326     0.0000     0.0146     0.0000     0.0000     0.0000     0.0000     0.0000 </r>
        <r>    -8.4043     0.1602     0.0414     0.0000     0.0167     0.0000     0.0000     0.0000     0.0000     0.0000 </r>
        <r>    -8.3107     0.1735     0.0455     0.0000     0.0170     0.0000     0.0000     0.0000     0.0000     0.0000 </r>
        <r>    -8.2172     0.1475     0.0399     0.0000     0.0149     0.0000     0.0000     0.0000     0.0000     0.0000 </r>
        <r>    -8.1236     0.1086     0.0319     0.0000     0.0131     0.0000     0.0000     0.0000     0.0000     0.0000 </r>
        <r>    -8.0300     0.0887     0.0305     0.0000     0.0138     0.0000     0.0000     0.0000     0.0000     0.0000 </r>
        <r>    -7.9364     0.0893     0.0361     0.0001     0.0157     0.0000     0.0000     0.0000     0.0000     0.0000 </r>
        <r>    -7.8429     0.0985     0.0449     0.0002     0.0174     0.0000     0.0000     0.0000     0.0000     0.0000 </r>
        <r>    -7.7493     0.1110     0.0538     0.0004     0.0197     0.0000     0.0000     0.0000     0.0000     0.0000 </r>
        <r>    -7.6557     0.1191     0.0609     0.0011     0.0235     0.0000     0.0000     0.0000     0.0000     0.0000 </r>
        <r>    -7.5622     0.1109     0.0624     0.0027     0.0261     0.0000     0.0000     0.0000     0.0000     0.0000 </r>
        <r>    -7.4686     0.0874     0.0543     0.0062     0.0243     0.0000     0.0000     0.0000     0.0000     0.0000 </r>
        <r>    -7.3750     0.0697     0.0440     0.0125     0.0210     0.0000     0.0000     0.0000     0.0000     0.0000 </r>
        <r>    -7.2815     0.0672     0.0375     0.0209     0.0195     0.0000     0.0000     0.0000     0.0000     0.0000 </r>
        <r>    -7.1879     0.0676     0.0315     0.0284     0.0181     0.0000     0.0000     0.0000     0.0000     0.0000 </r>
        <r>    -7.0943     0.0635     0.0246     0.0330     0.0163     0.0000     0.0000     0.0000     0.0000     0.0000 </r>
        <r>    -7.0008     0.0592     0.0219     0.0349     0.0157     0.0000     0.0000     0.0000     0.0000     0.0000 </r>
        <r>    -6.9072     0.0543     0.0264     0.0351     0.0161     0.0000     0.0000     0.0000     0.0000     0.0000 </r>
        <r>    -6.8136     0.0515     0.0398     0.0348     0.0179     0.0000     0.0000     0.0000     0.0000     0.0000 </r>
        <r>    -6.7200     0.0572     0.0610     0.0336     0.0223     0.0000     0.0000     0.0000     0.0000     0.0000 </r>
        <r>    -6.6265     0.0716     0.0848     0.0325     0.0281     0.0000     0.0000     0.0000     0.0000     0.0000 </r>
        <r>    -6.5329     0.0880     0.1015     0.0313     0.0321     0.0000     0.0000     0.0000     0.0000     0.0000 </r>
        <r>    -6.4393     0.0942     0.1032     0.0290     0.0318     0.0000     0.0000     0.0000     0.0000     0.0000 </r>
        <r>    -6.3458     0.0878     0.0956     0.0264     0.0288     0.0000     0.0000     0.0000     0.0000     0.0000 </r>
        <r>    -6.2522     0.0787     0.0927     0.0225     0.0271     0.0000     0.0000     0.0000     0.0000     0.0000 </r>
        <r>    -6.1586     0.0664     0.0965     0.0166     0.0276     0.0000     0.0000     0.0000     0.0000     0.0000 </r>
        <r>    -6.0651     0.0485     0.1059     0.0104     0.0297     0.0000     0.0000     0.0000     0.0000     0.0000 </r>
        <r>    -5.9715     0.0334     0.1268     0.0056     0.0340     0.0000     0.0000     0.0000     0.0000     0.0000 </r>
        <r>    -5.8779     0.0260     0.1508     0.0027     0.0370     0.0000     0.0000     0.0000     0.0000     0.0000 </r>
        <r>    -5.7844     0.0244     0.1615     0.0015     0.0359     0.0000     0.0000     0.0000     0.0000     0.0000 </r>
        <r>    -5.6908     0.0261     0.1623     0.0014     0.0349     0.0000     0.0000     0.0000     0.0000     0.0000 </r>
        <r>    -5.5972     0.0269     0.1585     0.0027     0.0372     0.0000     0.0000     0.0000     0.0000     0.0000 </r>
        <r>    -5.5037     0.0245     0.1507     0.0062     0.0453     0.0000     0.0000     0.0000     0.0000     0.0000 </r>
        <r>    -5.4101     0.0218     0.1455     0.0138     0.0673     0.0000     0.0000     0.0000     0.0000     0.0000 </r>
        <r>    -5.3165     0.0205     0.1421     0.0275     0.1106     0.0000     0.0000     0.0000     0.0000     0.0000 </r>
        <r>    -5.2229     0.0210     0.1396     0.0454     0.1778     0.0000     0.0000     0.0000     0.0000     0.0000 </r>
        <r>    -5.1294     0.0228     0.1417     0.0608     0.2656     0.0000     0.0000     0.0000     0.0000     0.0000 </r>
        <r>    -5.0358     0.0250     0.1439     0.0704     0.3408     0.0000     0.0000     0.0000     0.0000     0.0000 </r>
        <r>    -4.9422     0.0259     0.1302     0.0741     0.3508     0.0000     0.0000     0.0000     0.0000     0.0000 </r>
        <r>    -4.8487     0.0249     0.1018     0.0700     0.2960     0.0000     0.0000     0.0000     0.0000     0.0000 </r>
        <r>    -4.7551     0.0223     0.0735     0.0607     0.2166     0.0000     0.0000     0.0000     0.0000     0.0000 </r>
        <r>    -4.6615     0.0192     0.0542     0.0519     0.1448     0.0000     0.0000     0.0000     0.0000     0.0000 </r>
        <r>    -4.5680     0.0182     0.0491     0.0485     0.1021     0.0000     0.0000     0.0000     0.0000     0.0000 </r>
        <r>    -4.4744     0.0204     0.0560     0.0482     0.0889     0.0000     0.0000     0.0000     0.0000     0.0000 </r>
        <r>    -4.3808     0.0209     0.0599     0.0464     0.0818     0.0000     0.0000     0.0000     0.0000     0.0000 </r>
        <r>    -4.2873     0.0174     0.0536     0.0430     0.0689     0.0000     0.0000     0.0000     0.0000     0.0000 </r>
        <r>    -4.1937     0.0142     0.0500     0.0401     0.0658     0.0000     0.0000     0.0000     0.0000     0.0000 </r>
        <r>    -4.1001     0.0145     0.0591     0.0398     0.0806     0.0000     0.0000     0.0000     0.0000     0.0000 </r>
        <r>    -4.0065     0.0162     0.0723     0.0411     0.0999     0.0000     0.0000     0.0000     0.0000     0.0000 </r>
        <r>    -3.9130     0.0157     0.0776     0.0405     0.1118     0.0000     0.0000     0.0000     0.0000     0.0000 </r>
        <r>    -3.8194     0.0133     0.0765     0.0366     0.1211     0.0000     0.0000     0.0000     0.0000     0.0000 </r>
        <r>    -3.7258     0.0110     0.0772     0.0315     0.1362     0.0000     0.0000     0.0000     0.0000     0.0000 </r>
        <r>    -3.6323     0.0097     0.0804     0.0288     0.1500     0.0000     0.0000     0.0000     0.0000     0.0000 </r>
        <r>    -3.5387     0.0086     0.0804     0.0268     0.1480     0.0000     0.0000     0.0000     0.0000     0.0000 </r>
        <r>    -3.4451     0.0077     0.0772     0.0219     0.1301     0.0000     0.0000     0.0000     0.0000     0.0000 </r>
        <r>    -3.3516     0.0071     0.0751     0.0155     0.1166     0.0000     0.0000     0.0000     0.0000     0.0000 </r>
        <r>    -3.2580     0.0061     0.0696     0.0097     0.1131     0.0000     0.0000     0.0000     0.0000     0.0000 </r>
        <r>    -3.1644     0.0046     0.0592     0.0054     0.1044     0.0000     0.0000     0.0000     0.0000     0.0000 </r>
        <r>    -3.0709     0.0035     0.0532     0.0026     0.0924     0.0000     0.0000     0.0000     0.0000     0.0000 </r>
        <r>    -2.9773     0.0031     0.0547     0.0012     0.0892     0.0000     0.0000     0.0000     0.0000     0.0000 </r>
        <r>    -2.8837     0.0028     0.0554     0.0005     0.0873     0.0000     0.0000     0.0000     0.0000     0.0000 </r>
        <r>    -2.7901     0.0021     0.0504     0.0002     0.0803     0.0000     0.0000     0.0000     0.0000     0.0000 </r>
        <r>    -2.6966     0.0014     0.0439     0.0001     0.0741     0.0000     0.0000     0.0000     0.0000     0.0000 </r>
        <r>    -2.6030     0.0009     0.0390     0.0001     0.0668     0.0000     0.0000     0.0000     0.0000     0.0000 </r>
[...]
        <r>  0.0000  0.0000  0.0004  0.0000  0.0000  0.0000  0.0000  0.0000  0.0000 </r>
        <r>  0.0000  0.0000  0.0527  0.0000  0.0000  0.0000  0.0000  0.0000  0.0000 </r>
        <r>  0.0000  0.0000  0.0136  0.0000  0.0000  0.0000  0.0000  0.0000  0.0000 </r>
        <r>  0.0000  0.0000  0.0136  0.0000  0.0000  0.0000  0.0000  0.0000  0.0000 </r>
        <r>  0.0000  0.0000  0.0527  0.0000  0.0000  0.0000  0.0000  0.0000  0.0000 </r>
        <r>  0.0000  0.0000  0.0004  0.0000  0.0000  0.0000  0.0000  0.0000  0.0000 </r>
       </set>
      </set>
      <set comment="kpoint 19">
       <set comment="band 1">
        <r>  0.0000  0.0047  0.0000  0.0047  0.0000  0.0000  0.0000  0.0000  0.0000 </r>
        <r>  0.0000  0.0047  0.0000  0.0047  0.0000  0.0000  0.0000  0.0000  0.0000 </r>
        <r>  0.0961  0.0081  0.0000  0.0028  0.0000  0.0000  0.0000  0.0000  0.0000 </r>
        <r>  0.0961  0.0081  0.0000  0.0028  0.0000  0.0000  0.0000  0.0000  0.0000 </r>
        <r>  0.0961  0.0001  0.0000  0.0107  0.0000  0.0000  0.0000  0.0000  0.0000 </r>
        <r>  0.0961  0.0001  0.0000  0.0107  0.0000  0.0000  0.0000  0.0000  0.0000 </r>
        <r>  0.0961  0.0081  0.0000  0.0028  0.0000  0.0000  0.0000  0.0000  0.0000 </r>
        <r>  0.0961  0.0081  0.0000  0.0028  0.0000  0.0000  0.0000  0.0000  0.0000 </r>
       </set>
       <set comment="band 2">
        <r>  0.0394  0.0050  0.0000  0.0050  0.0000  0.0000  0.0000  0.0000  0.0000 </r>
        <r>  0.0394  0.0050  0.0000  0.0050  0.0000  0.0000  0.0000  0.0000  0.0000 </r>
        <r>  0.0427  0.0053  0.0000  0.0120  0.0000  0.0000  0.0000  0.0000  0.0000 </r>
        <r>  0.0427  0.0053  0.0000  0.0120  0.0000  0.0000  0.0000  0.0000  0.0000 </r>
        <r>  0.1610  0.0018  0.0000  0.0004  0.0000  0.0000  0.0000  0.0000  0.0000 </r>
        <r>  0.1610  0.0018  0.0000  0.0004  0.0000  0.0000  0.0000  0.0000  0.0000 </r>
        <r>  0.0427  0.0053  0.0000  0.0120  0.0000  0.0000  0.0000  0.0000  0.0000 </r>
        <r>  0.0427  0.0053  0.0000  0.0120  0.0000  0.0000  0.0000  0.0000  0.0000 </r>
       </set>
       <set comment="band 3">
        <r>  0.0394  0.0050  0.0000  0.0050  0.0000  0.0000  0.0000  0.0000  0.0000 </r>
        <r>  0.0394  0.0050  0.0000  0.0050  0.0000  0.0000  0.0000  0.0000  0.0000 </r>
        <r>  0.1216  0.0013  0.0000  0.0059  0.0000  0.0000  0.0000  0.0000  0.0000 </r>
        <r>  0.1216  0.0013  0.0000  0.0059  0.0000  0.0000  0.0000  0.0000  0.0000 </r>
        <r>  0.0032  0.0217  0.0000  0.0006  0.0000  0.0000  0.0000  0.0000  0.0000 </r>
        <r>  0.0032  0.0217  0.0000  0.0006  0.0000  0.0000  0.0000  0.0000  0.0000 </r>
        <r>  0.1216  0.0013  0.0000  0.0059  0.0000  0.0000  0.0000  0.0000  0.0000 </r>
        <r>  0.1216  0.0013  0.0000  0.0059  0.0000  0.0000  0.0000  0.0000  0.0000 </r>
       </set>
       <set comment="band 4">
        <r>  0.0525  0.0051  0.0000  0.0051  0.0000  0.0000  0.0000  0.0000  0.0000 </r>
        <r>  0.0525  0.0051  0.0000  0.0051  0.0000  0.0000  0.0000  0.0000  0.0000 </r>
        <r>  0.0771  0.0054  0.0000  0.0203  0.0000  0.0000  0.0000  0.0000  0.0000 </r>
        <r>  0.0771  0.0054  0.0000  0.0203  0.0000  0.0000  0.0000  0.0000  0.0000 </r>
        <r>  0.0163  0.0619  0.0000  0.0104  0.0000  0.0000  0.0000  0.0000  0.0000 </r>
        <r>  0.0163  0.0619  0.0000  0.0104  0.0000  0.0000  0.0000  0.0000  0.0000 </r>
        <r>  0.0771  0.0054  0.0000  0.0203  0.0000  0.0000  0.0000  0.0000  0.0000 </r>
        <r>  0.0771  0.0054  0.0000  0.0203  0.0000  0.0000  0.0000  0.0000  0.0000 </r>
       </set>
       <set comment="band 5">
        <r>  0.0525  0.0051  0.0000  0.0051  0.0000  0.0000  0.0000  0.0000  0.0000 </r>
        <r>  0.0525  0.0051  0.0000  0.0051  0.0000  0.0000  0.0000  0.0000  0.0000 </r>
        <r>  0.0366  0.0232  0.0000  0.0336  0.0000  0.0000  0.0000  0.0000  0.0000 </r>
        <r>  0.0366  0.0232  0.0000  0.0336  0.0000  0.0000  0.0000  0.0000  0.0000 </r>
        <r>  0.0974  0.0045  0.0000  0.0056  0.0000  0.0000  0.0000  0.0000  0.0000 </r>
        <r>  0.0974  0.0045  0.0000  0.0056  0.0000  0.0000  0.0000  0.0000  0.0000 </r>
        <r>  0.0366  0.0232  0.0000  0.0336  0.0000  0.0000  0.0000  0.0000  0.0000 </r>
        <r>  0.0366  0.0232  0.0000  0.0336  0.0000  0.0000  0.0000  0.0000  0.0000 </r>
       </set>
       <set comment="band 6">
        <r>  0.0000  0.0310  0.0000  0.0310  0.0000  0.0000  0.0000  0.0000  0.0000 </r>
        <r>  0.0000  0.0310  0.0000  0.0310  0.0000  0.0000  0.0000  0.0000  0.0000 </r>
        <r>  0.0003  0.0349  0.0000  0.0501  0.0000  0.0000  0.0000  0.0000  0.0000 </r>
        <r>  0.0003  0.0349  0.0000  0.0501  0.0000  0.0000  0.0000  0.0000  0.0000 </r>
        <r>  0.0003  0.0577  0.0000  0.0274  0.0000  0.0000  0.0000  0.0000  0.0000 </r>
        <r>  0.0003  0.0577  0.0000  0.0274  0.0000  0.0000  0.0000  0.0000  0.0000 </r>
        <r>  0.0003  0.0349  0.0000  0.0501  0.0000  0.0000  0.0000  0.0000  0.0000 </r>
        <r>  0.0003  0.0349  0.0000  0.0501  0.0000  0.0000  0.0000  0.0000  0.0000 </r>
       </set>
       <set comment="band 7">
        <r>  0.0855  0.0056  0.0000  0.0056  0.0000  0.0000  0.0000  0.0000  0.0000 </r>
        <r>  0.0855  0.0056  0.0000  0.0056  0.0000  0.0000  0.0000  0.0000  0.0000 </r>
        <r>  0.0125  0.0456  0.0000  0.0035  0.0000  0.0000  0.0000  0.0000  0.0000 </r>
        <r>  0.0125  0.0456  0.0000  0.0035  0.0000  0.0000  0.0000  0.0000  0.0000 </r>
        <r>  0.0047  0.0535  0.0000  0.0937  0.0000  0.0000  0.0000  0.0000  0.0000 </r>
        <r>  0.0047  0.0535  0.0000  0.0937  0.0000  0.0000  0.0000  0.0000  0.0000 </r>
        <r>  0.0125  0.0456  0.0000  0.0035  0.0000  0.0000  0.0000  0.0000  0.0000 </r>
        <r>  0.0125  0.0456  0.0000  0.0035  0.0000  0.0000  0.0000  0.0000  0.0000 </r>
       </set>
       <set comment="band 8">
        <r>  0.0855  0.0056  0.0000  0.0056  0.0000  0.0000  0.0000  0.0000  0.0000 </r>
        <r>  0.0855  0.0056  0.0000  0.0056  0.0000  0.0000  0.0000  0.0000  0.0000 </r>
        <r>  0.0073  0.0470  0.0000  0.0675  0.0000  0.0000  0.0000  0.0000  0.0000 </r>
        <r>  0.0073  0.0470  0.0000  0.0675  0.0000  0.0000  0.0000  0.0000  0.0000 </r>
        <r>  0.0150  0.0068  0.0000  0.0097  0.0000  0.0000  0.0000  0.0000  0.0000 </r>
        <r>  0.0150  0.0068  0.0000  0.0097  0.0000  0.0000  0.0000  0.0000  0.0000 </r>
        <r>  0.0073  0.0470  0.0000  0.0675  0.0000  0.0000  0.0000  0.0000  0.0000 </r>
        <r>  0.0073  0.0470  0.0000  0.0675  0.0000  0.0000  0.0000  0.0000  0.0000 </r>
       </set>
       <set comment="band 9">
        <r>  0.0000  0.0194  0.0000  0.0194  0.0000  0.0000  0.0000  0.0000  0.0000 </r>
        <r>  0.0000  0.0194  0.0000  0.0194  0.0000  0.0000  0.0000  0.0000  0.0000 </r>
        <r>  0.0046  0.0467  0.0000  0.0531  0.0000  0.0000  0.0000  0.0000  0.0000 </r>
        <r>  0.0046  0.0467  0.0000  0.0531  0.0000  0.0000  0.0000  0.0000  0.0000 </r>
        <r>  0.0046  0.0563  0.0000  0.0435  0.0000  0.0000  0.0000  0.0000  0.0000 </r>
        <r>  0.0046  0.0563  0.0000  0.0435  0.0000  0.0000  0.0000  0.0000  0.0000 </r>
        <r>  0.0046  0.0467  0.0000  0.0531  0.0000  0.0000  0.0000  0.0000  0.0000 </r>
        <r>  0.0046  0.0467  0.0000  0.0531  0.0000  0.0000  0.0000  0.0000  0.0000 </r>
       </set>
       <set comment="band 10">
        <r>  0.0000  0.0000  0.0000  0.0000  0.0000  0.0000  0.0000  0.0000  0.0000 </r>
        <r>  0.0000  0.0000  0.0000  0.0000  0.0000  0.0000  0.0000  0.0000  0.0000 </r>
        <r>  0.0000  0.0000  0.0730  0.0000  0.0000  0.0000  0.0000  0.0000  0.0000 </r>
        <r>  0.0000  0.0000  0.0730  0.0000  0.0000  0.0000  0.0000  0.0000  0.0000 </r>
        <r>  0.0000  0.0000  0.0730  0.0000  0.0000  0.0000  0.0000  0.0000  0.0000 </r>
        <r>  0.0000  0.0000  0.0730  0.0000  0.0000  0.0000  0.0000  0.0000  0.0000 </r>
        <r>  0.0000  0.0000  0.0730  0.0000  0.0000  0.0000  0.0000  0.0000  0.0000 </r>
        <r>  0.0000  0.0000  0.0730  0.0000  0.0000  0.0000  0.0000  0.0000  0.0000 </r>
       </set>
       <set comment="band 11">
        <r>  0.0000  0.0774  0.0000  0.0774  0.0000  0.0000  0.0000  0.0000  0.0000 </r>
        <r>  0.0000  0.0774  0.0000  0.0774  0.0000  0.0000  0.0000  0.0000  0.0000 </r>
        <r>  0.0451  0.0218  0.0000  0.0074  0.0000  0.0000  0.0000  0.0000  0.0000 </r>
        <r>  0.0451  0.0218  0.0000  0.0074  0.0000  0.0000  0.0000  0.0000  0.0000 </r>
        <r>  0.0451  0.0003  0.0000  0.0290  0.0000  0.0000  0.0000  0.0000  0.0000 </r>
        <r>  0.0451  0.0003  0.0000  0.0290  0.0000  0.0000  0.0000  0.0000  0.0000 </r>
        <r>  0.0451  0.0218  0.0000  0.0074  0.0000  0.0000  0.0000  0.0000  0.0000 </r>
        <r>  0.0451  0.0218  0.0000  0.0074  0.0000  0.0000  0.0000  0.0000  0.0000 </r>
       </set>
       <set comment="band 12">
        <r>  0.0183  0.0608  0.0000  0.0608  0.0000  0.0000  0.0000  0.0000  0.0000 </r>
        <r>  0.0183  0.0608  0.0000  0.0608  0.0000  0.0000  0.0000  0.0000  0.0000 </r>
        <r>  0.0036  0.0639  0.0000  0.0012  0.0000  0.0000  0.0000  0.0000  0.0000 </r>
        <r>  0.0036  0.0639  0.0000  0.0012  0.0000  0.0000  0.0000  0.0000  0.0000 </r>
        <r>  0.0006  0.0547  0.0000  0.0393  0.0000  0.0000  0.0000  0.0000  0.0000 </r>
        <r>  0.0006  0.0547  0.0000  0.0393  0.0000  0.0000  0.0000  0.0000  0.0000 </r>
        <r>  0.0036  0.0639  0.0000  0.0012  0.0000  0.0000  0.0000  0.0000  0.0000 </r>
        <r>  0.0036  0.0639  0.0000  0.0012  0.0000  0.0000  0.0000  0.0000  0.0000 </r>
       </set>
       <set comment="band 13">
        <r>  0.0183  0.0608  0.0000  0.0608  0.0000  0.0000  0.0000  0.0000  0.0000 </r>
        <r>  0.0183  0.0608  0.0000  0.0608  0.0000  0.0000  0.0000  0.0000  0.0000 </r>
        <r>  0.0016  0.0207  0.0000  0.0637  0.0000  0.0000  0.0000  0.0000  0.0000 </r>
        <r>  0.0016  0.0207  0.0000  0.0637  0.0000  0.0000  0.0000  0.0000  0.0000 </r>
        <r>  0.0046  0.0004  0.0000  0.0551  0.0000  0.0000  0.0000  0.0000  0.0000 </r>
        <r>  0.0046  0.0004  0.0000  0.0551  0.0000  0.0000  0.0000  0.0000  0.0000 </r>
        <r>  0.0016  0.0207  0.0000  0.0637  0.0000  0.0000  0.0000  0.0000  0.0000 </r>
        <r>  0.0016  0.0207  0.0000  0.0637  0.0000  0.0000  0.0000  0.0000  0.0000 </r>
       </set>
       <set comment="band 14">
        <r>  0.0000  0.0000  0.0475  0.0000  0.0000  0.0000  0.0000  0.0000  0.0000 </r>
        <r>  0.0000  0.0000  0.0475  0.0000  0.0000  0.0000  0.0000  0.0000  0.0000 </r>
        <r>  0.0000  0.0000  0.0303  0.0000  0.0000  0.0000  0.0000  0.0000  0.0000 </r>
        <r>  0.0000  0.0000  0.0303  0.0000  0.0000  0.0000  0.0000  0.0000  0.0000 </r>
        <r>  0.0000  0.0000  0.1085  0.0000  0.0000  0.0000  0.0000  0.0000  0.0000 </r>
        <r>  0.0000  0.0000  0.1085  0.0000  0.0000  0.0000  0.0000  0.0000  0.0000 </r>
        <r>  0.0000  0.0000  0.0303  0.0000  0.0000  0.0000  0.0000  0.0000  0.0000 </r>
        <r>  0.0000  0.0000  0.0303  0.0000  0.0000  0.0000  0.0000  0.0000  0.0000 </r>
       </set>
       <set comment="band 15">
        <r>  0.0000  0.0000  0.0475  0.0000  0.0000  0.0000  0.0000  0.0000  0.0000 </r>
        <r>  0.0000  0.0000  0.0475  0.0000  0.0000  0.0000  0.0000  0.0000  0.0000 </r>
        <r>  0.0000  0.0000  0.0824  0.0000  0.0000  0.0000  0.0000  0.0000  0.0000 </r>
        <r>  0.0000  0.0000  0.0824  0.0000  0.0000  0.0000  0.0000  0.0000  0.0000 </r>
        <r>  0.0000  0.0000  0.0043  0.0000  0.0000  0.0000  0.0000  0.0000  0.0000 </r>
        <r>  0.0000  0.0000  0.0043  0.0000  0.0000  0.0000  0.0000  0.0000  0.0000 </r>
        <r>  0.0000  0.0000  0.0824  0.0000  0.0000  0.0000  0.0000  0.0000  0.0000 </r>
        <r>  0.0000  0.0000  0.0824  0.0000  0.0000  0.0000  0.0000  0.0000  0.0000 </r>
       </set>
       <set comment="band 16">
        <r>  0.0000  0.0000  0.0662  0.0000  0.0000  0.0000  0.0000  0.0000  0.0000 </r>
        <r>  0.0000  0.0000  0.0662  0.0000  0.0000  0.0000  0.0000  0.0000  0.0000 </r>
        <r>  0.0000  0.0000  0.0718  0.0000  0.0000  0.0000  0.0000  0.0000  0.0000 </r>
        <r>  0.0000  0.0000  0.0718  0.0000  0.0000  0.0000  0.0000  0.0000  0.0000 </r>
        <r>  0.0000  0.0000  0.0382  0.0000  0.0000  0.0000  0.0000  0.0000  0.0000 </r>
        <r>  0.0000  0.0000  0.0382  0.0000  0.0000  0.0000  0.0000  0.0000  0.0000 </r>
        <r>  0.0000  0.0000  0.0718  0.0000  0.0000  0.0000  0.0000  0.0000  0.0000 </r>
        <r>  0.0000  0.0000  0.0718  0.0000  0.0000  0.0000  0.0000  0.0000  0.0000 </r>
       </set>
       <set comment="band 17">
        <r>  0.0000  0.0000  0.0662  0.0000  0.0000  0.0000  0.0000  0.0000  0.0000 </r>
        <r>  0.0000  0.0000  0.0662  0.0000  0.0000  0.0000  0.0000  0.0000  0.0000 </r>
        <r>  0.0000  0.0000  0.0494  0.0000  0.0000  0.0000  0.0000  0.0000  0.0000 </r>
        <r>  0.0000  0.0000  0.0494  0.0000  0.0000  0.0000  0.0000  0.0000  0.0000 </r>
        <r>  0.0000  0.0000  0.0830  0.0000  0.0000  0.0000  0.0000  0.0000  0.0000 </r>
        <r>  0.0000  0.0000  0.0830  0.0000  0.0000  0.0000  0.0000  0.0000  0.0000 </r>
        <r>  0.0000  0.0000  0.0494  0.0000  0.0000  0.0000  0.0000  0.0000  0.0000 </r>
        <r>  0.0000  0.0000  0.0494  0.0000  0.0000  0.0000  0.0000  0.0000  0.0000 </r>
       </set>
       <set comment="band 18">
        <r>  0.0000  0.0006  0.0000  0.0006  0.0000  0.0000  0.0000  0.0000  0.0000 </r>
        <r>  0.0000  0.0006  0.0000  0.0006  0.0000  0.0000  0.0000  0.0000  0.0000 </r>
        <r>  0.0026  0.0001  0.0000  0.0001  0.0000  0.0000  0.0000  0.0000  0.0000 </r>
        <r>  0.0026  0.0001  0.0000  0.0001  0.0000  0.0000  0.0000  0.0000  0.0000 </r>
        <r>  0.0026  0.0000  0.0000  0.0002  0.0000  0.0000  0.0000  0.0000  0.0000 </r>
        <r>  0.0026  0.0000  0.0000  0.0002  0.0000  0.0000  0.0000  0.0000  0.0000 </r>
        <r>  0.0026  0.0001  0.0000  0.0001  0.0000  0.0000  0.0000  0.0000  0.0000 </r>
        <r>  0.0026  0.0001  0.0000  0.0001  0.0000  0.0000  0.0000  0.0000  0.0000 </r>
       </set>
       <set comment="band 19">
        <r>  0.0012  0.0000  0.0000  0.0000  0.0000  0.0000  0.0000  0.0000  0.0000 </r>
        <r>  0.0012  0.0000  0.0000  0.0000  0.0000  0.0000  0.0000  0.0000  0.0000 </r>
        <r>  0.0013  0.0007  0.0000  0.0013  0.0000  0.0000  0.0000  0.0000  0.0000 </r>
        <r>  0.0013  0.0007  0.0000  0.0013  0.0000  0.0000  0.0000  0.0000  0.0000 </r>
        <r>  0.0029  0.0000  0.0000  0.0019  0.0000  0.0000  0.0000  0.0000  0.0000 </r>
        <r>  0.0029  0.0000  0.0000  0.0019  0.0000  0.0000  0.0000  0.0000  0.0000 </r>
        <r>  0.0013  0.0007  0.0000  0.0013  0.0000  0.0000  0.0000  0.0000  0.0000 </r>
        <r>  0.0013  0.0007  0.0000  0.0013  0.0000  0.0000  0.0000  0.0000  0.0000 </r>
       </set>
       <set comment="band 20">
        <r>  0.0012  0.0000  0.0000  0.0000  0.0000  0.0000  0.0000  0.0000  0.0000 </r>
        <r>  0.0012  0.0000  0.0000  0.0000  0.0000  0.0000  0.0000  0.0000  0.0000 </r>
        <r>  0.0024  0.0018  0.0000  0.0001  0.0000  0.0000  0.0000  0.0000  0.0000 </r>
        <r>  0.0024  0.0018  0.0000  0.0001  0.0000  0.0000  0.0000  0.0000  0.0000 </r>
        <r>  0.0007  0.0008  0.0000  0.0011  0.0000  0.0000  0.0000  0.0000  0.0000 </r>
        <r>  0.0007  0.0008  0.0000  0.0011  0.0000  0.0000  0.0000  0.0000  0.0000 </r>
        <r>  0.0024  0.0018  0.0000  0.0001  0.0000  0.0000  0.0000  0.0000  0.0000 </r>
        <r>  0.0024  0.0018  0.0000  0.0001  0.0000  0.0000  0.0000  0.0000  0.0000 </r>
       </set>
       <set comment="band 21">
        <r>  0.0000  0.0000  0.0648  0.0000  0.0000  0.0000  0.0000  0.0000  0.0000 </r>
        <r>  0.0000  0.0000  0.0648  0.0000  0.0000  0.0000  0.0000  0.0000  0.0000 </r>
        <r>  0.0000  0.0000  0.0717  0.0000  0.0000  0.0000  0.0000  0.0000  0.0000 </r>
        <r>  0.0000  0.0000  0.0717  0.0000  0.0000  0.0000  0.0000  0.0000  0.0000 </r>
        <r>  0.0000  0.0000  0.0248  0.0000  0.0000  0.0000  0.0000  0.0000  0.0000 </r>
        <r>  0.0000  0.0000  0.0248  0.0000  0.0000  0.0000  0.0000  0.0000  0.0000 </r>
        <r>  0.0000  0.0000  0.0718  0.0000  0.0000  0.0000  0.0000  0.0000  0.0000 </r>
        <r>  0.0000  0.0000  0.0718  0.0000  0.0000  0.0000  0.0000  0.0000  0.0000 </r>
       </set>
       <set comment="band 22">
        <r>  0.0000  0.0000  0.0648  0.0000  0.0000  0.0000  0.0000  0.0000  0.0000 </r>
        <r>  0.0000  0.0000  0.0648  0.0000  0.0000  0.0000  0.0000  0.0000  0.0000 </r>
        <r>  0.0000  0.0000  0.0405  0.0000  0.0000  0.0000  0.0000  0.0000  0.0000 </r>
        <r>  0.0000  0.0000  0.0405  0.0000  0.0000  0.0000  0.0000  0.0000  0.0000 </r>
        <r>  0.0000  0.0000  0.0874  0.0000  0.0000  0.0000  0.0000  0.0000  0.0000 </r>
        <r>  0.0000  0.0000  0.0874  0.0000  0.0000  0.0000  0.0000  0.0000  0.0000 </r>
        <r>  0.0000  0.0000  0.0405  0.0000  0.0000  0.0000  0.0000  0.0000  0.0000 </r>
        <r>  0.0000  0.0000  0.0404  0.0000  0.0000  0.0000  0.0000  0.0000  0.0000 </r>
       </set>
       <set comment="band 23">
        <r>  0.0000  0.0000  0.0000  0.0000  0.0000  0.0000  0.0000  0.0000  0.0000 </r>
        <r>  0.0000  0.0000  0.0000  0.0000  0.0000  0.0000  0.0000  0.0000  0.0000 </r>
        <r>  0.0000  0.0000  0.0967  0.0000  0.0000  0.0000  0.0000  0.0000  0.0000 </r>
        <r>  0.0000  0.0000  0.0967  0.0000  0.0000  0.0000  0.0000  0.0000  0.0000 </r>
        <r>  0.0000  0.0000  0.0966  0.0000  0.0000  0.0000  0.0000  0.0000  0.0000 </r>
        <r>  0.0000  0.0000  0.0966  0.0000  0.0000  0.0000  0.0000  0.0000  0.0000 </r>
        <r>  0.0000  0.0000  0.0966  0.0000  0.0000  0.0000  0.0000  0.0000  0.0000 </r>
        <r>  0.0000  0.0000  0.0966  0.0000  0.0000  0.0000  0.0000  0.0000  0.0000 </r>
       </set>
       <set comment="band 24">
        <r>  0.0000  0.0000  0.0000  0.0000  0.0000  0.0000  0.0000  0.0000  0.0000 </r>
        <r>  0.0000  0.0000  0.0000  0.0000  0.0000  0.0000  0.0000  0.0000  0.0000 </r>
        <r>  0.0000  0.0000  0.0115  0.0000  0.0000  0.0000  0.0000  0.0000  0.0000 </r>
        <r>  0.0000  0.0000  0.0115  0.0000  0.0000  0.0000  0.0000  0.0000  0.0000 </r>
        <r>  0.0000  0.0000  0.0114  0.0000  0.0000  0.0000  0.0000  0.0000  0.0000 </r>
        <r>  0.0000  0.0000  0.0115  0.0000  0.0000  0.0000  0.0000  0.0000  0.0000 </r>
        <r>  0.0000  0.0000  0.0115  0.0000  0.0000  0.0000  0.0000  0.0000  0.0000 </r>
        <r>  0.0000  0.0000  0.0115  0.0000  0.0000  0.0000  0.0000  0.0000  0.0000 </r>
       </set>
      </set>
     </set>
    </set>
   </array>
  </projected>
 </calculation>
 <structure name="finalpos" >
  <crystal>
   <varray name="basis" >
    <v>       4.48084843       2.58701885       0.00000000 </v>
    <v>      -4.48084843       2.58701885       0.00000000 </v>
    <v>       0.00000000       0.00000000       8.52022140 </v>
   </varray>
   <i name="volume">    197.53348383 </i>
   <varray name="rec_basis" >
    <v>       0.11158601       0.19327265       0.00000000 </v>
    <v>      -0.11158601       0.19327265       0.00000000 </v>
    <v>       0.00000000       0.00000000       0.11736784 </v>
   </varray>
  </crystal>
  <varray name="positions" >
   <v>       0.33333300       0.66666600       0.25000000 </v>
   <v>       0.66666600       0.33333300       0.25000000 </v>
   <v>       0.15869124       0.31738348       0.25000000 </v>
   <v>       0.31738348       0.15869124       0.25000000 </v>
   <v>       0.15869124       0.84130776       0.25000000 </v>
   <v>       0.84130776       0.15869124       0.25000000 </v>
   <v>       0.68261552       0.84130776       0.25000000 </v>
   <v>       0.84130776       0.68261552       0.25000000 </v>
  </varray>
 </structure>
</modeling>
