   2   2   1   0
  0.2079688E+02  0.3889087E-09  0.3889087E-09  0.3889087E-09  0.5000000E-15
  1.000000000000000E-004
  CAR 
 cd Si                                   
     21.64012496     -7.58103031  301      5.77991965      1.00000000
     -7.581  0.0000E+00  0.0000E+00
     -7.484  0.0000E+00  0.0000E+00
     -7.386  0.0000E+00  0.0000E+00
     -7.289  0.0000E+00  0.0000E+00
     -7.191  0.0000E+00  0.0000E+00
     -7.094  0.0000E+00  0.0000E+00
     -6.997  0.0000E+00  0.0000E+00
     -6.899  0.0000E+00  0.0000E+00
     -6.802  0.1280E-16  0.1247E-17
     -6.704  0.3131E-12  0.3049E-13
     -6.607  0.1345E-08  0.1311E-09
     -6.510  0.1023E-05  0.9982E-07
     -6.412  0.1457E-03  0.1429E-04
     -6.315  0.4356E-02  0.4386E-03
     -6.217  0.3386E-01  0.3737E-02
     -6.120  0.9525E-01  0.1301E-01
     -6.023  0.1509E+00  0.2771E-01
     -5.925  0.1917E+00  0.4639E-01
     -5.828  0.2237E+00  0.6817E-01
     -5.730  0.2564E+00  0.9315E-01
     -5.633  0.2795E+00  0.1204E+00
     -5.536  0.3062E+00  0.1502E+00
     -5.438  0.3388E+00  0.1832E+00
     -5.341  0.3394E+00  0.2162E+00
     -5.243  0.3955E+00  0.2548E+00
     -5.146  0.3942E+00  0.2932E+00
     -5.049  0.4085E+00  0.3330E+00
     -4.951  0.4740E+00  0.3791E+00
     -4.854  0.4561E+00  0.4236E+00
     -4.756  0.4753E+00  0.4699E+00
     -4.659  0.5478E+00  0.5232E+00
     -4.562  0.5477E+00  0.5766E+00
     -4.464  0.5332E+00  0.6285E+00
     -4.367  0.6322E+00  0.6901E+00
     -4.269  0.6778E+00  0.7561E+00
     -4.172  0.6337E+00  0.8178E+00
     -4.074  0.7628E+00  0.8921E+00
     -3.977  0.9206E+00  0.9818E+00
     -3.880  0.8424E+00  0.1064E+01
     -3.782  0.8429E+00  0.1146E+01
     -3.685  0.9105E+00  0.1235E+01
     -3.587  0.7683E+00  0.1309E+01
     -3.490  0.7432E+00  0.1382E+01
     -3.393  0.7635E+00  0.1456E+01
     -3.295  0.6993E+00  0.1524E+01
     -3.198  0.6211E+00  0.1585E+01
     -3.100  0.6616E+00  0.1649E+01
     -3.003  0.5819E+00  0.1706E+01
     -2.906  0.4940E+00  0.1754E+01
     -2.808  0.5775E+00  0.1810E+01
     -2.711  0.4393E+00  0.1853E+01
     -2.613  0.3578E+00  0.1888E+01
     -2.516  0.4449E+00  0.1931E+01
     -2.419  0.2987E+00  0.1960E+01
     -2.321  0.1742E+00  0.1977E+01
     -2.224  0.1877E+00  0.1996E+01
     -2.126  0.1268E+00  0.2008E+01
     -2.029  0.9064E-01  0.2017E+01
     -1.932  0.1504E+00  0.2032E+01
     -1.834  0.3142E+00  0.2062E+01
     -1.737  0.3445E+00  0.2096E+01
     -1.639  0.3047E+00  0.2125E+01
     -1.542  0.4524E+00  0.2169E+01
     -1.445  0.6282E+00  0.2231E+01
     -1.347  0.6012E+00  0.2289E+01
     -1.250  0.1082E+01  0.2395E+01
     -1.152  0.1521E+01  0.2543E+01
     -1.055  0.1259E+01  0.2665E+01
     -0.958  0.9727E+00  0.2760E+01
     -0.860  0.8480E+00  0.2843E+01
     -0.763  0.7534E+00  0.2916E+01
     -0.665  0.6857E+00  0.2983E+01
     -0.568  0.6353E+00  0.3045E+01
     -0.471  0.5372E+00  0.3097E+01
     -0.373  0.5686E+00  0.3152E+01
     -0.276  0.5026E+00  0.3201E+01
     -0.178  0.4762E+00  0.3248E+01
     -0.081  0.4446E+00  0.3291E+01
      0.016  0.3915E+00  0.3329E+01
      0.114  0.4174E+00  0.3370E+01
      0.211  0.3849E+00  0.3407E+01
      0.309  0.3634E+00  0.3443E+01
      0.406  0.2854E+00  0.3471E+01
      0.503  0.3545E+00  0.3505E+01
      0.601  0.2850E+00  0.3533E+01
      0.698  0.2910E+00  0.3561E+01
      0.796  0.3144E+00  0.3592E+01
      0.893  0.1979E+00  0.3611E+01
      0.991  0.2348E+00  0.3634E+01
      1.088  0.2596E+00  0.3659E+01
      1.185  0.2769E+00  0.3686E+01
      1.283  0.4422E+00  0.3729E+01
      1.380  0.6728E+00  0.3795E+01
      1.478  0.1004E+01  0.3893E+01
      1.575  0.1207E+01  0.4010E+01
      1.672  0.1198E+01  0.4127E+01
      1.770  0.1207E+01  0.4244E+01
      1.867  0.1036E+01  0.4345E+01
      1.965  0.9875E+00  0.4442E+01
      2.062  0.1123E+01  0.4551E+01
      2.159  0.1040E+01  0.4652E+01
      2.257  0.1148E+01  0.4764E+01
      2.354  0.1188E+01  0.4880E+01
      2.452  0.1078E+01  0.4985E+01
      2.549  0.1238E+01  0.5105E+01
      2.646  0.1387E+01  0.5240E+01
      2.744  0.1456E+01  0.5382E+01
      2.841  0.1589E+01  0.5537E+01
      2.939  0.1625E+01  0.5695E+01
      3.036  0.1390E+01  0.5831E+01
      3.133  0.1356E+01  0.5963E+01
      3.231  0.1671E+01  0.6125E+01
      3.328  0.1422E+01  0.6264E+01
      3.426  0.1273E+01  0.6388E+01
      3.523  0.1417E+01  0.6526E+01
      3.620  0.1324E+01  0.6655E+01
      3.718  0.1355E+01  0.6787E+01
      3.815  0.1300E+01  0.6914E+01
      3.913  0.1191E+01  0.7030E+01
      4.010  0.1221E+01  0.7148E+01
      4.107  0.1282E+01  0.7273E+01
      4.205  0.1195E+01  0.7390E+01
      4.302  0.1063E+01  0.7493E+01
      4.400  0.9284E+00  0.7584E+01
      4.497  0.7642E+00  0.7658E+01
      4.594  0.6753E+00  0.7724E+01
      4.692  0.5622E+00  0.7779E+01
      4.789  0.5186E+00  0.7829E+01
      4.887  0.4197E+00  0.7870E+01
      4.984  0.3460E+00  0.7904E+01
      5.081  0.2854E+00  0.7932E+01
      5.179  0.2753E+00  0.7958E+01
      5.276  0.2139E+00  0.7979E+01
      5.374  0.1281E+00  0.7992E+01
      5.471  0.6547E-01  0.7998E+01
      5.568  0.1777E-01  0.8000E+01
      5.666  0.1431E-02  0.8000E+01
      5.763  0.2538E-04  0.8000E+01
      5.861  0.4167E-05  0.8000E+01
      5.958  0.3454E-03  0.8000E+01
      6.056  0.6543E-02  0.8001E+01
      6.153  0.4150E-01  0.8005E+01
      6.250  0.1214E+00  0.8017E+01
      6.348  0.2132E+00  0.8037E+01
      6.445  0.2950E+00  0.8066E+01
      6.543  0.3917E+00  0.8104E+01
      6.640  0.4666E+00  0.8150E+01
      6.737  0.4623E+00  0.8195E+01
      6.835  0.4899E+00  0.8242E+01
      6.932  0.6169E+00  0.8302E+01
      7.030  0.7474E+00  0.8375E+01
      7.127  0.8995E+00  0.8463E+01
      7.224  0.8875E+00  0.8549E+01
      7.322  0.1013E+01  0.8648E+01
      7.419  0.1113E+01  0.8756E+01
      7.517  0.1163E+01  0.8870E+01
      7.614  0.1390E+01  0.9005E+01
      7.711  0.1709E+01  0.9172E+01
      7.809  0.1773E+01  0.9344E+01
      7.906  0.1540E+01  0.9494E+01
      8.004  0.1425E+01  0.9633E+01
      8.101  0.1359E+01  0.9765E+01
      8.198  0.1281E+01  0.9890E+01
      8.296  0.1080E+01  0.9995E+01
      8.393  0.9390E+00  0.1009E+02
      8.491  0.1125E+01  0.1020E+02
      8.588  0.1171E+01  0.1031E+02
      8.685  0.1457E+01  0.1045E+02
      8.783  0.2131E+01  0.1066E+02
      8.880  0.2331E+01  0.1089E+02
      8.978  0.1953E+01  0.1108E+02
      9.075  0.1555E+01  0.1123E+02
      9.172  0.1612E+01  0.1139E+02
      9.270  0.1682E+01  0.1155E+02
      9.367  0.1539E+01  0.1170E+02
      9.465  0.1362E+01  0.1183E+02
      9.562  0.1328E+01  0.1196E+02
      9.659  0.1473E+01  0.1210E+02
      9.757  0.1177E+01  0.1222E+02
      9.854  0.1073E+01  0.1232E+02
      9.952  0.1277E+01  0.1245E+02
     10.049  0.1264E+01  0.1257E+02
     10.146  0.1349E+01  0.1270E+02
     10.244  0.1416E+01  0.1284E+02
     10.341  0.1525E+01  0.1299E+02
     10.439  0.1237E+01  0.1311E+02
     10.536  0.1087E+01  0.1322E+02
     10.633  0.1224E+01  0.1334E+02
     10.731  0.1185E+01  0.1345E+02
     10.828  0.1149E+01  0.1356E+02
     10.926  0.1177E+01  0.1368E+02
     11.023  0.1172E+01  0.1379E+02
     11.121  0.1269E+01  0.1392E+02
     11.218  0.1271E+01  0.1404E+02
     11.315  0.1012E+01  0.1414E+02
     11.413  0.8188E+00  0.1422E+02
     11.510  0.8780E+00  0.1430E+02
     11.608  0.9212E+00  0.1439E+02
     11.705  0.1074E+01  0.1450E+02
     11.802  0.1147E+01  0.1461E+02
     11.900  0.1225E+01  0.1473E+02
     11.997  0.1496E+01  0.1487E+02
     12.095  0.1419E+01  0.1501E+02
     12.192  0.1072E+01  0.1512E+02
     12.289  0.9782E+00  0.1521E+02
     12.387  0.8564E+00  0.1530E+02
     12.484  0.9298E+00  0.1539E+02
     12.582  0.1262E+01  0.1551E+02
     12.679  0.1415E+01  0.1565E+02
     12.776  0.1408E+01  0.1578E+02
     12.874  0.1447E+01  0.1592E+02
     12.971  0.1344E+01  0.1606E+02
     13.069  0.1061E+01  0.1616E+02
     13.166  0.1132E+01  0.1627E+02
     13.263  0.1144E+01  0.1638E+02
     13.361  0.1021E+01  0.1648E+02
     13.458  0.1155E+01  0.1659E+02
     13.556  0.1378E+01  0.1673E+02
     13.653  0.1456E+01  0.1687E+02
     13.750  0.1568E+01  0.1702E+02
     13.848  0.1443E+01  0.1716E+02
     13.945  0.1092E+01  0.1727E+02
     14.043  0.9303E+00  0.1736E+02
     14.140  0.9749E+00  0.1745E+02
     14.237  0.1037E+01  0.1755E+02
     14.335  0.1118E+01  0.1766E+02
     14.432  0.1466E+01  0.1781E+02
     14.530  0.1689E+01  0.1797E+02
     14.627  0.1743E+01  0.1814E+02
     14.724  0.1609E+01  0.1830E+02
     14.822  0.1356E+01  0.1843E+02
     14.919  0.1254E+01  0.1855E+02
     15.017  0.1304E+01  0.1868E+02
     15.114  0.1181E+01  0.1879E+02
     15.211  0.1016E+01  0.1889E+02
     15.309  0.1140E+01  0.1900E+02
     15.406  0.1575E+01  0.1916E+02
     15.504  0.1621E+01  0.1932E+02
     15.601  0.1512E+01  0.1946E+02
     15.698  0.1337E+01  0.1959E+02
     15.796  0.1075E+01  0.1970E+02
     15.893  0.1165E+01  0.1981E+02
     15.991  0.1177E+01  0.1993E+02
     16.088  0.9859E+00  0.2002E+02
     16.186  0.1040E+01  0.2012E+02
     16.283  0.1143E+01  0.2023E+02
     16.380  0.1383E+01  0.2037E+02
     16.478  0.1710E+01  0.2054E+02
     16.575  0.1742E+01  0.2070E+02
     16.673  0.1417E+01  0.2084E+02
     16.770  0.1113E+01  0.2095E+02
     16.867  0.9980E+00  0.2105E+02
     16.965  0.1023E+01  0.2115E+02
     17.062  0.9286E+00  0.2124E+02
     17.160  0.1033E+01  0.2134E+02
     17.257  0.1320E+01  0.2147E+02
     17.354  0.1426E+01  0.2161E+02
     17.452  0.1469E+01  0.2175E+02
     17.549  0.1605E+01  0.2191E+02
     17.647  0.1657E+01  0.2207E+02
     17.744  0.1773E+01  0.2224E+02
     17.841  0.1501E+01  0.2239E+02
     17.939  0.1137E+01  0.2250E+02
     18.036  0.9520E+00  0.2259E+02
     18.134  0.1058E+01  0.2269E+02
     18.231  0.1133E+01  0.2280E+02
     18.328  0.9595E+00  0.2290E+02
     18.426  0.1053E+01  0.2300E+02
     18.523  0.1137E+01  0.2311E+02
     18.621  0.1103E+01  0.2322E+02
     18.718  0.9808E+00  0.2331E+02
     18.815  0.8448E+00  0.2340E+02
     18.913  0.7203E+00  0.2347E+02
     19.010  0.6141E+00  0.2353E+02
     19.108  0.4792E+00  0.2357E+02
     19.205  0.4206E+00  0.2361E+02
     19.302  0.5773E+00  0.2367E+02
     19.400  0.6118E+00  0.2373E+02
     19.497  0.5543E+00  0.2378E+02
     19.595  0.5955E+00  0.2384E+02
     19.692  0.5010E+00  0.2389E+02
     19.789  0.3238E+00  0.2392E+02
     19.887  0.2804E+00  0.2395E+02
     19.984  0.1680E+00  0.2396E+02
     20.082  0.1395E+00  0.2398E+02
     20.179  0.1191E+00  0.2399E+02
     20.276  0.5932E-01  0.2400E+02
     20.374  0.3149E-01  0.2400E+02
     20.471  0.9598E-02  0.2400E+02
     20.569  0.6366E-03  0.2400E+02
     20.666  0.7480E-05  0.2400E+02
     20.763  0.1455E-07  0.2400E+02
     20.861  0.4513E-11  0.2400E+02
     20.958  0.2186E-15  0.2400E+02
     21.056  0.0000E+00  0.2400E+02
     21.153  0.0000E+00  0.2400E+02
     21.251  0.0000E+00  0.2400E+02
     21.348  0.0000E+00  0.2400E+02
     21.445  0.0000E+00  0.2400E+02
     21.543  0.0000E+00  0.2400E+02
     21.640  0.0000E+00  0.2400E+02
     21.64012496     -7.58103031  301      5.77991965      1.00000000
     -7.581  0.0000E+00  0.0000E+00  0.0000E+00  0.0000E+00  0.0000E+00  0.0000E+00  0.0000E+00  0.0000E+00  0.0000E+00
     -7.484  0.0000E+00  0.0000E+00  0.0000E+00  0.0000E+00  0.0000E+00  0.0000E+00  0.0000E+00  0.0000E+00  0.0000E+00
     -7.386  0.0000E+00  0.0000E+00  0.0000E+00  0.0000E+00  0.0000E+00  0.0000E+00  0.0000E+00  0.0000E+00  0.0000E+00
     -7.289  0.0000E+00  0.0000E+00  0.0000E+00  0.0000E+00  0.0000E+00  0.0000E+00  0.0000E+00  0.0000E+00  0.0000E+00
     -7.191  0.0000E+00  0.0000E+00  0.0000E+00  0.0000E+00  0.0000E+00  0.0000E+00  0.0000E+00  0.0000E+00  0.0000E+00
     -7.094  0.0000E+00  0.0000E+00  0.0000E+00  0.0000E+00  0.0000E+00  0.0000E+00  0.0000E+00  0.0000E+00  0.0000E+00
     -6.997  0.0000E+00  0.0000E+00  0.0000E+00  0.0000E+00  0.0000E+00  0.0000E+00  0.0000E+00  0.0000E+00  0.0000E+00
     -6.899  0.0000E+00  0.0000E+00  0.0000E+00  0.0000E+00  0.0000E+00  0.0000E+00  0.0000E+00  0.0000E+00  0.0000E+00
     -6.802  0.2717E-17  0.3080E-21  0.6168E-21  0.3080E-21  0.0000E+00  0.0000E+00  0.0000E+00  0.0000E+00  0.0000E+00
     -6.704  0.6644E-13  0.1046E-16  0.2173E-16  0.1046E-16  0.0000E+00  0.0000E+00  0.0000E+00  0.0000E+00  0.0000E+00
     -6.607  0.2855E-09  0.6222E-13  0.1359E-12  0.6222E-13  0.0000E+00  0.0000E+00  0.0000E+00  0.0000E+00  0.0000E+00
     -6.510  0.2172E-06  0.6382E-10  0.1399E-09  0.6381E-10  0.0000E+00  0.0000E+00  0.0000E+00  0.0000E+00  0.0000E+00
     -6.412  0.3091E-04  0.1261E-07  0.2629E-07  0.1260E-07  0.0000E+00  0.0000E+00  0.0000E+00  0.0000E+00  0.0000E+00
     -6.315  0.9240E-03  0.5544E-06  0.1121E-05  0.5509E-06  0.0000E+00  0.0000E+00  0.0000E+00  0.0000E+00  0.0000E+00
     -6.217  0.7178E-02  0.6616E-05  0.1420E-04  0.6333E-05  0.0000E+00  0.0000E+00  0.0000E+00  0.0000E+00  0.0000E+00
     -6.120  0.2017E-01  0.3058E-04  0.6985E-04  0.2642E-04  0.0000E+00  0.0000E+00  0.0000E+00  0.0000E+00  0.0000E+00
     -6.023  0.3189E-01  0.7538E-04  0.1871E-03  0.5890E-04  0.0000E+00  0.0000E+00  0.0000E+00  0.0000E+00  0.0000E+00
     -5.925  0.4045E-01  0.1406E-03  0.3533E-03  0.9992E-04  0.0000E+00  0.0000E+00  0.0000E+00  0.0000E+00  0.0000E+00
     -5.828  0.4710E-01  0.2060E-03  0.5317E-03  0.1677E-03  0.0000E+00  0.0000E+00  0.0000E+00  0.0000E+00  0.0000E+00
     -5.730  0.5388E-01  0.3059E-03  0.7130E-03  0.2833E-03  0.0000E+00  0.0000E+00  0.0000E+00  0.0000E+00  0.0000E+00
     -5.633  0.5864E-01  0.3741E-03  0.9629E-03  0.3356E-03  0.0000E+00  0.0000E+00  0.0000E+00  0.0000E+00  0.0000E+00
     -5.536  0.6415E-01  0.4932E-03  0.1140E-02  0.5207E-03  0.0000E+00  0.0000E+00  0.0000E+00  0.0000E+00  0.0000E+00
     -5.438  0.7087E-01  0.6061E-03  0.1534E-02  0.5385E-03  0.0000E+00  0.0000E+00  0.0000E+00  0.0000E+00  0.0000E+00
     -5.341  0.7091E-01  0.6569E-03  0.1729E-02  0.6345E-03  0.0000E+00  0.0000E+00  0.0000E+00  0.0000E+00  0.0000E+00
     -5.243  0.8256E-01  0.8892E-03  0.2062E-02  0.9406E-03  0.0000E+00  0.0000E+00  0.0000E+00  0.0000E+00  0.0000E+00
     -5.146  0.8221E-01  0.8976E-03  0.2554E-02  0.7432E-03  0.0000E+00  0.0000E+00  0.0000E+00  0.0000E+00  0.0000E+00
     -5.049  0.8513E-01  0.1028E-02  0.2658E-02  0.1082E-02  0.0000E+00  0.0000E+00  0.0000E+00  0.0000E+00  0.0000E+00
     -4.951  0.9876E-01  0.1323E-02  0.2965E-02  0.1615E-02  0.0000E+00  0.0000E+00  0.0000E+00  0.0000E+00  0.0000E+00
     -4.854  0.9498E-01  0.1235E-02  0.3652E-02  0.1170E-02  0.0000E+00  0.0000E+00  0.0000E+00  0.0000E+00  0.0000E+00
     -4.756  0.9897E-01  0.1410E-02  0.3881E-02  0.1457E-02  0.0000E+00  0.0000E+00  0.0000E+00  0.0000E+00  0.0000E+00
     -4.659  0.1141E+00  0.1812E-02  0.4004E-02  0.2377E-02  0.0000E+00  0.0000E+00  0.0000E+00  0.0000E+00  0.0000E+00
     -4.562  0.1141E+00  0.1688E-02  0.5013E-02  0.1882E-02  0.0000E+00  0.0000E+00  0.0000E+00  0.0000E+00  0.0000E+00
     -4.464  0.1113E+00  0.1732E-02  0.5353E-02  0.1683E-02  0.0000E+00  0.0000E+00  0.0000E+00  0.0000E+00  0.0000E+00
     -4.367  0.1321E+00  0.2317E-02  0.5576E-02  0.2996E-02  0.0000E+00  0.0000E+00  0.0000E+00  0.0000E+00  0.0000E+00
     -4.269  0.1419E+00  0.2381E-02  0.6519E-02  0.3106E-02  0.0000E+00  0.0000E+00  0.0000E+00  0.0000E+00  0.0000E+00
     -4.172  0.1333E+00  0.2147E-02  0.7156E-02  0.2216E-02  0.0000E+00  0.0000E+00  0.0000E+00  0.0000E+00  0.0000E+00
     -4.074  0.1610E+00  0.2859E-02  0.8021E-02  0.3462E-02  0.0000E+00  0.0000E+00  0.0000E+00  0.0000E+00  0.0000E+00
     -3.977  0.1955E+00  0.3569E-02  0.8681E-02  0.5133E-02  0.0000E+00  0.0000E+00  0.0000E+00  0.0000E+00  0.0000E+00
     -3.880  0.1795E+00  0.2926E-02  0.9295E-02  0.4052E-02  0.0000E+00  0.0000E+00  0.0000E+00  0.0000E+00  0.0000E+00
     -3.782  0.1793E+00  0.2940E-02  0.1043E-01  0.3956E-02  0.0000E+00  0.0000E+00  0.0000E+00  0.0000E+00  0.0000E+00
     -3.685  0.1934E+00  0.3357E-02  0.1078E-01  0.5410E-02  0.0000E+00  0.0000E+00  0.0000E+00  0.0000E+00  0.0000E+00
     -3.587  0.1629E+00  0.2472E-02  0.1008E-01  0.4759E-02  0.0000E+00  0.0000E+00  0.0000E+00  0.0000E+00  0.0000E+00
     -3.490  0.1572E+00  0.2194E-02  0.1132E-01  0.4163E-02  0.0000E+00  0.0000E+00  0.0000E+00  0.0000E+00  0.0000E+00
     -3.393  0.1613E+00  0.2403E-02  0.1196E-01  0.4574E-02  0.0000E+00  0.0000E+00  0.0000E+00  0.0000E+00  0.0000E+00
     -3.295  0.1477E+00  0.2019E-02  0.1116E-01  0.4758E-02  0.0000E+00  0.0000E+00  0.0000E+00  0.0000E+00  0.0000E+00
     -3.198  0.1305E+00  0.1517E-02  0.1124E-01  0.4096E-02  0.0000E+00  0.0000E+00  0.0000E+00  0.0000E+00  0.0000E+00
     -3.100  0.1388E+00  0.1599E-02  0.1293E-01  0.4173E-02  0.0000E+00  0.0000E+00  0.0000E+00  0.0000E+00  0.0000E+00
     -3.003  0.1223E+00  0.1354E-02  0.1137E-01  0.4024E-02  0.0000E+00  0.0000E+00  0.0000E+00  0.0000E+00  0.0000E+00
     -2.906  0.1031E+00  0.9446E-03  0.1072E-01  0.3437E-02  0.0000E+00  0.0000E+00  0.0000E+00  0.0000E+00  0.0000E+00
     -2.808  0.1201E+00  0.9604E-03  0.1355E-01  0.3859E-02  0.0000E+00  0.0000E+00  0.0000E+00  0.0000E+00  0.0000E+00
     -2.711  0.9153E-01  0.6797E-03  0.1023E-01  0.3267E-02  0.0000E+00  0.0000E+00  0.0000E+00  0.0000E+00  0.0000E+00
     -2.613  0.7417E-01  0.4557E-03  0.9087E-02  0.2637E-02  0.0000E+00  0.0000E+00  0.0000E+00  0.0000E+00  0.0000E+00
     -2.516  0.9139E-01  0.3968E-03  0.1251E-01  0.2958E-02  0.0000E+00  0.0000E+00  0.0000E+00  0.0000E+00  0.0000E+00
     -2.419  0.6125E-01  0.2073E-03  0.8696E-02  0.1949E-02  0.0000E+00  0.0000E+00  0.0000E+00  0.0000E+00  0.0000E+00
     -2.321  0.3563E-01  0.8083E-04  0.5207E-02  0.1311E-02  0.0000E+00  0.0000E+00  0.0000E+00  0.0000E+00  0.0000E+00
     -2.224  0.3793E-01  0.3987E-04  0.6189E-02  0.1248E-02  0.0000E+00  0.0000E+00  0.0000E+00  0.0000E+00  0.0000E+00
     -2.126  0.2516E-01  0.3264E-04  0.4728E-02  0.5620E-03  0.0000E+00  0.0000E+00  0.0000E+00  0.0000E+00  0.0000E+00
     -2.029  0.1773E-01  0.5422E-04  0.3520E-02  0.4598E-03  0.0000E+00  0.0000E+00  0.0000E+00  0.0000E+00  0.0000E+00
     -1.932  0.2947E-01  0.1009E-03  0.5643E-02  0.1139E-02  0.0000E+00  0.0000E+00  0.0000E+00  0.0000E+00  0.0000E+00
     -1.834  0.6143E-01  0.2395E-03  0.1210E-01  0.2303E-02  0.0000E+00  0.0000E+00  0.0000E+00  0.0000E+00  0.0000E+00
     -1.737  0.6686E-01  0.4794E-03  0.1316E-01  0.2831E-02  0.0000E+00  0.0000E+00  0.0000E+00  0.0000E+00  0.0000E+00
     -1.639  0.5863E-01  0.6503E-03  0.1093E-01  0.3568E-02  0.0000E+00  0.0000E+00  0.0000E+00  0.0000E+00  0.0000E+00
     -1.542  0.8649E-01  0.1081E-02  0.1696E-01  0.5212E-02  0.0000E+00  0.0000E+00  0.0000E+00  0.0000E+00  0.0000E+00
     -1.445  0.1181E+00  0.2198E-02  0.2418E-01  0.7141E-02  0.0000E+00  0.0000E+00  0.0000E+00  0.0000E+00  0.0000E+00
     -1.347  0.1050E+00  0.4851E-02  0.2099E-01  0.1031E-01  0.0000E+00  0.0000E+00  0.0000E+00  0.0000E+00  0.0000E+00
     -1.250  0.1709E+00  0.1473E-01  0.3670E-01  0.2246E-01  0.0000E+00  0.0000E+00  0.0000E+00  0.0000E+00  0.0000E+00
     -1.152  0.2321E+00  0.2344E-01  0.5223E-01  0.3253E-01  0.0000E+00  0.0000E+00  0.0000E+00  0.0000E+00  0.0000E+00
     -1.055  0.1895E+00  0.2040E-01  0.4292E-01  0.2814E-01  0.0000E+00  0.0000E+00  0.0000E+00  0.0000E+00  0.0000E+00
     -0.958  0.1474E+00  0.1585E-01  0.3316E-01  0.2217E-01  0.0000E+00  0.0000E+00  0.0000E+00  0.0000E+00  0.0000E+00
     -0.860  0.1304E+00  0.1326E-01  0.2977E-01  0.1899E-01  0.0000E+00  0.0000E+00  0.0000E+00  0.0000E+00  0.0000E+00
     -0.763  0.1165E+00  0.1141E-01  0.2757E-01  0.1642E-01  0.0000E+00  0.0000E+00  0.0000E+00  0.0000E+00  0.0000E+00
     -0.665  0.1054E+00  0.1082E-01  0.2509E-01  0.1544E-01  0.0000E+00  0.0000E+00  0.0000E+00  0.0000E+00  0.0000E+00
     -0.568  0.9686E-01  0.1063E-01  0.2316E-01  0.1464E-01  0.0000E+00  0.0000E+00  0.0000E+00  0.0000E+00  0.0000E+00
     -0.471  0.8162E-01  0.8932E-02  0.2037E-01  0.1221E-01  0.0000E+00  0.0000E+00  0.0000E+00  0.0000E+00  0.0000E+00
     -0.373  0.8696E-01  0.9112E-02  0.2209E-01  0.1304E-01  0.0000E+00  0.0000E+00  0.0000E+00  0.0000E+00  0.0000E+00
     -0.276  0.7618E-01  0.8484E-02  0.1919E-01  0.1207E-01  0.0000E+00  0.0000E+00  0.0000E+00  0.0000E+00  0.0000E+00
     -0.178  0.7104E-01  0.8696E-02  0.1806E-01  0.1191E-01  0.0000E+00  0.0000E+00  0.0000E+00  0.0000E+00  0.0000E+00
     -0.081  0.6648E-01  0.7987E-02  0.1784E-01  0.1050E-01  0.0000E+00  0.0000E+00  0.0000E+00  0.0000E+00  0.0000E+00
      0.016  0.5840E-01  0.6869E-02  0.1657E-01  0.9001E-02  0.0000E+00  0.0000E+00  0.0000E+00  0.0000E+00  0.0000E+00
      0.114  0.6122E-01  0.7819E-02  0.1708E-01  0.1044E-01  0.0000E+00  0.0000E+00  0.0000E+00  0.0000E+00  0.0000E+00
      0.211  0.5707E-01  0.7193E-02  0.1574E-01  0.9817E-02  0.0000E+00  0.0000E+00  0.0000E+00  0.0000E+00  0.0000E+00
      0.309  0.5183E-01  0.7621E-02  0.1469E-01  0.9664E-02  0.0000E+00  0.0000E+00  0.0000E+00  0.0000E+00  0.0000E+00
      0.406  0.4182E-01  0.5270E-02  0.1296E-01  0.6718E-02  0.0000E+00  0.0000E+00  0.0000E+00  0.0000E+00  0.0000E+00
      0.503  0.5083E-01  0.7070E-02  0.1586E-01  0.8826E-02  0.0000E+00  0.0000E+00  0.0000E+00  0.0000E+00  0.0000E+00
      0.601  0.3991E-01  0.6273E-02  0.1180E-01  0.8051E-02  0.0000E+00  0.0000E+00  0.0000E+00  0.0000E+00  0.0000E+00
      0.698  0.4138E-01  0.6185E-02  0.1244E-01  0.8174E-02  0.0000E+00  0.0000E+00  0.0000E+00  0.0000E+00  0.0000E+00
      0.796  0.4362E-01  0.6931E-02  0.1424E-01  0.8345E-02  0.0000E+00  0.0000E+00  0.0000E+00  0.0000E+00  0.0000E+00
      0.893  0.2796E-01  0.3959E-02  0.9869E-02  0.4705E-02  0.0000E+00  0.0000E+00  0.0000E+00  0.0000E+00  0.0000E+00
      0.991  0.3146E-01  0.5598E-02  0.1085E-01  0.6546E-02  0.0000E+00  0.0000E+00  0.0000E+00  0.0000E+00  0.0000E+00
      1.088  0.3471E-01  0.6218E-02  0.1201E-01  0.7397E-02  0.0000E+00  0.0000E+00  0.0000E+00  0.0000E+00  0.0000E+00
      1.185  0.3272E-01  0.7413E-02  0.1326E-01  0.8689E-02  0.0000E+00  0.0000E+00  0.0000E+00  0.0000E+00  0.0000E+00
      1.283  0.3011E-01  0.1690E-01  0.2244E-01  0.1667E-01  0.0000E+00  0.0000E+00  0.0000E+00  0.0000E+00  0.0000E+00
      1.380  0.2316E-01  0.3068E-01  0.3685E-01  0.2740E-01  0.0000E+00  0.0000E+00  0.0000E+00  0.0000E+00  0.0000E+00
      1.478  0.2944E-01  0.4801E-01  0.5425E-01  0.4258E-01  0.0000E+00  0.0000E+00  0.0000E+00  0.0000E+00  0.0000E+00
      1.575  0.3121E-01  0.5975E-01  0.6220E-01  0.5507E-01  0.0000E+00  0.0000E+00  0.0000E+00  0.0000E+00  0.0000E+00
      1.672  0.3407E-01  0.5908E-01  0.6019E-01  0.5685E-01  0.0000E+00  0.0000E+00  0.0000E+00  0.0000E+00  0.0000E+00
      1.770  0.3707E-01  0.5862E-01  0.5984E-01  0.5940E-01  0.0000E+00  0.0000E+00  0.0000E+00  0.0000E+00  0.0000E+00
      1.867  0.2992E-01  0.4997E-01  0.5123E-01  0.5320E-01  0.0000E+00  0.0000E+00  0.0000E+00  0.0000E+00  0.0000E+00
      1.965  0.2435E-01  0.4944E-01  0.4716E-01  0.5427E-01  0.0000E+00  0.0000E+00  0.0000E+00  0.0000E+00  0.0000E+00
      2.062  0.3176E-01  0.5756E-01  0.5127E-01  0.6266E-01  0.0000E+00  0.0000E+00  0.0000E+00  0.0000E+00  0.0000E+00
      2.159  0.3266E-01  0.5181E-01  0.5016E-01  0.5667E-01  0.0000E+00  0.0000E+00  0.0000E+00  0.0000E+00  0.0000E+00
      2.257  0.3251E-01  0.5870E-01  0.5510E-01  0.6477E-01  0.0000E+00  0.0000E+00  0.0000E+00  0.0000E+00  0.0000E+00
      2.354  0.2992E-01  0.6709E-01  0.4980E-01  0.7232E-01  0.0000E+00  0.0000E+00  0.0000E+00  0.0000E+00  0.0000E+00
      2.452  0.2439E-01  0.6349E-01  0.4568E-01  0.6596E-01  0.0000E+00  0.0000E+00  0.0000E+00  0.0000E+00  0.0000E+00
      2.549  0.2505E-01  0.7476E-01  0.5465E-01  0.7514E-01  0.0000E+00  0.0000E+00  0.0000E+00  0.0000E+00  0.0000E+00
      2.646  0.2470E-01  0.9029E-01  0.5129E-01  0.9334E-01  0.0000E+00  0.0000E+00  0.0000E+00  0.0000E+00  0.0000E+00
      2.744  0.2659E-01  0.9798E-01  0.4861E-01  0.1042E+00  0.0000E+00  0.0000E+00  0.0000E+00  0.0000E+00  0.0000E+00
      2.841  0.2811E-01  0.1115E+00  0.5394E-01  0.1115E+00  0.0000E+00  0.0000E+00  0.0000E+00  0.0000E+00  0.0000E+00
      2.939  0.2359E-01  0.1209E+00  0.4774E-01  0.1192E+00  0.0000E+00  0.0000E+00  0.0000E+00  0.0000E+00  0.0000E+00
      3.036  0.1668E-01  0.1074E+00  0.3749E-01  0.1059E+00  0.0000E+00  0.0000E+00  0.0000E+00  0.0000E+00  0.0000E+00
      3.133  0.1730E-01  0.1016E+00  0.4766E-01  0.9656E-01  0.0000E+00  0.0000E+00  0.0000E+00  0.0000E+00  0.0000E+00
      3.231  0.2335E-01  0.1236E+00  0.6181E-01  0.1176E+00  0.0000E+00  0.0000E+00  0.0000E+00  0.0000E+00  0.0000E+00
      3.328  0.1797E-01  0.1088E+00  0.4746E-01  0.1044E+00  0.0000E+00  0.0000E+00  0.0000E+00  0.0000E+00  0.0000E+00
      3.426  0.1557E-01  0.1036E+00  0.4155E-01  0.9144E-01  0.0000E+00  0.0000E+00  0.0000E+00  0.0000E+00  0.0000E+00
      3.523  0.1841E-01  0.1177E+00  0.5019E-01  0.9698E-01  0.0000E+00  0.0000E+00  0.0000E+00  0.0000E+00  0.0000E+00
      3.620  0.1355E-01  0.1092E+00  0.4566E-01  0.9594E-01  0.0000E+00  0.0000E+00  0.0000E+00  0.0000E+00  0.0000E+00
      3.718  0.1249E-01  0.1102E+00  0.4805E-01  0.1013E+00  0.0000E+00  0.0000E+00  0.0000E+00  0.0000E+00  0.0000E+00
      3.815  0.1236E-01  0.1108E+00  0.4403E-01  0.9669E-01  0.0000E+00  0.0000E+00  0.0000E+00  0.0000E+00  0.0000E+00
      3.913  0.1053E-01  0.1065E+00  0.3713E-01  0.8907E-01  0.0000E+00  0.0000E+00  0.0000E+00  0.0000E+00  0.0000E+00
      4.010  0.1015E-01  0.1114E+00  0.4241E-01  0.8728E-01  0.0000E+00  0.0000E+00  0.0000E+00  0.0000E+00  0.0000E+00
      4.107  0.1070E-01  0.1141E+00  0.5190E-01  0.8899E-01  0.0000E+00  0.0000E+00  0.0000E+00  0.0000E+00  0.0000E+00
      4.205  0.9216E-02  0.1118E+00  0.4796E-01  0.8090E-01  0.0000E+00  0.0000E+00  0.0000E+00  0.0000E+00  0.0000E+00
      4.302  0.6043E-02  0.1024E+00  0.3976E-01  0.7506E-01  0.0000E+00  0.0000E+00  0.0000E+00  0.0000E+00  0.0000E+00
      4.400  0.4722E-02  0.8728E-01  0.3538E-01  0.6781E-01  0.0000E+00  0.0000E+00  0.0000E+00  0.0000E+00  0.0000E+00
      4.497  0.4320E-02  0.6960E-01  0.3268E-01  0.5444E-01  0.0000E+00  0.0000E+00  0.0000E+00  0.0000E+00  0.0000E+00
      4.594  0.4941E-02  0.6140E-01  0.2992E-01  0.4690E-01  0.0000E+00  0.0000E+00  0.0000E+00  0.0000E+00  0.0000E+00
      4.692  0.4517E-02  0.5247E-01  0.2616E-01  0.3681E-01  0.0000E+00  0.0000E+00  0.0000E+00  0.0000E+00  0.0000E+00
      4.789  0.3385E-02  0.4849E-01  0.2149E-01  0.3712E-01  0.0000E+00  0.0000E+00  0.0000E+00  0.0000E+00  0.0000E+00
      4.887  0.2138E-02  0.3846E-01  0.1731E-01  0.3158E-01  0.0000E+00  0.0000E+00  0.0000E+00  0.0000E+00  0.0000E+00
      4.984  0.1263E-02  0.3243E-01  0.1579E-01  0.2452E-01  0.0000E+00  0.0000E+00  0.0000E+00  0.0000E+00  0.0000E+00
      5.081  0.1040E-02  0.2775E-01  0.1338E-01  0.1924E-01  0.0000E+00  0.0000E+00  0.0000E+00  0.0000E+00  0.0000E+00
      5.179  0.1202E-02  0.2551E-01  0.1584E-01  0.1677E-01  0.0000E+00  0.0000E+00  0.0000E+00  0.0000E+00  0.0000E+00
      5.276  0.8395E-03  0.1929E-01  0.1174E-01  0.1425E-01  0.0000E+00  0.0000E+00  0.0000E+00  0.0000E+00  0.0000E+00
      5.374  0.2334E-03  0.1186E-01  0.4738E-02  0.1080E-01  0.0000E+00  0.0000E+00  0.0000E+00  0.0000E+00  0.0000E+00
      5.471  0.2050E-04  0.6075E-02  0.2007E-02  0.6020E-02  0.0000E+00  0.0000E+00  0.0000E+00  0.0000E+00  0.0000E+00
      5.568  0.4169E-06  0.1581E-02  0.6705E-03  0.1581E-02  0.0000E+00  0.0000E+00  0.0000E+00  0.0000E+00  0.0000E+00
      5.666  0.1590E-08  0.1233E-03  0.6207E-04  0.1233E-03  0.0000E+00  0.0000E+00  0.0000E+00  0.0000E+00  0.0000E+00
      5.763  0.4549E-09  0.2115E-05  0.1241E-05  0.2115E-05  0.0000E+00  0.0000E+00  0.0000E+00  0.0000E+00  0.0000E+00
      5.861  0.2128E-06  0.7173E-08  0.1946E-06  0.7173E-08  0.0000E+00  0.0000E+00  0.0000E+00  0.0000E+00  0.0000E+00
      5.958  0.1799E-04  0.3164E-07  0.1616E-04  0.3164E-07  0.0000E+00  0.0000E+00  0.0000E+00  0.0000E+00  0.0000E+00
      6.056  0.3389E-03  0.2688E-05  0.3046E-03  0.2685E-05  0.0000E+00  0.0000E+00  0.0000E+00  0.0000E+00  0.0000E+00
      6.153  0.2127E-02  0.4505E-04  0.1899E-02  0.4468E-04  0.0000E+00  0.0000E+00  0.0000E+00  0.0000E+00  0.0000E+00
      6.250  0.6140E-02  0.2254E-03  0.5499E-02  0.2166E-03  0.0000E+00  0.0000E+00  0.0000E+00  0.0000E+00  0.0000E+00
      6.348  0.1062E-01  0.6066E-03  0.9510E-02  0.5573E-03  0.0000E+00  0.0000E+00  0.0000E+00  0.0000E+00  0.0000E+00
      6.445  0.1444E-01  0.1121E-02  0.1319E-01  0.9791E-03  0.0000E+00  0.0000E+00  0.0000E+00  0.0000E+00  0.0000E+00
      6.543  0.1892E-01  0.1952E-02  0.1704E-01  0.1543E-02  0.0000E+00  0.0000E+00  0.0000E+00  0.0000E+00  0.0000E+00
      6.640  0.2223E-01  0.2648E-02  0.2056E-01  0.2016E-02  0.0000E+00  0.0000E+00  0.0000E+00  0.0000E+00  0.0000E+00
      6.737  0.2182E-01  0.2791E-02  0.2162E-01  0.2065E-02  0.0000E+00  0.0000E+00  0.0000E+00  0.0000E+00  0.0000E+00
      6.835  0.2385E-01  0.3427E-02  0.2245E-01  0.2552E-02  0.0000E+00  0.0000E+00  0.0000E+00  0.0000E+00  0.0000E+00
      6.932  0.3135E-01  0.5156E-02  0.2753E-01  0.3997E-02  0.0000E+00  0.0000E+00  0.0000E+00  0.0000E+00  0.0000E+00
      7.030  0.4026E-01  0.7061E-02  0.3346E-01  0.5651E-02  0.0000E+00  0.0000E+00  0.0000E+00  0.0000E+00  0.0000E+00
      7.127  0.5684E-01  0.9119E-02  0.3810E-01  0.7079E-02  0.0000E+00  0.0000E+00  0.0000E+00  0.0000E+00  0.0000E+00
      7.224  0.5767E-01  0.9594E-02  0.3796E-01  0.7316E-02  0.0000E+00  0.0000E+00  0.0000E+00  0.0000E+00  0.0000E+00
      7.322  0.5945E-01  0.1087E-01  0.4754E-01  0.8938E-02  0.0000E+00  0.0000E+00  0.0000E+00  0.0000E+00  0.0000E+00
      7.419  0.7244E-01  0.1098E-01  0.5207E-01  0.1137E-01  0.0000E+00  0.0000E+00  0.0000E+00  0.0000E+00  0.0000E+00
      7.517  0.8683E-01  0.1141E-01  0.5500E-01  0.1356E-01  0.0000E+00  0.0000E+00  0.0000E+00  0.0000E+00  0.0000E+00
      7.614  0.9813E-01  0.1404E-01  0.7105E-01  0.1599E-01  0.0000E+00  0.0000E+00  0.0000E+00  0.0000E+00  0.0000E+00