fcc Si                                  
   5.00000000000000     
     0.500000    0.500000    0.000000
     0.000000    0.500000    0.500000
     0.500000    0.000000    0.500000
   Si
     1
Direct
  0.000000  0.000000  0.000000
 
   36   36   36
 -.50100079392E+01 -.41567711109E+01 -.17947781650E+01 0.15403589304E+01 0.51274852830E+01
 0.82550737176E+01 0.10397056761E+02 0.11320014551E+02 0.11099620518E+02 0.10053574437E+02
 0.86203400365E+01 0.71921268059E+01 0.59198680971E+01 0.48561227244E+01 0.40184307569E+01
 0.33997256506E+01 0.29804988852E+01 0.27394418438E+01 0.26609690568E+01 0.27394418438E+01
 0.29804988852E+01 0.33997256506E+01 0.40184307569E+01 0.48561227244E+01 0.59198680971E+01
 0.71921268059E+01 0.86203400365E+01 0.10053574437E+02 0.11099620518E+02 0.11320014551E+02
 0.10397056761E+02 0.82550737176E+01 0.51274852830E+01 0.15403589304E+01 -.17947781650E+01
 -.41567711109E+01 -.41567711109E+01 -.25501535994E+01 0.29104905598E+00 0.37304269452E+01
 0.70450203297E+01 0.96143326495E+01 0.11063364488E+02 0.11323569935E+02 0.10604846561E+02
 0.92978410188E+01 0.78380951047E+01 0.64877834410E+01 0.53245169852E+01 0.43812739612E+01
 0.36612660947E+01 0.31495903061E+01 0.28247716945E+01 0.26677856841E+01 0.26677855892E+01
 0.28247714560E+01 0.31495900113E+01 0.36612658333E+01 0.43812737387E+01 0.53245167333E+01
 0.64877830354E+01 0.78380944905E+01 0.92978402712E+01 0.10604845964E+02 0.11323569882E+02
 0.11063365400E+02 0.96143347309E+01 0.70450234783E+01 0.37304306915E+01 0.29105260580E+00
 -.25501510127E+01 -.41567701626E+01 -.17947781650E+01 0.29104905598E+00 0.32194977641E+01
 0.63356545173E+01 0.89973747490E+01 0.10736944543E+02 0.11358675620E+02 0.10951754358E+02
 0.98251700902E+01 0.83924974543E+01 0.69981069381E+01 0.57621376180E+01 0.47320236202E+01
 0.39223547907E+01 0.33249131786E+01 0.29202176348E+01 0.26875092548E+01 0.26117469361E+01
 0.26875089164E+01 0.29202171171E+01 0.33249126970E+01 0.39223544790E+01 0.47320234264E+01
 0.57621373286E+01 0.69981062988E+01 0.83924963886E+01 0.98251688263E+01 0.10951753471E+02
 0.11358675849E+02 0.10736946536E+02 0.89973786892E+01 0.63356599851E+01 0.32195037284E+01
 0.29105413671E+00 -.17947752381E+01 -.25501510127E+01 0.15403589304E+01 0.37304269452E+01
 0.63356545173E+01 0.87644229178E+01 0.10519212396E+02 0.11316525377E+02 0.11135227546E+02
 0.10187320945E+02 0.88284712450E+01 0.74238561248E+01 0.61451447637E+01 0.50518484154E+01
 0.41694906703E+01 0.34976773657E+01 0.30207402318E+01 0.27180051559E+01 0.25716575791E+01
 0.25716573498E+01 0.27180045906E+01 0.30207396266E+01 0.34976770066E+01 0.41694906503E+01
 0.50518485499E+01 0.61451446793E+01 0.74238554700E+01 0.88284699574E+01 0.10187319384E+02
 0.11135226473E+02 0.11316525648E+02 0.10519214635E+02 0.87644271490E+01 0.63356600474E+01
 0.37304325072E+01 0.15403630509E+01 0.29105413671E+00 0.29105260580E+00 0.51274852830E+01
 0.70450203297E+01 0.89973747490E+01 0.10519212396E+02 0.11290445988E+02 0.11208832055E+02
 0.10393502325E+02 0.91254497146E+01 0.77433241169E+01 0.64523607033E+01 0.53225955330E+01
 0.43886650849E+01 0.36580560893E+01 0.31201100175E+01 0.27558770512E+01 0.25463562870E+01
 0.24781143245E+01 0.25463559244E+01 0.27558765441E+01 0.31201096748E+01 0.36580561203E+01
 0.43886654590E+01 0.53225959565E+01 0.64523607620E+01 0.77433234877E+01 0.91254483863E+01
 0.10393500670E+02 0.11208830743E+02 0.11290445722E+02 0.10519213577E+02 0.89973773026E+01
 0.70450236027E+01 0.51274882979E+01 0.37304325072E+01 0.32195037284E+01 0.37304306915E+01
 0.82550737176E+01 0.96143326495E+01 0.10736944543E+02 0.11316525377E+02 0.11208832055E+02
 0.10459764529E+02 0.92746413192E+01 0.79410567007E+01 0.66668906673E+01 0.55284098604E+01
 0.45666307849E+01 0.37960167936E+01 0.32113837702E+01 0.27967467513E+01 0.25334282425E+01
 0.24060264375E+01 0.24060263649E+01 0.25334280853E+01 0.27967466275E+01 0.32113838135E+01
 0.37960170351E+01 0.45666311456E+01 0.55284101256E+01 0.66668906113E+01 0.79410561444E+01
 0.92746402551E+01 0.10459763105E+02 0.11208830555E+02 0.11316524109E+02 0.10736943684E+02
 0.96143322763E+01 0.82550737017E+01 0.70450236027E+01 0.63356600474E+01 0.63356599851E+01
 0.70450234783E+01 0.10397056761E+02 0.11063364488E+02 0.11358675620E+02 0.11135227546E+02
 0.10393502325E+02 0.92746413192E+01 0.80079615802E+01 0.67771040271E+01 0.56570471245E+01
 0.46921455510E+01 0.39022867478E+01 0.32875611918E+01 0.28356920403E+01 0.25295716833E+01
 0.23532320886E+01 0.22957367544E+01 0.23532322723E+01 0.25295719532E+01 0.28356922514E+01
 0.32875612360E+01 0.39022866012E+01 0.46921452969E+01 0.56570468756E+01 0.67771038587E+01
 0.80079614306E+01 0.92746409884E+01 0.10393501540E+02 0.11135226032E+02 0.11358673361E+02
 0.11063361638E+02 0.10397053802E+02 0.96143322763E+01 0.89973773026E+01 0.87644271490E+01
 0.89973786892E+01 0.96143347309E+01 0.11320014551E+02 0.11323569935E+02 0.10951754358E+02
 0.10187320945E+02 0.91254497146E+01 0.79410567007E+01 0.67771040271E+01 0.57008018939E+01
 0.47570479598E+01 0.39693397509E+01 0.33423677832E+01 0.28678331561E+01 0.25310862288E+01
 0.23168011031E+01 0.22129194539E+01 0.22129196820E+01 0.23168016281E+01 0.25310867158E+01
 0.28678332239E+01 0.33423672804E+01 0.39693387977E+01 0.47570469682E+01 0.57008013020E+01
 0.67771041076E+01 0.79410573285E+01 0.91254503803E+01 0.10187320981E+02 0.10951753136E+02
 0.11323567330E+02 0.11320010945E+02 0.11063361638E+02 0.10736943684E+02 0.10519213577E+02
 0.10519214635E+02 0.10736946536E+02 0.11063365400E+02 0.11099620518E+02 0.10604846561E+02
 0.98251700902E+01 0.88284712450E+01 0.77433241169E+01 0.66668906673E+01 0.56570471245E+01
 0.47570479598E+01 0.39922605079E+01 0.33710531222E+01 0.28890041720E+01 0.25344470484E+01
 0.22936189819E+01 0.21544740281E+01 0.21090185535E+01 0.21544744734E+01 0.22936195575E+01
 0.25344472952E+01 0.28890037452E+01 0.33710520000E+01 0.39922590471E+01 0.47570467395E+01
 0.56570466987E+01 0.66668912372E+01 0.77433254765E+01 0.88284726812E+01 0.98251709082E+01
 0.10604846119E+02 0.11099618758E+02 0.11323567330E+02 0.11358673361E+02 0.11316524109E+02
 0.11290445722E+02 0.11316525648E+02 0.11358675849E+02 0.11323569882E+02 0.10053574437E+02
 0.92978410188E+01 0.83924974543E+01 0.74238561248E+01 0.64523607033E+01 0.55284098604E+01
 0.46921455510E+01 0.39693397509E+01 0.33710531222E+01 0.28963926207E+01 0.25368882855E+01
 0.22809565455E+01 0.21174417160E+01 0.20379166741E+01 0.20379168455E+01 0.21174421058E+01
 0.22809568479E+01 0.25368881733E+01 0.28963919302E+01 0.33710519573E+01 0.39693384861E+01
 0.46921446537E+01 0.55284097461E+01 0.64523614582E+01 0.74238576153E+01 0.83924991722E+01
 0.92978424772E+01 0.10053575339E+02 0.10604846119E+02 0.10951753136E+02 0.11135226032E+02
 0.11208830555E+02 0.11208830743E+02 0.11135226473E+02 0.10951753471E+02 0.10604845964E+02
 0.86203400365E+01 0.78380951047E+01 0.69981069381E+01 0.61451447637E+01 0.53225955330E+01
 0.45666307849E+01 0.39022867478E+01 0.33423677832E+01 0.28890041720E+01 0.25368882855E+01
 0.22769552388E+01 0.20995422493E+01 0.19965827950E+01 0.19628601548E+01 0.19965829269E+01
 0.20995424310E+01 0.22769553405E+01 0.25368881816E+01 0.28890038038E+01 0.33423671789E+01
 0.39022860589E+01 0.45666302108E+01 0.53225953413E+01 0.61451451100E+01 0.69981079351E+01
 0.78380967480E+01 0.86203420557E+01 0.92978424772E+01 0.98251709082E+01 0.10187320981E+02
 0.10393501540E+02 0.10459763105E+02 0.10393500670E+02 0.10187319384E+02 0.98251688263E+01
 0.92978402712E+01 0.71921268059E+01 0.64877834410E+01 0.57621376180E+01 0.50518484154E+01
 0.43886650849E+01 0.37960167936E+01 0.32875611918E+01 0.28678331561E+01 0.25344470484E+01
 0.22809565455E+01 0.20995422493E+01 0.19830336686E+01 0.19261563562E+01 0.19261563643E+01
 0.19830337122E+01 0.20995423783E+01 0.22809567751E+01 0.25344473253E+01 0.28678333495E+01
 0.32875611378E+01 0.37960164018E+01 0.43886643916E+01 0.50518476813E+01 0.57621372236E+01
 0.64877837452E+01 0.71921281153E+01 0.78380967480E+01 0.83924991722E+01 0.88284726812E+01
 0.91254503803E+01 0.92746409884E+01 0.92746402551E+01 0.91254483863E+01 0.88284699574E+01
 0.83924963886E+01 0.78380944905E+01 0.59198680971E+01 0.53245169852E+01 0.47320236202E+01
 0.41694906703E+01 0.36580560893E+01 0.32113837702E+01 0.28356920403E+01 0.25310862288E+01
 0.22936189819E+01 0.21174417160E+01 0.19965827950E+01 0.19261563562E+01 0.19030368016E+01
 0.19261563457E+01 0.19965828582E+01 0.21174419567E+01 0.22936194343E+01 0.25310867813E+01
 0.28356924676E+01 0.32113837943E+01 0.36580555635E+01 0.41694896248E+01 0.47320223643E+01
 0.53245160075E+01 0.59198678338E+01 0.64877837452E+01 0.69981079351E+01 0.74238576153E+01
 0.77433254765E+01 0.79410573285E+01 0.80079614306E+01 0.79410561444E+01 0.77433234877E+01
 0.74238554700E+01 0.69981062988E+01 0.64877830354E+01 0.48561227244E+01 0.43812739612E+01
 0.39223547907E+01 0.34976773657E+01 0.31201100175E+01 0.27967467513E+01 0.25295716833E+01
 0.23168011031E+01 0.21544740281E+01 0.20379166741E+01 0.19628601548E+01 0.19261563643E+01
 0.19261563457E+01 0.19628601410E+01 0.20379167500E+01 0.21544742643E+01 0.23168014855E+01
 0.25295720785E+01 0.27967469503E+01 0.31201097978E+01 0.34976766386E+01 0.39223536277E+01
 0.43812725941E+01 0.48561215251E+01 0.53245160075E+01 0.57621372236E+01 0.61451451100E+01
 0.64523614582E+01 0.66668912372E+01 0.67771041076E+01 0.67771038587E+01 0.66668906113E+01
 0.64523607620E+01 0.61451446793E+01 0.57621373286E+01 0.53245167333E+01 0.40184307569E+01
 0.36612660947E+01 0.33249131786E+01 0.30207402318E+01 0.27558770512E+01 0.25334282425E+01
 0.23532320886E+01 0.22129194539E+01 0.21090185535E+01 0.20379168455E+01 0.19965829269E+01
 0.19830337122E+01 0.19965828582E+01 0.20379167500E+01 0.21090184932E+01 0.22129194636E+01
 0.23532321616E+01 0.25334283003E+01 0.27558769968E+01 0.30207399380E+01 0.33249125868E+01
 0.36612652248E+01 0.40184296800E+01 0.43812725941E+01 0.47320223643E+01 0.50518476813E+01
 0.53225953413E+01 0.55284097461E+01 0.56570466987E+01 0.57008013020E+01 0.56570468756E+01
 0.55284101256E+01 0.53225959565E+01 0.50518485499E+01 0.47320234264E+01 0.43812737387E+01
 0.33997256506E+01 0.31495903061E+01 0.29202176348E+01 0.27180051559E+01 0.25463562870E+01
 0.24060264375E+01 0.22957367544E+01 0.22129196820E+01 0.21544744734E+01 0.21174421058E+01
 0.20995424310E+01 0.20995423783E+01 0.21174419567E+01 0.21544742643E+01 0.22129194636E+01
 0.22957365749E+01 0.24060263325E+01 0.25463562483E+01 0.27180051596E+01 0.29202176076E+01
 0.31495901481E+01 0.33997252952E+01 0.36612652248E+01 0.39223536277E+01 0.41694896248E+01
 0.43886643916E+01 0.45666302108E+01 0.46921446537E+01 0.47570467395E+01 0.47570469682E+01
 0.46921452969E+01 0.45666311456E+01 0.43886654590E+01 0.41694906503E+01 0.39223544790E+01
 0.36612658333E+01 0.29804988852E+01 0.28247716945E+01 0.26875092548E+01 0.25716575791E+01
 0.24781143245E+01 0.24060263649E+01 0.23532322723E+01 0.23168016281E+01 0.22936195575E+01
 0.22809568479E+01 0.22769553405E+01 0.22809567751E+01 0.22936194343E+01 0.23168014855E+01
 0.23532321616E+01 0.24060263325E+01 0.24781144228E+01 0.25716578070E+01 0.26875095908E+01
 0.28247720729E+01 0.29804991938E+01 0.31495901481E+01 0.33249125868E+01 0.34976766386E+01
 0.36580555635E+01 0.37960164018E+01 0.39022860589E+01 0.39693384861E+01 0.39922590471E+01
 0.39693387977E+01 0.39022866012E+01 0.37960170351E+01 0.36580561203E+01 0.34976770066E+01
 0.33249126970E+01 0.31495900113E+01 0.27394418438E+01 0.26677856841E+01 0.26117469361E+01
 0.25716573498E+01 0.25463559244E+01 0.25334280853E+01 0.25295719532E+01 0.25310867158E+01
 0.25344472952E+01 0.25368881733E+01 0.25368881816E+01 0.25344473253E+01 0.25310867813E+01
 0.25295720785E+01 0.25334283003E+01 0.25463562483E+01 0.25716578070E+01 0.26117475144E+01
 0.26677863384E+01 0.27394425217E+01 0.28247720729E+01 0.29202176076E+01 0.30207399380E+01
 0.31201097978E+01 0.32113837943E+01 0.32875611378E+01 0.33423671789E+01 0.33710519573E+01
 0.33710520000E+01 0.33423672804E+01 0.32875612360E+01 0.32113838135E+01 0.31201096748E+01
 0.30207396266E+01 0.29202171171E+01 0.28247714560E+01 0.26609690568E+01 0.26677855892E+01
 0.26875089164E+01 0.27180045906E+01 0.27558765441E+01 0.27967466275E+01 0.28356922514E+01
 0.28678332239E+01 0.28890037452E+01 0.28963919302E+01 0.28890038038E+01 0.28678333495E+01
 0.28356924676E+01 0.27967469503E+01 0.27558769968E+01 0.27180051596E+01 0.26875095908E+01
 0.26677863384E+01 0.26609698291E+01 0.26677863384E+01 0.26875095908E+01 0.27180051596E+01
 0.27558769968E+01 0.27967469503E+01 0.28356924676E+01 0.28678333495E+01 0.28890038038E+01
 0.28963919302E+01 0.28890037452E+01 0.28678332239E+01 0.28356922514E+01 0.27967466275E+01
 0.27558765441E+01 0.27180045906E+01 0.26875089164E+01 0.26677855892E+01 0.27394418438E+01
 0.28247714560E+01 0.29202171171E+01 0.30207396266E+01 0.31201096748E+01 0.32113838135E+01
 0.32875612360E+01 0.33423672804E+01 0.33710520000E+01 0.33710519573E+01 0.33423671789E+01
 0.32875611378E+01 0.32113837943E+01 0.31201097978E+01 0.30207399380E+01 0.29202176076E+01
 0.28247720729E+01 0.27394425217E+01 0.26677863384E+01 0.26117475144E+01 0.25716578070E+01
 0.25463562483E+01 0.25334283003E+01 0.25295720785E+01 0.25310867813E+01 0.25344473253E+01
 0.25368881816E+01 0.25368881733E+01 0.25344472952E+01 0.25310867158E+01 0.25295719532E+01
 0.25334280853E+01 0.25463559244E+01 0.25716573498E+01 0.26117469361E+01 0.26677856841E+01
 0.29804988852E+01 0.31495900113E+01 0.33249126970E+01 0.34976770066E+01 0.36580561203E+01
 0.37960170351E+01 0.39022866012E+01 0.39693387977E+01 0.39922590471E+01 0.39693384861E+01
 0.39022860589E+01 0.37960164018E+01 0.36580555635E+01 0.34976766386E+01 0.33249125868E+01
 0.31495901481E+01 0.29804991938E+01 0.28247720729E+01 0.26875095908E+01 0.25716578070E+01
 0.24781144228E+01 0.24060263325E+01 0.23532321616E+01 0.23168014855E+01 0.22936194343E+01
 0.22809567751E+01 0.22769553405E+01 0.22809568479E+01 0.22936195575E+01 0.23168016281E+01
 0.23532322723E+01 0.24060263649E+01 0.24781143245E+01 0.25716575791E+01 0.26875092548E+01
 0.28247716945E+01 0.33997256506E+01 0.36612658333E+01 0.39223544790E+01 0.41694906503E+01
 0.43886654590E+01 0.45666311456E+01 0.46921452969E+01 0.47570469682E+01 0.47570467395E+01
 0.46921446537E+01 0.45666302108E+01 0.43886643916E+01 0.41694896248E+01 0.39223536277E+01
 0.36612652248E+01 0.33997252952E+01 0.31495901481E+01 0.29202176076E+01 0.27180051596E+01
 0.25463562483E+01 0.24060263325E+01 0.22957365749E+01 0.22129194636E+01 0.21544742643E+01
 0.21174419567E+01 0.20995423783E+01 0.20995424310E+01 0.21174421058E+01 0.21544744734E+01
 0.22129196820E+01 0.22957367544E+01 0.24060264375E+01 0.25463562870E+01 0.27180051559E+01
 0.29202176348E+01 0.31495903061E+01 0.40184307569E+01 0.43812737387E+01 0.47320234264E+01
 0.50518485499E+01 0.53225959565E+01 0.55284101256E+01 0.56570468756E+01 0.57008013020E+01
 0.56570466987E+01 0.55284097461E+01 0.53225953413E+01 0.50518476813E+01 0.47320223643E+01
 0.43812725941E+01 0.40184296800E+01 0.36612652248E+01 0.33249125868E+01 0.30207399380E+01
 0.27558769968E+01 0.25334283003E+01 0.23532321616E+01 0.22129194636E+01 0.21090184932E+01
 0.20379167500E+01 0.19965828582E+01 0.19830337122E+01 0.19965829269E+01 0.20379168455E+01
 0.21090185535E+01 0.22129194539E+01 0.23532320886E+01 0.25334282425E+01 0.27558770512E+01
 0.30207402318E+01 0.33249131786E+01 0.36612660947E+01 0.48561227244E+01 0.53245167333E+01
 0.57621373286E+01 0.61451446793E+01 0.64523607620E+01 0.66668906113E+01 0.67771038587E+01
 0.67771041076E+01 0.66668912372E+01 0.64523614582E+01 0.61451451100E+01 0.57621372236E+01
 0.53245160075E+01 0.48561215251E+01 0.43812725941E+01 0.39223536277E+01 0.34976766386E+01
 0.31201097978E+01 0.27967469503E+01 0.25295720785E+01 0.23168014855E+01 0.21544742643E+01
 0.20379167500E+01 0.19628601410E+01 0.19261563457E+01 0.19261563643E+01 0.19628601548E+01
 0.20379166741E+01 0.21544740281E+01 0.23168011031E+01 0.25295716833E+01 0.27967467513E+01
 0.31201100175E+01 0.34976773657E+01 0.39223547907E+01 0.43812739612E+01 0.59198680971E+01
 0.64877830354E+01 0.69981062988E+01 0.74238554700E+01 0.77433234877E+01 0.79410561444E+01
 0.80079614306E+01 0.79410573285E+01 0.77433254765E+01 0.74238576153E+01 0.69981079351E+01
 0.64877837452E+01 0.59198678338E+01 0.53245160075E+01 0.47320223643E+01 0.41694896248E+01
 0.36580555635E+01 0.32113837943E+01 0.28356924676E+01 0.25310867813E+01 0.22936194343E+01
 0.21174419567E+01 0.19965828582E+01 0.19261563457E+01 0.19030368016E+01 0.19261563562E+01
 0.19965827950E+01 0.21174417160E+01 0.22936189819E+01 0.25310862288E+01 0.28356920403E+01
 0.32113837702E+01 0.36580560893E+01 0.41694906703E+01 0.47320236202E+01 0.53245169852E+01
 0.71921268059E+01 0.78380944905E+01 0.83924963886E+01 0.88284699574E+01 0.91254483863E+01
 0.92746402551E+01 0.92746409884E+01 0.91254503803E+01 0.88284726812E+01 0.83924991722E+01
 0.78380967480E+01 0.71921281153E+01 0.64877837452E+01 0.57621372236E+01 0.50518476813E+01
 0.43886643916E+01 0.37960164018E+01 0.32875611378E+01 0.28678333495E+01 0.25344473253E+01
 0.22809567751E+01 0.20995423783E+01 0.19830337122E+01 0.19261563643E+01 0.19261563562E+01
 0.19830336686E+01 0.20995422493E+01 0.22809565455E+01 0.25344470484E+01 0.28678331561E+01
 0.32875611918E+01 0.37960167936E+01 0.43886650849E+01 0.50518484154E+01 0.57621376180E+01
 0.64877834410E+01 0.86203400365E+01 0.92978402712E+01 0.98251688263E+01 0.10187319384E+02
 0.10393500670E+02 0.10459763105E+02 0.10393501540E+02 0.10187320981E+02 0.98251709082E+01
 0.92978424772E+01 0.86203420557E+01 0.78380967480E+01 0.69981079351E+01 0.61451451100E+01
 0.53225953413E+01 0.45666302108E+01 0.39022860589E+01 0.33423671789E+01 0.28890038038E+01
 0.25368881816E+01 0.22769553405E+01 0.20995424310E+01 0.19965829269E+01 0.19628601548E+01
 0.19965827950E+01 0.20995422493E+01 0.22769552388E+01 0.25368882855E+01 0.28890041720E+01
 0.33423677832E+01 0.39022867478E+01 0.45666307849E+01 0.53225955330E+01 0.61451447637E+01
 0.69981069381E+01 0.78380951047E+01 0.10053574437E+02 0.10604845964E+02 0.10951753471E+02
 0.11135226473E+02 0.11208830743E+02 0.11208830555E+02 0.11135226032E+02 0.10951753136E+02
 0.10604846119E+02 0.10053575339E+02 0.92978424772E+01 0.83924991722E+01 0.74238576153E+01
 0.64523614582E+01 0.55284097461E+01 0.46921446537E+01 0.39693384861E+01 0.33710519573E+01
 0.28963919302E+01 0.25368881733E+01 0.22809568479E+01 0.21174421058E+01 0.20379168455E+01
 0.20379166741E+01 0.21174417160E+01 0.22809565455E+01 0.25368882855E+01 0.28963926207E+01
 0.33710531222E+01 0.39693397509E+01 0.46921455510E+01 0.55284098604E+01 0.64523607033E+01
 0.74238561248E+01 0.83924974543E+01 0.92978410188E+01 0.11099620518E+02 0.11323569882E+02
 0.11358675849E+02 0.11316525648E+02 0.11290445722E+02 0.11316524109E+02 0.11358673361E+02
 0.11323567330E+02 0.11099618758E+02 0.10604846119E+02 0.98251709082E+01 0.88284726812E+01
 0.77433254765E+01 0.66668912372E+01 0.56570466987E+01 0.47570467395E+01 0.39922590471E+01
 0.33710520000E+01 0.28890037452E+01 0.25344472952E+01 0.22936195575E+01 0.21544744734E+01
 0.21090185535E+01 0.21544740281E+01 0.22936189819E+01 0.25344470484E+01 0.28890041720E+01
 0.33710531222E+01 0.39922605079E+01 0.47570479598E+01 0.56570471245E+01 0.66668906673E+01
 0.77433241169E+01 0.88284712450E+01 0.98251700902E+01 0.10604846561E+02 0.11320014551E+02
 0.11063365400E+02 0.10736946536E+02 0.10519214635E+02 0.10519213577E+02 0.10736943684E+02
 0.11063361638E+02 0.11320010945E+02 0.11323567330E+02 0.10951753136E+02 0.10187320981E+02
 0.91254503803E+01 0.79410573285E+01 0.67771041076E+01 0.57008013020E+01 0.47570469682E+01
 0.39693387977E+01 0.33423672804E+01 0.28678332239E+01 0.25310867158E+01 0.23168016281E+01
 0.22129196820E+01 0.22129194539E+01 0.23168011031E+01 0.25310862288E+01 0.28678331561E+01
 0.33423677832E+01 0.39693397509E+01 0.47570479598E+01 0.57008018939E+01 0.67771040271E+01
 0.79410567007E+01 0.91254497146E+01 0.10187320945E+02 0.10951754358E+02 0.11323569935E+02
 0.10397056761E+02 0.96143347309E+01 0.89973786892E+01 0.87644271490E+01 0.89973773026E+01
 0.96143322763E+01 0.10397053802E+02 0.11063361638E+02 0.11358673361E+02 0.11135226032E+02
 0.10393501540E+02 0.92746409884E+01 0.80079614306E+01 0.67771038587E+01 0.56570468756E+01
 0.46921452969E+01 0.39022866012E+01 0.32875612360E+01 0.28356922514E+01 0.25295719532E+01
 0.23532322723E+01 0.22957367544E+01 0.23532320886E+01 0.25295716833E+01 0.28356920403E+01
 0.32875611918E+01 0.39022867478E+01 0.46921455510E+01 0.56570471245E+01 0.67771040271E+01
 0.80079615802E+01 0.92746413192E+01 0.10393502325E+02 0.11135227546E+02 0.11358675620E+02
 0.11063364488E+02 0.82550737176E+01 0.70450234783E+01 0.63356599851E+01 0.63356600474E+01
 0.70450236027E+01 0.82550737017E+01 0.96143322763E+01 0.10736943684E+02 0.11316524109E+02
 0.11208830555E+02 0.10459763105E+02 0.92746402551E+01 0.79410561444E+01 0.66668906113E+01
 0.55284101256E+01 0.45666311456E+01 0.37960170351E+01 0.32113838135E+01 0.27967466275E+01
 0.25334280853E+01 0.24060263649E+01 0.24060264375E+01 0.25334282425E+01 0.27967467513E+01
 0.32113837702E+01 0.37960167936E+01 0.45666307849E+01 0.55284098604E+01 0.66668906673E+01
 0.79410567007E+01 0.92746413192E+01 0.10459764529E+02 0.11208832055E+02 0.11316525377E+02
 0.10736944543E+02 0.96143326495E+01 0.51274852830E+01 0.37304306915E+01 0.32195037284E+01
 0.37304325072E+01 0.51274882979E+01 0.70450236027E+01 0.89973773026E+01 0.10519213577E+02
 0.11290445722E+02 0.11208830743E+02 0.10393500670E+02 0.91254483863E+01 0.77433234877E+01
 0.64523607620E+01 0.53225959565E+01 0.43886654590E+01 0.36580561203E+01 0.31201096748E+01
 0.27558765441E+01 0.25463559244E+01 0.24781143245E+01 0.25463562870E+01 0.27558770512E+01
 0.31201100175E+01 0.36580560893E+01 0.43886650849E+01 0.53225955330E+01 0.64523607033E+01
 0.77433241169E+01 0.91254497146E+01 0.10393502325E+02 0.11208832055E+02 0.11290445988E+02
 0.10519212396E+02 0.89973747490E+01 0.70450203297E+01 0.15403589304E+01 0.29105260580E+00
 0.29105413671E+00 0.15403630509E+01 0.37304325072E+01 0.63356600474E+01 0.87644271490E+01
 0.10519214635E+02 0.11316525648E+02 0.11135226473E+02 0.10187319384E+02 0.88284699574E+01
 0.74238554700E+01 0.61451446793E+01 0.50518485499E+01 0.41694906503E+01 0.34976770066E+01
 0.30207396266E+01 0.27180045906E+01 0.25716573498E+01 0.25716575791E+01 0.27180051559E+01
 0.30207402318E+01 0.34976773657E+01 0.41694906703E+01 0.50518484154E+01 0.61451447637E+01
 0.74238561248E+01 0.88284712450E+01 0.10187320945E+02 0.11135227546E+02 0.11316525377E+02
 0.10519212396E+02 0.87644229178E+01 0.63356545173E+01 0.37304269452E+01 -.17947781650E+01
 -.25501510127E+01 -.17947752381E+01 0.29105413671E+00 0.32195037284E+01 0.63356599851E+01
 0.89973786892E+01 0.10736946536E+02 0.11358675849E+02 0.10951753471E+02 0.98251688263E+01
 0.83924963886E+01 0.69981062988E+01 0.57621373286E+01 0.47320234264E+01 0.39223544790E+01
 0.33249126970E+01 0.29202171171E+01 0.26875089164E+01 0.26117469361E+01 0.26875092548E+01
 0.29202176348E+01 0.33249131786E+01 0.39223547907E+01 0.47320236202E+01 0.57621376180E+01
 0.69981069381E+01 0.83924974543E+01 0.98251700902E+01 0.10951754358E+02 0.11358675620E+02
 0.10736944543E+02 0.89973747490E+01 0.63356545173E+01 0.32194977641E+01 0.29104905598E+00
 -.41567711109E+01 -.41567701626E+01 -.25501510127E+01 0.29105260580E+00 0.37304306915E+01
 0.70450234783E+01 0.96143347309E+01 0.11063365400E+02 0.11323569882E+02 0.10604845964E+02
 0.92978402712E+01 0.78380944905E+01 0.64877830354E+01 0.53245167333E+01 0.43812737387E+01
 0.36612658333E+01 0.31495900113E+01 0.28247714560E+01 0.26677855892E+01 0.26677856841E+01
 0.28247716945E+01 0.31495903061E+01 0.36612660947E+01 0.43812739612E+01 0.53245169852E+01
 0.64877834410E+01 0.78380951047E+01 0.92978410188E+01 0.10604846561E+02 0.11323569935E+02
 0.11063364488E+02 0.96143326495E+01 0.70450203297E+01 0.37304269452E+01 0.29104905598E+00
 -.25501535994E+01 -.41567711109E+01 -.25501535994E+01 0.29104905598E+00 0.37304269452E+01
 0.70450203297E+01 0.96143326495E+01 0.11063364488E+02 0.11323569935E+02 0.10604846561E+02
 0.92978410188E+01 0.78380951047E+01 0.64877834410E+01 0.53245169852E+01 0.43812739612E+01
 0.36612660947E+01 0.31495903061E+01 0.28247716945E+01 0.26677856841E+01 0.26677855892E+01
 0.28247714560E+01 0.31495900113E+01 0.36612658333E+01 0.43812737387E+01 0.53245167333E+01
 0.64877830354E+01 0.78380944905E+01 0.92978402712E+01 0.10604845964E+02 0.11323569882E+02
 0.11063365400E+02 0.96143347309E+01 0.70450234783E+01 0.37304306915E+01 0.29105260580E+00
 -.25501510127E+01 -.41567701626E+01 -.25501535994E+01 -.37427866377E+00 0.26865817633E+01
 0.59557340079E+01 0.87683131878E+01 0.10637613356E+02 0.11355797672E+02 0.11007864256E+02
 0.99058586866E+01 0.84716477189E+01 0.70657508978E+01 0.58175926531E+01 0.47762520399E+01
 0.39572562678E+01 0.33527435858E+01 0.29432134264E+01 0.27077245106E+01 0.26310587063E+01
 0.27077241589E+01 0.29432128811E+01 0.33527430585E+01 0.39572558840E+01 0.47762517369E+01
 0.58175922106E+01 0.70657500724E+01 0.84716464621E+01 0.99058572851E+01 0.11007863378E+02
 0.11355798119E+02 0.10637615816E+02 0.87683178073E+01 0.59557403070E+01 0.26865885458E+01
 -.37427291900E+00 -.25501502931E+01 -.33374591987E+01 0.29104905598E+00 0.26865817633E+01
 0.55543161254E+01 0.82607064659E+01 0.10269203137E+02 0.11267560816E+02 0.11220125429E+02
 0.10338867188E+02 0.89911561721E+01 0.75663432015E+01 0.62635618387E+01 0.51470416383E+01
 0.42446132542E+01 0.35569659226E+01 0.30686275468E+01 0.27586423303E+01 0.26087994897E+01
 0.26087992214E+01 0.27586416622E+01 0.30686268050E+01 0.35569654182E+01 0.42446130765E+01
 0.51470415716E+01 0.62635614707E+01 0.75663421817E+01 0.89911545083E+01 0.10338865395E+02
 0.11220124465E+02 0.11267561728E+02 0.10269206643E+02 0.82607124908E+01 0.55543237058E+01
 0.26865892461E+01 0.29105451837E+00 -.10711778615E+01 -.10711798585E+01 0.37304269452E+01
 0.59557340079E+01 0.82607064659E+01 0.10125332449E+02 0.11184300194E+02 0.11307322399E+02
 0.10605411139E+02 0.93694227694E+01 0.79639356907E+01 0.66380681507E+01 0.54731973920E+01
 0.45078330419E+01 0.37515471899E+01 0.31943344033E+01 0.28170075734E+01 0.25999800342E+01
 0.25293020330E+01 0.25999794846E+01 0.28170067812E+01 0.31943338023E+01 0.37515470715E+01
 0.45078333616E+01 0.54731977488E+01 0.66380679955E+01 0.79639346410E+01 0.93694209279E+01
 0.10605409142E+02 0.11307321298E+02 0.11184300978E+02 0.10125335660E+02 0.82607117780E+01
 0.59557402774E+01 0.37304325388E+01 0.21230678706E+01 0.15373964448E+01 0.21230645754E+01
 0.70450203297E+01 0.87683131878E+01 0.10269203137E+02 0.11184300194E+02 0.11328571701E+02
 0.10729374087E+02 0.95959210650E+01 0.82393211807E+01 0.69207394079E+01 0.57360658342E+01
 0.47316558240E+01 0.39251549966E+01 0.33126614090E+01 0.28781533713E+01 0.26022638407E+01
 0.24688160469E+01 0.24688158165E+01 0.26022632924E+01 0.28781528472E+01 0.33126612565E+01
 0.39251553484E+01 0.47316564946E+01 0.57360663728E+01 0.69207393212E+01 0.82393201863E+01
 0.95959193124E+01 0.10729372125E+02 0.11328570337E+02 0.11184300092E+02 0.10269204580E+02
 0.87683158599E+01 0.70450233726E+01 0.55470944749E+01 0.46786547448E+01 0.46786538363E+01
 0.55470920646E+01 0.96143326495E+01 0.10637613356E+02 0.11267560816E+02 0.11307322399E+02
 0.10729374087E+02 0.96709487766E+01 0.83800373335E+01 0.70964761083E+01 0.59203547472E+01
 0.49024632558E+01 0.40668561522E+01 0.34155863673E+01 0.29366595231E+01 0.26122846694E+01
 0.24255160523E+01 0.23646406619E+01 0.24255159180E+01 0.26122845019E+01 0.29366594650E+01
 0.34155865259E+01 0.40668565163E+01 0.49024636901E+01 0.59203550114E+01 0.70964759808E+01
 0.83800366594E+01 0.96709475936E+01 0.10729372539E+02 0.11307320791E+02 0.11267559399E+02
 0.10637612300E+02 0.96143320057E+01 0.85133596179E+01 0.76763290947E+01 0.73647430440E+01
 0.76763292077E+01 0.85133599253E+01 0.11063364488E+02 0.11355797672E+02 0.11220125429E+02
 0.10605411139E+02 0.95959210650E+01 0.83800373335E+01 0.71560813033E+01 0.60152794927E+01
 0.50095298822E+01 0.41671990258E+01 0.34955402962E+01 0.29869042796E+01 0.26260636742E+01
 0.23966028788E+01 0.22854339892E+01 0.22854340950E+01 0.23966031290E+01 0.26260639282E+01
 0.29869043805E+01 0.34955401874E+01 0.41671987611E+01 0.50095296271E+01 0.60152793813E+01
 0.71560813876E+01 0.83800374429E+01 0.95959209097E+01 0.10605410343E+02 0.11220123740E+02
 0.11355795149E+02 0.11063361443E+02 0.10515892359E+02 0.99535273316E+01 0.96036715595E+01
 0.96036723274E+01 0.99535294600E+01 0.10515895293E+02 0.11323569935E+02 0.11007864256E+02
 0.10338867188E+02 0.93694227694E+01 0.82393211807E+01 0.70964761083E+01 0.60152794927E+01
 0.50460038115E+01 0.42192188314E+01 0.35462773427E+01 0.30237467283E+01 0.26395526727E+01
 0.23788288534E+01 0.22283325120E+01 0.21791981865E+01 0.22283329073E+01 0.23788293767E+01
 0.26395529447E+01 0.30237464645E+01 0.35462765474E+01 0.42192178030E+01 0.50460030504E+01
 0.60152793913E+01 0.70964767881E+01 0.82393223015E+01 0.93694236884E+01 0.10338867206E+02
 0.11007862879E+02 0.11323567272E+02 0.11334215404E+02 0.11167637927E+02 0.10981535530E+02
 0.10903293932E+02 0.10981537383E+02 0.11167641034E+02 0.11334218766E+02 0.10604846561E+02
 0.99058586866E+01 0.89911561721E+01 0.79639356907E+01 0.69207394079E+01 0.59203547472E+01
 0.50095298822E+01 0.42192188314E+01 0.35636708924E+01 0.30432412911E+01 0.26492461768E+01
 0.23690680935E+01 0.21902891850E+01 0.21034260287E+01 0.21034262421E+01 0.21902896903E+01
 0.23690684953E+01 0.26492461038E+01 0.30432405496E+01 0.35636696732E+01 0.42192175815E+01
 0.50095291950E+01 0.59203549966E+01 0.69207406181E+01 0.79639374494E+01 0.89911577383E+01
 0.99058594605E+01 0.10604846102E+02 0.11048616240E+02 0.11266947713E+02 0.11336861709E+02
 0.11344197705E+02 0.11344198341E+02 0.11336863355E+02 0.11266949700E+02 0.11048617780E+02
 0.92978410188E+01 0.84716477189E+01 0.75663432015E+01 0.66380681507E+01 0.57360658342E+01
 0.49024632558E+01 0.41671990258E+01 0.35462773427E+01 0.30432412911E+01 0.26527593477E+01