<?xml version="1.0" encoding="ISO-8859-1"?>
<modeling>
 <generator>
  <i name="program" type="string">vasp </i>
  <i name="version" type="string">5.4.4.18Apr17-6-g9f103f2a35  </i>
  <i name="subversion" type="string">(build Mar 30 2023 15:39:25) complex            parallel </i>
  <i name="platform" type="string">LinuxIFC </i>
  <i name="date" type="string">2023 04 28 </i>
  <i name="time" type="string">16:52:17 </i>
 </generator>
 <incar>
  <i type="string" name="SYSTEM"> fcc Si</i>
  <i type="int" name="ISTART">     0</i>
  <i type="string" name="PREC">accurate</i>
  <i type="int" name="ICHARG">     2</i>
  <i name="EDIFF">      0.00000100</i>
  <i name="EDIFFG">     -0.00000100</i>
  <i name="ENCUT">    240.00000000</i>
  <i type="int" name="ISMEAR">     0</i>
  <i name="SIGMA">      0.10000000</i>
  <v type="int" name="KPOINT_BSE">    -1     0     0     0</v>
 </incar>
 <structure name="primitive_cell" >
  <crystal>
   <varray name="basis" >
    <v>       2.50000000       2.50000000       0.00000000 </v>
    <v>       0.00000000       2.50000000       2.50000000 </v>
    <v>       2.50000000       0.00000000       2.50000000 </v>
   </varray>
   <i name="volume">     31.25000000 </i>
   <varray name="rec_basis" >
    <v>       0.20000000       0.20000000      -0.20000000 </v>
    <v>      -0.20000000       0.20000000       0.20000000 </v>
    <v>       0.20000000      -0.20000000       0.20000000 </v>
   </varray>
  </crystal>
  <varray name="positions" >
   <v>       0.00000000       0.00000000       0.00000000 </v>
  </varray>
 </structure>
 <varray name="primitive_index" >
  <v type="int" >        1 </v>
 </varray>
 <kpoints>
  <generation param="Monkhorst-Pack">
   <v type="int" name="divisions">      11       11       11 </v>
   <v name="usershift">      0.00000000       0.00000000       0.00000000 </v>
   <v name="genvec1">      0.09090909       0.00000000       0.00000000 </v>
   <v name="genvec2">      0.00000000       0.09090909       0.00000000 </v>
   <v name="genvec3">      0.00000000       0.00000000       0.09090909 </v>
   <v name="shift">      0.00000000       0.00000000       0.00000000 </v>
  </generation>
  <varray name="kpointlist" >
   <v>       0.00000000       0.00000000       0.00000000 </v>
   <v>       0.09090909       0.00000000       0.00000000 </v>
   <v>       0.18181818       0.00000000       0.00000000 </v>
   <v>       0.27272727       0.00000000       0.00000000 </v>
   <v>       0.36363636       0.00000000       0.00000000 </v>
   <v>       0.45454545       0.00000000       0.00000000 </v>
   <v>       0.09090909       0.09090909       0.00000000 </v>
   <v>       0.18181818       0.09090909       0.00000000 </v>
   <v>       0.27272727       0.09090909       0.00000000 </v>
   <v>       0.36363636       0.09090909       0.00000000 </v>
   <v>       0.45454545       0.09090909       0.00000000 </v>
   <v>      -0.45454545       0.09090909       0.00000000 </v>
   <v>      -0.36363636       0.09090909       0.00000000 </v>
   <v>      -0.27272727       0.09090909       0.00000000 </v>
   <v>      -0.18181818       0.09090909       0.00000000 </v>
   <v>      -0.09090909       0.09090909       0.00000000 </v>
   <v>       0.18181818       0.18181818       0.00000000 </v>
   <v>       0.27272727       0.18181818       0.00000000 </v>
   <v>       0.36363636       0.18181818       0.00000000 </v>
   <v>       0.45454545       0.18181818       0.00000000 </v>
   <v>      -0.45454545       0.18181818       0.00000000 </v>
   <v>      -0.36363636       0.18181818       0.00000000 </v>
   <v>      -0.27272727       0.18181818       0.00000000 </v>
   <v>      -0.18181818       0.18181818       0.00000000 </v>
   <v>       0.27272727       0.27272727       0.00000000 </v>
   <v>       0.36363636       0.27272727       0.00000000 </v>
   <v>       0.45454545       0.27272727       0.00000000 </v>
   <v>      -0.45454545       0.27272727       0.00000000 </v>
   <v>      -0.36363636       0.27272727       0.00000000 </v>
   <v>      -0.27272727       0.27272727       0.00000000 </v>
   <v>       0.36363636       0.36363636       0.00000000 </v>
   <v>       0.45454545       0.36363636       0.00000000 </v>
   <v>      -0.45454545       0.36363636       0.00000000 </v>
   <v>      -0.36363636       0.36363636       0.00000000 </v>
   <v>       0.45454545       0.45454545       0.00000000 </v>
   <v>      -0.45454545       0.45454545       0.00000000 </v>
   <v>       0.27272727       0.18181818       0.09090909 </v>
   <v>       0.36363636       0.18181818       0.09090909 </v>
   <v>       0.45454545       0.18181818       0.09090909 </v>
   <v>      -0.45454545       0.18181818       0.09090909 </v>
   <v>       0.36363636       0.27272727       0.09090909 </v>
   <v>       0.45454545       0.27272727       0.09090909 </v>
   <v>      -0.45454545       0.27272727       0.09090909 </v>
   <v>      -0.36363636       0.27272727       0.09090909 </v>
   <v>      -0.27272727       0.27272727       0.09090909 </v>
   <v>      -0.18181818       0.27272727       0.09090909 </v>
   <v>       0.45454545       0.36363636       0.09090909 </v>
   <v>      -0.45454545       0.36363636       0.09090909 </v>
   <v>      -0.36363636       0.36363636       0.09090909 </v>
   <v>      -0.27272727       0.36363636       0.09090909 </v>
   <v>      -0.45454545       0.45454545       0.09090909 </v>
   <v>      -0.36363636       0.45454545       0.09090909 </v>
   <v>      -0.45454545       0.36363636       0.18181818 </v>
   <v>      -0.36363636       0.36363636       0.18181818 </v>
   <v>      -0.36363636       0.45454545       0.18181818 </v>
   <v>      -0.27272727       0.45454545       0.18181818 </v>
  </varray>
  <varray name="weights" >
   <v>       0.00075131 </v>
   <v>       0.00601052 </v>
   <v>       0.00601052 </v>
   <v>       0.00601052 </v>
   <v>       0.00601052 </v>
   <v>       0.00601052 </v>
   <v>       0.00450789 </v>
   <v>       0.01803156 </v>
   <v>       0.01803156 </v>
   <v>       0.01803156 </v>
   <v>       0.01803156 </v>
   <v>       0.01803156 </v>
   <v>       0.01803156 </v>
   <v>       0.01803156 </v>
   <v>       0.01803156 </v>
   <v>       0.00901578 </v>
   <v>       0.00450789 </v>
   <v>       0.01803156 </v>
   <v>       0.01803156 </v>
   <v>       0.01803156 </v>
   <v>       0.01803156 </v>
   <v>       0.01803156 </v>
   <v>       0.01803156 </v>
   <v>       0.00901578 </v>
   <v>       0.00450789 </v>
   <v>       0.01803156 </v>
   <v>       0.01803156 </v>
   <v>       0.01803156 </v>
   <v>       0.01803156 </v>
   <v>       0.00901578 </v>
   <v>       0.00450789 </v>
   <v>       0.01803156 </v>
   <v>       0.01803156 </v>
   <v>       0.00901578 </v>
   <v>       0.00450789 </v>
   <v>       0.00901578 </v>
   <v>       0.01803156 </v>
   <v>       0.03606311 </v>
   <v>       0.03606311 </v>
   <v>       0.03606311 </v>
   <v>       0.01803156 </v>
   <v>       0.03606311 </v>
   <v>       0.03606311 </v>
   <v>       0.03606311 </v>
   <v>       0.03606311 </v>
   <v>       0.01803156 </v>
   <v>       0.01803156 </v>
   <v>       0.03606311 </v>
   <v>       0.03606311 </v>
   <v>       0.01803156 </v>
   <v>       0.01803156 </v>
   <v>       0.01803156 </v>
   <v>       0.01803156 </v>
   <v>       0.03606311 </v>
   <v>       0.01803156 </v>
   <v>       0.01803156 </v>
  </varray>
 </kpoints>
 <parameters>
  <separator name="general" >
   <i type="string" name="SYSTEM">fcc Si</i>
   <i type="logical" name="LCOMPAT"> F  </i>
  </separator>
  <separator name="electronic" >
   <i type="string" name="PREC">accura</i>
   <i name="ENMAX">    240.00000000</i>
   <i name="ENAUG">    322.06900000</i>
   <i name="EDIFF">      0.00000100</i>
   <i type="int" name="IALGO">    38</i>
   <i type="int" name="IWAVPR">    10</i>
   <i type="int" name="NBANDS">    12</i>
   <i name="NELECT">      4.00000000</i>
   <i type="int" name="TURBO">     0</i>
   <i type="int" name="IRESTART">     0</i>
   <i type="int" name="NREBOOT">     0</i>
   <i type="int" name="NMIN">     0</i>
   <i name="EREF">      0.00000000</i>
   <separator name="electronic smearing" >
    <i type="int" name="ISMEAR">     0</i>
    <i name="SIGMA">      0.10000000</i>
    <i name="KSPACING">      0.50000000</i>
    <i type="logical" name="KGAMMA"> T  </i>
   </separator>
   <separator name="electronic projectors" >
    <i type="logical" name="LREAL"> F  </i>
    <v name="ROPT">      0.00000000</v>
    <i type="int" name="LMAXPAW">  -100</i>
    <i type="int" name="LMAXMIX">     2</i>
    <i type="logical" name="NLSPLINE"> F  </i>
   </separator>
   <separator name="electronic startup" >
    <i type="int" name="ISTART">     0</i>
    <i type="int" name="ICHARG">     2</i>
    <i type="int" name="INIWAV">     1</i>
   </separator>
   <separator name="electronic spin" >
    <i type="int" name="ISPIN">     1</i>
    <i type="logical" name="LNONCOLLINEAR"> F  </i>
    <v name="MAGMOM">      1.00000000</v>
    <i name="NUPDOWN">     -1.00000000</i>
    <i type="logical" name="LSORBIT"> F  </i>
    <v name="SAXIS">      0.00000000      0.00000000      1.00000000</v>
    <i type="logical" name="LSPIRAL"> F  </i>
    <v name="QSPIRAL">      0.00000000      0.00000000      0.00000000</v>
    <i type="logical" name="LZEROZ"> F  </i>
   </separator>
   <separator name="electronic exchange-correlation" >
    <i type="logical" name="LASPH"> F  </i>
    <i type="logical" name="LMETAGGA"> F  </i>
   </separator>
   <separator name="electronic convergence" >
    <i type="int" name="NELM">    60</i>
    <i type="int" name="NELMDL">    -5</i>
    <i type="int" name="NELMIN">     2</i>
    <i name="ENINI">    240.00000000</i>
    <separator name="electronic convergence detail" >
     <i type="logical" name="LDIAG"> T  </i>
     <i type="logical" name="LSUBROT"> F  </i>
     <i name="WEIMIN">      0.00000000</i>
     <i name="EBREAK">      0.00000000</i>
     <i name="DEPER">      0.30000000</i>
     <i type="int" name="NRMM">     4</i>
     <i name="TIME">      0.40000000</i>
    </separator>
   </separator>
   <separator name="electronic mixer" >
    <i name="AMIX">      0.40000000</i>
    <i name="BMIX">      1.00000000</i>
    <i name="AMIN">      0.10000000</i>
    <i name="AMIX_MAG">      1.60000000</i>
    <i name="BMIX_MAG">      1.00000000</i>
    <separator name="electronic mixer details" >
     <i type="int" name="IMIX">     4</i>
     <i type="logical" name="MIXFIRST"> F  </i>
     <i type="int" name="MAXMIX">   -45</i>
     <i name="WC">    100.00000000</i>
     <i type="int" name="INIMIX">     1</i>
     <i type="int" name="MIXPRE">     1</i>
     <i type="int" name="MREMOVE">     5</i>
    </separator>
   </separator>
   <separator name="electronic dipolcorrection" >
    <i type="logical" name="LDIPOL"> F  </i>
    <i type="logical" name="LMONO"> F  </i>
    <i type="int" name="IDIPOL">     0</i>
    <i name="EPSILON">      1.00000000</i>
    <v name="DIPOL">   -100.00000000   -100.00000000   -100.00000000</v>
    <i name="EFIELD">      0.00000000</i>
   </separator>
  </separator>
  <separator name="grids" >
   <i type="int" name="NGX">    18</i>
   <i type="int" name="NGY">    18</i>
   <i type="int" name="NGZ">    18</i>
   <i type="int" name="NGXF">    36</i>
   <i type="int" name="NGYF">    36</i>
   <i type="int" name="NGZF">    36</i>
   <i type="logical" name="ADDGRID"> F  </i>
  </separator>
  <separator name="ionic" >
   <i type="int" name="NSW">     0</i>
   <i type="int" name="IBRION">    -1</i>
   <i type="int" name="MDALGO">     0</i>
   <i type="int" name="ISIF">     2</i>
   <i name="PSTRESS">      0.00000000</i>
   <i name="EDIFFG">     -0.00000100</i>
   <i type="int" name="NFREE">     0</i>
   <i name="POTIM">      0.50000000</i>
   <i name="SMASS">     -3.00000000</i>
   <i name="SCALEE">      1.00000000</i>
  </separator>
  <separator name="ionic md" >
   <i name="TEBEG">      0.00010000</i>
   <i name="TEEND">      0.00010000</i>
   <i type="int" name="NBLOCK">     1</i>
   <i type="int" name="KBLOCK">     1</i>
   <i type="int" name="NPACO">   256</i>
   <i name="APACO">     16.00000000</i>
  </separator>
  <separator name="symmetry" >
   <i type="int" name="ISYM">     2</i>
   <i name="SYMPREC">      0.00001000</i>
  </separator>
  <separator name="dos" >
   <i type="int" name="LORBIT">     0</i>
   <v name="RWIGS">     -1.00000000</v>
   <i type="int" name="NEDOS">   301</i>
   <i name="EMIN">     10.00000000</i>
   <i name="EMAX">    -10.00000000</i>
   <i name="EFERMI">      0.00000000</i>
  </separator>
  <separator name="writing" >
   <i type="int" name="NWRITE">     2</i>
   <i type="logical" name="LWAVE"> T  </i>
   <i type="logical" name="LDOWNSAMPLE"> F  </i>
   <i type="logical" name="LCHARG"> T  </i>
   <i type="logical" name="LPARD"> F  </i>
   <i type="logical" name="LVTOT"> F  </i>
   <i type="logical" name="LVHAR"> F  </i>
   <i type="logical" name="LELF"> F  </i>
   <i type="logical" name="LOPTICS"> F  </i>
   <v name="STM">      0.00000000      0.00000000      0.00000000      0.00000000      0.00000000      0.00000000      0.00000000</v>
  </separator>
  <separator name="performance" >
   <i type="int" name="NPAR">    12</i>
   <i type="int" name="NSIM">     4</i>
   <i type="int" name="NBLK">    -1</i>
   <i type="logical" name="LPLANE"> T  </i>
   <i type="logical" name="LSCALAPACK"> T  </i>
   <i type="logical" name="LSCAAWARE"> F  </i>
   <i type="logical" name="LSCALU"> F  </i>
   <i type="logical" name="LASYNC"> F  </i>
   <i type="logical" name="LORBITALREAL"> F  </i>
  </separator>
  <separator name="miscellaneous" >
   <i type="int" name="IDIOT">     3</i>
   <i type="int" name="ISPECIAL">     0</i>
   <i type="logical" name="LMUSIC"> F  </i>
   <v name="POMASS">     28.08500000</v>
   <v name="DARWINR">      0.00000000</v>
   <v name="DARWINV">      1.00000000</v>
   <i type="logical" name="LCORR"> T  </i>
  </separator>
  <i type="logical" name="GGA_COMPAT"> T  </i>
  <i type="logical" name="LBERRY"> F  </i>
  <i type="int" name="ICORELEVEL">     0</i>
  <i type="logical" name="LDAU"> F  </i>
  <i type="int" name="I_CONSTRAINED_M">     0</i>
  <separator name="electronic exchange-correlation" >
   <i type="string" name="GGA">--</i>
   <i type="int" name="VOSKOWN">     0</i>
   <i type="logical" name="LHFCALC"> F  </i>
   <i type="string" name="PRECFOCK"></i>
   <i type="logical" name="LSYMGRAD"> F  </i>
   <i type="logical" name="LHFONE"> F  </i>
   <i type="logical" name="LRHFCALC"> F  </i>
   <i type="logical" name="LTHOMAS"> F  </i>
   <i type="logical" name="LMODELHF"> F  </i>
   <i name="ENCUT4O">     -1.00000000</i>
   <i type="int" name="EXXOEP">     0</i>
   <i type="int" name="FOURORBIT">     0</i>
   <i name="AEXX">      0.00000000</i>
   <i name="HFALPHA">      0.00000000</i>
   <i name="MCALPHA">      0.00000000</i>
   <i name="ALDAX">      1.00000000</i>
   <i name="AGGAX">      1.00000000</i>
   <i name="ALDAC">      1.00000000</i>
   <i name="AGGAC">      1.00000000</i>
   <i type="int" name="NKREDX">     1</i>
   <i type="int" name="NKREDY">     1</i>
   <i type="int" name="NKREDZ">     1</i>
   <i type="logical" name="SHIFTRED"> F  </i>
   <i type="logical" name="ODDONLY"> F  </i>
   <i type="logical" name="EVENONLY"> F  </i>
   <i type="int" name="LMAXFOCK">     0</i>
   <i type="int" name="NMAXFOCKAE">     0</i>
   <i type="logical" name="LFOCKAEDFT"> F  </i>
   <i name="HFSCREEN">      0.00000000</i>
   <i name="HFSCREENC">      0.00000000</i>
   <i type="int" name="NBANDSGWLOW">     0</i>
  </separator>
  <separator name="vdW DFT" >
   <i type="logical" name="LUSE_VDW"> F  </i>
   <i name="Zab_VDW">     -0.84910000</i>
   <i name="PARAM1">      0.12340000</i>
   <i name="PARAM2">      1.00000000</i>
   <i name="PARAM3">      0.00000000</i>
  </separator>
  <separator name="model GW" >
   <i type="int" name="MODEL_GW">     0</i>
   <i name="MODEL_EPS0">     18.75000000</i>
   <i name="MODEL_ALPHA">      1.00000000</i>
  </separator>
  <separator name="linear response parameters" >
   <i type="logical" name="LEPSILON"> F  </i>
   <i type="logical" name="LRPA"> F  </i>
   <i type="logical" name="LNABLA"> F  </i>
   <i type="logical" name="LVEL"> F  </i>
   <i type="int" name="KINTER">     0</i>
   <i name="CSHIFT">      0.10000000</i>
   <i name="OMEGAMAX">     -1.00000000</i>
   <i name="DEG_THRESHOLD">      0.00200000</i>
   <i name="RTIME">     -0.10000000</i>
   <i name="WPLASMAI">      0.00000000</i>
   <v name="DFIELD">      0.00000000      0.00000000      0.00000000</v>
   <v name="WPLASMA">      0.00000000      0.00000000      0.00000000      0.00000000      0.00000000      0.00000000      0.00000000      0.00000000      0.00000000</v>
  </separator>
  <separator name="orbital magnetization" >
   <i type="logical" name="NUCIND"> F  </i>
   <v name="MAGPOS">      0.00000000      0.00000000      0.00000000</v>
   <i type="logical" name="LNICSALL"> T  </i>
   <i type="logical" name="ORBITALMAG"> F  </i>
   <i type="logical" name="LMAGBLOCH"> F  </i>
   <i type="logical" name="LCHIMAG"> F  </i>
   <i type="logical" name="LGAUGE"> T  </i>
   <i type="int" name="MAGATOM">     0</i>
   <v name="MAGDIPOL">      0.00000000      0.00000000      0.00000000</v>
   <v name="AVECCONST">      0.00000000      0.00000000      0.00000000</v>
  </separator>
  <separator name="response functions" >
   <i type="logical" name="LADDER"> F  </i>
   <i type="logical" name="LRPAFORCE"> F  </i>
   <i type="logical" name="LFXC"> F  </i>
   <i type="logical" name="LHARTREE"> T  </i>
   <i type="int" name="IBSE">     0</i>
   <v type="int" name="KPOINT">    -1     0     0     0</v>
   <i type="logical" name="LTCTE"> F  </i>
   <i type="logical" name="LTETE"> F  </i>
   <i type="logical" name="LTRIPLET"> F  </i>
   <i type="logical" name="LFXCEPS"> F  </i>
   <i type="logical" name="LFXHEG"> F  </i>
   <i type="int" name="NATURALO">     2</i>
   <i type="logical" name="L2ORDER"> F  </i>
   <i type="logical" name="LMP2LT"> F  </i>
   <i type="logical" name="LUSEW"> F  </i>
   <i name="ENCUTGW">     -2.00000000</i>
   <i name="ENCUTGWSOFT">     -2.00000000</i>
   <i name="ENCUTLF">     -1.00000000</i>
   <i type="int" name="LMAXMP2">    -1</i>
   <i name="SCISSOR">      0.00000000</i>
   <i type="int" name="NOMEGA">     0</i>
   <i type="int" name="NOMEGAR">     0</i>
   <i type="int" name="NBANDSGW">    -1</i>
   <i type="int" name="NBANDSO">    -1</i>
   <i type="int" name="NBANDSV">    -1</i>
   <i type="int" name="NELM">     1</i>
   <i type="int" name="NELMHF">     1</i>
   <i type="int" name="DIM">     3</i>
   <i type="int" name="ANTIRES">     0</i>
   <i name="OMEGAMAX">    -30.00000000</i>
   <i name="OMEGAMIN">    -30.00000000</i>
   <i name="OMEGATL">   -200.00000000</i>
   <i type="int" name="OMEGAGRID">   140</i>
   <i name="CSHIFT">     -0.10000000</i>
   <i type="logical" name="SELFENERGY"> F  </i>
   <i type="logical" name="LSPECTRAL"> F  </i>
   <i type="logical" name="LSPECTRALGW"> F  </i>
   <i type="logical" name="LSINGLES"> F  </i>
   <i type="logical" name="LFERMIGW"> F  </i>
   <i type="logical" name="ODDONLYGW"> F  </i>
   <i type="logical" name="EVENONLYGW"> F  </i>
   <i type="int" name="NKREDLFX">     1</i>
   <i type="int" name="NKREDLFY">     1</i>
   <i type="int" name="NKREDLFZ">     1</i>
   <i type="int" name="MAXMEM">  2800</i>
   <i type="int" name="TELESCOPE">     0</i>
   <i type="int" name="TAUPAR">     1</i>
   <i type="int" name="OMEGAPAR">    -1</i>
   <i name="LAMBDA">      1.00000000</i>
  </separator>
  <separator name="External order field" >
   <i name="OFIELD_KAPPA">      0.00000000</i>
   <v name="OFIELD_K">      0.00000000      0.00000000      0.00000000</v>
   <i name="OFIELD_Q6_NEAR">      0.00000000</i>
   <i name="OFIELD_Q6_FAR">      0.00000000</i>
   <i name="OFIELD_A">      0.00000000</i>
  </separator>
 </parameters>
 <atominfo>
  <atoms>       1 </atoms>
  <types>       1 </types>
  <array name="atoms" >
   <dimension dim="1">ion</dimension>
   <field type="string">element</field>
   <field type="int">atomtype</field>
   <set>
    <rc><c>Si</c><c>   1</c></rc>
   </set>
  </array>
  <array name="atomtypes" >
   <dimension dim="1">type</dimension>
   <field type="int">atomspertype</field>
   <field type="string">element</field>
   <field>mass</field>
   <field>valence</field>
   <field type="string">pseudopotential</field>
   <set>
    <rc><c>   1</c><c>Si</c><c>     28.08500000</c><c>      4.00000000</c><c>  PAW_PBE Si 05Jan2001                  </c></rc>
   </set>
  </array>
 </atominfo>
 <structure name="initialpos" >
  <crystal>
   <varray name="basis" >
    <v>       2.50000000       2.50000000       0.00000000 </v>
    <v>       0.00000000       2.50000000       2.50000000 </v>
    <v>       2.50000000       0.00000000       2.50000000 </v>
   </varray>
   <i name="volume">     31.25000000 </i>
   <varray name="rec_basis" >
    <v>       0.20000000       0.20000000      -0.20000000 </v>
    <v>      -0.20000000       0.20000000       0.20000000 </v>
    <v>       0.20000000      -0.20000000       0.20000000 </v>
   </varray>
  </crystal>
  <varray name="positions" >
   <v>       0.00000000       0.00000000       0.00000000 </v>
  </varray>
 </structure>
 <calculation>
  <scstep>
   <time name="dav">    0.15    0.15</time>
   <time name="total">    0.15    0.15</time>
   <energy>
    <i name="alphaZ">      1.07722019 </i>
    <i name="ewald">   -105.63366088 </i>
    <i name="hartreedc">     -4.48821816 </i>
    <i name="XCdc">    -10.33256978 </i>
    <i name="pawpsdc">     88.12379961 </i>
    <i name="pawaedc">    -70.53051779 </i>
    <i name="eentropy">     -0.00253846 </i>
    <i name="bandstr">     -3.96669312 </i>
    <i name="atom">    103.06077658 </i>
    <i name="e_fr_energy">     -2.69240181 </i>
    <i name="e_wo_entrp">     -2.68986335 </i>
    <i name="e_0_energy">     -2.69113258 </i>
   </energy>
  </scstep>
  <scstep>
   <time name="dav">    0.22    0.22</time>
   <time name="total">    0.22    0.22</time>
   <energy>
    <i name="e_fr_energy">     -3.58856835 </i>
    <i name="e_wo_entrp">     -3.58608416 </i>
    <i name="e_0_energy">     -3.58732626 </i>
   </energy>
  </scstep>
  <scstep>
   <time name="dav">    0.17    0.17</time>
   <time name="total">    0.17    0.17</time>
   <energy>
    <i name="e_fr_energy">     -3.59218938 </i>
    <i name="e_wo_entrp">     -3.58969473 </i>
    <i name="e_0_energy">     -3.59094205 </i>
   </energy>
  </scstep>
  <scstep>
   <time name="dav">    0.31    0.31</time>
   <time name="total">    0.31    0.31</time>
   <energy>
    <i name="e_fr_energy">     -3.59219189 </i>
    <i name="e_wo_entrp">     -3.58969722 </i>
    <i name="e_0_energy">     -3.59094455 </i>
   </energy>
  </scstep>
  <scstep>
   <time name="dav">    0.15    0.15</time>
   <time name="total">    0.16    0.16</time>
   <energy>
    <i name="e_fr_energy">     -3.59219189 </i>
    <i name="e_wo_entrp">     -3.58969722 </i>
    <i name="e_0_energy">     -3.59094455 </i>
   </energy>
  </scstep>
  <scstep>
   <time name="dav">    0.18    0.18</time>
   <time name="total">    0.20    0.20</time>
   <energy>
    <i name="e_fr_energy">     -3.58248617 </i>
    <i name="e_wo_entrp">     -3.58001688 </i>
    <i name="e_0_energy">     -3.58125153 </i>
   </energy>
  </scstep>
  <scstep>
   <time name="dav">    0.17    0.17</time>
   <time name="total">    0.18    0.19</time>
   <energy>
    <i name="e_fr_energy">     -3.57839704 </i>
    <i name="e_wo_entrp">     -3.57594624 </i>
    <i name="e_0_energy">     -3.57717164 </i>
   </energy>
  </scstep>
  <scstep>
   <time name="dav">    0.19    0.19</time>
   <time name="total">    0.21    0.21</time>
   <energy>
    <i name="e_fr_energy">     -3.57851681 </i>
    <i name="e_wo_entrp">     -3.57606514 </i>
    <i name="e_0_energy">     -3.57729097 </i>
   </energy>
  </scstep>
  <scstep>
   <time name="dav">    0.24    0.24</time>
   <time name="total">    0.26    0.26</time>
   <energy>
    <i name="e_fr_energy">     -3.57852150 </i>
    <i name="e_wo_entrp">     -3.57606985 </i>
    <i name="e_0_energy">     -3.57729568 </i>
   </energy>
  </scstep>
  <scstep>
   <time name="dav">    0.20    0.20</time>
   <time name="total">    0.20    0.20</time>
   <energy>
    <i name="alphaZ">      1.07722019 </i>
    <i name="ewald">   -105.63366088 </i>
    <i name="hartreedc">     -3.74043770 </i>
    <i name="XCdc">    -10.43415443 </i>
    <i name="pawpsdc">    117.49210970 </i>
    <i name="pawaedc">    -99.85160116 </i>
    <i name="eentropy">     -0.00245159 </i>
    <i name="bandstr">     -5.54632183 </i>
    <i name="atom">    103.06077658 </i>
    <i name="e_fr_energy">     -3.57852112 </i>
    <i name="e_wo_entrp">     -3.57606953 </i>
    <i name="e_0_energy">     -3.57729533 </i>
   </energy>
  </scstep>
  <structure>
   <crystal>
    <varray name="basis" >
     <v>       2.50000000       2.50000000       0.00000000 </v>
     <v>       0.00000000       2.50000000       2.50000000 </v>
     <v>       2.50000000       0.00000000       2.50000000 </v>
    </varray>
    <i name="volume">     31.25000000 </i>
    <varray name="rec_basis" >
     <v>       0.20000000       0.20000000      -0.20000000 </v>
     <v>      -0.20000000       0.20000000       0.20000000 </v>
     <v>       0.20000000      -0.20000000       0.20000000 </v>
    </varray>
   </crystal>
   <varray name="positions" >
    <v>       0.00000000       0.00000000       0.00000000 </v>
   </varray>
  </structure>
  <varray name="forces" >
   <v>       0.00000000       0.00000000       0.00000000 </v>
  </varray>
  <varray name="stress" >
   <v>    -133.49049233       0.00000000       0.00000000 </v>
   <v>       0.00000000    -133.49049233      -0.00000000 </v>
   <v>       0.00000000      -0.00000000    -133.49049233 </v>
  </varray>
  <energy>
   <i name="e_fr_energy">     -3.57852112 </i>
   <i name="e_wo_entrp">     -3.57729533 </i>
   <i name="e_0_energy">     -0.00245159 </i>
  </energy>
  <time name="totalsc">    2.21    2.32</time>
  <eigenvalues>
   <array>
    <dimension dim="1">band</dimension>
    <dimension dim="2">kpoint</dimension>
    <dimension dim="3">spin</dimension>
    <field>eigene</field>
    <field>occ</field>
    <set>
     <set comment="spin 1">
      <set comment="kpoint 1">
       <r>   -6.5498    1.0000 </r>
       <r>    7.0914    0.0000 </r>
       <r>    7.0914    0.0000 </r>
       <r>    7.0914    0.0000 </r>
       <r>   12.0950    0.0000 </r>
       <r>   12.0950    0.0000 </r>
       <r>   12.0950    0.0000 </r>
       <r>   12.9259    0.0000 </r>
       <r>   15.8253    0.0000 </r>
       <r>   15.8457    0.0000 </r>
       <r>   15.8457    0.0000 </r>
       <r>   20.0849    0.0000 </r>
      </set>
      <set comment="kpoint 2">
       <r>   -6.4211    1.0000 </r>
       <r>    6.2440    0.0000 </r>
       <r>    6.9792    0.0000 </r>
       <r>    6.9792    0.0000 </r>
       <r>   11.7759    0.0000 </r>
       <r>   12.3258    0.0000 </r>
       <r>   12.3258    0.0000 </r>
       <r>   13.5012    0.0000 </r>
       <r>   15.3584    0.0000 </r>
       <r>   15.3584    0.0000 </r>
       <r>   16.7256    0.0000 </r>
       <r>   19.2250    0.0000 </r>
      </set>
      <set comment="kpoint 3">
       <r>   -6.0403    1.0000 </r>
       <r>    4.4868    0.0000 </r>
       <r>    6.7243    0.0000 </r>
       <r>    6.7243    0.0000 </r>
       <r>   11.1521    0.0000 </r>
       <r>   12.6691    0.0000 </r>
       <r>   12.6691    0.0000 </r>
       <r>   14.7526    0.0000 </r>
       <r>   14.9050    0.0000 </r>
       <r>   14.9050    0.0000 </r>
       <r>   17.3492    0.0000 </r>
       <r>   19.6604    0.0000 </r>
      </set>
      <set comment="kpoint 4">
       <r>   -5.4281    1.0000 </r>
       <r>    2.5975    0.2824 </r>
       <r>    6.4589    0.0000 </r>
       <r>    6.4589    0.0000 </r>
       <r>   10.6503    0.0000 </r>
       <r>   12.3771    0.0000 </r>
       <r>   12.3771    0.0000 </r>
       <r>   15.4863    0.0000 </r>
       <r>   15.6111    0.0000 </r>
       <r>   15.6111    0.0000 </r>
       <r>   17.2729    0.0000 </r>
       <r>   22.4463    0.0000 </r>
      </set>
      <set comment="kpoint 5">
       <r>   -4.6495    1.0000 </r>
       <r>    0.8988    1.0000 </r>
       <r>    6.2607    0.0000 </r>
       <r>    6.2607    0.0000 </r>
       <r>   10.3194    0.0000 </r>
       <r>   11.8655    0.0000 </r>
       <r>   11.8655    0.0000 </r>
       <r>   15.0640    0.0000 </r>
       <r>   17.0705    0.0000 </r>
       <r>   17.0705    0.0000 </r>
       <r>   18.5980    0.0000 </r>
       <r>   25.3614    0.0000 </r>
      </set>
      <set comment="kpoint 6">
       <r>   -3.9409    1.0000 </r>
       <r>   -0.2848    1.0000 </r>
       <r>    6.1587    0.0000 </r>
       <r>    6.1587    0.0000 </r>
       <r>   10.1632    0.0000 </r>
       <r>   11.5544    0.0000 </r>
       <r>   11.5544    0.0000 </r>
       <r>   14.7164    0.0000 </r>
       <r>   18.5002    0.0000 </r>
       <r>   18.5002    0.0000 </r>
       <r>   19.8832    0.0000 </r>
       <r>   23.4314    0.0000 </r>
      </set>
      <set comment="kpoint 7">
       <r>   -6.3781    1.0000 </r>
       <r>    6.4866    0.0000 </r>
       <r>    6.6800    0.0000 </r>
       <r>    6.6800    0.0000 </r>
       <r>   11.3078    0.0000 </r>
       <r>   12.7091    0.0000 </r>
       <r>   12.7091    0.0000 </r>
       <r>   13.3716    0.0000 </r>
       <r>   14.7009    0.0000 </r>
       <r>   15.9943    0.0000 </r>
       <r>   16.9936    0.0000 </r>
       <r>   20.2212    0.0000 </r>
      </set>
      <set comment="kpoint 8">
       <r>   -6.0810    1.0000 </r>
       <r>    5.0914    0.0000 </r>
       <r>    6.3133    0.0000 </r>
       <r>    6.5705    0.0000 </r>
       <r>   10.9803    0.0000 </r>
       <r>   12.8495    0.0000 </r>
       <r>   13.0140    0.0000 </r>
       <r>   13.2690    0.0000 </r>
       <r>   15.2774    0.0000 </r>
       <r>   15.8881    0.0000 </r>
       <r>   18.1986    0.0000 </r>
       <r>   19.4992    0.0000 </r>
      </set>
      <set comment="kpoint 9">
       <r>   -5.5443    1.0000 </r>
       <r>    3.2688    0.0000 </r>
       <r>    6.0144    0.0000 </r>
       <r>    6.2616    0.0000 </r>
       <r>   10.8232    0.0000 </r>
       <r>   12.1931    0.0000 </r>
       <r>   13.2432    0.0000 </r>
       <r>   13.4361    0.0000 </r>
       <r>   16.3129    0.0000 </r>
       <r>   16.5590    0.0000 </r>
       <r>   17.8675    0.0000 </r>
       <r>   21.5678    0.0000 </r>
      </set>
      <set comment="kpoint 10">
       <r>   -4.8123    1.0000 </r>
       <r>    1.5141    1.0000 </r>
       <r>    5.8508    0.0000 </r>
       <r>    5.8877    0.0000 </r>
       <r>   10.5685    0.0000 </r>
       <r>   11.6510    0.0000 </r>
       <r>   12.6993    0.0000 </r>
       <r>   14.6542    0.0000 </r>
       <r>   16.4599    0.0000 </r>
       <r>   17.5814    0.0000 </r>
       <r>   18.9250    0.0000 </r>
       <r>   24.5442    0.0000 </r>
      </set>
      <set comment="kpoint 11">
       <r>   -4.0373    1.0000 </r>
       <r>    0.1234    1.0000 </r>
       <r>    5.5608    0.0000 </r>
       <r>    5.8423    0.0000 </r>
       <r>   10.4313    0.0000 </r>
       <r>   11.3453    0.0000 </r>
       <r>   12.1886    0.0000 </r>
       <r>   15.6650    0.0000 </r>
       <r>   16.6393    0.0000 </r>
       <r>   18.7561    0.0000 </r>
       <r>   20.4418    0.0000 </r>
       <r>   23.4550    0.0000 </r>
      </set>
      <set comment="kpoint 12">
       <r>   -3.7329    1.0000 </r>
       <r>   -0.3368    1.0000 </r>
       <r>    5.3387    0.0000 </r>
       <r>    5.9800    0.0000 </r>
       <r>   10.5251    0.0000 </r>
       <r>   11.2605    0.0000 </r>
       <r>   11.9138    0.0000 </r>
       <r>   15.7054    0.0000 </r>
       <r>   17.7191    0.0000 </r>
       <r>   18.3414    0.0000 </r>
       <r>   21.1169    0.0000 </r>
       <r>   22.5922    0.0000 </r>
      </set>
      <set comment="kpoint 13">
       <r>   -4.2813    1.0000 </r>
       <r>    0.5252    1.0000 </r>
       <r>    5.2594    0.0000 </r>
       <r>    6.2346    0.0000 </r>
       <r>   10.7906    0.0000 </r>
       <r>   11.4436    0.0000 </r>
       <r>   11.9309    0.0000 </r>
       <r>   15.7732    0.0000 </r>
       <r>   16.6973    0.0000 </r>
       <r>   17.4152    0.0000 </r>
       <r>   20.4722    0.0000 </r>
       <r>   23.1456    0.0000 </r>
      </set>
      <set comment="kpoint 14">
       <r>   -5.0737    1.0000 </r>
       <r>    2.0778    1.0000 </r>
       <r>    5.3501    0.0000 </r>
       <r>    6.5568    0.0000 </r>
       <r>   11.1017    0.0000 </r>
       <r>   11.9742    0.0000 </r>
       <r>   12.2541    0.0000 </r>
       <r>   15.0572    0.0000 </r>
       <r>   15.1693    0.0000 </r>
       <r>   17.2296    0.0000 </r>
       <r>   18.8984    0.0000 </r>
       <r>   23.1845    0.0000 </r>
      </set>
      <set comment="kpoint 15">
       <r>   -5.7489    1.0000 </r>
       <r>    3.8725    0.0000 </r>
       <r>    5.6316    0.0000 </r>
       <r>    6.8689    0.0000 </r>
       <r>   11.4427    0.0000 </r>
       <r>   12.5692    0.0000 </r>
       <r>   12.6813    0.0000 </r>
       <r>   13.9797    0.0000 </r>
       <r>   14.1950    0.0000 </r>
       <r>   17.0521    0.0000 </r>
       <r>   18.1253    0.0000 </r>
       <r>   20.4417    0.0000 </r>
      </set>
      <set comment="kpoint 16">
       <r>   -6.2082    1.0000 </r>
       <r>    5.4797    0.0000 </r>
       <r>    6.1999    0.0000 </r>
       <r>    7.0503    0.0000 </r>
       <r>   11.6807    0.0000 </r>
       <r>   12.4514    0.0000 </r>
       <r>   12.5495    0.0000 </r>
       <r>   14.0017    0.0000 </r>
       <r>   14.3535    0.0000 </r>
       <r>   15.8002    0.0000 </r>
       <r>   17.8490    0.0000 </r>
       <r>   19.2487    0.0000 </r>
      </set>
      <set comment="kpoint 17">
       <r>   -5.8692    1.0000 </r>
       <r>    5.1564    0.0000 </r>
       <r>    5.8530    0.0000 </r>
       <r>    5.8530    0.0000 </r>
       <r>   10.0448    0.0000 </r>
       <r>   11.6395    0.0000 </r>
       <r>   14.1227    0.0000 </r>
       <r>   14.1227    0.0000 </r>
       <r>   15.7854    0.0000 </r>
       <r>   16.4712    0.0000 </r>
       <r>   19.3943    0.0000 </r>
       <r>   20.7928    0.0000 </r>
      </set>
      <set comment="kpoint 18">
       <r>   -5.4146    1.0000 </r>
       <r>    3.8541    0.0000 </r>
       <r>    5.4858    0.0000 </r>
       <r>    5.4910    0.0000 </r>
       <r>    9.8626    0.0000 </r>
       <r>   10.8749    0.0000 </r>
       <r>   14.3206    0.0000 </r>
       <r>   14.5574    0.0000 </r>
       <r>   16.9249    0.0000 </r>
       <r>   17.2923    0.0000 </r>
       <r>   19.7903    0.0000 </r>
       <r>   21.3776    0.0000 </r>
      </set>
      <set comment="kpoint 19">
       <r>   -4.7500    1.0000 </r>
       <r>    2.2408    1.0000 </r>
       <r>    4.9177    0.0000 </r>
       <r>    5.2935    0.0000 </r>
       <r>    9.6502    0.0000 </r>
       <r>   11.3679    0.0000 </r>
       <r>   14.1494    0.0000 </r>
       <r>   14.2055    0.0000 </r>
       <r>   18.0786    0.0000 </r>
       <r>   18.4198    0.0000 </r>
       <r>   19.7269    0.0000 </r>
       <r>   23.8117    0.0000 </r>
      </set>
      <set comment="kpoint 20">
       <r>   -3.9782    1.0000 </r>
       <r>    0.7930    1.0000 </r>
       <r>    4.3523    0.0000 </r>
       <r>    5.2842    0.0000 </r>
       <r>    9.4684    0.0000 </r>
       <r>   12.2065    0.0000 </r>
       <r>   13.5422    0.0000 </r>
       <r>   14.5492    0.0000 </r>
       <r>   18.1519    0.0000 </r>
       <r>   19.0470    0.0000 </r>
       <r>   21.1794    0.0000 </r>
       <r>   23.7648    0.0000 </r>
      </set>
      <set comment="kpoint 21">
       <r>   -3.4582    1.0000 </r>
       <r>   -0.0047    1.0000 </r>
       <r>    3.9215    0.0000 </r>
       <r>    5.4608    0.0000 </r>
       <r>    9.5989    0.0000 </r>
       <r>   12.4939    0.0000 </r>
       <r>   13.0856    0.0000 </r>
       <r>   15.5942    0.0000 </r>
       <r>   18.0285    0.0000 </r>
       <r>   18.3227    0.0000 </r>
       <r>   21.2528    0.0000 </r>
       <r>   23.4900    0.0000 </r>
      </set>
      <set comment="kpoint 22">
       <r>   -3.7557    1.0000 </r>
       <r>    0.4487    1.0000 </r>
       <r>    3.6868    0.0000 </r>
       <r>    5.7970    0.0000 </r>
       <r>   10.0449    0.0000 </r>
       <r>   12.5133    0.0000 </r>
       <r>   12.8653    0.0000 </r>
       <r>   15.9158    0.0000 </r>
       <r>   16.5450    0.0000 </r>
       <r>   18.4108    0.0000 </r>
       <r>   20.9968    0.0000 </r>
       <r>   23.3514    0.0000 </r>
      </set>
      <set comment="kpoint 23">
       <r>   -4.5070    1.0000 </r>
       <r>    1.7530    1.0000 </r>
       <r>    3.7100    0.0000 </r>
       <r>    6.2339    0.0000 </r>
       <r>   10.7742    0.0000 </r>
       <r>   12.4857    0.0000 </r>
       <r>   12.9242    0.0000 </r>
       <r>   14.8114    0.0000 </r>
       <r>   14.9491    0.0000 </r>
       <r>   19.0773    0.0000 </r>
       <r>   21.3087    0.0000 </r>
       <r>   22.6299    0.0000 </r>
      </set>
      <set comment="kpoint 24">
       <r>   -5.2222    1.0000 </r>
       <r>    3.1242    0.0000 </r>
       <r>    4.2419    0.0000 </r>
       <r>    6.6546    0.0000 </r>
       <r>   11.6950    0.0000 </r>
       <r>   12.1977    0.0000 </r>
       <r>   13.2273    0.0000 </r>
       <r>   13.5175    0.0000 </r>
       <r>   14.1025    0.0000 </r>
       <r>   19.1028    0.0000 </r>
       <r>   20.0193    0.0000 </r>
       <r>   20.4264    0.0000 </r>
      </set>
      <set comment="kpoint 25">
       <r>   -5.0454    1.0000 </r>
       <r>    3.5627    0.0000 </r>
       <r>    5.0629    0.0000 </r>
       <r>    5.0629    0.0000 </r>
       <r>    8.9855    0.0000 </r>
       <r>    9.5887    0.0000 </r>
       <r>   15.8704    0.0000 </r>
       <r>   15.8704    0.0000 </r>
       <r>   17.2242    0.0000 </r>
       <r>   17.9081    0.0000 </r>
       <r>   21.8531    0.0000 </r>
       <r>   22.3462    0.0000 </r>
      </set>
      <set comment="kpoint 26">
       <r>   -4.4627    1.0000 </r>
       <r>    2.5332    0.6308 </r>
       <r>    4.3899    0.0000 </r>
       <r>    4.8064    0.0000 </r>
       <r>    8.7769    0.0000 </r>
       <r>    9.4387    0.0000 </r>
       <r>   15.9263    0.0000 </r>
       <r>   16.0754    0.0000 </r>
       <r>   18.2712    0.0000 </r>
       <r>   19.4950    0.0000 </r>
       <r>   21.5394    0.0000 </r>
       <r>   23.9317    0.0000 </r>
      </set>
      <set comment="kpoint 27">
       <r>   -3.7445    1.0000 </r>
       <r>    1.4090    1.0000 </r>
       <r>    3.4225    0.0000 </r>
       <r>    4.7515    0.0000 </r>
       <r>    8.5659    0.0000 </r>
       <r>   10.7073    0.0000 </r>
       <r>   15.3229    0.0000 </r>
       <r>   15.7395    0.0000 </r>
       <r>   19.2809    0.0000 </r>
       <r>   20.4771    0.0000 </r>
       <r>   21.8741    0.0000 </r>
       <r>   23.8505    0.0000 </r>
      </set>
      <set comment="kpoint 28">
       <r>   -3.1415    1.0000 </r>
       <r>    0.5987    1.0000 </r>
       <r>    2.6500    0.0938 </r>
       <r>    4.9024    0.0000 </r>
       <r>    8.6722    0.0000 </r>
       <r>   12.3388    0.0000 </r>
       <r>   14.7474    0.0000 </r>
       <r>   15.3702    0.0000 </r>
       <r>   18.4901    0.0000 </r>
       <r>   19.9259    0.0000 </r>
       <r>   21.9875    0.0000 </r>
       <r>   24.1867    0.0000 </r>
      </set>
      <set comment="kpoint 29">
       <r>   -3.1768    1.0000 </r>
       <r>    0.7131    1.0000 </r>
       <r>    2.1994    1.0000 </r>
       <r>    5.2417    0.0000 </r>
       <r>    9.0969    0.0000 </r>
       <r>   13.7177    0.0000 </r>
       <r>   14.2939    0.0000 </r>
       <r>   14.9802    0.0000 </r>
       <r>   16.7133    0.0000 </r>
       <r>   19.2101    0.0000 </r>
       <r>   21.8108    0.0000 </r>
       <r>   24.9229    0.0000 </r>
      </set>
      <set comment="kpoint 30">
       <r>   -3.8006    1.0000 </r>
       <r>    1.4661    1.0000 </r>
       <r>    2.3630    0.9969 </r>
       <r>    5.7223    0.0000 </r>
       <r>    9.8208    0.0000 </r>
       <r>   13.7354    0.0000 </r>
       <r>   13.8178    0.0000 </r>
       <r>   14.7471    0.0000 </r>
       <r>   15.2452    0.0000 </r>
       <r>   19.6684    0.0000 </r>
       <r>   22.1326    0.0000 </r>
       <r>   22.6481    0.0000 </r>
      </set>
      <set comment="kpoint 31">
       <r>   -3.9738    1.0000 </r>
       <r>    1.8871    1.0000 </r>
       <r>    4.4855    0.0000 </r>
       <r>    4.4855    0.0000 </r>
       <r>    8.1820    0.0000 </r>
       <r>    8.2467    0.0000 </r>
       <r>   17.7026    0.0000 </r>
       <r>   17.7026    0.0000 </r>
       <r>   18.1314    0.0000 </r>
       <r>   19.8864    0.0000 </r>
       <r>   23.4793    0.0000 </r>
       <r>   23.9996    0.0000 </r>
      </set>
      <set comment="kpoint 32">
       <r>   -3.3576    1.0000 </r>
       <r>    1.1223    1.0000 </r>
       <r>    3.6917    0.0000 </r>
       <r>    4.3689    0.0000 </r>
       <r>    7.9387    0.0000 </r>
       <r>    8.7788    0.0000 </r>
       <r>   17.3137    0.0000 </r>
       <r>   17.7893    0.0000 </r>
       <r>   19.3677    0.0000 </r>
       <r>   21.2730    0.0000 </r>
       <r>   22.8407    0.0000 </r>
       <r>   23.4711    0.0000 </r>
      </set>
      <set comment="kpoint 33">
       <r>   -2.8276    1.0000 </r>
       <r>    0.7182    1.0000 </r>
       <r>    2.4565    0.9220 </r>
       <r>    4.4662    0.0000 </r>
       <r>    8.0147    0.0000 </r>
       <r>   10.3700    0.0000 </r>
       <r>   16.6061    0.0000 </r>
       <r>   17.1068    0.0000 </r>
       <r>   18.8556    0.0000 </r>
       <r>   20.8214    0.0000 </r>
       <r>   23.6803    0.0000 </r>
       <r>   24.2652    0.0000 </r>
      </set>
      <set comment="kpoint 34">
       <r>   -2.7599    1.0000 </r>
       <r>    1.0125    1.0000 </r>
       <r>    1.4705    1.0000 </r>
       <r>    4.7689    0.0000 </r>
       <r>    8.4051    0.0000 </r>
       <r>   12.2941    0.0000 </r>
       <r>   15.6976    0.0000 </r>
       <r>   16.0057    0.0000 </r>
       <r>   17.4492    0.0000 </r>
       <r>   19.6502    0.0000 </r>
       <r>   23.9198    0.0000 </r>
       <r>   25.0335    0.0000 </r>
      </set>
      <set comment="kpoint 35">
       <r>   -2.9207    1.0000 </r>
       <r>    0.4889    1.0000 </r>
       <r>    4.1862    0.0000 </r>
       <r>    4.1862    0.0000 </r>
       <r>    7.4950    0.0000 </r>
       <r>    7.8785    0.0000 </r>
       <r>   18.8538    0.0000 </r>
       <r>   19.4546    0.0000 </r>
       <r>   19.4546    0.0000 </r>
       <r>   21.1076    0.0000 </r>
       <r>   22.5045    0.0000 </r>
       <r>   22.5045    0.0000 </r>
      </set>
      <set comment="kpoint 36">
       <r>   -2.6872    1.0000 </r>
       <r>    0.3188    1.0000 </r>
       <r>    3.4654    0.0000 </r>
       <r>    4.2196    0.0000 </r>
       <r>    7.6468    0.0000 </r>
       <r>    8.5750    0.0000 </r>
       <r>   18.2202    0.0000 </r>
       <r>   18.8168    0.0000 </r>
       <r>   19.5022    0.0000 </r>
       <r>   21.6003    0.0000 </r>
       <r>   22.3701    0.0000 </r>
       <r>   22.9183    0.0000 </r>
      </set>
      <set comment="kpoint 37">
       <r>   -5.7050    1.0000 </r>
       <r>    4.2560    0.0000 </r>
       <r>    5.2769    0.0000 </r>
       <r>    6.4834    0.0000 </r>
       <r>   10.8615    0.0000 </r>
       <r>   12.0823    0.0000 </r>
       <r>   13.1235    0.0000 </r>
       <r>   13.7918    0.0000 </r>
       <r>   15.3194    0.0000 </r>
       <r>   17.2848    0.0000 </r>
       <r>   19.6411    0.0000 </r>
       <r>   19.6583    0.0000 </r>
      </set>
      <set comment="kpoint 38">
       <r>   -5.1024    1.0000 </r>
       <r>    2.7536    0.0027 </r>
       <r>    4.6734    0.0000 </r>
       <r>    6.1685    0.0000 </r>
       <r>   10.9132    0.0000 </r>
       <r>   11.7399    0.0000 </r>
       <r>   13.0096    0.0000 </r>
       <r>   14.0455    0.0000 </r>
       <r>   15.8998    0.0000 </r>
       <r>   18.6262    0.0000 </r>
       <r>   19.4532    0.0000 </r>
       <r>   21.9591    0.0000 </r>
      </set>
      <set comment="kpoint 39">
       <r>   -4.3402    1.0000 </r>
       <r>    1.1724    1.0000 </r>
       <r>    4.4442    0.0000 </r>
       <r>    5.7717    0.0000 </r>
       <r>   10.6570    0.0000 </r>
       <r>   11.4990    0.0000 </r>
       <r>   13.1803    0.0000 </r>
       <r>   14.5799    0.0000 </r>
       <r>   17.0725    0.0000 </r>
       <r>   18.2557    0.0000 </r>
       <r>   21.0197    0.0000 </r>
       <r>   23.0937    0.0000 </r>
      </set>
      <set comment="kpoint 40">
       <r>   -3.6553    1.0000 </r>
       <r>    0.0451    1.0000 </r>
       <r>    4.3777    0.0000 </r>
       <r>    5.5040    0.0000 </r>
       <r>   10.5453    0.0000 </r>
       <r>   11.1985    0.0000 </r>
       <r>   13.1388    0.0000 </r>
       <r>   15.8061    0.0000 </r>
       <r>   17.4910    0.0000 </r>
       <r>   18.1982    0.0000 </r>
       <r>   21.6868    0.0000 </r>
       <r>   22.4720    0.0000 </r>
      </set>
      <set comment="kpoint 41">
       <r>   -4.8943    1.0000 </r>
       <r>    3.0478    0.0000 </r>
       <r>    4.4214    0.0000 </r>
       <r>    5.3416    0.0000 </r>
       <r>    9.9239    0.0000 </r>
       <r>   10.1915    0.0000 </r>
       <r>   14.1862    0.0000 </r>
       <r>   15.6866    0.0000 </r>
       <r>   16.8789    0.0000 </r>
       <r>   19.2329    0.0000 </r>
       <r>   20.8234    0.0000 </r>
       <r>   21.7764    0.0000 </r>
      </set>
      <set comment="kpoint 42">
       <r>   -4.1944    1.0000 </r>
       <r>    1.8417    1.0000 </r>
       <r>    3.7457    0.0000 </r>
       <r>    4.9125    0.0000 </r>
       <r>    9.7533    0.0000 </r>
       <r>   11.0596    0.0000 </r>
       <r>   13.6595    0.0000 </r>
       <r>   15.7826    0.0000 </r>
       <r>   17.7839    0.0000 </r>
       <r>   20.1473    0.0000 </r>
       <r>   21.5415    0.0000 </r>
       <r>   23.3141    0.0000 </r>
      </set>
      <set comment="kpoint 43">
       <r>   -3.4753    1.0000 </r>
       <r>    0.6968    1.0000 </r>
       <r>    3.3094    0.0000 </r>
       <r>    4.6985    0.0000 </r>
       <r>    9.7167    0.0000 </r>
       <r>   12.1025    0.0000 </r>
       <r>   13.6012    0.0000 </r>
       <r>   15.4407    0.0000 </r>
       <r>   18.2282    0.0000 </r>
       <r>   19.7905    0.0000 </r>
       <r>   22.3320    0.0000 </r>
       <r>   22.6413    0.0000 </r>
      </set>
      <set comment="kpoint 44">
       <r>   -3.2129    1.0000 </r>
       <r>    0.3319    1.0000 </r>
       <r>    2.9958    0.0000 </r>
       <r>    4.8255    0.0000 </r>
       <r>    9.9565    0.0000 </r>
       <r>   12.1876    0.0000 </r>
       <r>   14.4576    0.0000 </r>
       <r>   14.9249    0.0000 </r>
       <r>   17.4724    0.0000 </r>
       <r>   19.5378    0.0000 </r>
       <r>   21.5470    0.0000 </r>
       <r>   23.5726    0.0000 </r>
      </set>
      <set comment="kpoint 45">
       <r>   -3.7148    1.0000 </r>
       <r>    1.0875    1.0000 </r>
       <r>    2.8963    0.0000 </r>
       <r>    5.2153    0.0000 </r>
       <r>   10.4196    0.0000 </r>
       <r>   12.1234    0.0000 </r>
       <r>   13.5581    0.0000 </r>
       <r>   15.2211    0.0000 </r>
       <r>   16.7375    0.0000 </r>
       <r>   19.7294    0.0000 </r>
       <r>   21.4467    0.0000 </r>
       <r>   23.7244    0.0000 </r>
      </set>
      <set comment="kpoint 46">
       <r>   -4.4579    1.0000 </r>
       <r>    2.1690    1.0000 </r>
       <r>    3.3208    0.0000 </r>
       <r>    5.7402    0.0000 </r>
       <r>   10.9996    0.0000 </r>
       <r>   11.8798    0.0000 </r>
       <r>   12.6605    0.0000 </r>
       <r>   15.2544    0.0000 </r>
       <r>   15.6580    0.0000 </r>
       <r>   20.1435    0.0000 </r>
       <r>   21.8080    0.0000 </r>
       <r>   21.8495    0.0000 </r>
      </set>
      <set comment="kpoint 47">
       <r>   -3.8510    1.0000 </r>
       <r>    1.7808    1.0000 </r>
       <r>    3.8062    0.0000 </r>
       <r>    4.2712    0.0000 </r>
       <r>    8.9743    0.0000 </r>
       <r>    9.2510    0.0000 </r>
       <r>   15.4943    0.0000 </r>
       <r>   17.6473    0.0000 </r>
       <r>   18.1766    0.0000 </r>
       <r>   21.2107    0.0000 </r>
       <r>   22.4645    0.0000 </r>
       <r>   23.6679    0.0000 </r>
      </set>
      <set comment="kpoint 48">
       <r>   -3.1866    1.0000 </r>
       <r>    1.0933    1.0000 </r>
       <r>    2.8138    0.0001 </r>
       <r>    4.0359    0.0000 </r>
       <r>    9.0201    0.0000 </r>
       <r>   10.5913    0.0000 </r>
       <r>   14.8975    0.0000 </r>
       <r>   17.1073    0.0000 </r>
       <r>   18.6772    0.0000 </r>
       <r>   21.8367    0.0000 </r>
       <r>   22.6942    0.0000 </r>
       <r>   23.3574    0.0000 </r>
      </set>
      <set comment="kpoint 49">
       <r>   -2.8155    1.0000 </r>
       <r>    0.8574    1.0000 </r>
       <r>    1.9348    1.0000 </r>
       <r>    4.2010    0.0000 </r>
       <r>    9.2631    0.0000 </r>
       <r>   12.3137    0.0000 </r>
       <r>   14.4691    0.0000 </r>
       <r>   15.6668    0.0000 </r>
       <r>   18.1866    0.0000 </r>
       <r>   20.6383    0.0000 </r>
       <r>   23.0994    0.0000 </r>
       <r>   24.1333    0.0000 </r>
      </set>
      <set comment="kpoint 50">
       <r>   -3.0868    1.0000 </r>
       <r>    1.2051    1.0000 </r>
       <r>    1.6925    1.0000 </r>
       <r>    4.6242    0.0000 </r>
       <r>    9.7530    0.0000 </r>
       <r>   13.3538    0.0000 </r>
       <r>   13.8057    0.0000 </r>
       <r>   14.9891    0.0000 </r>
       <r>   17.2322    0.0000 </r>
       <r>   19.7761    0.0000 </r>
       <r>   22.9066    0.0000 </r>
       <r>   24.1962    0.0000 </r>
      </set>
      <set comment="kpoint 51">
       <r>   -2.8558    1.0000 </r>
       <r>    0.6233    1.0000 </r>
       <r>    3.4892    0.0000 </r>
       <r>    3.7024    0.0000 </r>
       <r>    8.4005    0.0000 </r>
       <r>    8.9045    0.0000 </r>
       <r>   16.9399    0.0000 </r>
       <r>   18.2079    0.0000 </r>
       <r>   19.4652    0.0000 </r>
       <r>   22.4783    0.0000 </r>
       <r>   22.6407    0.0000 </r>
       <r>   22.6494    0.0000 </r>
      </set>
      <set comment="kpoint 52">
       <r>   -2.6314    1.0000 </r>
       <r>    0.6666    1.0000 </r>
       <r>    2.3852    0.9924 </r>
       <r>    3.7843    0.0000 </r>
       <r>    8.7807    0.0000 </r>
       <r>   10.4283    0.0000 </r>
       <r>   16.3030    0.0000 </r>
       <r>   16.3671    0.0000 </r>
       <r>   19.3774    0.0000 </r>
       <r>   21.4024    0.0000 </r>
       <r>   23.5499    0.0000 </r>
       <r>   24.0628    0.0000 </r>
      </set>
      <set comment="kpoint 53">
       <r>   -3.5159    1.0000 </r>
       <r>    1.4549    1.0000 </r>
       <r>    2.6697    0.0553 </r>
       <r>    4.2431    0.0000 </r>
       <r>   10.4846    0.0000 </r>
       <r>   11.3378    0.0000 </r>
       <r>   13.1069    0.0000 </r>
       <r>   16.7499    0.0000 </r>
       <r>   17.4748    0.0000 </r>
       <r>   21.0827    0.0000 </r>
       <r>   22.3800    0.0000 </r>
       <r>   23.7257    0.0000 </r>
      </set>
      <set comment="kpoint 54">
       <r>   -2.9488    1.0000 </r>
       <r>    0.9357    1.0000 </r>
       <r>    2.2330    1.0000 </r>
       <r>    3.7943    0.0000 </r>
       <r>   10.5842    0.0000 </r>
       <r>   12.1826    0.0000 </r>
       <r>   13.3584    0.0000 </r>
       <r>   15.3424    0.0000 </r>
       <r>   18.2385    0.0000 </r>
       <r>   21.3315    0.0000 </r>
       <r>   22.4075    0.0000 </r>
       <r>   23.7774    0.0000 </r>
      </set>
      <set comment="kpoint 55">
       <r>   -2.7118    1.0000 </r>
       <r>    0.9993    1.0000 </r>
       <r>    2.3358    0.9991 </r>
       <r>    3.1277    0.0000 </r>
       <r>   10.1634    0.0000 </r>
       <r>   11.0400    0.0000 </r>
       <r>   14.3218    0.0000 </r>
       <r>   15.8320    0.0000 </r>
       <r>   19.4794    0.0000 </r>
       <r>   22.6589    0.0000 </r>
       <r>   23.0650    0.0000 </r>
       <r>   23.4086    0.0000 </r>
      </set>
      <set comment="kpoint 56">
       <r>   -2.6139    1.0000 </r>
       <r>    1.3510    1.0000 </r>
       <r>    1.5661    1.0000 </r>
       <r>    3.1631    0.0000 </r>
       <r>   10.5939    0.0000 </r>
       <r>   12.4890    0.0000 </r>
       <r>   13.6065    0.0000 </r>
       <r>   14.4437    0.0000 </r>
       <r>   19.4477    0.0000 </r>
       <r>   21.9533    0.0000 </r>
       <r>   23.5779    0.0000 </r>
       <r>   24.0313    0.0000 </r>
      </set>
     </set>
    </set>
   </array>
  </eigenvalues>
  <separator name="orbital magnetization" >
   <v name="MAGDIPOLOUT">      0.00000000      0.00000000      0.00000000</v>
  </separator>
  <dos>
   <i name="efermi">      2.55683135 </i>
   <total>
    <array>
     <dimension dim="1">gridpoints</dimension>
     <dimension dim="2">spin</dimension>
     <field>energy</field>
     <field>total</field>
     <field>integrated</field>
     <set>
      <set comment="spin 1">
       <r>    -8.1453     0.0000     0.0000 </r>
       <r>    -8.0283     0.0000     0.0000 </r>
       <r>    -7.9113     0.0000     0.0000 </r>
       <r>    -7.7943     0.0000     0.0000 </r>
       <r>    -7.6773     0.0000     0.0000 </r>
       <r>    -7.5603     0.0000     0.0000 </r>
       <r>    -7.4433     0.0000     0.0000 </r>
       <r>    -7.3263     0.0000     0.0000 </r>
       <r>    -7.2093     0.0000     0.0000 </r>
       <r>    -7.0923     0.0000     0.0000 </r>
       <r>    -6.9752     0.0000     0.0000 </r>
       <r>    -6.8582     0.0000     0.0000 </r>
       <r>    -6.7412     0.0000     0.0000 </r>
       <r>    -6.6242     0.0021     0.0002 </r>
       <r>    -6.5072     0.0213     0.0027 </r>
       <r>    -6.3902     0.0921     0.0135 </r>
       <r>    -6.2732     0.0986     0.0251 </r>
       <r>    -6.1562     0.1465     0.0422 </r>
       <r>    -6.0392     0.2603     0.0727 </r>
       <r>    -5.9222     0.1481     0.0900 </r>
       <r>    -5.8052     0.1414     0.1065 </r>
       <r>    -5.6882     0.3616     0.1488 </r>
       <r>    -5.5712     0.2832     0.1820 </r>
       <r>    -5.4541     0.2984     0.2169 </r>
       <r>    -5.3371     0.2723     0.2487 </r>
       <r>    -5.2201     0.1582     0.2673 </r>
       <r>    -5.1031     0.4596     0.3210 </r>
       <r>    -4.9861     0.5350     0.3836 </r>
       <r>    -4.8691     0.3224     0.4214 </r>
       <r>    -4.7521     0.4320     0.4719 </r>
       <r>    -4.6351     0.2744     0.5040 </r>
       <r>    -4.5181     0.3090     0.5402 </r>
       <r>    -4.4011     0.6519     0.6164 </r>
       <r>    -4.2841     0.7029     0.6987 </r>
       <r>    -4.1671     0.6236     0.7716 </r>
       <r>    -4.0501     0.4092     0.8195 </r>
       <r>    -3.9331     0.4876     0.8766 </r>
       <r>    -3.8160     0.5912     0.9457 </r>
       <r>    -3.6990     1.1902     1.0850 </r>
       <r>    -3.5820     0.9473     1.1958 </r>
       <r>    -3.4650     0.7544     1.2841 </r>
       <r>    -3.3480     0.6482     1.3600 </r>
       <r>    -3.2310     0.6576     1.4369 </r>
       <r>    -3.1140     1.1504     1.5715 </r>
       <r>    -2.9970     0.6368     1.6460 </r>
       <r>    -2.8800     0.7407     1.7327 </r>
       <r>    -2.7630     1.0060     1.8504 </r>
       <r>    -2.6460     0.7785     1.9415 </r>
       <r>    -2.5290     0.4384     1.9928 </r>
       <r>    -2.4120     0.0607     1.9999 </r>
       <r>    -2.2949     0.0010     2.0000 </r>
       <r>    -2.1779     0.0000     2.0000 </r>
       <r>    -2.0609     0.0000     2.0000 </r>
       <r>    -1.9439     0.0000     2.0000 </r>
       <r>    -1.8269     0.0000     2.0000 </r>
       <r>    -1.7099     0.0000     2.0000 </r>
       <r>    -1.5929     0.0000     2.0000 </r>
       <r>    -1.4759     0.0000     2.0000 </r>
       <r>    -1.3589     0.0000     2.0000 </r>
       <r>    -1.2419     0.0000     2.0000 </r>
       <r>    -1.1249     0.0000     2.0000 </r>
       <r>    -1.0079     0.0000     2.0000 </r>
       <r>    -0.8909     0.0000     2.0000 </r>
       <r>    -0.7739     0.0000     2.0000 </r>
       <r>    -0.6568     0.0000     2.0000 </r>
       <r>    -0.5398     0.0006     2.0001 </r>
       <r>    -0.4228     0.0364     2.0043 </r>
       <r>    -0.3058     0.2085     2.0287 </r>
       <r>    -0.1888     0.1525     2.0466 </r>
       <r>    -0.0718     0.0967     2.0579 </r>
       <r>     0.0452     0.5004     2.1164 </r>
       <r>     0.1622     0.5331     2.1788 </r>
       <r>     0.2792     0.2989     2.2138 </r>
       <r>     0.3962     0.5436     2.2774 </r>
       <r>     0.5132     0.5371     2.3402 </r>
       <r>     0.6302     0.8231     2.4365 </r>
       <r>     0.7472     1.2494     2.5827 </r>
       <r>     0.8643     1.0002     2.6998 </r>
       <r>     0.9813     0.9894     2.8155 </r>
       <r>     1.0983     1.2474     2.9615 </r>
       <r>     1.2153     1.2477     3.1075 </r>
       <r>     1.3323     0.5406     3.1707 </r>
       <r>     1.4493     0.6714     3.2493 </r>
       <r>     1.5663     0.7503     3.3371 </r>
       <r>     1.6833     0.4631     3.3912 </r>
       <r>     1.8003     0.7009     3.4733 </r>
       <r>     1.9173     0.8400     3.5715 </r>
       <r>     2.0343     0.5343     3.6340 </r>
       <r>     2.1513     0.5274     3.6958 </r>
       <r>     2.2683     0.9861     3.8111 </r>
       <r>     2.3853     0.8122     3.9062 </r>
       <r>     2.5024     0.5763     3.9736 </r>
       <r>     2.6194     0.5113     4.0334 </r>
       <r>     2.7364     0.7478     4.1209 </r>
       <r>     2.8534     0.9368     4.2305 </r>
       <r>     2.9704     0.8338     4.3281 </r>
       <r>     3.0874     0.7823     4.4196 </r>
       <r>     3.2044     0.7014     4.5017 </r>
       <r>     3.3214     0.8071     4.5962 </r>
       <r>     3.4384     0.7390     4.6826 </r>
       <r>     3.5554     0.4844     4.7393 </r>
       <r>     3.6724     0.6762     4.8184 </r>
       <r>     3.7894     1.6569     5.0123 </r>
       <r>     3.9064     1.3550     5.1709 </r>
       <r>     4.0235     0.6484     5.2467 </r>
       <r>     4.1405     0.5750     5.3140 </r>
       <r>     4.2575     1.1698     5.4509 </r>
       <r>     4.3745     1.5797     5.6357 </r>
       <r>     4.4915     1.5859     5.8213 </r>
       <r>     4.6085     0.7843     5.9130 </r>
       <r>     4.7255     1.1188     6.0439 </r>
       <r>     4.8425     1.3148     6.1978 </r>
       <r>     4.9595     1.1344     6.3305 </r>
       <r>     5.0765     0.5452     6.3943 </r>
       <r>     5.1935     0.7239     6.4790 </r>
       <r>     5.3105     1.5340     6.6585 </r>
       <r>     5.4275     1.3428     6.8156 </r>
       <r>     5.5445     1.2690     6.9641 </r>
       <r>     5.6616     0.8056     7.0584 </r>
       <r>     5.7786     0.9547     7.1701 </r>
       <r>     5.8956     1.1940     7.3098 </r>
       <r>     6.0126     0.6915     7.3907 </r>
       <r>     6.1296     0.5814     7.4587 </r>
       <r>     6.2466     1.1855     7.5974 </r>
       <r>     6.3636     0.9096     7.7039 </r>
       <r>     6.4806     0.4892     7.7611 </r>
       <r>     6.5976     0.6594     7.8383 </r>
       <r>     6.7146     0.4773     7.8941 </r>
       <r>     6.8316     0.2780     7.9266 </r>
       <r>     6.9486     0.2695     7.9582 </r>
       <r>     7.0656     0.2453     7.9869 </r>
       <r>     7.1827     0.1032     7.9990 </r>
       <r>     7.2997     0.0090     8.0000 </r>
       <r>     7.4167     0.0103     8.0012 </r>
       <r>     7.5337     0.0526     8.0074 </r>
       <r>     7.6507     0.0935     8.0183 </r>
       <r>     7.7677     0.0749     8.0271 </r>
       <r>     7.8847     0.1196     8.0411 </r>
       <r>     8.0017     0.3369     8.0805 </r>
       <r>     8.1187     0.2303     8.1074 </r>
       <r>     8.2357     0.1041     8.1196 </r>
       <r>     8.3527     0.1635     8.1387 </r>
       <r>     8.4697     0.3149     8.1756 </r>
       <r>     8.5867     0.3534     8.2169 </r>
       <r>     8.7037     0.4774     8.2728 </r>
       <r>     8.8208     0.6866     8.3531 </r>
       <r>     8.9378     0.6082     8.4243 </r>
       <r>     9.0548     0.7573     8.5129 </r>
       <r>     9.1718     0.5163     8.5733 </r>
       <r>     9.2888     0.5729     8.6404 </r>
       <r>     9.4058     0.4467     8.6926 </r>
       <r>     9.5228     0.4421     8.7444 </r>
       <r>     9.6398     0.5840     8.8127 </r>
       <r>     9.7568     1.0931     8.9406 </r>
       <r>     9.8738     0.9863     9.0560 </r>
       <r>     9.9908     0.8225     9.1522 </r>
       <r>    10.1078     0.5967     9.2221 </r>
       <r>    10.2248     0.5162     9.2825 </r>
       <r>    10.3419     0.4835     9.3390 </r>
       <r>    10.4589     1.2021     9.4797 </r>
       <r>    10.5759     1.9502     9.7079 </r>
       <r>    10.6929     1.8251     9.9214 </r>
       <r>    10.8099     1.1254    10.0531 </r>
       <r>    10.9269     1.2169    10.1955 </r>
       <r>    11.0439     1.2163    10.3378 </r>
       <r>    11.1609     1.0434    10.4599 </r>
       <r>    11.2779     0.8514    10.5595 </r>
       <r>    11.3949     0.9681    10.6728 </r>
       <r>    11.5119     0.9926    10.7889 </r>
       <r>    11.6289     0.7113    10.8722 </r>
       <r>    11.7459     0.7844    10.9639 </r>
       <r>    11.8629     0.7592    11.0528 </r>
       <r>    11.9800     0.8679    11.1543 </r>
       <r>    12.0970     1.1545    11.2894 </r>
       <r>    12.2140     2.1977    11.5465 </r>
       <r>    12.3310     1.7869    11.7556 </r>
       <r>    12.4480     1.1226    11.8870 </r>
       <r>    12.5650     1.1487    12.0214 </r>
       <r>    12.6820     0.9885    12.1371 </r>
       <r>    12.7990     0.7359    12.2232 </r>
       <r>    12.9160     0.6514    12.2994 </r>
       <r>    13.0330     0.9672    12.4125 </r>
       <r>    13.1500     1.4453    12.5817 </r>
       <r>    13.2670     1.3417    12.7386 </r>
       <r>    13.3840     1.0216    12.8582 </r>
       <r>    13.5011     0.9323    12.9673 </r>
       <r>    13.6181     1.4151    13.1329 </r>
       <r>    13.7351     1.2494    13.2790 </r>
       <r>    13.8521     0.7696    13.3691 </r>
       <r>    13.9691     0.4642    13.4234 </r>
       <r>    14.0861     0.8175    13.5190 </r>
       <r>    14.2031     1.0595    13.6430 </r>
       <r>    14.3201     1.0213    13.7625 </r>
       <r>    14.4371     1.0966    13.8908 </r>
       <r>    14.5541     1.3889    14.0534 </r>
       <r>    14.6711     1.0446    14.1756 </r>
       <r>    14.7881     0.8112    14.2705 </r>
       <r>    14.9051     1.1315    14.4029 </r>
       <r>    15.0221     1.3669    14.5628 </r>
       <r>    15.1392     0.7504    14.6506 </r>
       <r>    15.2562     1.1200    14.7817 </r>
       <r>    15.3732     1.6533    14.9751 </r>
       <r>    15.4902     1.1860    15.1139 </r>
       <r>    15.6072     0.9633    15.2266 </r>
       <r>    15.7242     1.8511    15.4432 </r>
       <r>    15.8412     2.1928    15.6998 </r>
       <r>    15.9582     1.6571    15.8937 </r>
       <r>    16.0752     0.6665    15.9716 </r>
       <r>    16.1922     0.2214    15.9976 </r>
       <r>    16.3092     0.3647    16.0402 </r>
       <r>    16.4262     0.5946    16.1098 </r>
       <r>    16.5432     0.6546    16.1864 </r>
       <r>    16.6603     0.9814    16.3012 </r>
       <r>    16.7773     1.1905    16.4405 </r>
       <r>    16.8943     0.7445    16.5276 </r>
       <r>    17.0113     0.8466    16.6267 </r>
       <r>    17.1283     1.3351    16.7829 </r>
       <r>    17.2453     1.1533    16.9179 </r>
       <r>    17.3623     1.1025    17.0469 </r>
       <r>    17.4793     1.2147    17.1890 </r>
       <r>    17.5963     1.0645    17.3135 </r>
       <r>    17.7133     0.7383    17.3999 </r>
       <r>    17.8303     0.9658    17.5129 </r>
       <r>    17.9473     0.6104    17.5843 </r>
       <r>    18.0643     0.5732    17.6514 </r>
       <r>    18.1814     1.9533    17.8800 </r>
       <r>    18.2984     2.8345    18.2116 </r>
       <r>    18.4154     1.3490    18.3695 </r>
       <r>    18.5324     0.7536    18.4576 </r>
       <r>    18.6494     0.7904    18.5501 </r>
       <r>    18.7664     0.8237    18.6465 </r>
       <r>    18.8834     0.7110    18.7297 </r>
       <r>    19.0004     0.6278    18.8031 </r>
       <r>    19.1174     0.5696    18.8698 </r>
       <r>    19.2344     0.7037    18.9521 </r>
       <r>    19.3514     0.9210    19.0599 </r>
       <r>    19.4684     1.6261    19.2502 </r>
       <r>    19.5854     1.7412    19.4539 </r>
       <r>    19.7024     1.3484    19.6117 </r>
       <r>    19.8195     1.4969    19.7868 </r>
       <r>    19.9365     0.7553    19.8752 </r>
       <r>    20.0535     0.3665    19.9181 </r>
       <r>    20.1705     0.5825    19.9863 </r>
       <r>    20.2875     0.3808    20.0308 </r>
       <r>    20.4045     0.3607    20.0730 </r>
       <r>    20.5215     0.8256    20.1696 </r>
       <r>    20.6385     0.5246    20.2310 </r>
       <r>    20.7555     0.4110    20.2791 </r>
       <r>    20.8725     0.4607    20.3330 </r>
       <r>    20.9895     0.5206    20.3939 </r>
       <r>    21.1065     0.8986    20.4990 </r>
       <r>    21.2235     0.9626    20.6117 </r>
       <r>    21.3406     1.2465    20.7575 </r>
       <r>    21.4576     1.3016    20.9098 </r>
       <r>    21.5746     1.4771    21.0827 </r>
       <r>    21.6916     1.0911    21.2103 </r>
       <r>    21.8086     1.1433    21.3441 </r>
       <r>    21.9256     1.4890    21.5183 </r>
       <r>    22.0426     0.9368    21.6279 </r>
       <r>    22.1596     0.2631    21.6587 </r>
       <r>    22.2766     0.2566    21.6888 </r>
       <r>    22.3936     1.0879    21.8160 </r>
       <r>    22.5106     1.5609    21.9987 </r>
       <r>    22.6276     1.5257    22.1772 </r>
       <r>    22.7446     1.5338    22.3567 </r>
       <r>    22.8616     0.5747    22.4239 </r>
       <r>    22.9787     0.4845    22.4806 </r>
       <r>    23.0957     0.9098    22.5871 </r>
       <r>    23.2127     1.0777    22.7132 </r>
       <r>    23.3297     0.9163    22.8204 </r>
       <r>    23.4467     1.3669    22.9803 </r>
       <r>    23.5637     1.3508    23.1384 </r>
       <r>    23.6807     1.3171    23.2925 </r>
       <r>    23.7977     1.5729    23.4765 </r>
       <r>    23.9147     1.0283    23.5968 </r>
       <r>    24.0317     0.6655    23.6747 </r>
       <r>    24.1487     0.8596    23.7753 </r>
       <r>    24.2657     0.7836    23.8670 </r>
       <r>    24.3827     0.2499    23.8962 </r>
       <r>    24.4998     0.0952    23.9074 </r>
       <r>    24.6168     0.1798    23.9284 </r>
       <r>    24.7338     0.0470    23.9339 </r>
       <r>    24.8508     0.0482    23.9395 </r>
       <r>    24.9678     0.2062    23.9637 </r>
       <r>    25.0848     0.1684    23.9834 </r>
       <r>    25.2018     0.0394    23.9880 </r>
       <r>    25.3188     0.0282    23.9913 </r>
       <r>    25.4358     0.0596    23.9982 </r>
       <r>    25.5528     0.0147    24.0000 </r>
       <r>    25.6698     0.0003    24.0000 </r>
       <r>    25.7868     0.0000    24.0000 </r>
       <r>    25.9038     0.0000    24.0000 </r>
       <r>    26.0208     0.0000    24.0000 </r>
       <r>    26.1379     0.0000    24.0000 </r>
       <r>    26.2549     0.0000    24.0000 </r>
       <r>    26.3719     0.0000    24.0000 </r>
       <r>    26.4889     0.0000    24.0000 </r>
       <r>    26.6059     0.0000    24.0000 </r>
       <r>    26.7229     0.0000    24.0000 </r>
       <r>    26.8399     0.0000    24.0000 </r>
       <r>    26.9569     0.0000    24.0000 </r>
      </set>
     </set>
    </array>
   </total>
  </dos>
 </calculation>
 <structure name="finalpos" >
  <crystal>
   <varray name="basis" >
    <v>       2.50000000       2.50000000       0.00000000 </v>
    <v>       0.00000000       2.50000000       2.50000000 </v>
    <v>       2.50000000       0.00000000       2.50000000 </v>
   </varray>
   <i name="volume">     31.25000000 </i>
   <varray name="rec_basis" >
    <v>       0.20000000       0.20000000      -0.20000000 </v>
    <v>      -0.20000000       0.20000000       0.20000000 </v>
    <v>       0.20000000      -0.20000000       0.20000000 </v>
   </varray>
  </crystal>
  <varray name="positions" >
   <v>       0.00000000       0.00000000       0.00000000 </v>
  </varray>
 </structure>
</modeling>
