   8   8   0   0
  0.2469169E+02  0.5174038E-09  0.5174038E-09  0.8520222E-09  0.5000000E-15
  1.000000000000000E-004
  CAR 
 BC3-optical                             
     80.00529013    -23.23297840 2400     -2.39920318      1.00000000
    -23.233  0.0000E+00  0.0000E+00
    -23.190  0.0000E+00  0.0000E+00
    -23.147  0.0000E+00  0.0000E+00
    -23.104  0.0000E+00  0.0000E+00
    -23.061  0.0000E+00  0.0000E+00
    -23.018  0.0000E+00  0.0000E+00
    -22.975  0.0000E+00  0.0000E+00
    -22.932  0.0000E+00  0.0000E+00
    -22.889  0.0000E+00  0.0000E+00
    -22.846  0.0000E+00  0.0000E+00
    -22.803  0.0000E+00  0.0000E+00
    -22.760  0.0000E+00  0.0000E+00
    -22.717  0.0000E+00  0.0000E+00
    -22.674  0.0000E+00  0.0000E+00
    -22.631  0.0000E+00  0.0000E+00
    -22.587  0.0000E+00  0.0000E+00
    -22.544  0.0000E+00  0.0000E+00
    -22.501  0.0000E+00  0.0000E+00
    -22.458  0.0000E+00  0.0000E+00
    -22.415  0.0000E+00  0.0000E+00
    -22.372  0.0000E+00  0.0000E+00
    -22.329  0.0000E+00  0.0000E+00
    -22.286  0.0000E+00  0.0000E+00
    -22.243  0.0000E+00  0.0000E+00
    -22.200  0.0000E+00  0.0000E+00
    -22.157  0.0000E+00  0.0000E+00
    -22.114  0.0000E+00  0.0000E+00
    -22.071  0.0000E+00  0.0000E+00
    -22.028  0.0000E+00  0.0000E+00
    -21.985  0.0000E+00  0.0000E+00
    -21.942  0.0000E+00  0.0000E+00
    -21.899  0.0000E+00  0.0000E+00
    -21.856  0.0000E+00  0.0000E+00
    -21.813  0.0000E+00  0.0000E+00
    -21.770  0.0000E+00  0.0000E+00
    -21.727  0.0000E+00  0.0000E+00
    -21.684  0.0000E+00  0.0000E+00
    -21.641  0.0000E+00  0.0000E+00
    -21.598  0.0000E+00  0.0000E+00
    -21.555  0.0000E+00  0.0000E+00
    -21.512  0.0000E+00  0.0000E+00
    -21.469  0.0000E+00  0.0000E+00
    -21.426  0.0000E+00  0.0000E+00
    -21.383  0.0000E+00  0.0000E+00
    -21.339  0.0000E+00  0.0000E+00
    -21.296  0.0000E+00  0.0000E+00
    -21.253  0.0000E+00  0.0000E+00
    -21.210  0.0000E+00  0.0000E+00
    -21.167  0.0000E+00  0.0000E+00
    -21.124  0.0000E+00  0.0000E+00
    -21.081  0.0000E+00  0.0000E+00
    -21.038  0.0000E+00  0.0000E+00
    -20.995  0.0000E+00  0.0000E+00
    -20.952  0.0000E+00  0.0000E+00
    -20.909  0.0000E+00  0.0000E+00
    -20.866  0.0000E+00  0.0000E+00
    -20.823  0.0000E+00  0.0000E+00
    -20.780  0.0000E+00  0.0000E+00
    -20.737  0.0000E+00  0.0000E+00
    -20.694  0.0000E+00  0.0000E+00
    -20.651  0.0000E+00  0.0000E+00
    -20.608  0.0000E+00  0.0000E+00
    -20.565  0.0000E+00  0.0000E+00
    -20.522  0.0000E+00  0.0000E+00
    -20.479  0.0000E+00  0.0000E+00
    -20.436  0.0000E+00  0.0000E+00
    -20.393  0.0000E+00  0.0000E+00
    -20.350  0.0000E+00  0.0000E+00
    -20.307  0.0000E+00  0.0000E+00
    -20.264  0.0000E+00  0.0000E+00
    -20.221  0.0000E+00  0.0000E+00
    -20.178  0.0000E+00  0.0000E+00
    -20.135  0.0000E+00  0.0000E+00
    -20.092  0.0000E+00  0.0000E+00
    -20.048  0.0000E+00  0.0000E+00
    -20.005  0.0000E+00  0.0000E+00
    -19.962  0.0000E+00  0.0000E+00
    -19.919  0.0000E+00  0.0000E+00
    -19.876  0.0000E+00  0.0000E+00
    -19.833  0.0000E+00  0.0000E+00
    -19.790  0.0000E+00  0.0000E+00
    -19.747  0.0000E+00  0.0000E+00
    -19.704  0.0000E+00  0.0000E+00
    -19.661  0.0000E+00  0.0000E+00
    -19.618  0.0000E+00  0.0000E+00
    -19.575  0.0000E+00  0.0000E+00
    -19.532  0.0000E+00  0.0000E+00
    -19.489  0.0000E+00  0.0000E+00
    -19.446  0.0000E+00  0.0000E+00
    -19.403  0.0000E+00  0.0000E+00
    -19.360  0.0000E+00  0.0000E+00
    -19.317  0.0000E+00  0.0000E+00
    -19.274  0.0000E+00  0.0000E+00
    -19.231  0.0000E+00  0.0000E+00
    -19.188  0.0000E+00  0.0000E+00
    -19.145  0.0000E+00  0.0000E+00
    -19.102  0.0000E+00  0.0000E+00
    -19.059  0.0000E+00  0.0000E+00
    -19.016  0.0000E+00  0.0000E+00
    -18.973  0.0000E+00  0.0000E+00
    -18.930  0.0000E+00  0.0000E+00
    -18.887  0.0000E+00  0.0000E+00
    -18.844  0.0000E+00  0.0000E+00
    -18.800  0.0000E+00  0.0000E+00
    -18.757  0.0000E+00  0.0000E+00
    -18.714  0.0000E+00  0.0000E+00
    -18.671  0.0000E+00  0.0000E+00
    -18.628  0.0000E+00  0.0000E+00
    -18.585  0.3202E-10  0.1378E-11
    -18.542  0.1262E+00  0.5433E-02
    -18.499  0.2086E+01  0.9521E-01
    -18.456  0.1420E+01  0.1563E+00
    -18.413  0.2497E+01  0.2638E+00
    -18.370  0.2080E+00  0.2727E+00
    -18.327  0.3691E+01  0.4315E+00
    -18.284  0.1914E+01  0.5139E+00
    -18.241  0.1116E+01  0.5619E+00
    -18.198  0.4692E+01  0.7638E+00
    -18.155  0.1662E+01  0.8353E+00
    -18.112  0.7462E+00  0.8675E+00
    -18.069  0.6613E+01  0.1152E+01
    -18.026  0.1773E+01  0.1228E+01
    -17.983  0.3539E+01  0.1381E+01
    -17.940  0.8021E+01  0.1726E+01
    -17.897  0.5071E+01  0.1944E+01
    -17.854  0.1299E+01  0.2000E+01
    -17.811  0.1357E-02  0.2000E+01
    -17.768  0.0000E+00  0.2000E+01
    -17.725  0.0000E+00  0.2000E+01
    -17.682  0.0000E+00  0.2000E+01
    -17.639  0.0000E+00  0.2000E+01
    -17.596  0.0000E+00  0.2000E+01
    -17.553  0.0000E+00  0.2000E+01
    -17.509  0.0000E+00  0.2000E+01
    -17.466  0.0000E+00  0.2000E+01
    -17.423  0.0000E+00  0.2000E+01
    -17.380  0.0000E+00  0.2000E+01
    -17.337  0.0000E+00  0.2000E+01
    -17.294  0.0000E+00  0.2000E+01
    -17.251  0.0000E+00  0.2000E+01
    -17.208  0.0000E+00  0.2000E+01
    -17.165  0.0000E+00  0.2000E+01
    -17.122  0.0000E+00  0.2000E+01
    -17.079  0.0000E+00  0.2000E+01
    -17.036  0.0000E+00  0.2000E+01
    -16.993  0.0000E+00  0.2000E+01
    -16.950  0.0000E+00  0.2000E+01
    -16.907  0.0000E+00  0.2000E+01
    -16.864  0.0000E+00  0.2000E+01
    -16.821  0.0000E+00  0.2000E+01
    -16.778  0.0000E+00  0.2000E+01
    -16.735  0.0000E+00  0.2000E+01
    -16.692  0.0000E+00  0.2000E+01
    -16.649  0.0000E+00  0.2000E+01
    -16.606  0.0000E+00  0.2000E+01
    -16.563  0.0000E+00  0.2000E+01
    -16.520  0.0000E+00  0.2000E+01
    -16.477  0.0000E+00  0.2000E+01
    -16.434  0.0000E+00  0.2000E+01
    -16.391  0.0000E+00  0.2000E+01
    -16.348  0.0000E+00  0.2000E+01
    -16.305  0.2353E-05  0.2000E+01
    -16.261  0.9054E+00  0.2039E+01
    -16.218  0.3043E+01  0.2170E+01
    -16.175  0.2818E+01  0.2291E+01
    -16.132  0.1948E+01  0.2375E+01
    -16.089  0.3450E+01  0.2523E+01
    -16.046  0.4301E+01  0.2709E+01
    -16.003  0.4480E+01  0.2901E+01
    -15.960  0.1330E+01  0.2959E+01
    -15.917  0.1285E+01  0.3014E+01
    -15.874  0.2931E+01  0.3140E+01
    -15.831  0.2879E+01  0.3264E+01
    -15.788  0.0000E+00  0.3264E+01
    -15.745  0.2142E-04  0.3264E+01
    -15.702  0.5277E+01  0.3491E+01
    -15.659  0.2468E+01  0.3597E+01
    -15.616  0.2473E-02  0.3597E+01
    -15.573  0.2248E+01  0.3694E+01
    -15.530  0.1623E+01  0.3764E+01
    -15.487  0.1915E+01  0.3846E+01
    -15.444  0.2047E+01  0.3934E+01
    -15.401  0.3784E+01  0.4097E+01
    -15.358  0.2166E-03  0.4097E+01
    -15.315  0.6246E+01  0.4366E+01
    -15.272  0.1500E+01  0.4431E+01
    -15.229  0.1751E+00  0.4438E+01
    -15.186  0.3701E+01  0.4597E+01
    -15.143  0.4051E+01  0.4772E+01
    -15.100  0.4709E+01  0.4974E+01
    -15.057  0.4850E+01  0.5183E+01
    -15.014  0.2716E+01  0.5300E+01
    -14.970  0.2067E+01  0.5389E+01
    -14.927  0.1455E+01  0.5451E+01
    -14.884  0.4355E+01  0.5639E+01
    -14.841  0.2305E-05  0.5639E+01
    -14.798  0.6845E+00  0.5668E+01
    -14.755  0.5124E+01  0.5889E+01
    -14.712  0.3340E-02  0.5889E+01
    -14.669  0.1933E+01  0.5972E+01
    -14.626  0.6456E+00  0.6000E+01
    -14.583  0.4495E-03  0.6000E+01
    -14.540  0.0000E+00  0.6000E+01
    -14.497  0.0000E+00  0.6000E+01
    -14.454  0.0000E+00  0.6000E+01
    -14.411  0.0000E+00  0.6000E+01
    -14.368  0.0000E+00  0.6000E+01
    -14.325  0.0000E+00  0.6000E+01
    -14.282  0.0000E+00  0.6000E+01
    -14.239  0.0000E+00  0.6000E+01
    -14.196  0.0000E+00  0.6000E+01
    -14.153  0.0000E+00  0.6000E+01
    -14.110  0.0000E+00  0.6000E+01
    -14.067  0.0000E+00  0.6000E+01
    -14.024  0.0000E+00  0.6000E+01
    -13.981  0.0000E+00  0.6000E+01
    -13.938  0.0000E+00  0.6000E+01
    -13.895  0.0000E+00  0.6000E+01
    -13.852  0.0000E+00  0.6000E+01
    -13.809  0.0000E+00  0.6000E+01
    -13.766  0.0000E+00  0.6000E+01
    -13.722  0.0000E+00  0.6000E+01
    -13.679  0.0000E+00  0.6000E+01
    -13.636  0.0000E+00  0.6000E+01
    -13.593  0.0000E+00  0.6000E+01
    -13.550  0.0000E+00  0.6000E+01
    -13.507  0.0000E+00  0.6000E+01
    -13.464  0.0000E+00  0.6000E+01
    -13.421  0.0000E+00  0.6000E+01
    -13.378  0.0000E+00  0.6000E+01
    -13.335  0.0000E+00  0.6000E+01
    -13.292  0.0000E+00  0.6000E+01
    -13.249  0.0000E+00  0.6000E+01
    -13.206  0.0000E+00  0.6000E+01
    -13.163  0.0000E+00  0.6000E+01
    -13.120  0.0000E+00  0.6000E+01
    -13.077  0.0000E+00  0.6000E+01
    -13.034  0.0000E+00  0.6000E+01
    -12.991  0.0000E+00  0.6000E+01
    -12.948  0.0000E+00  0.6000E+01
    -12.905  0.0000E+00  0.6000E+01
    -12.862  0.9063E-02  0.6000E+01
    -12.819  0.1636E+01  0.6071E+01
    -12.776  0.1260E+01  0.6125E+01
    -12.733  0.8450E+00  0.6161E+01
    -12.690  0.3475E+01  0.6311E+01
    -12.647  0.2217E+01  0.6406E+01
    -12.604  0.4004E+01  0.6579E+01
    -12.561  0.1180E+01  0.6629E+01
    -12.518  0.3770E+01  0.6792E+01
    -12.475  0.5443E-02  0.6792E+01
    -12.431  0.5031E+01  0.7008E+01
    -12.388  0.7755E+00  0.7042E+01
    -12.345  0.2393E+01  0.7145E+01
    -12.302  0.1026E+02  0.7586E+01
    -12.259  0.3484E+01  0.7736E+01
    -12.216  0.2710E-01  0.7737E+01
    -12.173  0.1909E+01  0.7819E+01
    -12.130  0.9767E-04  0.7819E+01
    -12.087  0.6742E-01  0.7822E+01
    -12.044  0.1877E+01  0.7903E+01
    -12.001  0.1928E+01  0.7986E+01
    -11.958  0.6996E-03  0.7986E+01
    -11.915  0.2106E+01  0.8077E+01
    -11.872  0.3703E+01  0.8236E+01
    -11.829  0.6352E+00  0.8263E+01
    -11.786  0.3238E+01  0.8403E+01
    -11.743  0.4609E-03  0.8403E+01
    -11.700  0.1927E+01  0.8486E+01
    -11.657  0.9248E-02  0.8486E+01
    -11.614  0.0000E+00  0.8486E+01
    -11.571  0.7848E-03  0.8486E+01
    -11.528  0.1939E+01  0.8570E+01
    -11.485  0.1288E+01  0.8625E+01
    -11.442  0.2363E+01  0.8727E+01
    -11.399  0.5462E+01  0.8962E+01
    -11.356  0.1858E+01  0.9042E+01
    -11.313  0.1364E-04  0.9042E+01
    -11.270  0.3126E-05  0.9042E+01
    -11.227  0.3724E+01  0.9202E+01
    -11.183  0.4716E+00  0.9222E+01
    -11.140  0.9416E-05  0.9222E+01
    -11.097  0.2679E+01  0.9338E+01
    -11.054  0.5064E+01  0.9555E+01
    -11.011  0.1987E+01  0.9641E+01
    -10.968  0.1889E+01  0.9722E+01
    -10.925  0.1548E-05  0.9722E+01
    -10.882  0.1745E+01  0.9797E+01
    -10.839  0.2429E+00  0.9808E+01
    -10.796  0.1885E+01  0.9889E+01
    -10.753  0.3224E-04  0.9889E+01
    -10.710  0.2193E+01  0.9983E+01
    -10.667  0.5522E+01  0.1022E+02
    -10.624  0.3139E-01  0.1022E+02
    -10.581  0.1612E-15  0.1022E+02
    -10.538  0.1807E-01  0.1022E+02
    -10.495  0.9501E+00  0.1026E+02
    -10.452  0.3019E-04  0.1026E+02
    -10.409  0.0000E+00  0.1026E+02
    -10.366  0.9728E-05  0.1026E+02
    -10.323  0.3625E+01  0.1042E+02
    -10.280  0.2478E+00  0.1043E+02
    -10.237  0.0000E+00  0.1043E+02
    -10.194  0.2455E-02  0.1043E+02
    -10.151  0.1932E+01  0.1051E+02
    -10.108  0.2094E-02  0.1051E+02
    -10.065  0.0000E+00  0.1051E+02
    -10.022  0.0000E+00  0.1051E+02
     -9.979  0.0000E+00  0.1051E+02
     -9.936  0.3059E-03  0.1051E+02
     -9.892  0.3220E+00  0.1053E+02
     -9.849  0.4655E-03  0.1053E+02
     -9.806  0.5525E-13  0.1053E+02
     -9.763  0.2316E+00  0.1054E+02
     -9.720  0.7141E+01  0.1085E+02
     -9.677  0.3737E+00  0.1086E+02
     -9.634  0.0000E+00  0.1086E+02
     -9.591  0.3254E-08  0.1086E+02
     -9.548  0.1420E+01  0.1092E+02
     -9.505  0.1162E+01  0.1097E+02
     -9.462  0.9093E+00  0.1101E+02
     -9.419  0.1027E+01  0.1106E+02
     -9.376  0.1187E+01  0.1111E+02
     -9.333  0.2868E+01  0.1123E+02
     -9.290  0.1755E+01  0.1131E+02
     -9.247  0.1800E-05  0.1131E+02
     -9.204  0.2533E-10  0.1131E+02
     -9.161  0.5435E+00  0.1133E+02
     -9.118  0.3889E+01  0.1150E+02
     -9.075  0.5244E+01  0.1172E+02
     -9.032  0.7397E+00  0.1175E+02
     -8.989  0.1242E+01  0.1181E+02
     -8.946  0.7203E+01  0.1212E+02
     -8.903  0.1634E+01  0.1219E+02
     -8.860  0.8046E+00  0.1222E+02
     -8.817  0.1315E+00  0.1223E+02
     -8.774  0.3741E+01  0.1239E+02
     -8.731  0.1822E-01  0.1239E+02
     -8.688  0.1920E+01  0.1247E+02
     -8.644  0.9657E+00  0.1251E+02
     -8.601  0.5781E-03  0.1251E+02
     -8.558  0.0000E+00  0.1251E+02
     -8.515  0.1655E-05  0.1251E+02
     -8.472  0.1792E+01  0.1259E+02
     -8.429  0.5078E+01  0.1281E+02
     -8.386  0.5639E+01  0.1305E+02
     -8.343  0.4226E+01  0.1323E+02
     -8.300  0.6858E+01  0.1353E+02
     -8.257  0.2415E+01  0.1363E+02
     -8.214  0.1345E+00  0.1364E+02
     -8.171  0.0000E+00  0.1364E+02
     -8.128  0.1269E-08  0.1364E+02
     -8.085  0.9836E+00  0.1368E+02
     -8.042  0.9529E+00  0.1372E+02
     -7.999  0.1846E+01  0.1380E+02
     -7.956  0.2821E+01  0.1392E+02
     -7.913  0.4998E+01  0.1414E+02
     -7.870  0.2903E-01  0.1414E+02
     -7.827  0.9563E+00  0.1418E+02
     -7.784  0.3669E+01  0.1434E+02
     -7.741  0.2035E+00  0.1435E+02
     -7.698  0.5550E-02  0.1435E+02
     -7.655  0.3685E+01  0.1451E+02
     -7.612  0.5977E+01  0.1476E+02
     -7.569  0.5531E+01  0.1500E+02
     -7.526  0.4165E+01  0.1518E+02
     -7.483  0.0000E+00  0.1518E+02
     -7.440  0.0000E+00  0.1518E+02
     -7.397  0.5888E-05  0.1518E+02
     -7.353  0.3027E+01  0.1531E+02
     -7.310  0.1905E+01  0.1539E+02
     -7.267  0.4007E+01  0.1557E+02
     -7.224  0.5673E+01  0.1581E+02
     -7.181  0.3262E+01  0.1595E+02
     -7.138  0.1823E+01  0.1603E+02
     -7.095  0.3134E+00  0.1604E+02
     -7.052  0.3896E+01  0.1621E+02
     -7.009  0.1430E+01  0.1627E+02
     -6.966  0.5625E+01  0.1651E+02
     -6.923  0.2203E-01  0.1651E+02
     -6.880  0.4038E-01  0.1652E+02
     -6.837  0.2291E+01  0.1661E+02
     -6.794  0.4322E+01  0.1680E+02
     -6.751  0.1092E+01  0.1685E+02
     -6.708  0.1775E+01  0.1692E+02
     -6.665  0.3493E+01  0.1707E+02
     -6.622  0.1284E+01  0.1713E+02
     -6.579  0.4167E+01  0.1731E+02
     -6.536  0.6924E+01  0.1761E+02
     -6.493  0.4316E+01  0.1779E+02
     -6.450  0.5797E+01  0.1804E+02
     -6.407  0.1928E+01  0.1812E+02
     -6.364  0.1943E+01  0.1821E+02
     -6.321  0.5241E+01  0.1843E+02
     -6.278  0.3786E+01  0.1860E+02
     -6.235  0.7023E+01  0.1890E+02
     -6.192  0.1390E+01  0.1896E+02
     -6.149  0.5795E+01  0.1921E+02
     -6.105  0.3872E+01  0.1937E+02
     -6.062  0.4774E-02  0.1938E+02
     -6.019  0.6438E+00  0.1940E+02
     -5.976  0.4194E+00  0.1942E+02
     -5.933  0.4249E+01  0.1960E+02
     -5.890  0.2752E+01  0.1972E+02
     -5.847  0.6518E+00  0.1975E+02
     -5.804  0.3225E+01  0.1989E+02
     -5.761  0.5886E-06  0.1989E+02
     -5.718  0.1305E-08  0.1989E+02
     -5.675  0.2103E+01  0.1998E+02
     -5.632  0.5643E+01  0.2022E+02
     -5.589  0.1329E+01  0.2028E+02
     -5.546  0.6071E+00  0.2031E+02
     -5.503  0.6119E-11  0.2031E+02
     -5.460  0.7343E+00  0.2034E+02
     -5.417  0.5074E+01  0.2056E+02
     -5.374  0.8937E-03  0.2056E+02
     -5.331  0.1600E+00  0.2056E+02
     -5.288  0.6562E+01  0.2084E+02
     -5.245  0.1333E+01  0.2090E+02
     -5.202  0.5518E+01  0.2114E+02
     -5.159  0.2875E+01  0.2126E+02
     -5.116  0.1413E+00  0.2127E+02
     -5.073  0.1406E+02  0.2187E+02
     -5.030  0.9461E+01  0.2228E+02
     -4.987  0.7586E+01  0.2261E+02
     -4.944  0.1084E+02  0.2307E+02
     -4.901  0.1481E+01  0.2314E+02
     -4.858  0.5829E+01  0.2339E+02
     -4.814  0.7372E+01  0.2371E+02
     -4.771  0.3543E+01  0.2386E+02
     -4.728  0.3928E+01  0.2403E+02
     -4.685  0.5060E-06  0.2403E+02
     -4.642  0.5550E-05  0.2403E+02
     -4.599  0.1819E+01  0.2411E+02
     -4.556  0.3931E+01  0.2428E+02
     -4.513  0.5939E-01  0.2428E+02
     -4.470  0.1471E+01  0.2434E+02
     -4.427  0.1014E+02  0.2478E+02
     -4.384  0.1834E+01  0.2486E+02
     -4.341  0.2771E+01  0.2498E+02
     -4.298  0.1209E+01  0.2503E+02
     -4.255  0.1256E+01  0.2508E+02
     -4.212  0.6803E+00  0.2511E+02
     -4.169  0.1630E+01  0.2518E+02
     -4.126  0.3062E+00  0.2519E+02
     -4.083  0.5327E+01  0.2542E+02
     -4.040  0.2607E+01  0.2554E+02
     -3.997  0.7437E+01  0.2586E+02
     -3.954  0.2427E+01  0.2596E+02
     -3.911  0.1566E+01  0.2603E+02
     -3.868  0.4469E+01  0.2622E+02
     -3.825  0.5214E+01  0.2644E+02
     -3.782  0.2587E-02  0.2644E+02
     -3.739  0.3863E+01  0.2661E+02
     -3.696  0.2400E-01  0.2661E+02
     -3.653  0.1087E+01  0.2666E+02
     -3.610  0.1297E+02  0.2722E+02
     -3.566  0.5004E+01  0.2743E+02
     -3.523  0.5127E+01  0.2765E+02
     -3.480  0.3447E+01  0.2780E+02
     -3.437  0.2381E+01  0.2790E+02
     -3.394  0.2798E+01  0.2802E+02
     -3.351  0.8572E+01  0.2839E+02
     -3.308  0.2095E+01  0.2848E+02
     -3.265  0.5515E+01  0.2872E+02
     -3.222  0.8203E+01  0.2907E+02
     -3.179  0.1051E+01  0.2912E+02
     -3.136  0.2388E+01  0.2922E+02
     -3.093  0.2061E-01  0.2922E+02
     -3.050  0.1922E-05  0.2922E+02
     -3.007  0.2291E+01  0.2932E+02
     -2.964  0.1582E+01  0.2939E+02
     -2.921  0.3477E+01  0.2954E+02
     -2.878  0.1054E+01  0.2958E+02
     -2.835  0.1279E+01  0.2964E+02
     -2.792  0.0000E+00  0.2964E+02
     -2.749  0.2088E-02  0.2964E+02
     -2.706  0.1932E+01  0.2972E+02
     -2.663  0.1853E+01  0.2980E+02
     -2.620  0.2179E+00  0.2981E+02
     -2.577  0.1804E+01  0.2989E+02
     -2.534  0.1153E+01  0.2994E+02
     -2.491  0.7837E+00  0.2997E+02
     -2.448  0.6429E+00  0.3000E+02
     -2.405  0.2317E-02  0.3000E+02
     -2.362  0.0000E+00  0.3000E+02
     -2.319  0.0000E+00  0.3000E+02
     -2.275  0.0000E+00  0.3000E+02
     -2.232  0.0000E+00  0.3000E+02
     -2.189  0.0000E+00  0.3000E+02
     -2.146  0.0000E+00  0.3000E+02
     -2.103  0.0000E+00  0.3000E+02
     -2.060  0.0000E+00  0.3000E+02
     -2.017  0.0000E+00  0.3000E+02
     -1.974  0.0000E+00  0.3000E+02
     -1.931  0.0000E+00  0.3000E+02
     -1.888  0.0000E+00  0.3000E+02
     -1.845  0.7839E-03  0.3000E+02
     -1.802  0.9794E+00  0.3004E+02
     -1.759  0.1924E+01  0.3012E+02
     -1.716  0.2761E-03  0.3013E+02
     -1.673  0.5463E+00  0.3015E+02
     -1.630  0.1390E+01  0.3021E+02
     -1.587  0.2171E+01  0.3030E+02
     -1.544  0.3655E+01  0.3046E+02
     -1.501  0.1919E+01  0.3054E+02
     -1.458  0.2875E+01  0.3067E+02
     -1.415  0.2934E+01  0.3079E+02
     -1.372  0.0000E+00  0.3079E+02
     -1.329  0.6832E-03  0.3079E+02
     -1.286  0.4625E+01  0.3099E+02
     -1.243  0.1184E+01  0.3104E+02
     -1.200  0.1947E+01  0.3113E+02
     -1.157  0.3862E+01  0.3129E+02
     -1.114  0.4133E+01  0.3147E+02
     -1.071  0.3225E+01  0.3161E+02
     -1.027  0.3877E+00  0.3162E+02
     -0.984  0.0000E+00  0.3162E+02
     -0.941  0.0000E+00  0.3162E+02
     -0.898  0.4392E-05  0.3163E+02
     -0.855  0.1814E+01  0.3170E+02
     -0.812  0.2059E+01  0.3179E+02
     -0.769  0.7353E-03  0.3179E+02
     -0.726  0.0000E+00  0.3179E+02
     -0.683  0.3990E-13  0.3179E+02
     -0.640  0.3502E-01  0.3179E+02
     -0.597  0.3496E+01  0.3194E+02
     -0.554  0.6643E+00  0.3197E+02
     -0.511  0.0000E+00  0.3197E+02
     -0.468  0.0000E+00  0.3197E+02
     -0.425  0.0000E+00  0.3197E+02
     -0.382  0.0000E+00  0.3197E+02
     -0.339  0.0000E+00  0.3197E+02
     -0.296  0.0000E+00  0.3197E+02
     -0.253  0.0000E+00  0.3197E+02
     -0.210  0.0000E+00  0.3197E+02
     -0.167  0.0000E+00  0.3197E+02
     -0.124  0.0000E+00  0.3197E+02
     -0.081  0.1113E-06  0.3197E+02
     -0.038  0.1039E+01  0.3202E+02
      0.005  0.2519E+00  0.3203E+02
      0.048  0.0000E+00  0.3203E+02
      0.091  0.0000E+00  0.3203E+02
      0.134  0.0000E+00  0.3203E+02
      0.177  0.0000E+00  0.3203E+02
      0.220  0.0000E+00  0.3203E+02
      0.264  0.0000E+00  0.3203E+02
      0.307  0.0000E+00  0.3203E+02
      0.350  0.0000E+00  0.3203E+02
      0.393  0.0000E+00  0.3203E+02
      0.436  0.0000E+00  0.3203E+02
      0.479  0.1424E-05  0.3203E+02
      0.522  0.3376E+01  0.3217E+02
      0.565  0.4971E+00  0.3219E+02
      0.608  0.0000E+00  0.3219E+02
      0.651  0.0000E+00  0.3219E+02
      0.694  0.2849E-13  0.3219E+02
      0.737  0.1256E+00  0.3220E+02
      0.780  0.1811E+01  0.3228E+02
      0.823  0.4704E-05  0.3228E+02
      0.866  0.0000E+00  0.3228E+02
      0.909  0.0000E+00  0.3228E+02
      0.952  0.0000E+00  0.3228E+02
      0.995  0.6138E-13  0.3228E+02
      1.038  0.3343E+00  0.3229E+02
      1.081  0.9321E+01  0.3269E+02
      1.124  0.9872E+00  0.3274E+02
      1.167  0.3231E+01  0.3287E+02
      1.210  0.2251E+01  0.3297E+02
      1.253  0.6771E+00  0.3300E+02
      1.296  0.3209E+01  0.3314E+02
      1.339  0.1910E+01  0.3322E+02
      1.382  0.4639E+00  0.3324E+02
      1.425  0.5324E+01  0.3347E+02
      1.468  0.4818E-01  0.3347E+02
      1.512  0.4486E-03  0.3347E+02
      1.555  0.5060E+01  0.3369E+02
      1.598  0.7489E+00  0.3372E+02
      1.641  0.3238E+01  0.3386E+02
      1.684  0.6354E+00  0.3389E+02
      1.727  0.0000E+00  0.3389E+02
      1.770  0.7143E-02  0.3389E+02
      1.813  0.2251E+01  0.3399E+02
      1.856  0.9822E-03  0.3399E+02
      1.899  0.1833E+01  0.3406E+02
      1.942  0.4296E+01  0.3425E+02
      1.985  0.3749E+01  0.3441E+02
      2.028  0.2261E+00  0.3442E+02
      2.071  0.1275E+01  0.3448E+02
      2.114  0.1574E+01  0.3454E+02
      2.157  0.1924E+01  0.3463E+02
      2.200  0.1905E+01  0.3471E+02
      2.243  0.8120E+00  0.3474E+02
      2.286  0.3825E+01  0.3491E+02
      2.329  0.1172E+01  0.3496E+02
      2.372  0.6878E-01  0.3496E+02
      2.415  0.2012E+01  0.3505E+02
      2.458  0.5663E+01  0.3529E+02
      2.501  0.1487E-02  0.3529E+02
      2.544  0.1500E+01  0.3536E+02
      2.587  0.3751E+01  0.3552E+02
      2.630  0.2495E+01  0.3562E+02
      2.673  0.0000E+00  0.3562E+02
      2.716  0.1716E-03  0.3563E+02
      2.759  0.1917E+01  0.3571E+02
      2.803  0.1266E+01  0.3576E+02
      2.846  0.5410E+01  0.3599E+02
      2.889  0.3493E+01  0.3615E+02
      2.932  0.4372E+01  0.3633E+02
      2.975  0.1612E-02  0.3633E+02
      3.018  0.3859E+01  0.3650E+02
      3.061  0.1209E-01  0.3650E+02
      3.104  0.7077E-02  0.3650E+02
      3.147  0.3863E+01  0.3667E+02
      3.190  0.9489E-01  0.3667E+02
      3.233  0.2748E+01  0.3679E+02
      3.276  0.1033E+01  0.3683E+02
      3.319  0.6084E+01  0.3710E+02
      3.362  0.6742E+01  0.3739E+02
      3.405  0.7290E+00  0.3742E+02
      3.448  0.2150E-15  0.3742E+02
      3.491  0.4415E-01  0.3742E+02
      3.534  0.3828E+01  0.3758E+02
      3.577  0.2701E-03  0.3758E+02
      3.620  0.5510E-08  0.3758E+02
      3.663  0.2161E+01  0.3768E+02
      3.706  0.1712E+01  0.3775E+02
      3.749  0.1176E+00  0.3776E+02
      3.792  0.3172E+01  0.3789E+02
      3.835  0.6388E+01  0.3817E+02
      3.878  0.4878E-02  0.3817E+02
      3.921  0.3131E+01  0.3830E+02
      3.964  0.4493E+01  0.3849E+02
      4.007  0.1217E+00  0.3850E+02
      4.050  0.2021E+00  0.3851E+02
      4.094  0.1738E+01  0.3858E+02
      4.137  0.3863E+01  0.3875E+02
      4.180  0.6091E-02  0.3875E+02
      4.223  0.1513E-03  0.3875E+02
      4.266  0.3810E+01  0.3891E+02
      4.309  0.1990E+01  0.3900E+02
      4.352  0.1469E+00  0.3901E+02
      4.395  0.1779E+01  0.3908E+02
      4.438  0.5772E+01  0.3933E+02
      4.481  0.9692E+00  0.3937E+02
      4.524  0.1242E+01  0.3943E+02
      4.567  0.1377E+01  0.3949E+02
      4.610  0.4538E+01  0.3968E+02
      4.653  0.6367E-03  0.3968E+02
      4.696  0.1934E+01  0.3976E+02
      4.739  0.3746E+01  0.3993E+02
      4.782  0.4062E+01  0.4010E+02
      4.825  0.6273E+01  0.4037E+02
      4.868  0.1434E+01  0.4043E+02
      4.911  0.3851E+01  0.4060E+02
      4.954  0.7556E-03  0.4060E+02
      4.997  0.1435E+01  0.4066E+02
      5.040  0.4192E+01  0.4084E+02
      5.083  0.1828E+00  0.4085E+02
      5.126  0.1827E+01  0.4093E+02
      5.169  0.5937E+01  0.4118E+02
      5.212  0.9223E+01  0.4158E+02
      5.255  0.4412E+00  0.4160E+02
      5.298  0.1209E-03  0.4160E+02
      5.342  0.3801E+01  0.4176E+02
      5.385  0.1929E+01  0.4184E+02
      5.428  0.7980E-01  0.4185E+02
      5.471  0.1187E-03  0.4185E+02
      5.514  0.6705E+01  0.4214E+02
      5.557  0.1084E+01  0.4218E+02
      5.600  0.4898E+01  0.4239E+02
      5.643  0.6137E+01  0.4266E+02
      5.686  0.1844E+01  0.4274E+02
      5.729  0.1652E+01  0.4281E+02
      5.772  0.1682E+01  0.4288E+02
      5.815  0.3128E+01  0.4301E+02
      5.858  0.9513E+00  0.4306E+02
      5.901  0.4864E+01  0.4326E+02
      5.944  0.5118E+01  0.4349E+02
      5.987  0.5322E+01  0.4371E+02
      6.030  0.3176E+01  0.4385E+02
      6.073  0.1239E+01  0.4390E+02
      6.116  0.3155E+01  0.4404E+02
      6.159  0.6722E+01  0.4433E+02
      6.202  0.2666E+01  0.4444E+02
      6.245  0.9794E-02  0.4444E+02
      6.288  0.6975E+01  0.4474E+02
      6.331  0.1410E+01  0.4481E+02
      6.374  0.5848E+01  0.4506E+02
      6.417  0.1904E+01  0.4514E+02
      6.460  0.1191E-01  0.4514E+02
      6.503  0.6814E+01  0.4543E+02
      6.546  0.1135E+02  0.4592E+02
      6.589  0.1115E+02  0.4640E+02
      6.633  0.1614E+01  0.4647E+02
      6.676  0.8285E+00  0.4651E+02
      6.719  0.8350E+00  0.4654E+02
      6.762  0.9548E+01  0.4695E+02
      6.805  0.9516E+01  0.4736E+02
      6.848  0.1253E+01  0.4742E+02
      6.891  0.5215E+00  0.4744E+02
      6.934  0.9281E+01  0.4784E+02
      6.977  0.6721E+01  0.4813E+02
      7.020  0.1854E+01  0.4821E+02
      7.063  0.9714E+00  0.4825E+02
      7.106  0.1211E+02  0.4877E+02
      7.149  0.5400E+01  0.4900E+02
      7.192  0.3101E+01  0.4914E+02
      7.235  0.5060E+01  0.4935E+02
      7.278  0.9519E+01  0.4976E+02
      7.321  0.4993E+01  0.4998E+02
      7.364  0.8374E+00  0.5001E+02
      7.407  0.2685E+01  0.5013E+02
      7.450  0.4416E+01  0.5032E+02
      7.493  0.1650E+02  0.5103E+02
      7.536  0.5331E+01  0.5126E+02
      7.579  0.8844E+01  0.5164E+02
      7.622  0.7728E+01  0.5197E+02
      7.665  0.2834E+01  0.5209E+02
      7.708  0.1368E+01  0.5215E+02
      7.751  0.1923E+01  0.5224E+02
      7.794  0.2134E+01  0.5233E+02
      7.837  0.9154E+01  0.5272E+02
      7.881  0.1309E+01  0.5278E+02
      7.924  0.5855E+01  0.5303E+02
      7.967  0.2073E+01  0.5312E+02
      8.010  0.1332E+02  0.5369E+02
      8.053  0.4775E+01  0.5390E+02
      8.096  0.9484E+01  0.5431E+02
      8.139  0.7103E+01  0.5461E+02
      8.182  0.6946E+01  0.5491E+02
      8.225  0.1098E+02  0.5538E+02
      8.268  0.9760E+01  0.5580E+02
      8.311  0.6802E-01  0.5581E+02
      8.354  0.6032E+01  0.5607E+02
      8.397  0.1099E+02  0.5654E+02
      8.440  0.8475E+01  0.5690E+02
      8.483  0.6433E+00  0.5693E+02
      8.526  0.3763E+01  0.5709E+02
      8.569  0.7008E+01  0.5739E+02
      8.612  0.8888E+01  0.5778E+02
      8.655  0.1157E+02  0.5827E+02
      8.698  0.1179E+02  0.5878E+02
      8.741  0.9436E+01  0.5919E+02
      8.784  0.5312E+01  0.5942E+02
      8.827  0.1513E+01  0.5948E+02
      8.870  0.6178E+01  0.5975E+02
      8.913  0.1849E+01  0.5983E+02
      8.956  0.4992E+01  0.6004E+02
      8.999  0.1201E+01  0.6009E+02
      9.042  0.7839E+01  0.6043E+02
      9.085  0.8470E+01  0.6080E+02
      9.128  0.5154E+01  0.6102E+02
      9.172  0.9199E+01  0.6141E+02
      9.215  0.4898E+01  0.6162E+02
      9.258  0.1086E+02  0.6209E+02
      9.301  0.6857E+01  0.6239E+02
      9.344  0.2595E+01  0.6250E+02
      9.387  0.6294E+01  0.6277E+02
      9.430  0.8914E+01  0.6315E+02
      9.473  0.9668E+01  0.6357E+02
      9.516  0.1355E+02  0.6415E+02
      9.559  0.5017E+01  0.6437E+02
      9.602  0.1793E+00  0.6437E+02
      9.645  0.3219E-01  0.6438E+02
      9.688  0.5929E+01  0.6463E+02
      9.731  0.1359E+02  0.6522E+02
      9.774  0.7981E+01  0.6556E+02
      9.817  0.8715E+01  0.6593E+02
      9.860  0.3170E+01  0.6607E+02
      9.903  0.2219E+01  0.6617E+02
      9.946  0.6974E+01  0.6647E+02
      9.989  0.5168E+01  0.6669E+02
     10.032  0.7183E+00  0.6672E+02
     10.075  0.3416E+01  0.6687E+02
     10.118  0.1158E+01  0.6692E+02
     10.161  0.5814E+01  0.6717E+02
     10.204  0.1989E+01  0.6725E+02
     10.247  0.6810E+01  0.6755E+02
     10.290  0.8215E+01  0.6790E+02
     10.333  0.6807E+00  0.6793E+02
     10.376  0.4962E+01  0.6814E+02
     10.420  0.1117E+02  0.6862E+02
     10.463  0.2189E+01  0.6872E+02
     10.506  0.8806E+01  0.6910E+02
     10.549  0.2598E+01  0.6921E+02
     10.592  0.8537E+01  0.6958E+02
     10.635  0.4527E+01  0.6977E+02
     10.678  0.1923E+01  0.6985E+02
     10.721  0.5158E+00  0.6988E+02
     10.764  0.8055E+01  0.7022E+02
     10.807  0.3009E+01  0.7035E+02
     10.850  0.5709E+01  0.7060E+02
     10.893  0.1079E+00  0.7060E+02
     10.936  0.8559E+01  0.7097E+02
     10.979  0.1029E+01  0.7101E+02
     11.022  0.9226E+01  0.7141E+02
     11.065  0.6566E+01  0.7169E+02
     11.108  0.7826E+01  0.7203E+02
     11.151  0.6374E+01  0.7230E+02
     11.194  0.1739E-01  0.7231E+02
     11.237  0.1433E+01  0.7237E+02
     11.280  0.5318E+00  0.7239E+02
     11.323  0.6613E+01  0.7267E+02
     11.366  0.3659E+01  0.7283E+02
     11.409  0.5479E+01  0.7307E+02
     11.452  0.2939E+01  0.7319E+02
     11.495  0.2448E-08  0.7319E+02
     11.538  0.1958E+01  0.7328E+02
     11.581  0.3791E+01  0.7344E+02
     11.624  0.3933E+01  0.7361E+02
     11.667  0.8398E+00  0.7365E+02
     11.711  0.8554E+01  0.7402E+02
     11.754  0.6730E+01  0.7430E+02
     11.797  0.1951E+01  0.7439E+02
     11.840  0.4144E+01  0.7457E+02
     11.883  0.1030E+02  0.7501E+02
     11.926  0.7297E+01  0.7532E+02
     11.969  0.1055E+02  0.7578E+02
     12.012  0.1795E+01  0.7586E+02
     12.055  0.8266E+01  0.7621E+02
     12.098  0.4012E+01  0.7638E+02
     12.141  0.1890E+02  0.7720E+02
     12.184  0.1567E+02  0.7787E+02
     12.227  0.3619E+01  0.7803E+02
     12.270  0.1406E+01  0.7809E+02