       N       E                     dE             d eps       ncg     rms          rms(c)
DIA:   1    -0.734406276876E+02   -0.73441E+02    0.00000E+00     0   0.000E+00    0.131E+01
DIA:   2    -0.689990116280E+02    0.44416E+01    0.00000E+00     0   0.000E+00    0.749E+00
DIA:   3    -0.673539403584E+02    0.16451E+01    0.00000E+00     0   0.000E+00    0.220E+00
DIA:   4    -0.672475733653E+02    0.10637E+00    0.00000E+00     0   0.000E+00    0.620E-01
DIA:   5    -0.672204931873E+02    0.27080E-01    0.00000E+00     0   0.000E+00    0.236E-01
DIA:   6    -0.672190796177E+02    0.14136E-02    0.00000E+00     0   0.000E+00    0.831E-02
DIA:   7    -0.672229524063E+02   -0.38728E-02    0.00000E+00     0   0.000E+00    0.590E-02
DIA:   8    -0.672270247686E+02   -0.40724E-02    0.00000E+00     0   0.000E+00    0.175E-02
DIA:   9    -0.672277020310E+02   -0.67726E-03    0.00000E+00     0   0.000E+00    0.385E-03
DIA:  10    -0.672277172443E+02   -0.15213E-04    0.00000E+00     0   0.000E+00    0.169E-03
DIA:  11    -0.672277300854E+02   -0.12841E-04    0.00000E+00     0   0.000E+00    0.161E-04
DIA:  12    -0.672277301644E+02   -0.78954E-07    0.00000E+00     0   0.000E+00    0.687E-05
DIA:  13    -0.672277302449E+02   -0.80518E-07    0.00000E+00     0   0.000E+00    0.668E-06
DIA:  14    -0.672277302470E+02   -0.20914E-08    0.00000E+00     0   0.000E+00
   1 F= -.67227730E+02 E0= -.67227730E+02  d E =-.142055E-23
 imaginary and real dielectric function
