<?xml version="1.0" encoding="ISO-8859-1"?>
<modeling>
 <generator>
  <i name="program" type="string">vasp </i>
  <i name="version" type="string">5.4.4.18Apr17-6-g9f103f2a35  </i>
  <i name="subversion" type="string">(build Mar 30 2023 15:39:25) complex            parallel </i>
  <i name="platform" type="string">LinuxIFC </i>
  <i name="date" type="string">2023 04 30 </i>
  <i name="time" type="string">07:12:19 </i>
 </generator>
 <incar>
  <i type="string" name="SYSTEM"> fcc Si bandstructure</i>
  <i type="int" name="ISTART">     0</i>
  <i type="string" name="PREC">accurate</i>
  <i type="int" name="ICHARG">    11</i>
  <i name="EDIFF">      0.00000100</i>
  <i name="EDIFFG">     -0.00000100</i>
  <i name="ENCUT">    240.00000000</i>
  <i type="int" name="ISMEAR">     0</i>
  <i name="SIGMA">      0.10000000</i>
  <i type="int" name="LORBIT">    11</i>
  <v type="int" name="KPOINT_BSE">    -1     0     0     0</v>
 </incar>
 <structure name="primitive_cell" >
  <crystal>
   <varray name="basis" >
    <v>       2.50000000       2.50000000       0.00000000 </v>
    <v>       0.00000000       2.50000000       2.50000000 </v>
    <v>       2.50000000       0.00000000       2.50000000 </v>
   </varray>
   <i name="volume">     31.25000000 </i>
   <varray name="rec_basis" >
    <v>       0.20000000       0.20000000      -0.20000000 </v>
    <v>      -0.20000000       0.20000000       0.20000000 </v>
    <v>       0.20000000      -0.20000000       0.20000000 </v>
   </varray>
  </crystal>
  <varray name="positions" >
   <v>       0.00000000       0.00000000       0.00000000 </v>
  </varray>
 </structure>
 <varray name="primitive_index" >
  <v type="int" >        1 </v>
 </varray>
 <kpoints>
  <generation param="listgenerated">
   <i name="divisions" type="int">      10 </i>
   <v>       0.50000000       0.50000000       0.50000000 </v>
   <v>       0.00000000       0.00000000       0.00000000 </v>
   <v>       0.00000000       0.50000000       0.50000000 </v>
   <v>       0.37500000       0.75000000       0.37500000 </v>
   <v>       0.00000000       0.00000000       0.00000000 </v>
  </generation>
  <varray name="kpointlist" >
   <v>       0.50000000       0.50000000       0.50000000 </v>
   <v>       0.44444444       0.44444444       0.44444444 </v>
   <v>       0.38888889       0.38888889       0.38888889 </v>
   <v>       0.33333333       0.33333333       0.33333333 </v>
   <v>       0.27777778       0.27777778       0.27777778 </v>
   <v>       0.22222222       0.22222222       0.22222222 </v>
   <v>       0.16666667       0.16666667       0.16666667 </v>
   <v>       0.11111111       0.11111111       0.11111111 </v>
   <v>       0.05555556       0.05555556       0.05555556 </v>
   <v>       0.00000000       0.00000000       0.00000000 </v>
   <v>       0.00000000       0.00000000       0.00000000 </v>
   <v>       0.00000000       0.05555556       0.05555556 </v>
   <v>       0.00000000       0.11111111       0.11111111 </v>
   <v>       0.00000000       0.16666667       0.16666667 </v>
   <v>       0.00000000       0.22222222       0.22222222 </v>
   <v>       0.00000000       0.27777778       0.27777778 </v>
   <v>       0.00000000       0.33333333       0.33333333 </v>
   <v>       0.00000000       0.38888889       0.38888889 </v>
   <v>       0.00000000       0.44444444       0.44444444 </v>
   <v>       0.00000000       0.50000000       0.50000000 </v>
   <v>       0.00000000       0.50000000       0.50000000 </v>
   <v>       0.02777778       0.51388889       0.51388889 </v>
   <v>       0.05555556       0.52777778       0.52777778 </v>
   <v>       0.08333333       0.54166667       0.54166667 </v>
   <v>       0.11111111       0.55555556       0.55555556 </v>
   <v>       0.13888889       0.56944444       0.56944444 </v>
   <v>       0.16666667       0.58333333       0.58333333 </v>
   <v>       0.19444444       0.59722222       0.59722222 </v>
   <v>       0.22222222       0.61111111       0.61111111 </v>
   <v>       0.25000000       0.62500000       0.62500000 </v>
   <v>       0.37500000       0.75000000       0.37500000 </v>
   <v>       0.33333333       0.66666667       0.33333333 </v>
   <v>       0.29166667       0.58333333       0.29166667 </v>
   <v>       0.25000000       0.50000000       0.25000000 </v>
   <v>       0.20833333       0.41666667       0.20833333 </v>
   <v>       0.16666667       0.33333333       0.16666667 </v>
   <v>       0.12500000       0.25000000       0.12500000 </v>
   <v>       0.08333333       0.16666667       0.08333333 </v>
   <v>       0.04166667       0.08333333       0.04166667 </v>
   <v>       0.00000000       0.00000000       0.00000000 </v>
  </varray>
  <varray name="weights" >
   <v>       0.02500000 </v>
   <v>       0.02500000 </v>
   <v>       0.02500000 </v>
   <v>       0.02500000 </v>
   <v>       0.02500000 </v>
   <v>       0.02500000 </v>
   <v>       0.02500000 </v>
   <v>       0.02500000 </v>
   <v>       0.02500000 </v>
   <v>       0.02500000 </v>
   <v>       0.02500000 </v>
   <v>       0.02500000 </v>
   <v>       0.02500000 </v>
   <v>       0.02500000 </v>
   <v>       0.02500000 </v>
   <v>       0.02500000 </v>
   <v>       0.02500000 </v>
   <v>       0.02500000 </v>
   <v>       0.02500000 </v>
   <v>       0.02500000 </v>
   <v>       0.02500000 </v>
   <v>       0.02500000 </v>
   <v>       0.02500000 </v>
   <v>       0.02500000 </v>
   <v>       0.02500000 </v>
   <v>       0.02500000 </v>
   <v>       0.02500000 </v>
   <v>       0.02500000 </v>
   <v>       0.02500000 </v>
   <v>       0.02500000 </v>
   <v>       0.02500000 </v>
   <v>       0.02500000 </v>
   <v>       0.02500000 </v>
   <v>       0.02500000 </v>
   <v>       0.02500000 </v>
   <v>       0.02500000 </v>
   <v>       0.02500000 </v>
   <v>       0.02500000 </v>
   <v>       0.02500000 </v>
   <v>       0.02500000 </v>
  </varray>
 </kpoints>
 <parameters>
  <separator name="general" >
   <i type="string" name="SYSTEM">fcc Si bandstructure</i>
   <i type="logical" name="LCOMPAT"> F  </i>
  </separator>
  <separator name="electronic" >
   <i type="string" name="PREC">accura</i>
   <i name="ENMAX">    240.00000000</i>
   <i name="ENAUG">    322.06900000</i>
   <i name="EDIFF">      0.00000100</i>
   <i type="int" name="IALGO">    38</i>
   <i type="int" name="IWAVPR">    10</i>
   <i type="int" name="NBANDS">    12</i>
   <i name="NELECT">      4.00000000</i>
   <i type="int" name="TURBO">     0</i>
   <i type="int" name="IRESTART">     0</i>
   <i type="int" name="NREBOOT">     0</i>
   <i type="int" name="NMIN">     0</i>
   <i name="EREF">      0.00000000</i>
   <separator name="electronic smearing" >
    <i type="int" name="ISMEAR">     0</i>
    <i name="SIGMA">      0.10000000</i>
    <i name="KSPACING">      0.50000000</i>
    <i type="logical" name="KGAMMA"> T  </i>
   </separator>
   <separator name="electronic projectors" >
    <i type="logical" name="LREAL"> F  </i>
    <v name="ROPT">      0.00000000</v>
    <i type="int" name="LMAXPAW">  -100</i>
    <i type="int" name="LMAXMIX">     2</i>
    <i type="logical" name="NLSPLINE"> F  </i>
   </separator>
   <separator name="electronic startup" >
    <i type="int" name="ISTART">     0</i>
    <i type="int" name="ICHARG">    11</i>
    <i type="int" name="INIWAV">     1</i>
   </separator>
   <separator name="electronic spin" >
    <i type="int" name="ISPIN">     1</i>
    <i type="logical" name="LNONCOLLINEAR"> F  </i>
    <v name="MAGMOM">      1.00000000</v>
    <i name="NUPDOWN">     -1.00000000</i>
    <i type="logical" name="LSORBIT"> F  </i>
    <v name="SAXIS">      0.00000000      0.00000000      1.00000000</v>
    <i type="logical" name="LSPIRAL"> F  </i>
    <v name="QSPIRAL">      0.00000000      0.00000000      0.00000000</v>
    <i type="logical" name="LZEROZ"> F  </i>
   </separator>
   <separator name="electronic exchange-correlation" >
    <i type="logical" name="LASPH"> F  </i>
    <i type="logical" name="LMETAGGA"> F  </i>
   </separator>
   <separator name="electronic convergence" >
    <i type="int" name="NELM">    60</i>
    <i type="int" name="NELMDL">    -5</i>
    <i type="int" name="NELMIN">     2</i>
    <i name="ENINI">    240.00000000</i>
    <separator name="electronic convergence detail" >
     <i type="logical" name="LDIAG"> T  </i>
     <i type="logical" name="LSUBROT"> F  </i>
     <i name="WEIMIN">      0.00000000</i>
     <i name="EBREAK">      0.00000000</i>
     <i name="DEPER">      0.30000000</i>
     <i type="int" name="NRMM">     4</i>
     <i name="TIME">      0.40000000</i>
    </separator>
   </separator>
   <separator name="electronic mixer" >
    <i name="AMIX">      0.40000000</i>
    <i name="BMIX">      1.00000000</i>
    <i name="AMIN">      0.10000000</i>
    <i name="AMIX_MAG">      1.60000000</i>
    <i name="BMIX_MAG">      1.00000000</i>
    <separator name="electronic mixer details" >
     <i type="int" name="IMIX">     4</i>
     <i type="logical" name="MIXFIRST"> F  </i>
     <i type="int" name="MAXMIX">   -45</i>
     <i name="WC">    100.00000000</i>
     <i type="int" name="INIMIX">     1</i>
     <i type="int" name="MIXPRE">     1</i>
     <i type="int" name="MREMOVE">     5</i>
    </separator>
   </separator>
   <separator name="electronic dipolcorrection" >
    <i type="logical" name="LDIPOL"> F  </i>
    <i type="logical" name="LMONO"> F  </i>
    <i type="int" name="IDIPOL">     0</i>
    <i name="EPSILON">      1.00000000</i>
    <v name="DIPOL">   -100.00000000   -100.00000000   -100.00000000</v>
    <i name="EFIELD">      0.00000000</i>
   </separator>
  </separator>
  <separator name="grids" >
   <i type="int" name="NGX">    18</i>
   <i type="int" name="NGY">    18</i>
   <i type="int" name="NGZ">    18</i>
   <i type="int" name="NGXF">    36</i>
   <i type="int" name="NGYF">    36</i>
   <i type="int" name="NGZF">    36</i>
   <i type="logical" name="ADDGRID"> F  </i>
  </separator>
  <separator name="ionic" >
   <i type="int" name="NSW">     0</i>
   <i type="int" name="IBRION">    -1</i>
   <i type="int" name="MDALGO">     0</i>
   <i type="int" name="ISIF">     2</i>
   <i name="PSTRESS">      0.00000000</i>
   <i name="EDIFFG">     -0.00000100</i>
   <i type="int" name="NFREE">     0</i>
   <i name="POTIM">      0.50000000</i>
   <i name="SMASS">     -3.00000000</i>
   <i name="SCALEE">      1.00000000</i>
  </separator>
  <separator name="ionic md" >
   <i name="TEBEG">      0.00010000</i>
   <i name="TEEND">      0.00010000</i>
   <i type="int" name="NBLOCK">     1</i>
   <i type="int" name="KBLOCK">     1</i>
   <i type="int" name="NPACO">   256</i>
   <i name="APACO">     16.00000000</i>
  </separator>
  <separator name="symmetry" >
   <i type="int" name="ISYM">     2</i>
   <i name="SYMPREC">      0.00001000</i>
  </separator>
  <separator name="dos" >
   <i type="int" name="LORBIT">    11</i>
   <v name="RWIGS">     -1.00000000</v>
   <i type="int" name="NEDOS">   301</i>
   <i name="EMIN">     10.00000000</i>
   <i name="EMAX">    -10.00000000</i>
   <i name="EFERMI">      0.00000000</i>
  </separator>
  <separator name="writing" >
   <i type="int" name="NWRITE">     2</i>
   <i type="logical" name="LWAVE"> T  </i>
   <i type="logical" name="LDOWNSAMPLE"> F  </i>
   <i type="logical" name="LCHARG"> T  </i>
   <i type="logical" name="LPARD"> F  </i>
   <i type="logical" name="LVTOT"> F  </i>
   <i type="logical" name="LVHAR"> F  </i>
   <i type="logical" name="LELF"> F  </i>
   <i type="logical" name="LOPTICS"> F  </i>
   <v name="STM">      0.00000000      0.00000000      0.00000000      0.00000000      0.00000000      0.00000000      0.00000000</v>
  </separator>
  <separator name="performance" >
   <i type="int" name="NPAR">    12</i>
   <i type="int" name="NSIM">     4</i>
   <i type="int" name="NBLK">    -1</i>
   <i type="logical" name="LPLANE"> T  </i>
   <i type="logical" name="LSCALAPACK"> T  </i>
   <i type="logical" name="LSCAAWARE"> F  </i>
   <i type="logical" name="LSCALU"> F  </i>
   <i type="logical" name="LASYNC"> F  </i>
   <i type="logical" name="LORBITALREAL"> F  </i>
  </separator>
  <separator name="miscellaneous" >
   <i type="int" name="IDIOT">     3</i>
   <i type="int" name="ISPECIAL">     0</i>
   <i type="logical" name="LMUSIC"> F  </i>
   <v name="POMASS">     28.08500000</v>
   <v name="DARWINR">      0.00000000</v>
   <v name="DARWINV">      1.00000000</v>
   <i type="logical" name="LCORR"> T  </i>
  </separator>
  <i type="logical" name="GGA_COMPAT"> T  </i>
  <i type="logical" name="LBERRY"> F  </i>
  <i type="int" name="ICORELEVEL">     0</i>
  <i type="logical" name="LDAU"> F  </i>
  <i type="int" name="I_CONSTRAINED_M">     0</i>
  <separator name="electronic exchange-correlation" >
   <i type="string" name="GGA">--</i>
   <i type="int" name="VOSKOWN">     0</i>
   <i type="logical" name="LHFCALC"> F  </i>
   <i type="string" name="PRECFOCK"></i>
   <i type="logical" name="LSYMGRAD"> F  </i>
   <i type="logical" name="LHFONE"> F  </i>
   <i type="logical" name="LRHFCALC"> F  </i>
   <i type="logical" name="LTHOMAS"> F  </i>
   <i type="logical" name="LMODELHF"> F  </i>
   <i name="ENCUT4O">     -1.00000000</i>
   <i type="int" name="EXXOEP">     0</i>
   <i type="int" name="FOURORBIT">     0</i>
   <i name="AEXX">      0.00000000</i>
   <i name="HFALPHA">      0.00000000</i>
   <i name="MCALPHA">      0.00000000</i>
   <i name="ALDAX">      1.00000000</i>
   <i name="AGGAX">      1.00000000</i>
   <i name="ALDAC">      1.00000000</i>
   <i name="AGGAC">      1.00000000</i>
   <i type="int" name="NKREDX">     1</i>
   <i type="int" name="NKREDY">     1</i>
   <i type="int" name="NKREDZ">     1</i>
   <i type="logical" name="SHIFTRED"> F  </i>
   <i type="logical" name="ODDONLY"> F  </i>
   <i type="logical" name="EVENONLY"> F  </i>
   <i type="int" name="LMAXFOCK">     0</i>
   <i type="int" name="NMAXFOCKAE">     0</i>
   <i type="logical" name="LFOCKAEDFT"> F  </i>
   <i name="HFSCREEN">      0.00000000</i>
   <i name="HFSCREENC">      0.00000000</i>
   <i type="int" name="NBANDSGWLOW">     0</i>
  </separator>
  <separator name="vdW DFT" >
   <i type="logical" name="LUSE_VDW"> F  </i>
   <i name="Zab_VDW">     -0.84910000</i>
   <i name="PARAM1">      0.12340000</i>
   <i name="PARAM2">      1.00000000</i>
   <i name="PARAM3">      0.00000000</i>
  </separator>
  <separator name="model GW" >
   <i type="int" name="MODEL_GW">     0</i>
   <i name="MODEL_EPS0">     18.75000000</i>
   <i name="MODEL_ALPHA">      1.00000000</i>
  </separator>
  <separator name="linear response parameters" >
   <i type="logical" name="LEPSILON"> F  </i>
   <i type="logical" name="LRPA"> F  </i>
   <i type="logical" name="LNABLA"> F  </i>
   <i type="logical" name="LVEL"> F  </i>
   <i type="int" name="KINTER">     0</i>
   <i name="CSHIFT">      0.10000000</i>
   <i name="OMEGAMAX">     -1.00000000</i>
   <i name="DEG_THRESHOLD">      0.00200000</i>
   <i name="RTIME">     -0.10000000</i>
   <i name="WPLASMAI">      0.00000000</i>
   <v name="DFIELD">      0.00000000      0.00000000      0.00000000</v>
   <v name="WPLASMA">      0.00000000      0.00000000      0.00000000      0.00000000      0.00000000      0.00000000      0.00000000      0.00000000      0.00000000</v>
  </separator>
  <separator name="orbital magnetization" >
   <i type="logical" name="NUCIND"> F  </i>
   <v name="MAGPOS">      0.00000000      0.00000000      0.00000000</v>
   <i type="logical" name="LNICSALL"> T  </i>
   <i type="logical" name="ORBITALMAG"> F  </i>
   <i type="logical" name="LMAGBLOCH"> F  </i>
   <i type="logical" name="LCHIMAG"> F  </i>
   <i type="logical" name="LGAUGE"> T  </i>
   <i type="int" name="MAGATOM">     0</i>
   <v name="MAGDIPOL">      0.00000000      0.00000000      0.00000000</v>
   <v name="AVECCONST">      0.00000000      0.00000000      0.00000000</v>
  </separator>
  <separator name="response functions" >
   <i type="logical" name="LADDER"> F  </i>
   <i type="logical" name="LRPAFORCE"> F  </i>
   <i type="logical" name="LFXC"> F  </i>
   <i type="logical" name="LHARTREE"> T  </i>
   <i type="int" name="IBSE">     0</i>
   <v type="int" name="KPOINT">    -1     0     0     0</v>
   <i type="logical" name="LTCTE"> F  </i>
   <i type="logical" name="LTETE"> F  </i>
   <i type="logical" name="LTRIPLET"> F  </i>
   <i type="logical" name="LFXCEPS"> F  </i>
   <i type="logical" name="LFXHEG"> F  </i>
   <i type="int" name="NATURALO">     2</i>
   <i type="logical" name="L2ORDER"> F  </i>
   <i type="logical" name="LMP2LT"> F  </i>
   <i type="logical" name="LUSEW"> F  </i>
   <i name="ENCUTGW">     -2.00000000</i>
   <i name="ENCUTGWSOFT">     -2.00000000</i>
   <i name="ENCUTLF">     -1.00000000</i>
   <i type="int" name="LMAXMP2">    -1</i>
   <i name="SCISSOR">      0.00000000</i>
   <i type="int" name="NOMEGA">     0</i>
   <i type="int" name="NOMEGAR">     0</i>
   <i type="int" name="NBANDSGW">    -1</i>
   <i type="int" name="NBANDSO">    -1</i>
   <i type="int" name="NBANDSV">    -1</i>
   <i type="int" name="NELM">     1</i>
   <i type="int" name="NELMHF">     1</i>
   <i type="int" name="DIM">     3</i>
   <i type="int" name="ANTIRES">     0</i>
   <i name="OMEGAMAX">    -30.00000000</i>
   <i name="OMEGAMIN">    -30.00000000</i>
   <i name="OMEGATL">   -200.00000000</i>
   <i type="int" name="OMEGAGRID">   140</i>
   <i name="CSHIFT">     -0.10000000</i>
   <i type="logical" name="SELFENERGY"> F  </i>
   <i type="logical" name="LSPECTRAL"> F  </i>
   <i type="logical" name="LSPECTRALGW"> F  </i>
   <i type="logical" name="LSINGLES"> F  </i>
   <i type="logical" name="LFERMIGW"> F  </i>
   <i type="logical" name="ODDONLYGW"> F  </i>
   <i type="logical" name="EVENONLYGW"> F  </i>
   <i type="int" name="NKREDLFX">     1</i>
   <i type="int" name="NKREDLFY">     1</i>
   <i type="int" name="NKREDLFZ">     1</i>
   <i type="int" name="MAXMEM">  2800</i>
   <i type="int" name="TELESCOPE">     0</i>
   <i type="int" name="TAUPAR">     1</i>
   <i type="int" name="OMEGAPAR">    -1</i>
   <i name="LAMBDA">      1.00000000</i>
  </separator>
  <separator name="External order field" >
   <i name="OFIELD_KAPPA">      0.00000000</i>
   <v name="OFIELD_K">      0.00000000      0.00000000      0.00000000</v>
   <i name="OFIELD_Q6_NEAR">      0.00000000</i>
   <i name="OFIELD_Q6_FAR">      0.00000000</i>
   <i name="OFIELD_A">      0.00000000</i>
  </separator>
 </parameters>
 <atominfo>
  <atoms>       1 </atoms>
  <types>       1 </types>
  <array name="atoms" >
   <dimension dim="1">ion</dimension>
   <field type="string">element</field>
   <field type="int">atomtype</field>
   <set>
    <rc><c>Si</c><c>   1</c></rc>
   </set>
  </array>
  <array name="atomtypes" >
   <dimension dim="1">type</dimension>
   <field type="int">atomspertype</field>
   <field type="string">element</field>
   <field>mass</field>
   <field>valence</field>
   <field type="string">pseudopotential</field>
   <set>
    <rc><c>   1</c><c>Si</c><c>     28.08500000</c><c>      4.00000000</c><c>  PAW_PBE Si 05Jan2001                  </c></rc>
   </set>
  </array>
 </atominfo>
 <structure name="initialpos" >
  <crystal>
   <varray name="basis" >
    <v>       2.50000000       2.50000000       0.00000000 </v>
    <v>       0.00000000       2.50000000       2.50000000 </v>
    <v>       2.50000000       0.00000000       2.50000000 </v>
   </varray>
   <i name="volume">     31.25000000 </i>
   <varray name="rec_basis" >
    <v>       0.20000000       0.20000000      -0.20000000 </v>
    <v>      -0.20000000       0.20000000       0.20000000 </v>
    <v>       0.20000000      -0.20000000       0.20000000 </v>
   </varray>
  </crystal>
  <varray name="positions" >
   <v>       0.00000000       0.00000000       0.00000000 </v>
  </varray>
 </structure>
 <calculation>
  <scstep>
   <time name="dav">    0.11    0.11</time>
   <time name="total">    0.12    0.12</time>
   <energy>
    <i name="alphaZ">      1.07722019 </i>
    <i name="ewald">   -105.63366088 </i>
    <i name="hartreedc">     -3.74786099 </i>
    <i name="XCdc">    -10.43339876 </i>
    <i name="pawpsdc">    117.73886609 </i>
    <i name="pawaedc">   -100.09908966 </i>
    <i name="eentropy">     -0.00199569 </i>
    <i name="bandstr">     -4.78056838 </i>
    <i name="atom">    103.06077658 </i>
    <i name="e_fr_energy">     -2.81971150 </i>
    <i name="e_wo_entrp">     -2.81771581 </i>
    <i name="e_0_energy">     -2.81871365 </i>
   </energy>
  </scstep>
  <scstep>
   <time name="dav">    0.16    0.16</time>
   <time name="total">    0.16    0.16</time>
   <energy>
    <i name="e_fr_energy">     -3.75196693 </i>
    <i name="e_wo_entrp">     -3.75089085 </i>
    <i name="e_0_energy">     -3.75142889 </i>
   </energy>
  </scstep>
  <scstep>
   <time name="dav">    0.11    0.11</time>
   <time name="total">    0.11    0.11</time>
   <energy>
    <i name="e_fr_energy">     -3.75580375 </i>
    <i name="e_wo_entrp">     -3.75470196 </i>
    <i name="e_0_energy">     -3.75525285 </i>
   </energy>
  </scstep>
  <scstep>
   <time name="dav">    0.19    0.19</time>
   <time name="total">    0.19    0.19</time>
   <energy>
    <i name="e_fr_energy">     -3.75580637 </i>
    <i name="e_wo_entrp">     -3.75470457 </i>
    <i name="e_0_energy">     -3.75525547 </i>
   </energy>
  </scstep>
  <scstep>
   <time name="dav">    0.11    0.11</time>
   <time name="total">    0.11    0.11</time>
   <energy>
    <i name="e_fr_energy">     -3.75580637 </i>
    <i name="e_wo_entrp">     -3.75470457 </i>
    <i name="e_0_energy">     -3.75525547 </i>
   </energy>
  </scstep>
  <scstep>
   <time name="dav">    0.20    0.20</time>
   <time name="total">    0.20    0.20</time>
   <energy>
    <i name="alphaZ">      1.07722019 </i>
    <i name="ewald">   -105.63366088 </i>
    <i name="hartreedc">     -3.74786099 </i>
    <i name="XCdc">    -10.43339876 </i>
    <i name="pawpsdc">    117.73886609 </i>
    <i name="pawaedc">   -100.09908966 </i>
    <i name="eentropy">     -0.00110180 </i>
    <i name="bandstr">     -5.71755715 </i>
    <i name="atom">    103.06077658 </i>
    <i name="e_fr_energy">     -3.75580637 </i>
    <i name="e_wo_entrp">     -3.75470457 </i>
    <i name="e_0_energy">     -3.75525547 </i>
   </energy>
  </scstep>
  <structure>
   <crystal>
    <varray name="basis" >
     <v>       2.50000000       2.50000000       0.00000000 </v>
     <v>       0.00000000       2.50000000       2.50000000 </v>
     <v>       2.50000000       0.00000000       2.50000000 </v>
    </varray>
    <i name="volume">     31.25000000 </i>
    <varray name="rec_basis" >
     <v>       0.20000000       0.20000000      -0.20000000 </v>
     <v>      -0.20000000       0.20000000       0.20000000 </v>
     <v>       0.20000000      -0.20000000       0.20000000 </v>
    </varray>
   </crystal>
   <varray name="positions" >
    <v>       0.00000000       0.00000000       0.00000000 </v>
   </varray>
  </structure>
  <varray name="forces" >
   <v>      -0.00000000      -0.00000000       0.00000000 </v>
  </varray>
  <varray name="stress" >
   <v>    -167.74440230       0.00000000       0.00000000 </v>
   <v>       0.00000000    -167.74440230       0.00000000 </v>
   <v>       0.00000000       0.00000000    -167.74440230 </v>
  </varray>
  <energy>
   <i name="e_fr_energy">     -3.75580637 </i>
   <i name="e_wo_entrp">     -3.75525547 </i>
   <i name="e_0_energy">     -0.00110180 </i>
  </energy>
  <time name="totalsc">    1.01    1.03</time>
  <eigenvalues>
   <array>
    <dimension dim="1">band</dimension>
    <dimension dim="2">kpoint</dimension>
    <dimension dim="3">spin</dimension>
    <field>eigene</field>
    <field>occ</field>
    <set>
     <set comment="spin 1">
      <set comment="kpoint 1">
       <r>   -3.8112    1.0000 </r>
       <r>   -0.4710    1.0000 </r>
       <r>    6.1484    0.0000 </r>
       <r>    6.1484    0.0000 </r>
       <r>   10.1453    0.0000 </r>
       <r>   11.5154    0.0000 </r>
       <r>   11.5154    0.0000 </r>
       <r>   14.6695    0.0000 </r>
       <r>   18.7818    0.0000 </r>
       <r>   18.7818    0.0000 </r>
       <r>   20.1084    0.0000 </r>
       <r>   23.0834    0.0000 </r>
      </set>
      <set comment="kpoint 2">
       <r>   -3.9967    1.0000 </r>
       <r>   -0.1960    1.0000 </r>
       <r>    6.1674    0.0000 </r>
       <r>    6.1674    0.0000 </r>
       <r>   10.1725    0.0000 </r>
       <r>   11.5751    0.0000 </r>
       <r>   11.5751    0.0000 </r>
       <r>   14.7386    0.0000 </r>
       <r>   18.3709    0.0000 </r>
       <r>   18.3709    0.0000 </r>
       <r>   19.7818    0.0000 </r>
       <r>   23.5901    0.0000 </r>
      </set>
      <set comment="kpoint 3">
       <r>   -4.4244    1.0000 </r>
       <r>    0.4985    1.0000 </r>
       <r>    6.2245    0.0000 </r>
       <r>    6.2245    0.0000 </r>
       <r>   10.2599    0.0000 </r>
       <r>   11.7492    0.0000 </r>
       <r>   11.7492    0.0000 </r>
       <r>   14.9377    0.0000 </r>
       <r>   17.5010    0.0000 </r>
       <r>   17.5010    0.0000 </r>
       <r>   19.0102    0.0000 </r>
       <r>   24.7528    0.0000 </r>
      </set>
      <set comment="kpoint 4">
       <r>   -4.9173    1.0000 </r>
       <r>    1.4304    1.0000 </r>
       <r>    6.3195    0.0000 </r>
       <r>    6.3195    0.0000 </r>
       <r>   10.4132    0.0000 </r>
       <r>   12.0280    0.0000 </r>
       <r>   12.0280    0.0000 </r>
       <r>   15.2310    0.0000 </r>
       <r>   16.5617    0.0000 </r>
       <r>   16.5617    0.0000 </r>
       <r>   18.1022    0.0000 </r>
       <r>   24.5660    0.0000 </r>
      </set>
      <set comment="kpoint 5">
       <r>   -5.3864    1.0000 </r>
       <r>    2.4977    1.0000 </r>
       <r>    6.4481    0.0000 </r>
       <r>    6.4481    0.0000 </r>
       <r>   10.6285    0.0000 </r>
       <r>   12.3491    0.0000 </r>
       <r>   12.3491    0.0000 </r>
       <r>   15.4790    0.0000 </r>
       <r>   15.6807    0.0000 </r>
       <r>   15.6807    0.0000 </r>
       <r>   17.3236    0.0000 </r>
       <r>   22.6190    0.0000 </r>
      </set>
      <set comment="kpoint 6">
       <r>   -5.7928    1.0000 </r>
       <r>    3.6411    1.0000 </r>
       <r>    6.6039    0.0000 </r>
       <r>    6.6039    0.0000 </r>
       <r>   10.9084    0.0000 </r>
       <r>   12.6192    0.0000 </r>
       <r>   12.6192    0.0000 </r>
       <r>   15.0678    0.0000 </r>
       <r>   15.0678    0.0000 </r>
       <r>   15.2546    0.0000 </r>
       <r>   17.1311    0.0000 </r>
       <r>   20.7980    0.0000 </r>
      </set>
      <set comment="kpoint 7">
       <r>   -6.1189    1.0000 </r>
       <r>    4.8034    0.0000 </r>
       <r>    6.7731    0.0000 </r>
       <r>    6.7731    0.0000 </r>
       <r>   11.2533    0.0000 </r>
       <r>   12.6457    0.0000 </r>
       <r>   12.6457    0.0000 </r>
       <r>   14.5395    0.0000 </r>
       <r>   14.9167    0.0000 </r>
       <r>   14.9167    0.0000 </r>
       <r>   17.4236    0.0000 </r>
       <r>   19.3240    0.0000 </r>
      </set>
      <set comment="kpoint 8">
       <r>   -6.3561    1.0000 </r>
       <r>    5.8957    0.0000 </r>
       <r>    6.9323    0.0000 </r>
       <r>    6.9323    0.0000 </r>
       <r>   11.6423    0.0000 </r>
       <r>   12.4227    0.0000 </r>
       <r>   12.4227    0.0000 </r>
       <r>   13.7574    0.0000 </r>
       <r>   15.2052    0.0000 </r>
       <r>   15.2052    0.0000 </r>
       <r>   17.0549    0.0000 </r>
       <r>   19.0272    0.0000 </r>
      </set>
      <set comment="kpoint 9">
       <r>   -6.5000    1.0000 </r>
       <r>    6.7500    0.0000 </r>
       <r>    7.0498    0.0000 </r>
       <r>    7.0498    0.0000 </r>
       <r>   11.9736    0.0000 </r>
       <r>   12.1864    0.0000 </r>
       <r>   12.1864    0.0000 </r>
       <r>   13.1452    0.0000 </r>
       <r>   15.6205    0.0000 </r>
       <r>   15.6205    0.0000 </r>
       <r>   16.1986    0.0000 </r>
       <r>   19.6611    0.0000 </r>
      </set>
      <set comment="kpoint 10">
       <r>   -6.5480    1.0000 </r>
       <r>    7.0939    0.0000 </r>
       <r>    7.0939    0.0000 </r>
       <r>    7.0939    0.0000 </r>
       <r>   12.0962    0.0000 </r>
       <r>   12.0962    0.0000 </r>
       <r>   12.0962    0.0000 </r>
       <r>   12.9273    0.0000 </r>
       <r>   15.8253    0.0000 </r>
       <r>   15.8473    0.0000 </r>
       <r>   15.8473    0.0000 </r>
       <r>   20.0851    0.0000 </r>
      </set>
      <set comment="kpoint 11">
       <r>   -6.5480    1.0000 </r>
       <r>    7.0939    0.0000 </r>
       <r>    7.0939    0.0000 </r>
       <r>    7.0939    0.0000 </r>
       <r>   12.0962    0.0000 </r>
       <r>   12.0962    0.0000 </r>
       <r>   12.0962    0.0000 </r>
       <r>   12.9273    0.0000 </r>
       <r>   15.8253    0.0000 </r>
       <r>   15.8473    0.0000 </r>
       <r>   15.8473    0.0000 </r>
       <r>   20.0851    0.0000 </r>
      </set>
      <set comment="kpoint 12">
       <r>   -6.4839    1.0000 </r>
       <r>    6.8515    0.0000 </r>
       <r>    6.9271    0.0000 </r>
       <r>    6.9271    0.0000 </r>
       <r>   11.7524    0.0000 </r>
       <r>   12.3371    0.0000 </r>
       <r>   12.3371    0.0000 </r>
       <r>   13.1703    0.0000 </r>
       <r>   15.2637    0.0000 </r>
       <r>   15.8944    0.0000 </r>
       <r>   16.3115    0.0000 </r>
       <r>   20.1235    0.0000 </r>
      </set>
      <set comment="kpoint 13">
       <r>   -6.2919    1.0000 </r>
       <r>    6.2321    0.0000 </r>
       <r>    6.5130    0.0000 </r>
       <r>    6.5130    0.0000 </r>
       <r>   11.0282    0.0000 </r>
       <r>   12.9802    0.0000 </r>
       <r>   12.9802    0.0000 </r>
       <r>   13.2421    0.0000 </r>
       <r>   14.6388    0.0000 </r>
       <r>   16.0756    0.0000 </r>
       <r>   17.4625    0.0000 </r>
       <r>   20.3092    0.0000 </r>
      </set>
      <set comment="kpoint 14">
       <r>   -5.9749    1.0000 </r>
       <r>    5.4056    0.0000 </r>
       <r>    5.9984    0.0000 </r>
       <r>    5.9984    0.0000 </r>
       <r>   10.2490    0.0000 </r>
       <r>   12.0243    0.0000 </r>
       <r>   13.8605    0.0000 </r>
       <r>   13.8605    0.0000 </r>
       <r>   15.4691    0.0000 </r>
       <r>   16.3728    0.0000 </r>
       <r>   18.9495    0.0000 </r>
       <r>   20.6697    0.0000 </r>
      </set>
      <set comment="kpoint 15">
       <r>   -5.5378    1.0000 </r>
       <r>    4.4708    0.0000 </r>
       <r>    5.4848    0.0000 </r>
       <r>    5.4848    0.0000 </r>
       <r>    9.5377    0.0000 </r>
       <r>   10.6632    0.0000 </r>
       <r>   14.8701    0.0000 </r>
       <r>   14.8701    0.0000 </r>
       <r>   16.7055    0.0000 </r>
       <r>   16.7764    0.0000 </r>
       <r>   20.6499    0.0000 </r>
       <r>   21.1953    0.0000 </r>
      </set>
      <set comment="kpoint 16">
       <r>   -4.9894    1.0000 </r>
       <r>    3.4722    1.0000 </r>
       <r>    5.0264    0.0000 </r>
       <r>    5.0264    0.0000 </r>
       <r>    8.9365    0.0000 </r>
       <r>    9.4921    0.0000 </r>
       <r>   15.9719    0.0000 </r>
       <r>   15.9719    0.0000 </r>
       <r>   17.2736    0.0000 </r>
       <r>   18.0296    0.0000 </r>
       <r>   21.9273    0.0000 </r>
       <r>   22.5226    0.0000 </r>
      </set>
      <set comment="kpoint 17">
       <r>   -4.3484    1.0000 </r>
       <r>    2.4434    1.0000 </r>
       <r>    4.6509    0.0000 </r>
       <r>    4.6509    0.0000 </r>
       <r>    8.4517    0.0000 </r>
       <r>    8.5697    0.0000 </r>
       <r>   17.0763    0.0000 </r>
       <r>   17.0763    0.0000 </r>
       <r>   17.8146    0.0000 </r>
       <r>   19.2839    0.0000 </r>
       <r>   22.8675    0.0000 </r>
       <r>   23.9769    0.0000 </r>
      </set>
      <set comment="kpoint 18">
       <r>   -3.6536    1.0000 </r>
       <r>    1.4444    1.0000 </r>
       <r>    4.3751    0.0000 </r>
       <r>    4.3751    0.0000 </r>
       <r>    7.9214    0.0000 </r>
       <r>    8.1074    0.0000 </r>
       <r>   18.2129    0.0000 </r>
       <r>   18.2129    0.0000 </r>
       <r>   18.3721    0.0000 </r>
       <r>   20.3273    0.0000 </r>
       <r>   23.6937    0.0000 </r>
       <r>   23.6943    0.0000 </r>
      </set>
      <set comment="kpoint 19">
       <r>   -3.0111    1.0000 </r>
       <r>    0.6055    1.0000 </r>
       <r>    4.2068    0.0002 </r>
       <r>    4.2068    0.0002 </r>
       <r>    7.5369    0.0000 </r>
       <r>    7.9022    0.0000 </r>
       <r>   18.8020    0.0000 </r>
       <r>   19.2887    0.0000 </r>
       <r>   19.2887    0.0000 </r>
       <r>   21.0279    0.0000 </r>
       <r>   22.6806    0.0000 </r>
       <r>   22.6806    0.0000 </r>
      </set>
      <set comment="kpoint 20">
       <r>   -2.7062    1.0000 </r>
       <r>    0.2327    1.0000 </r>
       <r>    4.1503    0.0035 </r>
       <r>    4.1503    0.0035 </r>
       <r>    7.4114    0.0000 </r>
       <r>    7.8326    0.0000 </r>
       <r>   18.9698    0.0000 </r>
       <r>   19.8798    0.0000 </r>
       <r>   19.8798    0.0000 </r>
       <r>   21.2785    0.0000 </r>
       <r>   22.0639    0.0000 </r>
       <r>   22.0639    0.0000 </r>
      </set>
      <set comment="kpoint 21">
       <r>   -2.7062    1.0000 </r>
       <r>    0.2327    1.0000 </r>
       <r>    4.1503    0.0035 </r>
       <r>    4.1503    0.0035 </r>
       <r>    7.4114    0.0000 </r>
       <r>    7.8326    0.0000 </r>
       <r>   18.9698    0.0000 </r>
       <r>   19.8798    0.0000 </r>
       <r>   19.8798    0.0000 </r>
       <r>   21.2785    0.0000 </r>
       <r>   22.0639    0.0000 </r>
       <r>   22.0639    0.0000 </r>
      </set>
      <set comment="kpoint 22">
       <r>   -2.7040    1.0000 </r>
       <r>    0.2409    1.0000 </r>
       <r>    4.0711    0.0569 </r>
       <r>    4.1570    0.0026 </r>
       <r>    7.4572    0.0000 </r>
       <r>    7.8939    0.0000 </r>
       <r>   18.8842    0.0000 </r>
       <r>   19.7209    0.0000 </r>
       <r>   19.8427    0.0000 </r>
       <r>   21.4418    0.0000 </r>
       <r>   22.0160    0.0000 </r>
       <r>   22.1612    0.0000 </r>
      </set>
      <set comment="kpoint 23">
       <r>   -2.6975    1.0000 </r>
       <r>    0.2654    1.0000 </r>
       <r>    3.8575    0.9249 </r>
       <r>    4.1770    0.0010 </r>
       <r>    7.5456    0.0000 </r>
       <r>    8.1030    0.0000 </r>
       <r>   18.6546    0.0000 </r>
       <r>   19.3669    0.0000 </r>
       <r>   19.7341    0.0000 </r>
       <r>   21.8087    0.0000 </r>
       <r>   21.8789    0.0000 </r>
       <r>   22.4260    0.0000 </r>
      </set>
      <set comment="kpoint 24">
       <r>   -2.6877    1.0000 </r>
       <r>    0.3062    1.0000 </r>
       <r>    3.5575    1.0000 </r>
       <r>    4.2102    0.0002 </r>
       <r>    7.6262    0.0000 </r>
       <r>    8.4583    0.0000 </r>
       <r>   18.3192    0.0000 </r>
       <r>   18.9377    0.0000 </r>
       <r>   19.5609    0.0000 </r>
       <r>   21.6689    0.0000 </r>
       <r>   22.2465    0.0000 </r>
       <r>   22.8032    0.0000 </r>
      </set>
      <set comment="kpoint 25">
       <r>   -2.6762    1.0000 </r>
       <r>    0.3632    1.0000 </r>
       <r>    3.2160    1.0000 </r>
       <r>    4.2566    0.0000 </r>
       <r>    7.7044    0.0000 </r>
       <r>    8.9191    0.0000 </r>
       <r>   17.9500    0.0000 </r>
       <r>   18.4974    0.0000 </r>
       <r>   19.3347    0.0000 </r>
       <r>   21.4062    0.0000 </r>
       <r>   22.7129    0.0000 </r>
       <r>   23.2514    0.0000 </r>
      </set>
      <set comment="kpoint 26">
       <r>   -2.6654    1.0000 </r>
       <r>    0.4366    1.0000 </r>
       <r>    2.8619    1.0000 </r>
       <r>    4.3159    0.0000 </r>
       <r>    7.7907    0.0000 </r>
       <r>    9.4475    0.0000 </r>
       <r>   17.5609    0.0000 </r>
       <r>   18.0574    0.0000 </r>
       <r>   19.0666    0.0000 </r>
       <r>   21.1098    0.0000 </r>
       <r>   23.1928    0.0000 </r>
       <r>   23.7448    0.0000 </r>
      </set>
      <set comment="kpoint 27">
       <r>   -2.6589    1.0000 </r>
       <r>    0.5259    1.0000 </r>
       <r>    2.5146    1.0000 </r>
       <r>    4.3876    0.0000 </r>
       <r>    7.8866    0.0000 </r>
       <r>   10.0099    0.0000 </r>
       <r>   17.1506    0.0000 </r>
       <r>   17.6100    0.0000 </r>
       <r>   18.7526    0.0000 </r>
       <r>   20.7945    0.0000 </r>
       <r>   23.6590    0.0000 </r>
       <r>   24.2541    0.0000 </r>
      </set>
      <set comment="kpoint 28">
       <r>   -2.6607    1.0000 </r>
       <r>    0.6314    1.0000 </r>
       <r>    2.1881    1.0000 </r>
       <r>    4.4718    0.0000 </r>
       <r>    8.0001    0.0000 </r>
       <r>   10.5980    0.0000 </r>
       <r>   16.7493    0.0000 </r>
       <r>   17.1681    0.0000 </r>
       <r>   18.4219    0.0000 </r>
       <r>   20.4754    0.0000 </r>
       <r>   24.1087    0.0000 </r>
       <r>   24.7832    0.0000 </r>
      </set>
      <set comment="kpoint 29">
       <r>   -2.6760    1.0000 </r>
       <r>    0.7528    1.0000 </r>
       <r>    1.8939    1.0000 </r>
       <r>    4.5677    0.0000 </r>
       <r>    8.1294    0.0000 </r>
       <r>   11.1998    0.0000 </r>
       <r>   16.3617    0.0000 </r>
       <r>   16.7456    0.0000 </r>
       <r>   18.0840    0.0000 </r>
       <r>   20.1635    0.0000 </r>
       <r>   24.5407    0.0000 </r>
       <r>   24.5417    0.0000 </r>
      </set>
      <set comment="kpoint 30">
       <r>   -2.7107    1.0000 </r>
       <r>    0.8900    1.0000 </r>
       <r>    1.6415    1.0000 </r>
       <r>    4.6753    0.0000 </r>
       <r>    8.2752    0.0000 </r>
       <r>   11.8060    0.0000 </r>
       <r>   15.9963    0.0000 </r>
       <r>   16.3347    0.0000 </r>
       <r>   17.7378    0.0000 </r>
       <r>   19.8697    0.0000 </r>
       <r>   24.2041    0.0000 </r>
       <r>   24.9063    0.0000 </r>
      </set>
      <set comment="kpoint 31">
       <r>   -2.7107    1.0000 </r>
       <r>    0.8900    1.0000 </r>
       <r>    1.6415    1.0000 </r>
       <r>    4.6753    0.0000 </r>
       <r>    8.2752    0.0000 </r>
       <r>   11.8060    0.0000 </r>
       <r>   15.9963    0.0000 </r>
       <r>   16.3347    0.0000 </r>
       <r>   17.7378    0.0000 </r>
       <r>   19.8697    0.0000 </r>
       <r>   24.2041    0.0000 </r>
       <r>   24.9063    0.0000 </r>
      </set>
      <set comment="kpoint 32">
       <r>   -2.9793    1.0000 </r>
       <r>    1.2060    1.0000 </r>
       <r>    1.3945    1.0000 </r>
       <r>    5.0572    0.0000 </r>
       <r>    8.8051    0.0000 </r>
       <r>   13.5053    0.0000 </r>
       <r>   14.9610    0.0000 </r>
       <r>   15.1759    0.0000 </r>
       <r>   16.6741    0.0000 </r>
       <r>   19.2306    0.0000 </r>
       <r>   23.1822    0.0000 </r>
       <r>   24.3671    0.0000 </r>
      </set>
      <set comment="kpoint 33">
       <r>   -3.5052    1.0000 </r>
       <r>    1.2872    1.0000 </r>
       <r>    2.0330    1.0000 </r>
       <r>    5.5081    0.0000 </r>
       <r>    9.4770    0.0000 </r>
       <r>   14.1240    0.0000 </r>
       <r>   14.1543    0.0000 </r>
       <r>   14.5960    0.0000 </r>
       <r>   15.6744    0.0000 </r>
       <r>   19.3439    0.0000 </r>
       <r>   22.3439    0.0000 </r>
       <r>   23.1647    0.0000 </r>
      </set>
      <set comment="kpoint 34">
       <r>   -4.1670    1.0000 </r>
       <r>    1.7755    1.0000 </r>
       <r>    2.7939    1.0000 </r>
       <r>    5.9842    0.0000 </r>
       <r>   10.2637    0.0000 </r>
       <r>   13.2722    0.0000 </r>
       <r>   13.5205    0.0000 </r>
       <r>   14.7114    0.0000 </r>
       <r>   14.7537    0.0000 </r>
       <r>   19.9822    0.0000 </r>
       <r>   22.0564    0.0000 </r>
       <r>   22.2282    0.0000 </r>
      </set>
      <set comment="kpoint 35">
       <r>   -4.8320    1.0000 </r>
       <r>    2.5384    1.0000 </r>
       <r>    3.6568    1.0000 </r>
       <r>    6.4254    0.0000 </r>
       <r>   11.1360    0.0000 </r>
       <r>   12.5602    0.0000 </r>
       <r>   13.2301    0.0000 </r>
       <r>   13.9590    0.0000 </r>
       <r>   14.3557    0.0000 </r>
       <r>   19.7165    0.0000 </r>
       <r>   20.9984    0.0000 </r>
       <r>   21.0479    0.0000 </r>
      </set>
      <set comment="kpoint 36">
       <r>   -5.4244    1.0000 </r>
       <r>    3.4898    1.0000 </r>
       <r>    4.5860    0.0000 </r>
       <r>    6.7661    0.0000 </r>
       <r>   11.9940    0.0000 </r>
       <r>   12.0317    0.0000 </r>
       <r>   13.2937    0.0000 </r>
       <r>   13.2997    0.0000 </r>
       <r>   13.9879    0.0000 </r>
       <r>   18.5458    0.0000 </r>
       <r>   19.7016    0.0000 </r>
       <r>   20.0642    0.0000 </r>
      </set>
      <set comment="kpoint 37">
       <r>   -5.9070    1.0000 </r>
       <r>    4.5658    0.0000 </r>
       <r>    5.5168    0.0000 </r>
       <r>    6.9720    0.0000 </r>
       <r>   11.7277    0.0000 </r>
       <r>   12.5315    0.0000 </r>
       <r>   12.7711    0.0000 </r>
       <r>   13.7501    0.0000 </r>
       <r>   13.9258    0.0000 </r>
       <r>   16.8263    0.0000 </r>
       <r>   18.9396    0.0000 </r>
       <r>   19.2884    0.0000 </r>
      </set>
      <set comment="kpoint 38">
       <r>   -6.2606    1.0000 </r>
       <r>    5.6819    0.0000 </r>
       <r>    6.3361    0.0000 </r>
       <r>    7.0631    0.0000 </r>
       <r>   11.6971    0.0000 </r>
       <r>   12.3953    0.0000 </r>
       <r>   12.5248    0.0000 </r>
       <r>   13.9492    0.0000 </r>
       <r>   14.5083    0.0000 </r>
       <r>   15.6911    0.0000 </r>
       <r>   17.5995    0.0000 </r>
       <r>   19.2777    0.0000 </r>
      </set>
      <set comment="kpoint 39">
       <r>   -6.4759    1.0000 </r>
       <r>    6.6579    0.0000 </r>
       <r>    6.8971    0.0000 </r>
       <r>    7.0898    0.0000 </r>
       <r>   11.9139    0.0000 </r>
       <r>   12.1685    0.0000 </r>
       <r>   12.2959    0.0000 </r>
       <r>   13.2545    0.0000 </r>
       <r>   15.3673    0.0000 </r>
       <r>   15.7032    0.0000 </r>
       <r>   16.3691    0.0000 </r>
       <r>   19.6794    0.0000 </r>
      </set>
      <set comment="kpoint 40">
       <r>   -6.5480    1.0000 </r>
       <r>    7.0939    0.0000 </r>
       <r>    7.0939    0.0000 </r>
       <r>    7.0939    0.0000 </r>
       <r>   12.0962    0.0000 </r>
       <r>   12.0962    0.0000 </r>
       <r>   12.0962    0.0000 </r>
       <r>   12.9273    0.0000 </r>
       <r>   15.8253    0.0000 </r>
       <r>   15.8473    0.0000 </r>
       <r>   15.8473    0.0000 </r>
       <r>   20.0851    0.0000 </r>
      </set>
     </set>
    </set>
   </array>
  </eigenvalues>
  <separator name="orbital magnetization" >
   <v name="MAGDIPOLOUT">      0.00000000      0.00000000      0.00000000</v>
  </separator>
  <dos>
   <i name="efermi">      3.95930545 </i>
   <total>
    <array>
     <dimension dim="1">gridpoints</dimension>
     <dimension dim="2">spin</dimension>
     <field>energy</field>
     <field>total</field>
     <field>integrated</field>
     <set>
      <set comment="spin 1">
       <r>    -8.1207     0.0000     0.0000 </r>
       <r>    -8.0054     0.0000     0.0000 </r>
       <r>    -7.8901     0.0000     0.0000 </r>
       <r>    -7.7747     0.0000     0.0000 </r>
       <r>    -7.6594     0.0000     0.0000 </r>
       <r>    -7.5441     0.0000     0.0000 </r>
       <r>    -7.4287     0.0000     0.0000 </r>
       <r>    -7.3134     0.0000     0.0000 </r>
       <r>    -7.1981     0.0000     0.0000 </r>
       <r>    -7.0827     0.0000     0.0000 </r>
       <r>    -6.9674     0.0000     0.0000 </r>
       <r>    -6.8521     0.0000     0.0000 </r>
       <r>    -6.7367     0.0052     0.0006 </r>
       <r>    -6.6214     0.2278     0.0269 </r>
       <r>    -6.5061     1.2261     0.1683 </r>
       <r>    -6.3907     1.1930     0.3059 </r>
       <r>    -6.2754     0.7690     0.3946 </r>
       <r>    -6.1601     0.5557     0.4587 </r>
       <r>    -6.0447     0.3753     0.5020 </r>
       <r>    -5.9294     0.4767     0.5569 </r>
       <r>    -5.8141     0.4930     0.6138 </r>
       <r>    -5.6987     0.2785     0.6459 </r>
       <r>    -5.5834     0.1539     0.6636 </r>
       <r>    -5.4681     0.4151     0.7115 </r>
       <r>    -5.3527     0.5604     0.7762 </r>
       <r>    -5.2374     0.1975     0.7989 </r>
       <r>    -5.1221     0.0232     0.8016 </r>
       <r>    -5.0067     0.2084     0.8256 </r>
       <r>    -4.8914     0.5409     0.8880 </r>
       <r>    -4.7761     0.4339     0.9381 </r>
       <r>    -4.6608     0.1003     0.9496 </r>
       <r>    -4.5454     0.0232     0.9523 </r>
       <r>    -4.4301     0.2365     0.9796 </r>
       <r>    -4.3148     0.4547     1.0320 </r>
       <r>    -4.1994     0.2891     1.0654 </r>
       <r>    -4.0841     0.2951     1.0994 </r>
       <r>    -3.9688     0.2932     1.1332 </r>
       <r>    -3.8534     0.2567     1.1628 </r>
       <r>    -3.7381     0.3076     1.1983 </r>
       <r>    -3.6228     0.3238     1.2356 </r>
       <r>    -3.5074     0.3273     1.2734 </r>
       <r>    -3.3921     0.2069     1.2972 </r>
       <r>    -3.2768     0.0236     1.3000 </r>
       <r>    -3.1614     0.0097     1.3011 </r>
       <r>    -3.0461     0.1999     1.3241 </r>
       <r>    -2.9308     0.4979     1.3816 </r>
       <r>    -2.8154     0.3688     1.4241 </r>
       <r>    -2.7001     2.0630     1.6620 </r>
       <r>    -2.5848     2.5199     1.9527 </r>
       <r>    -2.4694     0.4032     1.9992 </r>
       <r>    -2.3541     0.0073     2.0000 </r>
       <r>    -2.2388     0.0000     2.0000 </r>
       <r>    -2.1234     0.0000     2.0000 </r>
       <r>    -2.0081     0.0000     2.0000 </r>
       <r>    -1.8928     0.0000     2.0000 </r>
       <r>    -1.7774     0.0000     2.0000 </r>
       <r>    -1.6621     0.0000     2.0000 </r>
       <r>    -1.5468     0.0000     2.0000 </r>
       <r>    -1.4314     0.0000     2.0000 </r>
       <r>    -1.3161     0.0000     2.0000 </r>
       <r>    -1.2008     0.0000     2.0000 </r>
       <r>    -1.0854     0.0000     2.0000 </r>
       <r>    -0.9701     0.0000     2.0000 </r>
       <r>    -0.8548     0.0000     2.0000 </r>
       <r>    -0.7394     0.0000     2.0000 </r>
       <r>    -0.6241     0.0065     2.0008 </r>
       <r>    -0.5088     0.1219     2.0148 </r>
       <r>    -0.3934     0.2470     2.0433 </r>
       <r>    -0.2781     0.1099     2.0560 </r>
       <r>    -0.1628     0.2433     2.0840 </r>
       <r>    -0.0475     0.1306     2.0991 </r>
       <r>     0.0679     0.0206     2.1015 </r>
       <r>     0.1832     0.3601     2.1430 </r>
       <r>     0.2985     1.2687     2.2893 </r>
       <r>     0.4139     1.0525     2.4107 </r>
       <r>     0.5292     0.9025     2.5148 </r>
       <r>     0.6445     0.8596     2.6140 </r>
       <r>     0.7599     0.5536     2.6778 </r>
       <r>     0.8752     0.5360     2.7396 </r>
       <r>     0.9905     0.4567     2.7923 </r>
       <r>     1.1059     0.1021     2.8041 </r>
       <r>     1.2212     0.2985     2.8385 </r>
       <r>     1.3365     0.5711     2.9043 </r>
       <r>     1.4519     0.8077     2.9975 </r>
       <r>     1.5672     0.5506     3.0610 </r>
       <r>     1.6825     0.5695     3.1267 </r>
       <r>     1.7979     0.4990     3.1842 </r>
       <r>     1.9132     0.4084     3.2313 </r>
       <r>     2.0285     0.3604     3.2729 </r>
       <r>     2.1439     0.3247     3.3103 </r>
       <r>     2.2592     0.2775     3.3424 </r>
       <r>     2.3745     0.1685     3.3618 </r>
       <r>     2.4899     0.6825     3.4405 </r>
       <r>     2.6052     0.8004     3.5328 </r>
       <r>     2.7205     0.2205     3.5582 </r>
       <r>     2.8359     0.3967     3.6040 </r>
       <r>     2.9512     0.3485     3.6442 </r>
       <r>     3.0665     0.0570     3.6508 </r>
       <r>     3.1819     0.1297     3.6657 </r>
       <r>     3.2972     0.2471     3.6942 </r>
       <r>     3.4125     0.2040     3.7177 </r>
       <r>     3.5279     0.6766     3.7958 </r>
       <r>     3.6432     0.8175     3.8901 </r>
       <r>     3.7585     0.5001     3.9477 </r>
       <r>     3.8739     0.2764     3.9796 </r>
       <r>     3.9892     0.2431     4.0077 </r>
       <r>     4.1045     0.9442     4.1166 </r>
       <r>     4.2199     2.4574     4.4000 </r>
       <r>     4.3352     1.8154     4.6094 </r>
       <r>     4.4505     1.3919     4.7699 </r>
       <r>     4.5659     1.3601     4.9268 </r>
       <r>     4.6812     1.6071     5.1121 </r>
       <r>     4.7965     0.9068     5.2167 </r>
       <r>     4.9118     0.3153     5.2531 </r>
       <r>     5.0272     0.5557     5.3172 </r>
       <r>     5.1425     0.6253     5.3893 </r>
       <r>     5.2578     0.1002     5.4008 </r>
       <r>     5.3732     0.2041     5.4244 </r>
       <r>     5.4885     0.9421     5.5330 </r>
       <r>     5.6038     0.9463     5.6422 </r>
       <r>     5.7192     0.3728     5.6852 </r>
       <r>     5.8345     0.2221     5.7108 </r>
       <r>     5.9498     0.5961     5.7795 </r>
       <r>     6.0652     1.0193     5.8971 </r>
       <r>     6.1805     1.4624     6.0657 </r>
       <r>     6.2958     1.8084     6.2743 </r>
       <r>     6.4112     1.4473     6.4412 </r>
       <r>     6.5265     1.4230     6.6054 </r>
       <r>     6.6418     1.2153     6.7455 </r>
       <r>     6.7572     1.2733     6.8924 </r>
       <r>     6.8725     1.6502     7.0827 </r>
       <r>     6.9878     2.2464     7.3418 </r>
       <r>     7.1032     3.4293     7.7373 </r>
       <r>     7.2185     2.1000     7.9795 </r>
       <r>     7.3338     0.3137     8.0157 </r>
       <r>     7.4492     0.7579     8.1031 </r>
       <r>     7.5645     1.0043     8.2189 </r>
       <r>     7.6798     0.7820     8.3091 </r>
       <r>     7.7952     0.9168     8.4148 </r>
       <r>     7.9105     1.6066     8.6001 </r>
       <r>     8.0258     1.2144     8.7402 </r>
       <r>     8.1412     0.9472     8.8494 </r>
       <r>     8.2565     0.7542     8.9364 </r>
       <r>     8.3718     0.5819     9.0035 </r>
       <r>     8.4872     0.6063     9.0734 </r>
       <r>     8.6025     0.5092     9.1322 </r>
       <r>     8.7178     0.1951     9.1547 </r>
       <r>     8.8332     0.3229     9.1919 </r>
       <r>     8.9485     0.5936     9.2604 </r>
       <r>     9.0638     0.3192     9.2972 </r>
       <r>     9.1792     0.0243     9.3000 </r>
       <r>     9.2945     0.0101     9.3012 </r>
       <r>     9.4098     0.2612     9.3313 </r>
       <r>     9.5252     0.9103     9.4363 </r>
       <r>     9.6405     0.5073     9.4948 </r>
       <r>     9.7558     0.0449     9.4999 </r>
       <r>     9.8711     0.0112     9.5012 </r>
       <r>     9.9865     0.1569     9.5193 </r>
       <r>    10.1018     0.4277     9.5687 </r>
       <r>    10.2171     0.8944     9.6718 </r>
       <r>    10.3325     0.9702     9.7837 </r>
       <r>    10.4478     0.4446     9.8350 </r>
       <r>    10.5631     0.3687     9.8775 </r>
       <r>    10.6785     0.7234     9.9609 </r>
       <r>    10.7938     0.3422    10.0004 </r>
       <r>    10.9091     0.2353    10.0275 </r>
       <r>    11.0245     0.4086    10.0747 </r>
       <r>    11.1398     0.5299    10.1358 </r>
       <r>    11.2551     0.6637    10.2123 </r>
       <r>    11.3705     0.3211    10.2494 </r>
       <r>    11.4858     0.3946    10.2949 </r>
       <r>    11.6011     1.1382    10.4261 </r>
       <r>    11.7165     1.5096    10.6002 </r>
       <r>    11.8318     1.7219    10.7988 </r>
       <r>    11.9471     1.2667    10.9449 </r>
       <r>    12.0625     2.8419    11.2727 </r>
       <r>    12.1778     3.4233    11.6675 </r>
       <r>    12.2931     1.7539    11.8698 </r>
       <r>    12.4085     1.8896    12.0877 </r>
       <r>    12.5238     1.5402    12.2654 </r>
       <r>    12.6391     1.5696    12.4464 </r>
       <r>    12.7545     1.0052    12.5623 </r>
       <r>    12.8698     0.6128    12.6330 </r>
       <r>    12.9851     1.2103    12.7726 </r>
       <r>    13.1005     0.8439    12.8699 </r>
       <r>    13.2158     1.1763    13.0056 </r>
       <r>    13.3311     1.6188    13.1923 </r>
       <r>    13.4465     0.6317    13.2651 </r>
       <r>    13.5618     0.5255    13.3257 </r>
       <r>    13.6771     0.3265    13.3634 </r>
       <r>    13.7925     0.6667    13.4403 </r>
       <r>    13.9078     1.1720    13.5755 </r>
       <r>    14.0231     1.2372    13.7181 </r>
       <r>    14.1385     0.6948    13.7983 </r>
       <r>    14.2538     0.4318    13.8481 </r>
       <r>    14.3691     0.2797    13.8803 </r>
       <r>    14.4845     0.4430    13.9314 </r>
       <r>    14.5998     0.9307    14.0388 </r>
       <r>    14.7151     1.2952    14.1882 </r>
       <r>    14.8304     1.2290    14.3299 </r>
       <r>    14.9458     1.5072    14.5037 </r>
       <r>    15.0611     1.2095    14.6432 </r>
       <r>    15.1764     1.1546    14.7764 </r>
       <r>    15.2918     1.5224    14.9520 </r>
       <r>    15.4071     0.8555    15.0506 </r>
       <r>    15.5224     0.7363    15.1356 </r>
       <r>    15.6378     1.1842    15.2721 </r>
       <r>    15.7531     2.0214    15.5053 </r>
       <r>    15.8684     2.7452    15.8219 </r>
       <r>    15.9838     2.3201    16.0895 </r>
       <r>    16.0991     1.1713    16.2246 </r>
       <r>    16.2144     0.5591    16.2890 </r>
       <r>    16.3298     1.1361    16.4201 </r>
       <r>    16.4451     1.3599    16.5769 </r>
       <r>    16.5604     0.6589    16.6529 </r>
       <r>    16.6758     0.9045    16.7572 </r>
       <r>    16.7911     1.3210    16.9096 </r>
       <r>    16.9064     0.7175    16.9923 </r>
       <r>    17.0218     0.4445    17.0436 </r>
       <r>    17.1371     1.2725    17.1904 </r>
       <r>    17.2524     1.0806    17.3150 </r>
       <r>    17.3678     0.7404    17.4004 </r>
       <r>    17.4831     1.0473    17.5212 </r>
       <r>    17.5984     1.3246    17.6739 </r>
       <r>    17.7138     0.9495    17.7834 </r>
       <r>    17.8291     0.7634    17.8715 </r>
       <r>    17.9444     0.5239    17.9319 </r>
       <r>    18.0598     0.9320    18.0394 </r>
       <r>    18.1751     1.0905    18.1652 </r>
       <r>    18.2904     0.9417    18.2738 </r>
       <r>    18.4058     1.3007    18.4238 </r>
       <r>    18.5211     1.0472    18.5446 </r>
       <r>    18.6364     0.6422    18.6186 </r>
       <r>    18.7518     0.8622    18.7181 </r>
       <r>    18.8671     1.3864    18.8780 </r>
       <r>    18.9824     1.8906    19.0960 </r>
       <r>    19.0978     1.4830    19.2670 </r>
       <r>    19.2131     0.8453    19.3645 </r>
       <r>    19.3284     2.1506    19.6126 </r>
       <r>    19.4438     1.4782    19.7831 </r>
       <r>    19.5591     0.4314    19.8328 </r>
       <r>    19.6744     1.0853    19.9580 </r>
       <r>    19.7897     1.9716    20.1854 </r>
       <r>    19.9051     2.2347    20.4431 </r>
       <r>    20.0204     1.6122    20.6291 </r>
       <r>    20.1357     1.7834    20.8347 </r>
       <r>    20.2511     1.0641    20.9575 </r>
       <r>    20.3664     0.6115    21.0280 </r>
       <r>    20.4817     0.4191    21.0763 </r>
       <r>    20.5971     0.3535    21.1171 </r>
       <r>    20.7124     0.6210    21.1887 </r>
       <r>    20.8277     0.6773    21.2668 </r>
       <r>    20.9431     0.4492    21.3186 </r>
       <r>    21.0584     0.8311    21.4145 </r>
       <r>    21.1737     0.8596    21.5136 </r>
       <r>    21.2891     0.7854    21.6042 </r>
       <r>    21.4044     0.7056    21.6856 </r>
       <r>    21.5197     0.4836    21.7414 </r>
       <r>    21.6351     0.2135    21.7660 </r>
       <r>    21.7504     0.3474    21.8061 </r>
       <r>    21.8657     0.5700    21.8718 </r>
       <r>    21.9811     0.9544    21.9819 </r>
       <r>    22.0964     1.6802    22.1757 </r>
       <r>    22.2117     1.2618    22.3212 </r>
       <r>    22.3271     0.8011    22.4136 </r>
       <r>    22.4424     0.5940    22.4821 </r>
       <r>    22.5577     0.5664    22.5474 </r>
       <r>    22.6731     0.8889    22.6499 </r>
       <r>    22.7884     0.9849    22.7635 </r>
       <r>    22.9037     0.5848    22.8309 </r>
       <r>    23.0191     0.2527    22.8601 </r>
       <r>    23.1344     0.6065    22.9300 </r>
       <r>    23.2497     1.0341    23.0493 </r>
       <r>    23.3651     0.4101    23.0966 </r>
       <r>    23.4804     0.0589    23.1034 </r>
       <r>    23.5957     0.3604    23.1450 </r>
       <r>    23.7111     1.0119    23.2617 </r>
       <r>    23.8264     0.6887    23.3411 </r>
       <r>    23.9417     0.2140    23.3658 </r>
       <r>    24.0571     0.3593    23.4072 </r>
       <r>    24.1724     0.6286    23.4797 </r>
       <r>    24.2877     0.8572    23.5786 </r>
       <r>    24.4031     0.5037    23.6367 </r>
       <r>    24.5184     0.5411    23.6991 </r>
       <r>    24.6337     0.7465    23.7852 </r>
       <r>    24.7490     0.4802    23.8406 </r>
       <r>    24.8644     0.6759    23.9185 </r>
       <r>    24.9797     0.5753    23.9849 </r>
       <r>    25.0950     0.1279    23.9996 </r>
       <r>    25.2104     0.0033    24.0000 </r>
       <r>    25.3257     0.0000    24.0000 </r>
       <r>    25.4410     0.0000    24.0000 </r>
       <r>    25.5564     0.0000    24.0000 </r>
       <r>    25.6717     0.0000    24.0000 </r>
       <r>    25.7870     0.0000    24.0000 </r>
       <r>    25.9024     0.0000    24.0000 </r>
       <r>    26.0177     0.0000    24.0000 </r>
       <r>    26.1330     0.0000    24.0000 </r>
       <r>    26.2484     0.0000    24.0000 </r>
       <r>    26.3637     0.0000    24.0000 </r>
       <r>    26.4790     0.0000    24.0000 </r>
      </set>
     </set>
    </array>
   </total>
   <partial>
    <array>
     <dimension dim="1">gridpoints</dimension>
     <dimension dim="2">spin</dimension>
     <dimension dim="3">ion</dimension>
     <field>energy</field>
     <field>    s</field>
     <field>   py</field>
     <field>   pz</field>
     <field>   px</field>
     <field>  dxy</field>
     <field>  dyz</field>
     <field>  dz2</field>
     <field>  dxz</field>
     <field>x2-y2</field>
     <set>
      <set comment="ion 1">
       <set comment="spin 1">
        <r>    -8.1207     0.0000     0.0000     0.0000     0.0000     0.0000     0.0000     0.0000     0.0000     0.0000 </r>
        <r>    -8.0054     0.0000     0.0000     0.0000     0.0000     0.0000     0.0000     0.0000     0.0000     0.0000 </r>
        <r>    -7.8901     0.0000     0.0000     0.0000     0.0000     0.0000     0.0000     0.0000     0.0000     0.0000 </r>
        <r>    -7.7747     0.0000     0.0000     0.0000     0.0000     0.0000     0.0000     0.0000     0.0000     0.0000 </r>
        <r>    -7.6594     0.0000     0.0000     0.0000     0.0000     0.0000     0.0000     0.0000     0.0000     0.0000 </r>
        <r>    -7.5441     0.0000     0.0000     0.0000     0.0000     0.0000     0.0000     0.0000     0.0000     0.0000 </r>
        <r>    -7.4287     0.0000     0.0000     0.0000     0.0000     0.0000     0.0000     0.0000     0.0000     0.0000 </r>
        <r>    -7.3134     0.0000     0.0000     0.0000     0.0000     0.0000     0.0000     0.0000     0.0000     0.0000 </r>
        <r>    -7.1981     0.0000     0.0000     0.0000     0.0000     0.0000     0.0000     0.0000     0.0000     0.0000 </r>
        <r>    -7.0827     0.0000     0.0000     0.0000     0.0000     0.0000     0.0000     0.0000     0.0000     0.0000 </r>
        <r>    -6.9674     0.0000     0.0000     0.0000     0.0000     0.0000     0.0000     0.0000     0.0000     0.0000 </r>
        <r>    -6.8521     0.0000     0.0000     0.0000     0.0000     0.0000     0.0000     0.0000     0.0000     0.0000 </r>
        <r>    -6.7367     0.0018     0.0000     0.0000     0.0000     0.0000     0.0000     0.0000     0.0000     0.0000 </r>
        <r>    -6.6214     0.0791     0.0000     0.0000     0.0000     0.0000     0.0000     0.0000     0.0000     0.0000 </r>
        <r>    -6.5061     0.4259     0.0001     0.0002     0.0000     0.0000     0.0000     0.0000     0.0000     0.0000 </r>
        <r>    -6.3907     0.4146     0.0003     0.0006     0.0001     0.0000     0.0000     0.0000     0.0000     0.0000 </r>
        <r>    -6.2754     0.2680     0.0005     0.0012     0.0002     0.0000     0.0000     0.0000     0.0000     0.0000 </r>
        <r>    -6.1601     0.1941     0.0006     0.0011     0.0002     0.0000     0.0000     0.0000     0.0000     0.0000 </r>
        <r>    -6.0447     0.1316     0.0005     0.0010     0.0004     0.0000     0.0000     0.0000     0.0000     0.0000 </r>
        <r>    -5.9294     0.1679     0.0007     0.0024     0.0001     0.0000     0.0000     0.0000     0.0000     0.0000 </r>
        <r>    -5.8141     0.1742     0.0013     0.0020     0.0004     0.0000     0.0000     0.0000     0.0000     0.0000 </r>
        <r>    -5.6987     0.0988     0.0008     0.0009     0.0006     0.0000     0.0000     0.0000     0.0000     0.0000 </r>
        <r>    -5.5834     0.0549     0.0001     0.0014     0.0001     0.0000     0.0000     0.0000     0.0000     0.0000 </r>
        <r>    -5.4681     0.1490     0.0009     0.0037     0.0002     0.0000     0.0000     0.0000     0.0000     0.0000 </r>
        <r>    -5.3527     0.2027     0.0024     0.0032     0.0009     0.0000     0.0000     0.0000     0.0000     0.0000 </r>
        <r>    -5.2374     0.0716     0.0009     0.0009     0.0005     0.0000     0.0000     0.0000     0.0000     0.0000 </r>
        <r>    -5.1221     0.0085     0.0000     0.0003     0.0000     0.0000     0.0000     0.0000     0.0000     0.0000 </r>
        <r>    -5.0067     0.0772     0.0002     0.0029     0.0002     0.0000     0.0000     0.0000     0.0000     0.0000 </r>
        <r>    -4.8914     0.2021     0.0017     0.0054     0.0010     0.0000     0.0000     0.0000     0.0000     0.0000 </r>
        <r>    -4.7761     0.1633     0.0026     0.0032     0.0006     0.0000     0.0000     0.0000     0.0000     0.0000 </r>
        <r>    -4.6608     0.0378     0.0008     0.0008     0.0000     0.0000     0.0000     0.0000     0.0000     0.0000 </r>
        <r>    -4.5454     0.0092     0.0001     0.0001     0.0001     0.0000     0.0000     0.0000     0.0000     0.0000 </r>
        <r>    -4.4301     0.0944     0.0007     0.0018     0.0007     0.0000     0.0000     0.0000     0.0000     0.0000 </r>
        <r>    -4.3148     0.1790     0.0009     0.0058     0.0008     0.0000     0.0000     0.0000     0.0000     0.0000 </r>
        <r>    -4.1994     0.1143     0.0012     0.0039     0.0001     0.0000     0.0000     0.0000     0.0000     0.0000 </r>
        <r>    -4.0841     0.1205     0.0021     0.0023     0.0001     0.0000     0.0000     0.0000     0.0000     0.0000 </r>
        <r>    -3.9688     0.1270     0.0009     0.0009     0.0004     0.0000     0.0000     0.0000     0.0000     0.0000 </r>
        <r>    -3.8534     0.1152     0.0003     0.0003     0.0003     0.0000     0.0000     0.0000     0.0000     0.0000 </r>
        <r>    -3.7381     0.1397     0.0000     0.0010     0.0000     0.0000     0.0000     0.0000     0.0000     0.0000 </r>
        <r>    -3.6228     0.1391     0.0001     0.0050     0.0000     0.0000     0.0000     0.0000     0.0000     0.0000 </r>
        <r>    -3.5074     0.1428     0.0013     0.0040     0.0000     0.0000     0.0000     0.0000     0.0000     0.0000 </r>
        <r>    -3.3921     0.0924     0.0014     0.0015     0.0000     0.0000     0.0000     0.0000     0.0000     0.0000 </r>
        <r>    -3.2768     0.0106     0.0002     0.0002     0.0000     0.0000     0.0000     0.0000     0.0000     0.0000 </r>
        <r>    -3.1614     0.0047     0.0000     0.0001     0.0000     0.0000     0.0000     0.0000     0.0000     0.0000 </r>
        <r>    -3.0461     0.0971     0.0002     0.0016     0.0000     0.0000     0.0000     0.0000     0.0000     0.0000 </r>
        <r>    -2.9308     0.2437     0.0008     0.0035     0.0000     0.0000     0.0000     0.0000     0.0000     0.0000 </r>
        <r>    -2.8154     0.1892     0.0003     0.0009     0.0000     0.0000     0.0000     0.0000     0.0000     0.0000 </r>
        <r>    -2.7001     1.0910     0.0002     0.0001     0.0001     0.0000     0.0000     0.0000     0.0000     0.0000 </r>
        <r>    -2.5848     1.3348     0.0002     0.0001     0.0001     0.0000     0.0000     0.0000     0.0000     0.0000 </r>
        <r>    -2.4694     0.2139     0.0000     0.0000     0.0000     0.0000     0.0000     0.0000     0.0000     0.0000 </r>
        <r>    -2.3541     0.0039     0.0000     0.0000     0.0000     0.0000     0.0000     0.0000     0.0000     0.0000 </r>
        <r>    -2.2388     0.0000     0.0000     0.0000     0.0000     0.0000     0.0000     0.0000     0.0000     0.0000 </r>
        <r>    -2.1234     0.0000     0.0000     0.0000     0.0000     0.0000     0.0000     0.0000     0.0000     0.0000 </r>
        <r>    -2.0081     0.0000     0.0000     0.0000     0.0000     0.0000     0.0000     0.0000     0.0000     0.0000 </r>
        <r>    -1.8928     0.0000     0.0000     0.0000     0.0000     0.0000     0.0000     0.0000     0.0000     0.0000 </r>
        <r>    -1.7774     0.0000     0.0000     0.0000     0.0000     0.0000     0.0000     0.0000     0.0000     0.0000 </r>
        <r>    -1.6621     0.0000     0.0000     0.0000     0.0000     0.0000     0.0000     0.0000     0.0000     0.0000 </r>
        <r>    -1.5468     0.0000     0.0000     0.0000     0.0000     0.0000     0.0000     0.0000     0.0000     0.0000 </r>
        <r>    -1.4314     0.0000     0.0000     0.0000     0.0000     0.0000     0.0000     0.0000     0.0000     0.0000 </r>
        <r>    -1.3161     0.0000     0.0000     0.0000     0.0000     0.0000     0.0000     0.0000     0.0000     0.0000 </r>
        <r>    -1.2008     0.0000     0.0000     0.0000     0.0000     0.0000     0.0000     0.0000     0.0000     0.0000 </r>
        <r>    -1.0854     0.0000     0.0000     0.0000     0.0000     0.0000     0.0000     0.0000     0.0000     0.0000 </r>
        <r>    -0.9701     0.0000     0.0000     0.0000     0.0000     0.0000     0.0000     0.0000     0.0000     0.0000 </r>
        <r>    -0.8548     0.0000     0.0000     0.0000     0.0000     0.0000     0.0000     0.0000     0.0000     0.0000 </r>
        <r>    -0.7394     0.0000     0.0000     0.0000     0.0000     0.0000     0.0000     0.0000     0.0000     0.0000 </r>
        <r>    -0.6241     0.0000     0.0005     0.0005     0.0005     0.0000     0.0000     0.0000     0.0000     0.0000 </r>
        <r>    -0.5088     0.0000     0.0089     0.0089     0.0089     0.0000     0.0000     0.0000     0.0000     0.0000 </r>
        <r>    -0.3934     0.0000     0.0181     0.0181     0.0181     0.0000     0.0000     0.0000     0.0000     0.0000 </r>
        <r>    -0.2781     0.0011     0.0080     0.0080     0.0080     0.0000     0.0000     0.0000     0.0000     0.0000 </r>
        <r>    -0.1628     0.0053     0.0175     0.0175     0.0175     0.0000     0.0000     0.0000     0.0000     0.0000 </r>
        <r>    -0.0475     0.0029     0.0094     0.0094     0.0094     0.0000     0.0000     0.0000     0.0000     0.0000 </r>
        <r>     0.0679     0.0002     0.0006     0.0037     0.0006     0.0000     0.0000     0.0000     0.0000     0.0000 </r>
        <r>     0.1832     0.0000     0.0000     0.0881     0.0000     0.0000     0.0000     0.0000     0.0000     0.0000 </r>
        <r>     0.2985     0.0001     0.0001     0.3104     0.0001     0.0000     0.0000     0.0000     0.0000     0.0000 </r>
        <r>     0.4139     0.0028     0.0036     0.2496     0.0036     0.0000     0.0000     0.0000     0.0000     0.0000 </r>
        <r>     0.5292     0.0160     0.0174     0.1800     0.0174     0.0000     0.0000     0.0000     0.0000     0.0000 </r>
        <r>     0.6445     0.0191     0.0098     0.1861     0.0099     0.0000     0.0000     0.0000     0.0000     0.0000 </r>
        <r>     0.7599     0.0061     0.0006     0.1309     0.0041     0.0000     0.0000     0.0000     0.0000     0.0000 </r>
        <r>     0.8752     0.0003     0.0000     0.0918     0.0416     0.0000     0.0000     0.0000     0.0000     0.0000 </r>
        <r>     0.9905     0.0000     0.0001     0.0592     0.0547     0.0000     0.0000     0.0000     0.0000     0.0000 </r>
        <r>     1.1059     0.0012     0.0040     0.0123     0.0083     0.0000     0.0000     0.0000     0.0000     0.0000 </r>
        <r>     1.2212     0.0121     0.0331     0.0333     0.0010     0.0000     0.0000     0.0000     0.0000     0.0000 </r>
        <r>     1.3365     0.0296     0.0498     0.0563     0.0250     0.0000     0.0000     0.0000     0.0000     0.0000 </r>
        <r>     1.4519     0.0470     0.0307     0.0801     0.0822     0.0000     0.0000     0.0000     0.0000     0.0000 </r>
        <r>     1.5672     0.0313     0.0271     0.0629     0.0413     0.0000     0.0000     0.0000     0.0000     0.0000 </r>
        <r>     1.6825     0.0084     0.0647     0.0393     0.0313     0.0000     0.0000     0.0000     0.0000     0.0000 </r>
        <r>     1.7979     0.0253     0.0585     0.0402     0.0184     0.0000     0.0000     0.0000     0.0000     0.0000 </r>
        <r>     1.9132     0.0164     0.0464     0.0181     0.0333     0.0000     0.0000     0.0000     0.0000     0.0000 </r>
        <r>     2.0285     0.0012     0.0212     0.0013     0.0688     0.0000     0.0000     0.0000     0.0000     0.0000 </r>
        <r>     2.1439     0.0000     0.0153     0.0000     0.0685     0.0000     0.0000     0.0000     0.0000     0.0000 </r>
        <r>     2.2592     0.0003     0.0315     0.0005     0.0381     0.0000     0.0000     0.0000     0.0000     0.0000 </r>
        <r>     2.3745     0.0115     0.0117     0.0199     0.0113     0.0000     0.0000     0.0000     0.0000     0.0000 </r>
        <r>     2.4899     0.0612     0.0474     0.0924     0.0346     0.0000     0.0000     0.0000     0.0000     0.0000 </r>
        <r>     2.6052     0.0615     0.0795     0.0762     0.0484     0.0000     0.0000     0.0000     0.0000     0.0000 </r>
        <r>     2.7205     0.0115     0.0183     0.0126     0.0267     0.0000     0.0000     0.0000     0.0000     0.0000 </r>
        <r>     2.8359     0.0006     0.0202     0.0003     0.0886     0.0000     0.0000     0.0000     0.0000     0.0000 </r>
        <r>     2.9512     0.0005     0.0321     0.0000     0.0636     0.0000     0.0000     0.0000     0.0000     0.0000 </r>
        <r>     3.0665     0.0001     0.0071     0.0000     0.0087     0.0000     0.0000     0.0000     0.0000     0.0000 </r>
        <r>     3.1819     0.0003     0.0189     0.0000     0.0189     0.0000     0.0000     0.0000     0.0000     0.0000 </r>
        <r>     3.2972     0.0012     0.0355     0.0010     0.0353     0.0000     0.0000     0.0000     0.0000     0.0000 </r>
        <r>     3.4125     0.0188     0.0173     0.0320     0.0092     0.0000     0.0000     0.0000     0.0000     0.0000 </r>
        <r>     3.5279     0.0667     0.0586     0.1092     0.0282     0.0000     0.0000     0.0000     0.0000     0.0000 </r>
        <r>     3.6432     0.0429     0.0733     0.0617     0.1061     0.0000     0.0000     0.0000     0.0000     0.0000 </r>
        <r>     3.7585     0.0163     0.0324     0.0201     0.0957     0.0000     0.0000     0.0000     0.0000     0.0000 </r>
        <r>     3.8739     0.0021     0.0397     0.0020     0.0492     0.0000     0.0000     0.0000     0.0000     0.0000 </r>
        <r>     3.9892     0.0004     0.0419     0.0000     0.0420     0.0000     0.0000     0.0000     0.0000     0.0000 </r>
        <r>     4.1045     0.0002     0.1730     0.0000     0.1730     0.0000     0.0000     0.0000     0.0000     0.0000 </r>
        <r>     4.2199     0.0001     0.4537     0.0000     0.4537     0.0000     0.0000     0.0000     0.0000     0.0000 </r>
        <r>     4.3352     0.0016     0.3348     0.0039     0.3347     0.0000     0.0000     0.0000     0.0000     0.0000 </r>
        <r>     4.4505     0.0233     0.2284     0.0537     0.2286     0.0000     0.0000     0.0000     0.0000     0.0000 </r>
        <r>     4.5659     0.0490     0.1795     0.1097     0.1937     0.0000     0.0000     0.0000     0.0000     0.0000 </r>
        <r>     4.6812     0.0245     0.2490     0.0853     0.2520     0.0000     0.0000     0.0000     0.0000     0.0000 </r>
        <r>     4.7965     0.0142     0.1507     0.0593     0.1243     0.0000     0.0000     0.0000     0.0000     0.0000 </r>
        <r>     4.9118     0.0137     0.0439     0.0283     0.0388     0.0000     0.0000     0.0000     0.0000     0.0000 </r>
        <r>     5.0272     0.0018     0.1066     0.0302     0.0794     0.0000     0.0000     0.0000     0.0000     0.0000 </r>
        <r>     5.1425     0.0000     0.1227     0.0474     0.0753     0.0000     0.0000     0.0000     0.0000     0.0000 </r>
        <r>     5.2578     0.0009     0.0182     0.0125     0.0086     0.0000     0.0000     0.0000     0.0000     0.0000 </r>
        <r>     5.3732     0.0145     0.0128     0.0514     0.0134     0.0000     0.0000     0.0000     0.0000     0.0000 </r>
        <r>     5.4885     0.0265     0.1146     0.1217     0.1340     0.0000     0.0000     0.0000     0.0000     0.0000 </r>
        <r>     5.6038     0.0092     0.1343     0.0770     0.1647     0.0000     0.0000     0.0000     0.0000     0.0000 </r>
        <r>     5.7192     0.0156     0.0638     0.0562     0.0258     0.0000     0.0000     0.0000     0.0000     0.0000 </r>
        <r>     5.8345     0.0114     0.0384     0.0364     0.0131     0.0000     0.0000     0.0000     0.0000     0.0000 </r>
        <r>     5.9498     0.0119     0.1078     0.0640     0.0781     0.0000     0.0000     0.0000     0.0000     0.0000 </r>
        <r>     6.0652     0.0045     0.2016     0.0953     0.1477     0.0000     0.0000     0.0000     0.0000     0.0000 </r>
        <r>     6.1805     0.0069     0.2240     0.2341     0.2147     0.0000     0.0000     0.0000     0.0000     0.0000 </r>
        <r>     6.2958     0.0175     0.2262     0.3325     0.2737     0.0000     0.0000     0.0000     0.0000     0.0000 </r>
        <r>     6.4112     0.0053     0.1942     0.2122     0.2624     0.0000     0.0000     0.0000     0.0000     0.0000 </r>
        <r>     6.5265     0.0005     0.2643     0.1654     0.2361     0.0000     0.0000     0.0000     0.0000     0.0000 </r>
        <r>     6.6418     0.0044     0.2334     0.1558     0.1840     0.0000     0.0000     0.0000     0.0000     0.0000 </r>
        <r>     6.7572     0.0096     0.2311     0.2414     0.1401     0.0000     0.0000     0.0000     0.0000     0.0000 </r>
        <r>     6.8725     0.0091     0.2470     0.3119     0.2500     0.0000     0.0000     0.0000     0.0000     0.0000 </r>
        <r>     6.9878     0.0039     0.3835     0.3325     0.4102     0.0000     0.0000     0.0000     0.0000     0.0000 </r>
        <r>     7.1032     0.0003     0.6449     0.6098     0.5035     0.0000     0.0000     0.0000     0.0000     0.0000 </r>
        <r>     7.2185     0.0002     0.3863     0.3849     0.3091     0.0000     0.0000     0.0000     0.0000     0.0000 </r>
        <r>     7.3338     0.0097     0.0326     0.0326     0.0273     0.0000     0.0000     0.0000     0.0000     0.0000 </r>
        <r>     7.4492     0.0538     0.0009     0.0003     0.0008     0.0000     0.0000     0.0000     0.0000     0.0000 </r>
        <r>     7.5645     0.0675     0.0018     0.0000     0.0018     0.0000     0.0000     0.0000     0.0000     0.0000 </r>
        <r>     7.6798     0.0444     0.0023     0.0000     0.0023     0.0000     0.0000     0.0000     0.0000     0.0000 </r>
        <r>     7.7952     0.0295     0.0021     0.0000     0.0021     0.0000     0.0000     0.0000     0.0000     0.0000 </r>
        <r>     7.9105     0.0329     0.0022     0.0001     0.0022     0.0000     0.0000     0.0000     0.0000     0.0000 </r>
        <r>     8.0258     0.0313     0.0026     0.0001     0.0026     0.0000     0.0000     0.0000     0.0000     0.0000 </r>
        <r>     8.1412     0.0192     0.0045     0.0001     0.0044     0.0000     0.0000     0.0000     0.0000     0.0000 </r>
        <r>     8.2565     0.0204     0.0034     0.0006     0.0028     0.0000     0.0000     0.0000     0.0000     0.0000 </r>
        <r>     8.3718     0.0188     0.0031     0.0009     0.0022     0.0000     0.0000     0.0000     0.0000     0.0000 </r>
        <r>     8.4872     0.0079     0.0065     0.0002     0.0064     0.0000     0.0000     0.0000     0.0000     0.0000 </r>
        <r>     8.6025     0.0132     0.0037     0.0004     0.0037     0.0000     0.0000     0.0000     0.0000     0.0000 </r>
        <r>     8.7178     0.0081     0.0005     0.0005     0.0003     0.0000     0.0000     0.0000     0.0000     0.0000 </r>
        <r>     8.8332     0.0095     0.0030     0.0012     0.0018     0.0000     0.0000     0.0000     0.0000     0.0000 </r>
        <r>     8.9485     0.0080     0.0099     0.0007     0.0092     0.0000     0.0000     0.0000     0.0000     0.0000 </r>
        <r>     9.0638     0.0020     0.0054     0.0000     0.0053     0.0000     0.0000     0.0000     0.0000     0.0000 </r>
        <r>     9.1792     0.0001     0.0003     0.0000     0.0003     0.0000     0.0000     0.0000     0.0000     0.0000 </r>
        <r>     9.2945     0.0002     0.0003     0.0000     0.0003     0.0000     0.0000     0.0000     0.0000     0.0000 </r>
        <r>     9.4098     0.0058     0.0065     0.0007     0.0061     0.0000     0.0000     0.0000     0.0000     0.0000 </r>
        <r>     9.5252     0.0205     0.0138     0.0029     0.0122     0.0000     0.0000     0.0000     0.0000     0.0000 </r>
        <r>     9.6405     0.0091     0.0035     0.0013     0.0029     0.0000     0.0000     0.0000     0.0000     0.0000 </r>
        <r>     9.7558     0.0005     0.0001     0.0001     0.0001     0.0000     0.0000     0.0000     0.0000     0.0000 </r>
        <r>     9.8711     0.0001     0.0006     0.0000     0.0006     0.0000     0.0000     0.0000     0.0000     0.0000 </r>
        <r>     9.9865     0.0027     0.0087     0.0000     0.0087     0.0000     0.0000     0.0000     0.0000     0.0000 </r>
        <r>    10.1018     0.0308     0.0135     0.0001     0.0135     0.0000     0.0000     0.0000     0.0000     0.0000 </r>
        <r>    10.2171     0.0973     0.0034     0.0010     0.0026     0.0000     0.0000     0.0000     0.0000     0.0000 </r>
        <r>    10.3325     0.0784     0.0024     0.0024     0.0004     0.0000     0.0000     0.0000     0.0000     0.0000 </r>
        <r>    10.4478     0.0460     0.0016     0.0012     0.0011     0.0000     0.0000     0.0000     0.0000     0.0000 </r>
        <r>    10.5631     0.0288     0.0090     0.0010     0.0090     0.0000     0.0000     0.0000     0.0000     0.0000 </r>
        <r>    10.6785     0.0407     0.0170     0.0035     0.0170     0.0000     0.0000     0.0000     0.0000     0.0000 </r>
        <r>    10.7938     0.0202     0.0040     0.0024     0.0040     0.0000     0.0000     0.0000     0.0000     0.0000 </r>
        <r>    10.9091     0.0210     0.0011     0.0011     0.0011     0.0000     0.0000     0.0000     0.0000     0.0000 </r>
        <r>    11.0245     0.0206     0.0014     0.0012     0.0012     0.0000     0.0000     0.0000     0.0000     0.0000 </r>
        <r>    11.1398     0.0108     0.0081     0.0020     0.0063     0.0000     0.0000     0.0000     0.0000     0.0000 </r>
[...]
       </set>
       <set comment="band 5">
        <r>  0.0399  0.0035  0.0000  0.0035  0.0000  0.0000  0.0000  0.0000  0.0000 </r>
       </set>
       <set comment="band 6">
        <r>  0.0054  0.0729  0.0000  0.0729  0.0000  0.0000  0.0000  0.0000  0.0000 </r>
       </set>
       <set comment="band 7">
        <r>  0.0000  0.0421  0.0000  0.0421  0.0000  0.0000  0.0000  0.0000  0.0000 </r>
       </set>
       <set comment="band 8">
        <r>  0.0000  0.0000  0.1850  0.0000  0.0000  0.0000  0.0000  0.0000  0.0000 </r>
       </set>
       <set comment="band 9">
        <r>  0.0000  0.0000  0.0000  0.0000  0.0000  0.0000  0.0000  0.0000  0.0000 </r>
       </set>
       <set comment="band 10">
        <r>  0.0695  0.0616  0.0000  0.0616  0.0000  0.0000  0.0000  0.0000  0.0000 </r>
       </set>
       <set comment="band 11">
        <r>  0.0000  0.0000  0.1974  0.0000  0.0000  0.0000  0.0000  0.0000  0.0000 </r>
       </set>
       <set comment="band 12">
        <r>  0.0209  0.0054  0.0001  0.0052  0.0000  0.0000  0.0000  0.0000  0.0000 </r>
       </set>
      </set>
      <set comment="kpoint 30">
       <set comment="band 1">
        <r>  0.5310  0.0005  0.0000  0.0005  0.0000  0.0000  0.0000  0.0000  0.0000 </r>
       </set>
       <set comment="band 2">
        <r>  0.0000  0.0000  0.2494  0.0000  0.0000  0.0000  0.0000  0.0000  0.0000 </r>
       </set>
       <set comment="band 3">
        <r>  0.0027  0.1191  0.0000  0.1191  0.0000  0.0000  0.0000  0.0000  0.0000 </r>
       </set>
       <set comment="band 4">
        <r>  0.0000  0.1919  0.0000  0.1919  0.0000  0.0000  0.0000  0.0000  0.0000 </r>
       </set>
       <set comment="band 5">
        <r>  0.0390  0.0038  0.0000  0.0038  0.0000  0.0000  0.0000  0.0000  0.0000 </r>
       </set>
       <set comment="band 6">
        <r>  0.0030  0.0796  0.0000  0.0796  0.0000  0.0000  0.0000  0.0000  0.0000 </r>
       </set>
       <set comment="band 7">
        <r>  0.0000  0.0432  0.0000  0.0432  0.0000  0.0000  0.0000  0.0000  0.0000 </r>
       </set>
       <set comment="band 8">
        <r>  0.0000  0.0000  0.1903  0.0000  0.0000  0.0000  0.0000  0.0000  0.0000 </r>
       </set>
       <set comment="band 9">
        <r>  0.0000  0.0000  0.0000  0.0000  0.0000  0.0000  0.0000  0.0000  0.0000 </r>
       </set>
       <set comment="band 10">
        <r>  0.0784  0.0514  0.0000  0.0514  0.0000  0.0000  0.0000  0.0000  0.0000 </r>
       </set>
       <set comment="band 11">
        <r>  0.0243  0.0046  0.0000  0.0046  0.0000  0.0000  0.0000  0.0000  0.0000 </r>
       </set>
       <set comment="band 12">
        <r>  0.0000  0.0000  0.1410  0.0000  0.0000  0.0000  0.0000  0.0000  0.0000 </r>
       </set>
      </set>
      <set comment="kpoint 31">
       <set comment="band 1">
        <r>  0.5310  0.0005  0.0005  0.0000  0.0000  0.0000  0.0000  0.0000  0.0000 </r>
       </set>
       <set comment="band 2">
        <r>  0.0000  0.0000  0.0000  0.2494  0.0000  0.0000  0.0000  0.0000  0.0000 </r>
       </set>
       <set comment="band 3">
        <r>  0.0027  0.1191  0.1191  0.0000  0.0000  0.0000  0.0000  0.0000  0.0000 </r>
       </set>
       <set comment="band 4">
        <r>  0.0000  0.1919  0.1919  0.0000  0.0000  0.0000  0.0000  0.0000  0.0000 </r>
       </set>
       <set comment="band 5">
        <r>  0.0390  0.0038  0.0038  0.0000  0.0000  0.0000  0.0000  0.0000  0.0000 </r>
       </set>
       <set comment="band 6">
        <r>  0.0030  0.0796  0.0796  0.0000  0.0000  0.0000  0.0000  0.0000  0.0000 </r>
       </set>
       <set comment="band 7">
        <r>  0.0000  0.0432  0.0432  0.0000  0.0000  0.0000  0.0000  0.0000  0.0000 </r>
       </set>
       <set comment="band 8">
        <r>  0.0000  0.0000  0.0000  0.1903  0.0000  0.0000  0.0000  0.0000  0.0000 </r>
       </set>
       <set comment="band 9">
        <r>  0.0000  0.0000  0.0000  0.0000  0.0000  0.0000  0.0000  0.0000  0.0000 </r>
       </set>
       <set comment="band 10">
        <r>  0.0784  0.0514  0.0514  0.0000  0.0000  0.0000  0.0000  0.0000  0.0000 </r>
       </set>
       <set comment="band 11">
        <r>  0.0243  0.0046  0.0046  0.0000  0.0000  0.0000  0.0000  0.0000  0.0000 </r>
       </set>
       <set comment="band 12">
        <r>  0.0000  0.0000  0.0000  0.1400  0.0000  0.0000  0.0000  0.0000  0.0000 </r>
       </set>
      </set>
      <set comment="kpoint 32">
       <set comment="band 1">
        <r>  0.5002  0.0031  0.0031  0.0000  0.0000  0.0000  0.0000  0.0000  0.0000 </r>
       </set>
       <set comment="band 2">
        <r>  0.0296  0.1130  0.1130  0.0000  0.0000  0.0000  0.0000  0.0000  0.0000 </r>
       </set>
       <set comment="band 3">
        <r>  0.0000  0.0000  0.0000  0.2544  0.0000  0.0000  0.0000  0.0000  0.0000 </r>
       </set>
       <set comment="band 4">
        <r>  0.0000  0.1985  0.1985  0.0000  0.0000  0.0000  0.0000  0.0000  0.0000 </r>
       </set>
       <set comment="band 5">
        <r>  0.0362  0.0050  0.0050  0.0000  0.0000  0.0000  0.0000  0.0000  0.0000 </r>
       </set>
       <set comment="band 6">
        <r>  0.0011  0.0972  0.0972  0.0000  0.0000  0.0000  0.0000  0.0000  0.0000 </r>
       </set>
       <set comment="band 7">
        <r>  0.0000  0.0435  0.0435  0.0000  0.0000  0.0000  0.0000  0.0000  0.0000 </r>
       </set>
       <set comment="band 8">
        <r>  0.0000  0.0000  0.0000  0.2001  0.0000  0.0000  0.0000  0.0000  0.0000 </r>
       </set>
       <set comment="band 9">
        <r>  0.0000  0.0000  0.0000  0.0000  0.0000  0.0000  0.0000  0.0000  0.0000 </r>
       </set>
       <set comment="band 10">
        <r>  0.0942  0.0205  0.0205  0.0000  0.0000  0.0000  0.0000  0.0000  0.0000 </r>
       </set>
       <set comment="band 11">
        <r>  0.0355  0.0020  0.0020  0.0000  0.0000  0.0000  0.0000  0.0000  0.0000 </r>
       </set>
       <set comment="band 12">
        <r>  0.0000  0.0000  0.0000  0.0067  0.0000  0.0000  0.0000  0.0000  0.0000 </r>
       </set>
      </set>
      <set comment="kpoint 33">
       <set comment="band 1">
        <r>  0.4477  0.0068  0.0068  0.0000  0.0000  0.0000  0.0000  0.0000  0.0000 </r>
       </set>
       <set comment="band 2">
        <r>  0.0749  0.1109  0.1109  0.0000  0.0000  0.0000  0.0000  0.0000  0.0000 </r>
       </set>
       <set comment="band 3">
        <r>  0.0000  0.0000  0.0000  0.2627  0.0000  0.0000  0.0000  0.0000  0.0000 </r>
       </set>
       <set comment="band 4">
        <r>  0.0000  0.2087  0.2087  0.0000  0.0000  0.0000  0.0000  0.0000  0.0000 </r>
       </set>
       <set comment="band 5">
        <r>  0.0337  0.0065  0.0065  0.0000  0.0000  0.0000  0.0000  0.0000  0.0000 </r>
       </set>
       <set comment="band 6">
        <r>  0.0000  0.0388  0.0388  0.0000  0.0000  0.0000  0.0000  0.0000  0.0000 </r>
       </set>
       <set comment="band 7">
        <r>  0.0000  0.0000  0.0000  0.2043  0.0000  0.0000  0.0000  0.0000  0.0000 </r>
       </set>
       <set comment="band 8">
        <r>  0.0289  0.1025  0.1025  0.0000  0.0000  0.0000  0.0000  0.0000  0.0000 </r>
       </set>
       <set comment="band 9">
        <r>  0.0000  0.0000  0.0000  0.0000  0.0000  0.0000  0.0000  0.0000  0.0000 </r>
       </set>
       <set comment="band 10">
        <r>  0.0693  0.0006  0.0006  0.0000  0.0000  0.0000  0.0000  0.0000  0.0000 </r>
       </set>
       <set comment="band 11">
        <r>  0.0529  0.0002  0.0002  0.0000  0.0000  0.0000  0.0000  0.0000  0.0000 </r>
       </set>
       <set comment="band 12">
        <r>  0.0000  0.0000  0.0000  0.0203  0.0000  0.0000  0.0000  0.0000  0.0000 </r>
       </set>
      </set>
      <set comment="kpoint 34">
       <set comment="band 1">
        <r>  0.4034  0.0085  0.0085  0.0000  0.0000  0.0000  0.0000  0.0000  0.0000 </r>
       </set>
       <set comment="band 2">
        <r>  0.1074  0.1149  0.1149  0.0000  0.0000  0.0000  0.0000  0.0000  0.0000 </r>
       </set>
       <set comment="band 3">
        <r>  0.0000  0.0000  0.0000  0.2758  0.0000  0.0000  0.0000  0.0000  0.0000 </r>
       </set>
       <set comment="band 4">
        <r>  0.0000  0.2217  0.2217  0.0000  0.0000  0.0000  0.0000  0.0000  0.0000 </r>
       </set>
       <set comment="band 5">
        <r>  0.0316  0.0079  0.0079  0.0000  0.0000  0.0000  0.0000  0.0000  0.0000 </r>
       </set>
       <set comment="band 6">
        <r>  0.0000  0.0000  0.0000  0.1998  0.0000  0.0000  0.0000  0.0000  0.0000 </r>
       </set>
       <set comment="band 7">
        <r>  0.0000  0.0295  0.0295  0.0000  0.0000  0.0000  0.0000  0.0000  0.0000 </r>
       </set>
       <set comment="band 8">
        <r>  0.0780  0.0799  0.0799  0.0000  0.0000  0.0000  0.0000  0.0000  0.0000 </r>
       </set>
       <set comment="band 9">
        <r>  0.0000  0.0000  0.0000  0.0000  0.0000  0.0000  0.0000  0.0000  0.0000 </r>
       </set>
       <set comment="band 10">
        <r>  0.0091  0.0004  0.0004  0.0000  0.0000  0.0000  0.0000  0.0000  0.0000 </r>
       </set>
       <set comment="band 11">
        <r>  0.0000  0.0000  0.0000  0.0256  0.0000  0.0000  0.0000  0.0000  0.0000 </r>
       </set>
       <set comment="band 12">
        <r>  0.0925  0.0001  0.0001  0.0000  0.0000  0.0000  0.0000  0.0000  0.0000 </r>
       </set>
      </set>
      <set comment="kpoint 35">
       <set comment="band 1">
        <r>  0.3763  0.0079  0.0079  0.0000  0.0000  0.0000  0.0000  0.0000  0.0000 </r>
       </set>
       <set comment="band 2">
        <r>  0.1183  0.1252  0.1252  0.0000  0.0000  0.0000  0.0000  0.0000  0.0000 </r>
       </set>
       <set comment="band 3">
        <r>  0.0000  0.0000  0.0000  0.2956  0.0000  0.0000  0.0000  0.0000  0.0000 </r>
       </set>
       <set comment="band 4">
        <r>  0.0000  0.2365  0.2365  0.0000  0.0000  0.0000  0.0000  0.0000  0.0000 </r>
       </set>
       <set comment="band 5">
        <r>  0.0315  0.0089  0.0089  0.0000  0.0000  0.0000  0.0000  0.0000  0.0000 </r>
       </set>
       <set comment="band 6">
        <r>  0.0000  0.0000  0.0000  0.1901  0.0000  0.0000  0.0000  0.0000  0.0000 </r>
       </set>
       <set comment="band 7">
        <r>  0.0000  0.0178  0.0178  0.0000  0.0000  0.0000  0.0000  0.0000  0.0000 </r>
       </set>
       <set comment="band 8">
        <r>  0.0000  0.0000  0.0000  0.0000  0.0000  0.0000  0.0000  0.0000  0.0000 </r>
       </set>
       <set comment="band 9">
        <r>  0.1100  0.0577  0.0577  0.0000  0.0000  0.0000  0.0000  0.0000  0.0000 </r>
       </set>
       <set comment="band 10">
        <r>  0.0002  0.0052  0.0052  0.0000  0.0000  0.0000  0.0000  0.0000  0.0000 </r>
       </set>
       <set comment="band 11">
        <r>  0.0680  0.0763  0.0763  0.0000  0.0000  0.0000  0.0000  0.0000  0.0000 </r>
       </set>
       <set comment="band 12">
        <r>  0.0000  0.0000  0.0000  0.0283  0.0000  0.0000  0.0000  0.0000  0.0000 </r>
       </set>
      </set>
      <set comment="kpoint 36">
       <set comment="band 1">
        <r>  0.3612  0.0059  0.0059  0.0000  0.0000  0.0000  0.0000  0.0000  0.0000 </r>
       </set>
       <set comment="band 2">
        <r>  0.1122  0.1412  0.1412  0.0000  0.0000  0.0000  0.0000  0.0000  0.0000 </r>
       </set>
       <set comment="band 3">
        <r>  0.0000  0.0000  0.0000  0.3267  0.0000  0.0000  0.0000  0.0000  0.0000 </r>
       </set>
       <set comment="band 4">
        <r>  0.0000  0.2494  0.2494  0.0000  0.0000  0.0000  0.0000  0.0000  0.0000 </r>
       </set>
       <set comment="band 5">
        <r>  0.0401  0.0076  0.0076  0.0000  0.0000  0.0000  0.0000  0.0000  0.0000 </r>
       </set>
       <set comment="band 6">
        <r>  0.0000  0.0000  0.0000  0.1678  0.0000  0.0000  0.0000  0.0000  0.0000 </r>
       </set>
       <set comment="band 7">
        <r>  0.0000  0.0000  0.0000  0.0000  0.0000  0.0000  0.0000  0.0000  0.0000 </r>
       </set>
       <set comment="band 8">
        <r>  0.0000  0.0070  0.0070  0.0000  0.0000  0.0000  0.0000  0.0000  0.0000 </r>
       </set>
       <set comment="band 9">
        <r>  0.1211  0.0462  0.0462  0.0000  0.0000  0.0000  0.0000  0.0000  0.0000 </r>
       </set>
       <set comment="band 10">
        <r>  0.0372  0.0571  0.0571  0.0000  0.0000  0.0000  0.0000  0.0000  0.0000 </r>
       </set>
       <set comment="band 11">
        <r>  0.0579  0.0163  0.0163  0.0000  0.0000  0.0000  0.0000  0.0000  0.0000 </r>
       </set>
       <set comment="band 12">
        <r>  0.0000  0.0000  0.0000  0.0268  0.0000  0.0000  0.0000  0.0000  0.0000 </r>
       </set>
      </set>
      <set comment="kpoint 37">
       <set comment="band 1">
        <r>  0.3531  0.0036  0.0036  0.0000  0.0000  0.0000  0.0000  0.0000  0.0000 </r>
       </set>
       <set comment="band 2">
        <r>  0.0932  0.1635  0.1635  0.0000  0.0000  0.0000  0.0000  0.0000  0.0000 </r>
       </set>
       <set comment="band 3">
        <r>  0.0000  0.0000  0.0000  0.3743  0.0000  0.0000  0.0000  0.0000  0.0000 </r>
       </set>
       <set comment="band 4">
        <r>  0.0000  0.2567  0.2567  0.0000  0.0000  0.0000  0.0000  0.0000  0.0000 </r>
       </set>
       <set comment="band 5">
        <r>  0.0000  0.0000  0.0000  0.1279  0.0000  0.0000  0.0000  0.0000  0.0000 </r>
       </set>
       <set comment="band 6">
        <r>  0.0749  0.0023  0.0023  0.0000  0.0000  0.0000  0.0000  0.0000  0.0000 </r>
       </set>
       <set comment="band 7">
        <r>  0.0000  0.0000  0.0000  0.0000  0.0000  0.0000  0.0000  0.0000  0.0000 </r>
       </set>
       <set comment="band 8">
        <r>  0.0000  0.0011  0.0011  0.0000  0.0000  0.0000  0.0000  0.0000  0.0000 </r>
       </set>
       <set comment="band 9">
        <r>  0.1082  0.0495  0.0495  0.0000  0.0000  0.0000  0.0000  0.0000  0.0000 </r>
       </set>
       <set comment="band 10">
        <r>  0.0743  0.0483  0.0483  0.0000  0.0000  0.0000  0.0000  0.0000  0.0000 </r>
       </set>
       <set comment="band 11">
        <r>  0.0000  0.0000  0.0000  0.0180  0.0000  0.0000  0.0000  0.0000  0.0000 </r>
       </set>
       <set comment="band 12">
        <r>  0.0422  0.0005  0.0005  0.0000  0.0000  0.0000  0.0000  0.0000  0.0000 </r>
       </set>
      </set>
      <set comment="kpoint 38">
       <set comment="band 1">
        <r>  0.3492  0.0017  0.0017  0.0000  0.0000  0.0000  0.0000  0.0000  0.0000 </r>
       </set>
       <set comment="band 2">
        <r>  0.0627  0.1940  0.1940  0.0000  0.0000  0.0000  0.0000  0.0000  0.0000 </r>
       </set>
       <set comment="band 3">
        <r>  0.0000  0.0000  0.0000  0.4358  0.0000  0.0000  0.0000  0.0000  0.0000 </r>
       </set>
       <set comment="band 4">
        <r>  0.0000  0.2584  0.2584  0.0000  0.0000  0.0000  0.0000  0.0000  0.0000 </r>
       </set>
       <set comment="band 5">
        <r>  0.0000  0.0000  0.0000  0.0739  0.0000  0.0000  0.0000  0.0000  0.0000 </r>
       </set>
       <set comment="band 6">
        <r>  0.0000  0.0000  0.0000  0.0000  0.0000  0.0000  0.0000  0.0000  0.0000 </r>
       </set>
       <set comment="band 7">
        <r>  0.0846  0.0012  0.0012  0.0000  0.0000  0.0000  0.0000  0.0000  0.0000 </r>
       </set>
       <set comment="band 8">
        <r>  0.1821  0.0593  0.0593  0.0000  0.0000  0.0000  0.0000  0.0000  0.0000 </r>
       </set>
       <set comment="band 9">
        <r>  0.0000  0.0000  0.0000  0.0000  0.0000  0.0000  0.0000  0.0000  0.0000 </r>
       </set>
       <set comment="band 10">
        <r>  0.0399  0.0082  0.0082  0.0000  0.0000  0.0000  0.0000  0.0000  0.0000 </r>
       </set>
       <set comment="band 11">
        <r>  0.0000  0.0000  0.0000  0.0068  0.0000  0.0000  0.0000  0.0000  0.0000 </r>
       </set>
       <set comment="band 12">
        <r>  0.0336  0.0016  0.0016  0.0000  0.0000  0.0000  0.0000  0.0000  0.0000 </r>
       </set>
      </set>
      <set comment="kpoint 39">
       <set comment="band 1">
        <r>  0.3475  0.0004  0.0004  0.0000  0.0000  0.0000  0.0000  0.0000  0.0000 </r>
       </set>
       <set comment="band 2">
        <r>  0.0237  0.2327  0.2327  0.0000  0.0000  0.0000  0.0000  0.0000  0.0000 </r>
       </set>
       <set comment="band 3">
        <r>  0.0000  0.0000  0.0000  0.4921  0.0000  0.0000  0.0000  0.0000  0.0000 </r>
       </set>
       <set comment="band 4">
        <r>  0.0000  0.2579  0.2579  0.0000  0.0000  0.0000  0.0000  0.0000  0.0000 </r>
       </set>
       <set comment="band 5">
        <r>  0.0000  0.0000  0.0000  0.0223  0.0000  0.0000  0.0000  0.0000  0.0000 </r>
       </set>
       <set comment="band 6">
        <r>  0.0000  0.0000  0.0000  0.0000  0.0000  0.0000  0.0000  0.0000  0.0000 </r>
       </set>
       <set comment="band 7">
        <r>  0.0249  0.0037  0.0037  0.0000  0.0000  0.0000  0.0000  0.0000  0.0000 </r>
       </set>
       <set comment="band 8">
        <r>  0.3311  0.0230  0.0230  0.0000  0.0000  0.0000  0.0000  0.0000  0.0000 </r>
       </set>
       <set comment="band 9">
        <r>  0.0000  0.0002  0.0002  0.0000  0.0000  0.0000  0.0000  0.0000  0.0000 </r>
       </set>
       <set comment="band 10">
        <r>  0.0017  0.0000  0.0000  0.0000  0.0000  0.0000  0.0000  0.0000  0.0000 </r>
       </set>
       <set comment="band 11">
        <r>  0.0000  0.0000  0.0000  0.0008  0.0000  0.0000  0.0000  0.0000  0.0000 </r>
       </set>
       <set comment="band 12">
        <r>  0.0175  0.0089  0.0089  0.0000  0.0000  0.0000  0.0000  0.0000  0.0000 </r>
       </set>
      </set>
      <set comment="kpoint 40">
       <set comment="band 1">
        <r>  0.3473  0.0000  0.0000  0.0000  0.0000  0.0000  0.0000  0.0000  0.0000 </r>
       </set>
       <set comment="band 2">
        <r>  0.0000  0.1719  0.1719  0.1719  0.0000  0.0000  0.0000  0.0000  0.0000 </r>
       </set>
       <set comment="band 3">
        <r>  0.0000  0.3428  0.0799  0.0929  0.0000  0.0000  0.0000  0.0000  0.0000 </r>
       </set>
       <set comment="band 4">
        <r>  0.0000  0.0009  0.2638  0.2509  0.0000  0.0000  0.0000  0.0000  0.0000 </r>
       </set>
       <set comment="band 5">
        <r>  0.0000  0.0000  0.0000  0.0000  0.0000  0.0000  0.0000  0.0000  0.0000 </r>
       </set>
       <set comment="band 6">
        <r>  0.0000  0.0000  0.0000  0.0000  0.0000  0.0000  0.0000  0.0000  0.0000 </r>
       </set>
       <set comment="band 7">
        <r>  0.0000  0.0000  0.0000  0.0000  0.0000  0.0000  0.0000  0.0000  0.0000 </r>
       </set>
       <set comment="band 8">
        <r>  0.3867  0.0000  0.0000  0.0000  0.0000  0.0000  0.0000  0.0000  0.0000 </r>
       </set>
       <set comment="band 9">
        <r>  0.0000  0.0000  0.0000  0.0000  0.0000  0.0000  0.0000  0.0000  0.0000 </r>
       </set>
       <set comment="band 10">
        <r>  0.0000  0.0000  0.0000  0.0000  0.0000  0.0000  0.0000  0.0000  0.0000 </r>
       </set>
       <set comment="band 11">
        <r>  0.0000  0.0000  0.0000  0.0000  0.0000  0.0000  0.0000  0.0000  0.0000 </r>
       </set>
       <set comment="band 12">
        <r>  0.0000  0.0039  0.0124  0.0170  0.0000  0.0000  0.0000  0.0000  0.0000 </r>
       </set>
      </set>
     </set>
    </set>
   </array>
  </projected>
 </calculation>
 <structure name="finalpos" >
  <crystal>
   <varray name="basis" >
    <v>       2.50000000       2.50000000       0.00000000 </v>
    <v>       0.00000000       2.50000000       2.50000000 </v>
    <v>       2.50000000       0.00000000       2.50000000 </v>
   </varray>
   <i name="volume">     31.25000000 </i>
   <varray name="rec_basis" >
    <v>       0.20000000       0.20000000      -0.20000000 </v>
    <v>      -0.20000000       0.20000000       0.20000000 </v>
    <v>       0.20000000      -0.20000000       0.20000000 </v>
   </varray>
  </crystal>
  <varray name="positions" >
   <v>       0.00000000       0.00000000       0.00000000 </v>
  </varray>
 </structure>
</modeling>
