fcc Si bandstructure                    
           1
     2.500000    2.500000    0.000000
     0.000000    2.500000    2.500000
     2.500000    0.000000    2.500000
   Si
   1
Direct configuration=     1
   0.00000000  0.00000000  0.00000000
