fcc Ni DOS                              
   3.53000000000000     
     0.500000    0.500000    0.000000
     0.000000    0.500000    0.500000
     0.500000    0.000000    0.500000
   Ni
     1
Direct
  0.000000  0.000000  0.000000
 
   28   28   28
 0.15233662460E+03 0.14726384436E+03 0.13297652701E+03 0.11199062649E+03 0.87702895331E+02
 0.63555429624E+02 0.42349912245E+02 0.25846996192E+02 0.14643294433E+02 0.82637833982E+01
 0.54216748857E+01 0.44101830559E+01 0.38259525555E+01 0.34655698687E+01 0.33456554047E+01
 0.34655698687E+01 0.38259525555E+01 0.44101830559E+01 0.54216748857E+01 0.82637833982E+01
 0.14643294433E+02 0.25846996192E+02 0.42349912245E+02 0.63555429624E+02 0.87702895331E+02
 0.11199062649E+03 0.13297652701E+03 0.14726384436E+03 0.14726384436E+03 0.13758865683E+03
 0.11998693440E+03 0.97448943578E+02 0.73416735307E+02 0.51013421852E+02 0.32502657646E+02
 0.19034780981E+02 0.10636715794E+02 0.63897065400E+01 0.47578650203E+01 0.40659577545E+01
 0.35950529672E+01 0.33583510285E+01 0.33583499018E+01 0.35950503359E+01 0.40659554780E+01
 0.47578651163E+01 0.63897100803E+01 0.10636722211E+02 0.19034788089E+02 0.32502662472E+02
 0.51013421855E+02 0.73416729586E+02 0.97448933395E+02 0.11998692286E+03 0.13758864780E+03
 0.14726384095E+03 0.13297652701E+03 0.11998693440E+03 0.10091157401E+03 0.78852901281E+02
 0.56965089315E+02 0.37820587101E+02 0.23028606172E+02 0.13108633588E+02 0.75723663999E+01
 0.51738686163E+01 0.42916746946E+01 0.37337660624E+01 0.33935074563E+01 0.32808557064E+01
 0.33935035602E+01 0.37337608687E+01 0.42916720859E+01 0.51738717400E+01 0.75723758841E+01
 0.13108646873E+02 0.23028618291E+02 0.37820592684E+02 0.56965084917E+02 0.78852887095E+02
 0.10091155410E+03 0.11998691533E+03 0.13297651541E+03 0.13758864780E+03 0.11199062649E+03
 0.97448943578E+02 0.78852901281E+02 0.59085956196E+02 0.40776711326E+02 0.25825387786E+02
 0.15163887019E+02 0.87330603932E+01 0.56430509440E+01 0.44836142853E+01 0.38661046301E+01
 0.34432211204E+01 0.32338275674E+01 0.32338246617E+01 0.34432142475E+01 0.38660984044E+01
 0.44836137708E+01 0.56430589953E+01 0.87330759117E+01 0.15163904980E+02 0.25825401111E+02
 0.40776713862E+02 0.59085945486E+02 0.78852879945E+02 0.97448918596E+02 0.11199060664E+03
 0.11998691533E+03 0.11998692286E+03 0.87702895331E+02 0.73416735307E+02 0.56965089315E+02
 0.40776711326E+02 0.26830772896E+02 0.16331284172E+02 0.95844875742E+01 0.60645749536E+01
 0.46421694249E+01 0.39774941072E+01 0.34968804649E+01 0.32122256468E+01 0.31192125262E+01
 0.32122193710E+01 0.34968717770E+01 0.39774888427E+01 0.46421724680E+01 0.60645876451E+01
 0.95845066483E+01 0.16331302806E+02 0.26830783451E+02 0.40776708657E+02 0.56965073209E+02
 0.73416710885E+02 0.87702871276E+02 0.97448918596E+02 0.10091155410E+03 0.97448933395E+02
 0.63555429624E+02 0.51013421852E+02 0.37820587101E+02 0.25825387786E+02 0.16331284172E+02
 0.98973011556E+01 0.63157726984E+01 0.47559787336E+01 0.40570167450E+01 0.35438459694E+01
 0.32075904167E+01 0.30450814809E+01 0.30450778738E+01 0.32075816360E+01 0.35438371511E+01
 0.40570136521E+01 0.47559848755E+01 0.63157874321E+01 0.98973195871E+01 0.16331299064E+02
 0.25825392595E+02 0.37820578901E+02 0.51013402845E+02 0.63555406472E+02 0.73416710885E+02
 0.78852879945E+02 0.78852887095E+02 0.73416729586E+02 0.42349912245E+02 0.32502657646E+02
 0.23028606172E+02 0.15163887019E+02 0.95844875742E+01 0.63157726984E+01 0.47982141529E+01
 0.40981749121E+01 0.35755754893E+01 0.32108043817E+01 0.30024433644E+01 0.29354785515E+01
 0.30024367882E+01 0.32107946317E+01 0.35755677625E+01 0.40981737332E+01 0.47982211219E+01
 0.63157855580E+01 0.95845009659E+01 0.15163894735E+02 0.23028603888E+02 0.32502644912E+02
 0.42349892967E+02 0.51013402845E+02 0.56965073209E+02 0.59085945486E+02 0.56965084917E+02
 0.51013421855E+02 0.25846996192E+02 0.19034780981E+02 0.13108633588E+02 0.87330603932E+01
 0.60645749536E+01 0.47559787336E+01 0.40981749121E+01 0.35867460004E+01 0.32144591025E+01
 0.29816658546E+01 0.28719791962E+01 0.28719760363E+01 0.29816578064E+01 0.32144498285E+01
 0.35867396536E+01 0.40981742090E+01 0.47559835704E+01 0.60645823642E+01 0.87330657627E+01
 0.13108632691E+02 0.19034771998E+02 0.25846980662E+02 0.32502644912E+02 0.37820578901E+02
 0.40776708657E+02 0.40776713862E+02 0.37820592684E+02 0.32502662472E+02 0.14643294433E+02
 0.10636715794E+02 0.75723663999E+01 0.56430509440E+01 0.46421694249E+01 0.40570167450E+01
 0.35755754893E+01 0.32144591025E+01 0.29756109944E+01 0.28435218329E+01 0.28017135320E+01
 0.28435170128E+01 0.29756032367E+01 0.32144513071E+01 0.35755701994E+01 0.40570149523E+01
 0.46421700418E+01 0.56430512514E+01 0.75723633278E+01 0.10636707336E+02 0.14643280840E+02
 0.19034771998E+02 0.23028603888E+02 0.25825392595E+02 0.26830783451E+02 0.25825401111E+02
 0.23028618291E+02 0.19034788089E+02 0.82637833982E+01 0.63897065400E+01 0.51738686163E+01
 0.44836142853E+01 0.39774941072E+01 0.35438459694E+01 0.32108043817E+01 0.29816658546E+01
 0.28435218329E+01 0.27797848782E+01 0.27797831884E+01 0.28435173472E+01 0.29816599915E+01
 0.32107987464E+01 0.35438415142E+01 0.39774906581E+01 0.44836105766E+01 0.51738628381E+01
 0.63896973466E+01 0.82637706397E+01 0.10636707336E+02 0.13108632691E+02 0.15163894735E+02
 0.16331299064E+02 0.16331302806E+02 0.15163904980E+02 0.13108646873E+02 0.10636722211E+02
 0.54216748857E+01 0.47578650203E+01 0.42916746946E+01 0.38661046301E+01 0.34968804649E+01
 0.32075904167E+01 0.30024433644E+01 0.28719791962E+01 0.28017135320E+01 0.27797831884E+01
 0.28017122299E+01 0.28719769432E+01 0.30024406468E+01 0.32075875213E+01 0.34968772484E+01
 0.38661004238E+01 0.42916686548E+01 0.47578564385E+01 0.54216637495E+01 0.63896973466E+01
 0.75723633278E+01 0.87330657627E+01 0.95845009659E+01 0.98973195871E+01 0.95845066483E+01
 0.87330759117E+01 0.75723758841E+01 0.63897100803E+01 0.44101830559E+01 0.40659577545E+01
 0.37337660624E+01 0.34432211204E+01 0.32122256468E+01 0.30450814809E+01 0.29354785515E+01
 0.28719760363E+01 0.28435170128E+01 0.28435173472E+01 0.28719769432E+01 0.29354797509E+01
 0.30450825143E+01 0.32122259043E+01 0.34432199758E+01 0.37337629576E+01 0.40659524392E+01
 0.44101757370E+01 0.47578564385E+01 0.51738628381E+01 0.56430512514E+01 0.60645823642E+01
 0.63157855580E+01 0.63157874321E+01 0.60645876451E+01 0.56430589953E+01 0.51738717400E+01
 0.47578651163E+01 0.38259525555E+01 0.35950529672E+01 0.33935074563E+01 0.32338275674E+01
 0.31192125262E+01 0.30450778738E+01 0.30024367882E+01 0.29816578064E+01 0.29756032367E+01
 0.29816599915E+01 0.30024406468E+01 0.30450825143E+01 0.31192169314E+01 0.32338308198E+01
 0.33935089913E+01 0.35950526342E+01 0.38259505904E+01 0.40659524392E+01 0.42916686548E+01
 0.44836105766E+01 0.46421700418E+01 0.47559835704E+01 0.47982211219E+01 0.47559848755E+01
 0.46421724680E+01 0.44836137708E+01 0.42916720859E+01 0.40659554780E+01 0.34655698687E+01
 0.33583510285E+01 0.32808557064E+01 0.32338246617E+01 0.32122193710E+01 0.32075816360E+01
 0.32107946317E+01 0.32144498285E+01 0.32144513071E+01 0.32107987464E+01 0.32075875213E+01
 0.32122259043E+01 0.32338308198E+01 0.32808608144E+01 0.33583549015E+01 0.34655727456E+01
 0.35950526342E+01 0.37337629576E+01 0.38661004238E+01 0.39774906581E+01 0.40570149523E+01
 0.40981742090E+01 0.40981737332E+01 0.40570136521E+01 0.39774888427E+01 0.38660984044E+01
 0.37337608687E+01 0.35950503359E+01 0.33456554047E+01 0.33583499018E+01 0.33935035602E+01
 0.34432142475E+01 0.34968717770E+01 0.35438371511E+01 0.35755677625E+01 0.35867396536E+01
 0.35755701994E+01 0.35438415142E+01 0.34968772484E+01 0.34432199758E+01 0.33935089913E+01
 0.33583549015E+01 0.33456602090E+01 0.33583549015E+01 0.33935089913E+01 0.34432199758E+01
 0.34968772484E+01 0.35438415142E+01 0.35755701994E+01 0.35867396536E+01 0.35755677625E+01
 0.35438371511E+01 0.34968717770E+01 0.34432142475E+01 0.33935035602E+01 0.33583499018E+01
 0.34655698687E+01 0.35950503359E+01 0.37337608687E+01 0.38660984044E+01 0.39774888427E+01
 0.40570136521E+01 0.40981737332E+01 0.40981742090E+01 0.40570149523E+01 0.39774906581E+01
 0.38661004238E+01 0.37337629576E+01 0.35950526342E+01 0.34655727456E+01 0.33583549015E+01
 0.32808608144E+01 0.32338308198E+01 0.32122259043E+01 0.32075875213E+01 0.32107987464E+01
 0.32144513071E+01 0.32144498285E+01 0.32107946317E+01 0.32075816360E+01 0.32122193710E+01
 0.32338246617E+01 0.32808557064E+01 0.33583510285E+01 0.38259525555E+01 0.40659554780E+01
 0.42916720859E+01 0.44836137708E+01 0.46421724680E+01 0.47559848755E+01 0.47982211219E+01
 0.47559835704E+01 0.46421700418E+01 0.44836105766E+01 0.42916686548E+01 0.40659524392E+01
 0.38259505904E+01 0.35950526342E+01 0.33935089913E+01 0.32338308198E+01 0.31192169314E+01
 0.30450825143E+01 0.30024406468E+01 0.29816599915E+01 0.29756032367E+01 0.29816578064E+01
 0.30024367882E+01 0.30450778738E+01 0.31192125262E+01 0.32338275674E+01 0.33935074563E+01
 0.35950529672E+01 0.44101830559E+01 0.47578651163E+01 0.51738717400E+01 0.56430589953E+01
 0.60645876451E+01 0.63157874321E+01 0.63157855580E+01 0.60645823642E+01 0.56430512514E+01
 0.51738628381E+01 0.47578564385E+01 0.44101757370E+01 0.40659524392E+01 0.37337629576E+01
 0.34432199758E+01 0.32122259043E+01 0.30450825143E+01 0.29354797509E+01 0.28719769432E+01
 0.28435173472E+01 0.28435170128E+01 0.28719760363E+01 0.29354785515E+01 0.30450814809E+01
 0.32122256468E+01 0.34432211204E+01 0.37337660624E+01 0.40659577545E+01 0.54216748857E+01
 0.63897100803E+01 0.75723758841E+01 0.87330759117E+01 0.95845066483E+01 0.98973195871E+01
 0.95845009659E+01 0.87330657627E+01 0.75723633278E+01 0.63896973466E+01 0.54216637495E+01
 0.47578564385E+01 0.42916686548E+01 0.38661004238E+01 0.34968772484E+01 0.32075875213E+01
 0.30024406468E+01 0.28719769432E+01 0.28017122299E+01 0.27797831884E+01 0.28017135320E+01
 0.28719791962E+01 0.30024433644E+01 0.32075904167E+01 0.34968804649E+01 0.38661046301E+01
 0.42916746946E+01 0.47578650203E+01 0.82637833982E+01 0.10636722211E+02 0.13108646873E+02
 0.15163904980E+02 0.16331302806E+02 0.16331299064E+02 0.15163894735E+02 0.13108632691E+02
 0.10636707336E+02 0.82637706397E+01 0.63896973466E+01 0.51738628381E+01 0.44836105766E+01
 0.39774906581E+01 0.35438415142E+01 0.32107987464E+01 0.29816599915E+01 0.28435173472E+01
 0.27797831884E+01 0.27797848782E+01 0.28435218329E+01 0.29816658546E+01 0.32108043817E+01
 0.35438459694E+01 0.39774941072E+01 0.44836142853E+01 0.51738686163E+01 0.63897065400E+01
 0.14643294433E+02 0.19034788089E+02 0.23028618291E+02 0.25825401111E+02 0.26830783451E+02
 0.25825392595E+02 0.23028603888E+02 0.19034771998E+02 0.14643280840E+02 0.10636707336E+02
 0.75723633278E+01 0.56430512514E+01 0.46421700418E+01 0.40570149523E+01 0.35755701994E+01
 0.32144513071E+01 0.29756032367E+01 0.28435170128E+01 0.28017135320E+01 0.28435218329E+01
 0.29756109944E+01 0.32144591025E+01 0.35755754893E+01 0.40570167450E+01 0.46421694249E+01
 0.56430509440E+01 0.75723663999E+01 0.10636715794E+02 0.25846996192E+02 0.32502662472E+02
 0.37820592684E+02 0.40776713862E+02 0.40776708657E+02 0.37820578901E+02 0.32502644912E+02
 0.25846980662E+02 0.19034771998E+02 0.13108632691E+02 0.87330657627E+01 0.60645823642E+01
 0.47559835704E+01 0.40981742090E+01 0.35867396536E+01 0.32144498285E+01 0.29816578064E+01
 0.28719760363E+01 0.28719791962E+01 0.29816658546E+01 0.32144591025E+01 0.35867460004E+01
 0.40981749121E+01 0.47559787336E+01 0.60645749536E+01 0.87330603932E+01 0.13108633588E+02
 0.19034780981E+02 0.42349912245E+02 0.51013421855E+02 0.56965084917E+02 0.59085945486E+02
 0.56965073209E+02 0.51013402845E+02 0.42349892967E+02 0.32502644912E+02 0.23028603888E+02
 0.15163894735E+02 0.95845009659E+01 0.63157855580E+01 0.47982211219E+01 0.40981737332E+01
 0.35755677625E+01 0.32107946317E+01 0.30024367882E+01 0.29354785515E+01 0.30024433644E+01
 0.32108043817E+01 0.35755754893E+01 0.40981749121E+01 0.47982141529E+01 0.63157726984E+01
 0.95844875742E+01 0.15163887019E+02 0.23028606172E+02 0.32502657646E+02 0.63555429624E+02
 0.73416729586E+02 0.78852887095E+02 0.78852879945E+02 0.73416710885E+02 0.63555406472E+02
 0.51013402845E+02 0.37820578901E+02 0.25825392595E+02 0.16331299064E+02 0.98973195871E+01
 0.63157874321E+01 0.47559848755E+01 0.40570136521E+01 0.35438371511E+01 0.32075816360E+01
 0.30450778738E+01 0.30450814809E+01 0.32075904167E+01 0.35438459694E+01 0.40570167450E+01
 0.47559787336E+01 0.63157726984E+01 0.98973011556E+01 0.16331284172E+02 0.25825387786E+02
 0.37820587101E+02 0.51013421852E+02 0.87702895331E+02 0.97448933395E+02 0.10091155410E+03
 0.97448918596E+02 0.87702871276E+02 0.73416710885E+02 0.56965073209E+02 0.40776708657E+02
 0.26830783451E+02 0.16331302806E+02 0.95845066483E+01 0.60645876451E+01 0.46421724680E+01
 0.39774888427E+01 0.34968717770E+01 0.32122193710E+01 0.31192125262E+01 0.32122256468E+01
 0.34968804649E+01 0.39774941072E+01 0.46421694249E+01 0.60645749536E+01 0.95844875742E+01
 0.16331284172E+02 0.26830772896E+02 0.40776711326E+02 0.56965089315E+02 0.73416735307E+02
 0.11199062649E+03 0.11998692286E+03 0.11998691533E+03 0.11199060664E+03 0.97448918596E+02
 0.78852879945E+02 0.59085945486E+02 0.40776713862E+02 0.25825401111E+02 0.15163904980E+02
 0.87330759117E+01 0.56430589953E+01 0.44836137708E+01 0.38660984044E+01 0.34432142475E+01
 0.32338246617E+01 0.32338275674E+01 0.34432211204E+01 0.38661046301E+01 0.44836142853E+01
 0.56430509440E+01 0.87330603932E+01 0.15163887019E+02 0.25825387786E+02 0.40776711326E+02
 0.59085956196E+02 0.78852901281E+02 0.97448943578E+02 0.13297652701E+03 0.13758864780E+03
 0.13297651541E+03 0.11998691533E+03 0.10091155410E+03 0.78852887095E+02 0.56965084917E+02
 0.37820592684E+02 0.23028618291E+02 0.13108646873E+02 0.75723758841E+01 0.51738717400E+01
 0.42916720859E+01 0.37337608687E+01 0.33935035602E+01 0.32808557064E+01 0.33935074563E+01
 0.37337660624E+01 0.42916746946E+01 0.51738686163E+01 0.75723663999E+01 0.13108633588E+02
 0.23028606172E+02 0.37820587101E+02 0.56965089315E+02 0.78852901281E+02 0.10091157401E+03
 0.11998693440E+03 0.14726384436E+03 0.14726384095E+03 0.13758864780E+03 0.11998692286E+03
 0.97448933395E+02 0.73416729586E+02 0.51013421855E+02 0.32502662472E+02 0.19034788089E+02
 0.10636722211E+02 0.63897100803E+01 0.47578651163E+01 0.40659554780E+01 0.35950503359E+01
 0.33583499018E+01 0.33583510285E+01 0.35950529672E+01 0.40659577545E+01 0.47578650203E+01
 0.63897065400E+01 0.10636715794E+02 0.19034780981E+02 0.32502657646E+02 0.51013421852E+02
 0.73416735307E+02 0.97448943578E+02 0.11998693440E+03 0.13758865683E+03 0.14726384436E+03
 0.13758865683E+03 0.11998693440E+03 0.97448943578E+02 0.73416735307E+02 0.51013421852E+02
 0.32502657646E+02 0.19034780981E+02 0.10636715794E+02 0.63897065400E+01 0.47578650203E+01
 0.40659577545E+01 0.35950529672E+01 0.33583510285E+01 0.33583499018E+01 0.35950503359E+01
 0.40659554780E+01 0.47578651163E+01 0.63897100803E+01 0.10636722211E+02 0.19034788089E+02
 0.32502662472E+02 0.51013421855E+02 0.73416729586E+02 0.97448933395E+02 0.11998692286E+03
 0.13758864780E+03 0.14726384095E+03 0.13758865683E+03 0.12412389883E+03 0.10436926976E+03
 0.81550677019E+02 0.58930156282E+02 0.39150079908E+02 0.23851128273E+02 0.13558692328E+02
 0.77780622023E+01 0.52502792064E+01 0.43325422595E+01 0.37674646749E+01 0.34213579223E+01
 0.33065509529E+01 0.34213544880E+01 0.37674599608E+01 0.43325394477E+01 0.52502807876E+01
 0.77780684837E+01 0.13558700902E+02 0.23851134772E+02 0.39150079807E+02 0.58930146923E+02
 0.81550659109E+02 0.10436924744E+03 0.12412387848E+03 0.13758864472E+03 0.14237199442E+03
 0.11998693440E+03 0.10436926976E+03 0.84435450912E+02 0.63285861680E+02 0.43714385405E+02
 0.27714523701E+02 0.16252336586E+02 0.92684739882E+01 0.58552626637E+01 0.45699287564E+01
 0.39357074825E+01 0.34991937887E+01 0.32818546321E+01 0.32818524714E+01 0.34991885254E+01
 0.39357021199E+01 0.45699264578E+01 0.58552649148E+01 0.92684794719E+01 0.16252341365E+02
 0.27714522720E+02 0.43714374761E+02 0.63285840620E+02 0.84435422740E+02 0.10436924109E+03
 0.11998691300E+03 0.12858671086E+03 0.12858671879E+03 0.97448943578E+02 0.81550677019E+02
 0.63285861680E+02 0.45339692702E+02 0.29864746041E+02 0.18151439288E+02 0.10530634612E+02
 0.64655886770E+01 0.47913844756E+01 0.40825539743E+01 0.35803303688E+01 0.32797888146E+01
 0.31811224403E+01 0.32797849893E+01 0.35803246305E+01 0.40825491024E+01 0.47913825317E+01
 0.64655896567E+01 0.10530636042E+02 0.18151437057E+02 0.29864736149E+02 0.45339673284E+02
 0.63285834294E+02 0.81550646706E+02 0.97448917441E+02 0.10831825664E+03 0.11218482667E+03
 0.10831827178E+03 0.73416735307E+02 0.58930156282E+02 0.43714385405E+02 0.29864746041E+02
 0.18835977616E+02 0.11254396519E+02 0.69226817033E+01 0.49816462549E+01 0.41947285338E+01
 0.36527864219E+01 0.32921336513E+01 0.31163789193E+01 0.31163772657E+01 0.32921294204E+01
 0.36527814045E+01 0.41947245651E+01 0.49816440976E+01 0.69226803873E+01 0.11254393516E+02
 0.18835969882E+02 0.29864731453E+02 0.43714364077E+02 0.58930131035E+02 0.73416711110E+02
 0.84832881745E+02 0.91137771682E+02 0.91137778074E+02 0.84832899244E+02 0.51013421852E+02
 0.39150079908E+02 0.27714523701E+02 0.18151439288E+02 0.11254396519E+02 0.70923445582E+01
 0.50946802495E+01 0.42643028286E+01 0.37065980241E+01 0.33094843029E+01 0.30799626563E+01
 0.30057928819E+01 0.30799604253E+01 0.33094806915E+01 0.37065942603E+01 0.42642998066E+01
 0.50946779265E+01 0.70923418123E+01 0.11254391532E+02 0.18151430405E+02 0.27714510318E+02
 0.39150063093E+02 0.51013404299E+02 0.61458964746E+02 0.68646099669E+02 0.71210008969E+02
 0.68646108038E+02 0.61458979411E+02 0.32502657646E+02 0.23851128273E+02 0.16252336586E+02
 0.10530634612E+02 0.69226817033E+01 0.50946802495E+01 0.42877844229E+01 0.37351044629E+01
 0.33235820424E+01 0.30625573089E+01 0.29385917103E+01 0.29385909069E+01 0.30625551912E+01
 0.33235793299E+01 0.37351019119E+01 0.42877823925E+01 0.50946784296E+01 0.69226792045E+01
 0.10530630317E+02 0.16252329752E+02 0.23851118997E+02 0.32502647046E+02 0.40924885042E+02
 0.47650306819E+02 0.51390373644E+02 0.51390376236E+02 0.47650313959E+02 0.40924895011E+02
 0.19034780981E+02 0.13558692328E+02 0.92684739882E+01 0.64655886770E+01 0.49816462549E+01
 0.42643028286E+01 0.37351044629E+01 0.33289203363E+01 0.30561412176E+01 0.29038653206E+01
 0.28554507514E+01 0.29038640448E+01 0.30561391398E+01 0.33289181641E+01 0.37351027551E+01
 0.42643017036E+01 0.49816452421E+01 0.64655869452E+01 0.92684706900E+01 0.13558687066E+02
 0.19034774133E+02 0.24958755888E+02 0.30312601846E+02 0.34052251483E+02 0.35395514608E+02
 0.34052255048E+02 0.30312608053E+02 0.24958763205E+02 0.10636715794E+02 0.77780622023E+01
 0.58552626637E+01 0.47913844756E+01 0.41947285338E+01 0.37065980241E+01 0.33235820424E+01
 0.30561412176E+01 0.28933123036E+01 0.28177475133E+01 0.28177467290E+01 0.28933102654E+01
 0.30561386815E+01 0.33235798511E+01 0.37065966139E+01 0.41947277165E+01 0.47913834088E+01
 0.58552602547E+01 0.77780576335E+01 0.10636708953E+02 0.14151492436E+02 0.17747643215E+02
 0.20708422466E+02 0.22382327765E+02 0.22382329889E+02 0.20708428256E+02 0.17747651176E+02
 0.14151500661E+02 0.63897065400E+01 0.52502792064E+01 0.45699287564E+01 0.40825539743E+01
 0.36527864219E+01 0.33094843029E+01 0.30625573089E+01 0.29038653206E+01 0.28177475133E+01
 0.27907554390E+01 0.28177455949E+01 0.29038622171E+01 0.30625540966E+01 0.33094818468E+01
 0.36527848500E+01 0.40825525507E+01 0.45699261501E+01 0.52502740608E+01 0.63896982902E+01
 0.80349363489E+01 0.99836542366E+01 0.11852537318E+02 0.13204890518E+02 0.13698697483E+02
 0.13204896151E+02 0.11852547118E+02 0.99836657907E+01 0.80349471411E+01 0.47578650203E+01
 0.43325422595E+01 0.39357074825E+01 0.35803303688E+01 0.32921336513E+01 0.30799626563E+01
 0.29385917103E+01 0.28554507514E+01 0.28177467290E+01 0.28177455949E+01 0.28554477814E+01
 0.29385880025E+01 0.30799593604E+01 0.32921313583E+01 0.35803286915E+01 0.39357051163E+01
 0.43325376033E+01 0.47578568664E+01 0.53355726463E+01 0.61206978294E+01 0.70082308765E+01
 0.77909903483E+01 0.82510420499E+01 0.82510454920E+01 0.77909997791E+01 0.70082439279E+01
 0.61207114949E+01 0.53355843046E+01 0.40659577545E+01 0.37674646749E+01 0.34991937887E+01
 0.32797888146E+01 0.31163789193E+01 0.30057928819E+01 0.29385909069E+01 0.29038640448E+01
 0.28933102654E+01 0.29038622171E+01 0.29385880025E+01 0.30057900114E+01 0.31163769347E+01
 0.32797877882E+01 0.34991928845E+01 0.37674623846E+01 0.40659526422E+01 0.43675508553E+01
 0.46559079533E+01 0.49656830735E+01 0.52782494461E+01 0.55182552190E+01 0.56088205314E+01
 0.55182612511E+01 0.52782599223E+01 0.49656953849E+01 0.46559193680E+01 0.43675594237E+01
 0.35950529672E+01 0.34213579223E+01 0.32818546321E+01 0.31811224403E+01 0.31163772657E+01
 0.30799604253E+01 0.30625551912E+01 0.30561391398E+01 0.30561386815E+01 0.30625540966E+01
 0.30799593604E+01 0.31163769347E+01 0.31811231567E+01 0.32818560586E+01 0.34213591498E+01
 0.35950528316E+01 0.37904536714E+01 0.39892848890E+01 0.41716679746E+01 0.43205755149E+01
 0.44258135110E+01 0.44825264656E+01 0.44825282867E+01 0.44258184241E+01 0.43205820986E+01
 0.41716744400E+01 0.39892897146E+01 0.37904560789E+01 0.33583510285E+01 0.33065509529E+01
 0.32818524714E+01 0.32797849893E+01 0.32921294204E+01 0.33094806915E+01 0.33235793299E+01
 0.33289181641E+01 0.33235798511E+01 0.33094818468E+01 0.32921313583E+01 0.32797877882E+01
 0.32818560586E+01 0.33065550290E+01 0.33583551544E+01 0.34360711201E+01 0.35324884514E+01
 0.36358534267E+01 0.37326916146E+01 0.38107717632E+01 0.38610772033E+01 0.38783991226E+01
 0.38610770657E+01 0.38107713043E+01 0.37326905363E+01 0.36358514720E+01 0.35324855431E+01
 0.34360674165E+01 0.33583499018E+01 0.34213544880E+01 0.34991885254E+01 0.35803246305E+01
 0.36527814045E+01 0.37065942603E+01 0.37351019119E+01 0.37351027551E+01 0.37065966139E+01
 0.36527848500E+01 0.35803286915E+01 0.34991928845E+01 0.34213591498E+01 0.33583551544E+01
 0.33183894490E+01 0.33042719987E+01 0.33129798597E+01 0.33369518922E+01 0.33664639467E+01
 0.33921387666E+01 0.34068604220E+01 0.34068586050E+01 0.33921336816E+01 0.33664565550E+01
 0.33369434673E+01 0.33129715733E+01 0.33042646169E+01 0.33183832283E+01 0.35950503359E+01
 0.37674599608E+01 0.39357021199E+01 0.40825491024E+01 0.41947245651E+01 0.42642998066E+01
 0.42877823925E+01 0.42643017036E+01 0.41947277165E+01 0.40825525507E+01 0.39357051163E+01
 0.37674623846E+01 0.35950528316E+01 0.34360711201E+01 0.33042719987E+01 0.32066632456E+01
 0.31429733387E+01 0.31072985251E+01 0.30909201188E+01 0.30852273359E+01 0.30840671378E+01
 0.30852219220E+01 0.30909106264E+01 0.31072871638E+01 0.31429624189E+01 0.32066544647E+01
 0.33042659853E+01 0.34360674165E+01 0.40659554780E+01 0.43325394477E+01 0.45699264578E+01
 0.47913825317E+01 0.49816440976E+01 0.50946779265E+01 0.50946784296E+01 0.49816452421E+01
 0.47913834088E+01 0.45699261501E+01 0.43325376033E+01 0.40659526422E+01 0.37904536714E+01
 0.35324884514E+01 0.33129798597E+01 0.31429733387E+01 0.30232088987E+01 0.29469137356E+01
 0.29040317907E+01 0.28853034448E+01 0.28853007770E+01 0.29040245849E+01 0.29469041070E+01
 0.30231994959E+01 0.31429664456E+01 0.33129766395E+01 0.35324886847E+01 0.37904560789E+01
 0.47578651163E+01 0.52502807876E+01 0.58552649148E+01 0.64655896567E+01 0.69226803873E+01
 0.70923418123E+01 0.69226792045E+01 0.64655869452E+01 0.58552602547E+01 0.52502740608E+01
 0.47578568664E+01 0.43675508553E+01 0.39892848890E+01 0.36358534267E+01 0.33369518922E+01
 0.31072985251E+01 0.29469137356E+01 0.28461777244E+01 0.27924581867E+01 0.27757907384E+01
 0.27924553460E+01 0.28461731829E+01 0.29469093449E+01 0.31072961953E+01 0.33369528818E+01
 0.36358579807E+01 0.39892922100E+01 0.43675594237E+01 0.63897100803E+01 0.77780684837E+01
 0.92684794719E+01 0.10530636042E+02 0.11254393516E+02 0.11254391532E+02 0.10530630317E+02
 0.92684706900E+01 0.77780576335E+01 0.63896982902E+01 0.53355726463E+01 0.46559079533E+01
 0.41716679746E+01 0.37326916146E+01 0.33664639467E+01 0.30909201188E+01 0.29040317907E+01
 0.27924581867E+01 0.27412929012E+01 0.27412932148E+01 0.27924592285E+01 0.29040338067E+01
 0.30909234719E+01 0.33664689733E+01 0.37326985817E+01 0.41716768820E+01 0.46559185316E+01
 0.53355843046E+01 0.10636722211E+02 0.13558700902E+02 0.16252341365E+02 0.18151437057E+02
 0.18835969882E+02 0.18151430405E+02 0.16252329752E+02 0.13558687066E+02 0.10636708953E+02
 0.80349363489E+01 0.61206978294E+01 0.49656830735E+01 0.43205755149E+01 0.38107717632E+01
 0.33921387666E+01 0.30852273359E+01 0.28853034448E+01 0.27757907384E+01 0.27412932148E+01
 0.27757950915E+01 0.28853109126E+01 0.30852359980E+01 0.33921468458E+01 0.38107784263E+01
 0.43205811325E+01 0.49656890532E+01 0.61207057508E+01 0.80349471411E+01 0.19034788089E+02
 0.23851134772E+02 0.27714522720E+02 0.29864736149E+02 0.29864731453E+02 0.27714510318E+02
 0.23851118997E+02 0.19034774133E+02 0.14151492436E+02 0.99836542366E+01 0.70082308765E+01
 0.52782494461E+01 0.44258135110E+01 0.38610772033E+01 0.34068604220E+01 0.30840671378E+01
 0.28853007770E+01 0.27924553460E+01 0.27924592285E+01 0.28853109126E+01 0.30840796373E+01
 0.34068707464E+01 0.38610821440E+01 0.44258125886E+01 0.52782451155E+01 0.70082273454E+01
 0.99836555893E+01 0.14151500661E+02 0.32502662472E+02 0.39150079807E+02 0.43714374761E+02
 0.45339673284E+02 0.43714364077E+02 0.39150063093E+02 0.32502647046E+02 0.24958755888E+02
 0.17747643215E+02 0.11852537318E+02 0.77909903483E+01 0.55182552190E+01 0.44825264656E+01
 0.38783991226E+01 0.34068586050E+01 0.30852219220E+01 0.29040245849E+01 0.28461731829E+01
 0.29040338067E+01 0.30852359980E+01 0.34068707464E+01 0.38784031632E+01 0.44825196487E+01
 0.55182395217E+01 0.77909716828E+01 0.11852523083E+02 0.17747639027E+02 0.24958763205E+02
 0.51013421855E+02 0.58930146923E+02 0.63285840620E+02 0.63285834294E+02 0.58930131035E+02
 0.51013404299E+02 0.40924885042E+02 0.30312601846E+02 0.20708422466E+02 0.13204890518E+02
 0.82510420499E+01 0.56088205314E+01 0.44825282867E+01 0.38610770657E+01 0.33921336816E+01
 0.30909106264E+01 0.29469041070E+01 0.29469093449E+01 0.30909234719E+01 0.33921468458E+01
 0.38610821440E+01 0.44825196487E+01 0.56087980250E+01 0.82510113465E+01 0.13204860907E+02
 0.20708402999E+02 0.30312597608E+02 0.40924895011E+02 0.73416729586E+02 0.81550659109E+02
 0.84435422740E+02 0.81550646706E+02 0.73416711110E+02 0.61458964746E+02 0.47650306819E+02
 0.34052251483E+02 0.22382327765E+02 0.13698697483E+02 0.82510454920E+01 0.55182612511E+01
 0.44258184241E+01 0.38107713043E+01 0.33664565550E+01 0.31072871638E+01 0.30231994959E+01
 0.31072961953E+01 0.33664689733E+01 0.38107784263E+01 0.44258125886E+01 0.55182395217E+01
 0.82510113465E+01 0.13698659711E+02 0.22382296978E+02 0.34052235811E+02 0.47650308530E+02
 0.61458979411E+02 0.97448933395E+02 0.10436924744E+03 0.10436924109E+03 0.97448917441E+02
 0.84832881745E+02 0.68646099669E+02 0.51390373644E+02 0.35395514608E+02 0.22382329889E+02
 0.13204896151E+02 0.77909997791E+01 0.52782599223E+01 0.43205820986E+01 0.37326905363E+01
 0.33369434673E+01 0.31429624189E+01 0.31429664456E+01 0.33369528818E+01 0.37326985817E+01
 0.43205811325E+01 0.52782451155E+01 0.77909716828E+01 0.13204860907E+02 0.22382296978E+02
 0.35395493054E+02 0.51390368290E+02 0.68646109191E+02 0.84832899244E+02 0.11998692286E+03
 0.12412387848E+03 0.11998691300E+03 0.10831825664E+03 0.91137771682E+02 0.71210008969E+02
 0.51390376236E+02 0.34052255048E+02 0.20708428256E+02 0.11852547118E+02 0.70082439279E+01
 0.49656953849E+01 0.41716744400E+01 0.36358514720E+01 0.33129715733E+01 0.32066544647E+01
 0.33129766395E+01 0.36358579807E+01 0.41716768820E+01 0.49656890532E+01 0.70082273454E+01
 0.11852523083E+02 0.20708402999E+02 0.34052235811E+02 0.51390368290E+02 0.71210013414E+02
 0.91137784894E+02 0.10831827178E+03 0.13758864780E+03 0.13758864472E+03 0.12858671086E+03
 0.11218482667E+03 0.91137778074E+02 0.68646108038E+02 0.47650313959E+02 0.30312608053E+02
 0.17747651176E+02 0.99836657907E+01 0.61207114949E+01 0.46559193680E+01 0.39892897146E+01
 0.35324855431E+01 0.33042646169E+01 0.33042659853E+01 0.35324886847E+01 0.39892922100E+01
 0.46559185316E+01 0.61207057508E+01 0.99836555893E+01 0.17747639027E+02 0.30312597608E+02
 0.47650308530E+02 0.68646109191E+02 0.91137784894E+02 0.11218483606E+03 0.12858671879E+03
 0.14726384095E+03 0.14237199442E+03 0.12858671879E+03 0.10831827178E+03 0.84832899244E+02
 0.61458979411E+02 0.40924895011E+02 0.24958763205E+02 0.14151500661E+02 0.80349471411E+01
 0.53355843046E+01 0.43675594237E+01 0.37904560789E+01 0.34360674165E+01 0.33183832283E+01
 0.34360674165E+01 0.37904560789E+01 0.43675594237E+01 0.53355843046E+01 0.80349471411E+01
 0.14151500661E+02 0.24958763205E+02 0.40924895011E+02 0.61458979411E+02 0.84832899244E+02
 0.10831827178E+03 0.12858671879E+03 0.14237199442E+03 0.13297652701E+03 0.11998693440E+03
 0.10091157401E+03 0.78852901281E+02 0.56965089315E+02 0.37820587101E+02 0.23028606172E+02
 0.13108633588E+02 0.75723663999E+01 0.51738686163E+01 0.42916746946E+01 0.37337660624E+01
 0.33935074563E+01 0.32808557064E+01 0.33935035602E+01 0.37337608687E+01 0.42916720859E+01
 0.51738717400E+01 0.75723758841E+01 0.13108646873E+02 0.23028618291E+02 0.37820592684E+02
 0.56965084917E+02 0.78852887095E+02 0.10091155410E+03 0.11998691533E+03 0.13297651541E+03
 0.13758864780E+03 0.11998693440E+03 0.10436926976E+03 0.84435450912E+02 0.63285861680E+02
 0.43714385405E+02 0.27714523701E+02 0.16252336586E+02 0.92684739882E+01 0.58552626637E+01
 0.45699287564E+01 0.39357074825E+01 0.34991937887E+01 0.32818546321E+01 0.32818524714E+01
 0.34991885254E+01 0.39357021199E+01 0.45699264578E+01 0.58552649148E+01 0.92684794719E+01
 0.16252341365E+02 0.27714522720E+02 0.43714374761E+02 0.63285840620E+02 0.84435422740E+02
 0.10436924109E+03 0.11998691300E+03 0.12858671086E+03 0.12858671879E+03 0.10091157401E+03
 0.84435450912E+02 0.65523787859E+02 0.46954196913E+02 0.30940133910E+02 0.18800424623E+02