   1   1   1   0
  0.1099674E+02  0.2496087E-09  0.2496087E-09  0.2496087E-09  0.5000000E-15
  1.000000000000000E-004
  CAR 
 fcc Ni DOS                              
     56.21895712     -2.41308163  301      9.21810128      1.00000000
     -2.413  0.0000E+00  0.0000E+00  0.0000E+00  0.0000E+00
     -2.218  0.0000E+00  0.0000E+00  0.0000E+00  0.0000E+00
     -2.022  0.0000E+00  0.0000E+00  0.0000E+00  0.0000E+00
     -1.827  0.0000E+00  0.0000E+00  0.0000E+00  0.0000E+00
     -1.631  0.0000E+00  0.0000E+00  0.0000E+00  0.0000E+00
     -1.436 -0.6383E-35 -0.1543E-33 -0.1247E-35 -0.3016E-34
     -1.240 -0.4618E-28 -0.7695E-27 -0.9026E-29 -0.1504E-27
     -1.045 -0.4886E-22 -0.5633E-21 -0.9549E-23 -0.1101E-21
     -0.850 -0.7411E-17 -0.5907E-16 -0.1448E-17 -0.1155E-16
     -0.654 -0.1707E-12 -0.9470E-12 -0.3336E-13 -0.1851E-12
     -0.459 -0.6059E-09 -0.2358E-08 -0.1184E-09 -0.4610E-09
     -0.263 -0.3456E-06 -0.9489E-06 -0.6767E-07 -0.1859E-06
     -0.068 -0.3125E-04 -0.5909E-04 -0.6174E-05 -0.1173E-04
      0.128 -0.3087E-03 -0.3067E-03 -0.6651E-04 -0.7167E-04
      0.323  0.1802E-02  0.3074E-02  0.2857E-03  0.5292E-03
      0.519  0.1119E-01  0.1330E-01  0.2472E-02  0.3128E-02
      0.714  0.1914E-01  0.1982E-01  0.6213E-02  0.7001E-02
      0.909  0.2613E-01  0.2786E-01  0.1132E-01  0.1245E-01
      1.105  0.2875E-01  0.2786E-01  0.1694E-01  0.1789E-01
      1.300  0.3442E-01  0.3742E-01  0.2367E-01  0.2521E-01
      1.496  0.4182E-01  0.3970E-01  0.3184E-01  0.3296E-01
      1.691  0.3505E-01  0.3649E-01  0.3869E-01  0.4009E-01
      1.887  0.5545E-01  0.5696E-01  0.4953E-01  0.5123E-01
      2.082  0.4827E-01  0.4495E-01  0.5896E-01  0.6001E-01
      2.277  0.4918E-01  0.5086E-01  0.6857E-01  0.6995E-01
      2.473  0.6647E-01  0.6629E-01  0.8156E-01  0.8291E-01
      2.668  0.7032E-01  0.6743E-01  0.9531E-01  0.9609E-01
      2.864  0.5340E-01  0.5122E-01  0.1057E+00  0.1061E+00
      3.059  0.8629E-01  0.8500E-01  0.1226E+00  0.1227E+00
      3.255  0.9185E-01  0.8582E-01  0.1406E+00  0.1395E+00
      3.450  0.7728E-01  0.7446E-01  0.1557E+00  0.1540E+00
      3.646  0.9837E-01  0.8487E-01  0.1749E+00  0.1706E+00
      3.841  0.1347E+00  0.1198E+00  0.2012E+00  0.1940E+00
      4.036  0.1216E+00  0.1129E+00  0.2250E+00  0.2161E+00
      4.232  0.1463E+00  0.1013E+00  0.2536E+00  0.2359E+00
      4.427  0.2511E+00  0.1604E+00  0.3027E+00  0.2673E+00
      4.623  0.3328E+00  0.1873E+00  0.3677E+00  0.3039E+00
      4.818  0.5053E+00  0.1937E+00  0.4665E+00  0.3417E+00
      5.014  0.5807E+00  0.3711E+00  0.5800E+00  0.4142E+00
      5.209  0.6755E+00  0.4805E+00  0.7120E+00  0.5081E+00
      5.405  0.9029E+00  0.4779E+00  0.8884E+00  0.6015E+00
      5.600  0.1018E+01  0.5256E+00  0.1087E+01  0.7043E+00
      5.795  0.9374E+00  0.6051E+00  0.1271E+01  0.8225E+00
      5.991  0.8489E+00  0.8361E+00  0.1436E+01  0.9859E+00
      6.186  0.8685E+00  0.8972E+00  0.1606E+01  0.1161E+01
      6.382  0.1057E+01  0.8479E+00  0.1813E+01  0.1327E+01
      6.577  0.1215E+01  0.8136E+00  0.2050E+01  0.1486E+01
      6.773  0.1342E+01  0.8085E+00  0.2312E+01  0.1644E+01
      6.968  0.1615E+01  0.1007E+01  0.2628E+01  0.1841E+01
      7.163  0.1689E+01  0.1166E+01  0.2958E+01  0.2069E+01
      7.359  0.1183E+01  0.1297E+01  0.3189E+01  0.2322E+01
      7.554  0.9803E+00  0.1394E+01  0.3381E+01  0.2595E+01
      7.750  0.1190E+01  0.1513E+01  0.3614E+01  0.2890E+01
      7.945  0.1448E+01  0.1357E+01  0.3896E+01  0.3155E+01
      8.141  0.1366E+01  0.1004E+01  0.4163E+01  0.3351E+01
      8.336  0.1343E+01  0.1108E+01  0.4426E+01  0.3568E+01
      8.532  0.1858E+01  0.1363E+01  0.4789E+01  0.3834E+01
      8.727  0.1901E+01  0.1255E+01  0.5160E+01  0.4080E+01
      8.922  0.5909E+00  0.1111E+01  0.5276E+01  0.4297E+01
      9.118  0.7107E-01  0.1230E+01  0.5290E+01  0.4537E+01
      9.313  0.1997E+00  0.1712E+01  0.5329E+01  0.4872E+01
      9.509  0.1839E+00  0.1674E+01  0.5365E+01  0.5199E+01
      9.704  0.1103E+00  0.4902E+00  0.5386E+01  0.5295E+01
      9.900  0.1900E+00  0.1884E+00  0.5423E+01  0.5332E+01
     10.095  0.1650E+00  0.2164E+00  0.5456E+01  0.5374E+01
     10.291  0.1034E+00  0.1370E+00  0.5476E+01  0.5401E+01
     10.486  0.1339E+00  0.2044E+00  0.5502E+01  0.5441E+01
     10.681  0.1825E+00  0.1614E+00  0.5538E+01  0.5472E+01
     10.877  0.1384E+00  0.1365E+00  0.5565E+01  0.5499E+01
     11.072  0.1225E+00  0.1705E+00  0.5589E+01  0.5532E+01
     11.268  0.9072E-01  0.1753E+00  0.5606E+01  0.5567E+01
     11.463  0.1323E+00  0.1416E+00  0.5632E+01  0.5594E+01
     11.659  0.1690E+00  0.9430E-01  0.5665E+01  0.5613E+01
     11.854  0.1492E+00  0.1463E+00  0.5695E+01  0.5641E+01
     12.049  0.1047E+00  0.2012E+00  0.5715E+01  0.5681E+01
     12.245  0.7448E-01  0.1308E+00  0.5730E+01  0.5706E+01
     12.440  0.1300E+00  0.7904E-01  0.5755E+01  0.5722E+01
     12.636  0.1188E+00  0.1227E+00  0.5778E+01  0.5746E+01
     12.831  0.1301E+00  0.1212E+00  0.5804E+01  0.5769E+01
     13.027  0.1188E+00  0.1296E+00  0.5827E+01  0.5795E+01
     13.222  0.8988E-01  0.1321E+00  0.5844E+01  0.5820E+01
     13.418  0.6234E-01  0.9956E-01  0.5857E+01  0.5840E+01
     13.613  0.7476E-01  0.7045E-01  0.5871E+01  0.5854E+01
     13.808  0.9281E-01  0.7540E-01  0.5889E+01  0.5868E+01
     14.004  0.1164E+00  0.9442E-01  0.5912E+01  0.5887E+01
     14.199  0.7984E-01  0.1115E+00  0.5928E+01  0.5909E+01
     14.395  0.3790E-01  0.8770E-01  0.5935E+01  0.5926E+01
     14.590  0.6143E-01  0.4181E-01  0.5947E+01  0.5934E+01
     14.786  0.4781E-01  0.6494E-01  0.5956E+01  0.5947E+01
     14.981  0.1042E+00  0.4471E-01  0.5977E+01  0.5955E+01
     15.177  0.1553E+00  0.6226E-01  0.6007E+01  0.5968E+01
     15.372  0.1330E+00  0.1200E+00  0.6033E+01  0.5991E+01
     15.567  0.1348E+00  0.1403E+00  0.6059E+01  0.6018E+01
     15.763  0.1437E+00  0.1410E+00  0.6088E+01  0.6046E+01
     15.958  0.1627E+00  0.1566E+00  0.6119E+01  0.6077E+01
     16.154  0.1627E+00  0.1851E+00  0.6151E+01  0.6113E+01
     16.349  0.1414E+00  0.1584E+00  0.6179E+01  0.6144E+01
     16.545  0.1222E+00  0.1546E+00  0.6203E+01  0.6174E+01
     16.740  0.1189E+00  0.1271E+00  0.6226E+01  0.6199E+01
     16.935  0.1173E+00  0.1208E+00  0.6249E+01  0.6222E+01
     17.131  0.1161E+00  0.1275E+00  0.6272E+01  0.6247E+01
     17.326  0.1223E+00  0.1164E+00  0.6295E+01  0.6270E+01
     17.522  0.1241E+00  0.1294E+00  0.6320E+01  0.6295E+01
     17.717  0.1208E+00  0.1277E+00  0.6343E+01  0.6320E+01
     17.913  0.1369E+00  0.1222E+00  0.6370E+01  0.6344E+01
     18.108  0.7284E-01  0.1305E+00  0.6384E+01  0.6370E+01
     18.304  0.1005E+00  0.7706E-01  0.6404E+01  0.6385E+01
     18.499  0.1251E+00  0.1030E+00  0.6428E+01  0.6405E+01
     18.694  0.1587E+00  0.1199E+00  0.6459E+01  0.6428E+01
     18.890  0.1373E+00  0.1636E+00  0.6486E+01  0.6460E+01
     19.085  0.1424E+00  0.1433E+00  0.6514E+01  0.6488E+01
     19.281  0.2196E+00  0.1596E+00  0.6557E+01  0.6520E+01
     19.476  0.1819E+00  0.2092E+00  0.6593E+01  0.6560E+01
     19.672  0.1449E+00  0.1830E+00  0.6621E+01  0.6596E+01
     19.867  0.1569E+00  0.1510E+00  0.6651E+01  0.6626E+01
     20.063  0.1531E+00  0.1563E+00  0.6681E+01  0.6656E+01
     20.258  0.1923E+00  0.1590E+00  0.6719E+01  0.6687E+01
     20.453  0.1870E+00  0.2146E+00  0.6756E+01  0.6729E+01
     20.649  0.1688E+00  0.1855E+00  0.6789E+01  0.6765E+01
     20.844  0.2019E+00  0.1776E+00  0.6828E+01  0.6800E+01
     21.040  0.1676E+00  0.1965E+00  0.6861E+01  0.6839E+01
     21.235  0.1938E+00  0.1713E+00  0.6899E+01  0.6872E+01
     21.431  0.1755E+00  0.1931E+00  0.6933E+01  0.6910E+01
     21.626  0.1755E+00  0.1752E+00  0.6967E+01  0.6944E+01
     21.821  0.1730E+00  0.1886E+00  0.7001E+01  0.6981E+01
     22.017  0.1782E+00  0.1779E+00  0.7036E+01  0.7016E+01
     22.212  0.2088E+00  0.1893E+00  0.7077E+01  0.7053E+01
     22.408  0.1878E+00  0.2081E+00  0.7113E+01  0.7093E+01
     22.603  0.1976E+00  0.1795E+00  0.7152E+01  0.7128E+01
     22.799  0.2273E+00  0.2326E+00  0.7196E+01  0.7174E+01
     22.994  0.1792E+00  0.2055E+00  0.7231E+01  0.7214E+01
     23.190  0.1475E+00  0.1594E+00  0.7260E+01  0.7245E+01
     23.385  0.1926E+00  0.1716E+00  0.7298E+01  0.7279E+01
     23.580  0.2265E+00  0.2175E+00  0.7342E+01  0.7321E+01
     23.776  0.2406E+00  0.2364E+00  0.7389E+01  0.7367E+01
     23.971  0.2182E+00  0.2458E+00  0.7432E+01  0.7416E+01
     24.167  0.1680E+00  0.1832E+00  0.7465E+01  0.7451E+01
     24.362  0.2397E+00  0.1997E+00  0.7512E+01  0.7490E+01
     24.558  0.2518E+00  0.2643E+00  0.7561E+01  0.7542E+01
     24.753  0.2244E+00  0.2351E+00  0.7605E+01  0.7588E+01
     24.949  0.1535E+00  0.1897E+00  0.7635E+01  0.7625E+01
     25.144  0.1678E+00  0.1402E+00  0.7667E+01  0.7652E+01
     25.339  0.2487E+00  0.2212E+00  0.7716E+01  0.7696E+01
     25.535  0.2573E+00  0.2651E+00  0.7766E+01  0.7747E+01
     25.730  0.2273E+00  0.2479E+00  0.7811E+01  0.7796E+01
     25.926  0.1632E+00  0.1830E+00  0.7843E+01  0.7832E+01
     26.121  0.1321E+00  0.1359E+00  0.7868E+01  0.7858E+01
     26.317  0.1869E+00  0.1710E+00  0.7905E+01  0.7892E+01
     26.512  0.2115E+00  0.2017E+00  0.7946E+01  0.7931E+01
     26.707  0.2045E+00  0.2131E+00  0.7986E+01  0.7973E+01
     26.903  0.2076E+00  0.2035E+00  0.8027E+01  0.8013E+01
     27.098  0.1879E+00  0.2023E+00  0.8064E+01  0.8052E+01
     27.294  0.1569E+00  0.1650E+00  0.8094E+01  0.8084E+01
     27.489  0.1408E+00  0.1466E+00  0.8122E+01  0.8113E+01
     27.685  0.1859E+00  0.1696E+00  0.8158E+01  0.8146E+01
     27.880  0.1781E+00  0.1965E+00  0.8193E+01  0.8185E+01
     28.076  0.1402E+00  0.1373E+00  0.8220E+01  0.8211E+01
     28.271  0.1852E+00  0.1733E+00  0.8256E+01  0.8245E+01
     28.466  0.1639E+00  0.1741E+00  0.8289E+01  0.8279E+01
     28.662  0.1368E+00  0.1488E+00  0.8315E+01  0.8308E+01
     28.857  0.1802E+00  0.1741E+00  0.8350E+01  0.8342E+01
     29.053  0.1689E+00  0.1680E+00  0.8383E+01  0.8375E+01
     29.248  0.1584E+00  0.1586E+00  0.8414E+01  0.8406E+01
     29.444  0.1307E+00  0.1400E+00  0.8440E+01  0.8434E+01
     29.639  0.9903E-01  0.1014E+00  0.8459E+01  0.8453E+01
     29.835  0.1932E+00  0.1708E+00  0.8497E+01  0.8487E+01
     30.030  0.2675E+00  0.2715E+00  0.8549E+01  0.8540E+01
     30.225  0.1712E+00  0.1804E+00  0.8583E+01  0.8575E+01
     30.421  0.1692E+00  0.1578E+00  0.8616E+01  0.8606E+01
     30.616  0.1816E+00  0.1820E+00  0.8651E+01  0.8641E+01
     30.812  0.2028E+00  0.2377E+00  0.8691E+01  0.8688E+01
     31.007  0.2522E+00  0.2255E+00  0.8740E+01  0.8732E+01
     31.203  0.2253E+00  0.2323E+00  0.8784E+01  0.8777E+01
     31.398  0.2446E+00  0.2363E+00  0.8832E+01  0.8824E+01
     31.594  0.2937E+00  0.2925E+00  0.8890E+01  0.8881E+01
     31.789  0.2357E+00  0.2550E+00  0.8936E+01  0.8931E+01
     31.984  0.2247E+00  0.2335E+00  0.8980E+01  0.8976E+01
     32.180  0.2284E+00  0.2196E+00  0.9024E+01  0.9019E+01
     32.375  0.2866E+00  0.2876E+00  0.9080E+01  0.9075E+01
     32.571  0.1983E+00  0.1997E+00  0.9119E+01  0.9114E+01
     32.766  0.2742E+00  0.2574E+00  0.9173E+01  0.9165E+01
     32.962  0.2799E+00  0.2794E+00  0.9227E+01  0.9219E+01
     33.157  0.3038E+00  0.2949E+00  0.9287E+01  0.9277E+01
     33.352  0.3235E+00  0.3437E+00  0.9350E+01  0.9344E+01
     33.548  0.2108E+00  0.2170E+00  0.9391E+01  0.9387E+01
     33.743  0.2409E+00  0.2243E+00  0.9438E+01  0.9430E+01
     33.939  0.2660E+00  0.2669E+00  0.9490E+01  0.9483E+01
     34.134  0.2987E+00  0.2879E+00  0.9548E+01  0.9539E+01
     34.330  0.2919E+00  0.2999E+00  0.9605E+01  0.9597E+01
     34.525  0.2067E+00  0.2064E+00  0.9646E+01  0.9638E+01
     34.721  0.2323E+00  0.2444E+00  0.9691E+01  0.9685E+01
     34.916  0.2104E+00  0.2130E+00  0.9732E+01  0.9727E+01
     35.111  0.1851E+00  0.1945E+00  0.9769E+01  0.9765E+01
     35.307  0.1970E+00  0.1924E+00  0.9807E+01  0.9803E+01
     35.502  0.1692E+00  0.1752E+00  0.9840E+01  0.9837E+01
     35.698  0.2167E+00  0.1939E+00  0.9883E+01  0.9875E+01
     35.893  0.2509E+00  0.2409E+00  0.9932E+01  0.9922E+01
     36.089  0.1638E+00  0.1643E+00  0.9964E+01  0.9954E+01
     36.284  0.1832E+00  0.1878E+00  0.9999E+01  0.9991E+01
     36.480  0.1637E+00  0.1891E+00  0.1003E+02  0.1003E+02
     36.675  0.1027E+00  0.1040E+00  0.1005E+02  0.1005E+02
     36.870  0.1571E+00  0.1619E+00  0.1008E+02  0.1008E+02
     37.066  0.1445E+00  0.1115E+00  0.1011E+02  0.1010E+02
     37.261  0.1910E+00  0.1856E+00  0.1015E+02  0.1014E+02
     37.457  0.1316E+00  0.1657E+00  0.1017E+02  0.1017E+02
     37.652  0.7179E-01  0.7456E-01  0.1019E+02  0.1018E+02
     37.848  0.1450E+00  0.1267E+00  0.1022E+02  0.1021E+02
     38.043  0.2437E+00  0.2315E+00  0.1026E+02  0.1025E+02
     38.238  0.2534E+00  0.2507E+00  0.1031E+02  0.1030E+02
     38.434  0.2922E+00  0.2773E+00  0.1037E+02  0.1036E+02
     38.629  0.3279E+00  0.3260E+00  0.1043E+02  0.1042E+02
     38.825  0.2661E+00  0.2825E+00  0.1049E+02  0.1048E+02
     39.020  0.2913E+00  0.2979E+00  0.1054E+02  0.1054E+02
     39.216  0.2322E+00  0.2606E+00  0.1059E+02  0.1059E+02
     39.411  0.2663E+00  0.2719E+00  0.1064E+02  0.1064E+02
     39.607  0.3495E+00  0.3232E+00  0.1071E+02  0.1070E+02
     39.802  0.2788E+00  0.2871E+00  0.1076E+02  0.1076E+02
     39.997  0.1837E+00  0.1899E+00  0.1080E+02  0.1080E+02
     40.193  0.2648E+00  0.2663E+00  0.1085E+02  0.1085E+02
     40.388  0.2364E+00  0.2162E+00  0.1090E+02  0.1089E+02
     40.584  0.2053E+00  0.2204E+00  0.1094E+02  0.1093E+02
     40.779  0.2607E+00  0.2631E+00  0.1099E+02  0.1098E+02
     40.975  0.1853E+00  0.1995E+00  0.1102E+02  0.1102E+02
     41.170  0.1805E+00  0.1845E+00  0.1106E+02  0.1106E+02
     41.366  0.2205E+00  0.2199E+00  0.1110E+02  0.1110E+02
     41.561  0.1641E+00  0.1696E+00  0.1113E+02  0.1114E+02
     41.756  0.1683E+00  0.1713E+00  0.1117E+02  0.1117E+02
     41.952  0.1768E+00  0.1637E+00  0.1120E+02  0.1120E+02
     42.147  0.1566E+00  0.1606E+00  0.1123E+02  0.1123E+02
     42.343  0.1365E+00  0.1435E+00  0.1126E+02  0.1126E+02
     42.538  0.1470E+00  0.1433E+00  0.1129E+02  0.1129E+02
     42.734  0.1705E+00  0.1463E+00  0.1132E+02  0.1132E+02
     42.929  0.2386E+00  0.2279E+00  0.1137E+02  0.1136E+02
     43.124  0.2487E+00  0.2582E+00  0.1142E+02  0.1141E+02
     43.320  0.1952E+00  0.2252E+00  0.1146E+02  0.1146E+02
     43.515  0.1461E+00  0.1423E+00  0.1148E+02  0.1148E+02
     43.711  0.1476E+00  0.1560E+00  0.1151E+02  0.1151E+02
     43.906  0.1714E+00  0.1624E+00  0.1155E+02  0.1155E+02
     44.102  0.1491E+00  0.1293E+00  0.1158E+02  0.1157E+02
     44.297  0.1090E+00  0.1136E+00  0.1160E+02  0.1159E+02
     44.493  0.1294E+00  0.1538E+00  0.1162E+02  0.1162E+02
     44.688  0.1815E+00  0.1758E+00  0.1166E+02  0.1166E+02
     44.883  0.1214E+00  0.1061E+00  0.1168E+02  0.1168E+02
     45.079  0.7411E-01  0.8894E-01  0.1170E+02  0.1170E+02
     45.274  0.1142E+00  0.1263E+00  0.1172E+02  0.1172E+02
     45.470  0.1290E+00  0.1205E+00  0.1174E+02  0.1174E+02
     45.665  0.1316E+00  0.1179E+00  0.1177E+02  0.1177E+02
     45.861  0.1203E+00  0.1235E+00  0.1179E+02  0.1179E+02
     46.056  0.9643E-01  0.1036E+00  0.1181E+02  0.1181E+02
     46.252  0.7883E-01  0.6971E-01  0.1183E+02  0.1183E+02
     46.447  0.4305E-01  0.5689E-01  0.1183E+02  0.1184E+02
     46.642  0.6859E-01  0.7243E-01  0.1185E+02  0.1185E+02
     46.838  0.8511E-01  0.7734E-01  0.1186E+02  0.1187E+02
     47.033  0.4080E-01  0.3671E-01  0.1187E+02  0.1187E+02
     47.229  0.1040E-01  0.1718E-01  0.1187E+02  0.1188E+02
     47.424  0.4965E-01  0.5003E-01  0.1188E+02  0.1189E+02
     47.620  0.5229E-01  0.5785E-01  0.1189E+02  0.1190E+02
     47.815  0.6040E-01  0.5732E-01  0.1191E+02  0.1191E+02
     48.010  0.1906E-01  0.1045E-01  0.1191E+02  0.1191E+02
     48.206  0.2072E-01  0.2612E-01  0.1191E+02  0.1192E+02
     48.401  0.3909E-01  0.3700E-01  0.1192E+02  0.1192E+02
     48.597  0.2512E-01  0.2346E-01  0.1193E+02  0.1193E+02
     48.792  0.2759E-01  0.2845E-01  0.1193E+02  0.1193E+02
     48.988  0.1296E-01  0.9370E-02  0.1193E+02  0.1193E+02
     49.183  0.1065E-01  0.1377E-01  0.1194E+02  0.1194E+02
     49.379  0.2628E-01  0.2662E-01  0.1194E+02  0.1194E+02
     49.574  0.2728E-01  0.3261E-01  0.1195E+02  0.1195E+02
     49.769  0.4548E-01  0.4435E-01  0.1196E+02  0.1196E+02
     49.965  0.2303E-01  0.1702E-01  0.1196E+02  0.1196E+02
     50.160  0.1688E-02 -0.3132E-03  0.1196E+02  0.1196E+02
     50.356  0.1136E-01  0.1387E-01  0.1196E+02  0.1196E+02
     50.551  0.1472E-01  0.1357E-01  0.1197E+02  0.1197E+02
     50.747  0.2109E-01  0.2587E-01  0.1197E+02  0.1197E+02
     50.942  0.2531E-01  0.2010E-01  0.1198E+02  0.1198E+02
     51.138  0.2431E-02  0.3414E-02  0.1198E+02  0.1198E+02
     51.333  0.1868E-01  0.2076E-01  0.1198E+02  0.1198E+02
     51.528  0.1858E-01  0.1501E-01  0.1198E+02  0.1198E+02
     51.724  0.2819E-02  0.4219E-02  0.1198E+02  0.1198E+02
     51.919  0.1638E-01  0.1757E-01  0.1199E+02  0.1199E+02
     52.115  0.1084E-01  0.7896E-02  0.1199E+02  0.1199E+02
     52.310  0.4097E-02  0.5921E-02  0.1199E+02  0.1199E+02
     52.506  0.1865E-01  0.1860E-01  0.1199E+02  0.1199E+02
     52.701  0.4530E-02  0.2445E-02  0.1199E+02  0.1199E+02
     52.896  0.3590E-02  0.5098E-02  0.1199E+02  0.1200E+02
     53.092  0.1207E-01  0.1191E-01  0.1200E+02  0.1200E+02
     53.287  0.7040E-02  0.6056E-02  0.1200E+02  0.1200E+02
     53.483  0.3603E-02  0.3790E-02  0.1200E+02  0.1200E+02
     53.678  0.3147E-02  0.2851E-02  0.1200E+02  0.1200E+02
     53.874  0.1969E-03  0.4624E-04  0.1200E+02  0.1200E+02
     54.069 -0.8465E-04 -0.6595E-04  0.1200E+02  0.1200E+02
     54.265 -0.2783E-05 -0.1627E-05  0.1200E+02  0.1200E+02
     54.460 -0.1014E-07 -0.4661E-08  0.1200E+02  0.1200E+02
     54.655 -0.4920E-11 -0.1796E-11  0.1200E+02  0.1200E+02
     54.851 -0.3334E-15 -0.9716E-16  0.1200E+02  0.1200E+02
     55.046  0.0000E+00  0.0000E+00  0.1200E+02  0.1200E+02
     55.242  0.0000E+00  0.0000E+00  0.1200E+02  0.1200E+02
     55.437  0.0000E+00  0.0000E+00  0.1200E+02  0.1200E+02
     55.633  0.0000E+00  0.0000E+00  0.1200E+02  0.1200E+02
     55.828  0.0000E+00  0.0000E+00  0.1200E+02  0.1200E+02
     56.024  0.0000E+00  0.0000E+00  0.1200E+02  0.1200E+02
     56.219  0.0000E+00  0.0000E+00  0.1200E+02  0.1200E+02
     56.21895712     -2.41308163  301      9.21810128      1.00000000
     -2.413  0.0000E+00  0.0000E+00  0.0000E+00  0.0000E+00  0.0000E+00  0.0000E+00  0.0000E+00  0.0000E+00  0.0000E+00  0.0000E+00  0.0000E+00  0.0000E+00  0.0000E+00  0.0000E+00  0.0000E+00  0.0000E+00  0.0000E+00  0.0000E+00
     -2.218  0.0000E+00  0.0000E+00  0.0000E+00  0.0000E+00  0.0000E+00  0.0000E+00  0.0000E+00  0.0000E+00  0.0000E+00  0.0000E+00  0.0000E+00  0.0000E+00  0.0000E+00  0.0000E+00  0.0000E+00  0.0000E+00  0.0000E+00  0.0000E+00
     -2.022  0.0000E+00  0.0000E+00  0.0000E+00  0.0000E+00  0.0000E+00  0.0000E+00  0.0000E+00  0.0000E+00  0.0000E+00  0.0000E+00  0.0000E+00  0.0000E+00  0.0000E+00  0.0000E+00  0.0000E+00  0.0000E+00  0.0000E+00  0.0000E+00
     -1.827  0.0000E+00  0.0000E+00  0.0000E+00  0.0000E+00  0.0000E+00  0.0000E+00  0.0000E+00  0.0000E+00  0.0000E+00  0.0000E+00  0.0000E+00  0.0000E+00  0.0000E+00  0.0000E+00  0.0000E+00  0.0000E+00  0.0000E+00  0.0000E+00
     -1.631  0.0000E+00  0.0000E+00  0.0000E+00  0.0000E+00  0.0000E+00  0.0000E+00  0.0000E+00  0.0000E+00  0.0000E+00  0.0000E+00  0.0000E+00  0.0000E+00  0.0000E+00  0.0000E+00  0.0000E+00  0.0000E+00  0.0000E+00  0.0000E+00
     -1.436 -0.4598E-35 -0.1112E-33 -0.4419E-53 -0.1234E-38 -0.3961E-53 -0.1234E-38 -0.1947E-53 -0.1234E-38 -0.8091E-48 -0.8008E-41 -0.8091E-48 -0.8013E-41 -0.8370E-53 -0.6457E-51 -0.8053E-48 -0.8013E-41 -0.6736E-53 -0.1796E-51
     -1.240 -0.3327E-28 -0.5545E-27 -0.9497E-33 -0.1886E-31 -0.7431E-33 -0.1458E-31 -0.7431E-33 -0.1458E-31 -0.5593E-35 -0.9464E-34 -0.5592E-35 -0.9471E-34 -0.3951E-36 -0.7445E-35 -0.5593E-35 -0.9472E-34 -0.1185E-35 -0.2233E-34
     -1.045 -0.3519E-22 -0.4059E-21 -0.2541E-26 -0.3499E-25 -0.1853E-26 -0.2514E-25 -0.1853E-26 -0.2514E-25 -0.1395E-28 -0.1631E-27 -0.1395E-28 -0.1633E-27 -0.1316E-29 -0.1715E-28 -0.1395E-28 -0.1634E-27 -0.3948E-29 -0.5145E-28
     -0.850 -0.5336E-17 -0.4255E-16 -0.1005E-20 -0.9585E-20 -0.6719E-21 -0.6293E-20 -0.6719E-21 -0.6293E-20 -0.5055E-23 -0.4082E-22 -0.5054E-23 -0.4085E-22 -0.6379E-24 -0.5742E-23 -0.5064E-23 -0.4095E-22 -0.1914E-23 -0.1723E-22
     -0.654 -0.1228E-12 -0.6816E-12 -0.5635E-16 -0.3709E-15 -0.3390E-16 -0.2184E-15 -0.3390E-16 -0.2184E-15 -0.2547E-18 -0.1414E-17 -0.2546E-18 -0.1414E-17 -0.4319E-19 -0.2676E-18 -0.2568E-18 -0.1430E-17 -0.1296E-18 -0.8028E-18
     -0.459 -0.4355E-09 -0.1695E-08 -0.4694E-12 -0.2128E-11 -0.2500E-12 -0.1107E-11 -0.2500E-12 -0.1107E-11 -0.1866E-14 -0.7102E-14 -0.1865E-14 -0.7106E-14 -0.4283E-15 -0.1825E-14 -0.1934E-14 -0.7450E-14 -0.1285E-14 -0.5474E-14
     -0.263 -0.2479E-06 -0.6806E-06 -0.5507E-09 -0.1705E-08 -0.2590E-09 -0.7857E-09 -0.2590E-09 -0.7857E-09 -0.1884E-11 -0.4881E-11 -0.1883E-11 -0.4884E-11 -0.5991E-12 -0.1752E-11 -0.2184E-11 -0.5910E-11 -0.1797E-11 -0.5256E-11
     -0.068 -0.2235E-04 -0.4225E-04 -0.8545E-07 -0.1771E-06 -0.3763E-07 -0.7854E-07 -0.3763E-07 -0.7854E-07 -0.2542E-09 -0.4499E-09 -0.2541E-09 -0.4502E-09 -0.1187E-09 -0.2399E-09 -0.4269E-09 -0.8444E-09 -0.3560E-09 -0.7198E-09
      0.128 -0.2193E-03 -0.2168E-03 -0.1488E-05 -0.1940E-05 -0.7892E-06 -0.1118E-05 -0.7893E-06 -0.1119E-05 -0.6116E-08 -0.8793E-08 -0.6101E-08 -0.8755E-08 -0.3761E-08 -0.5514E-08 -0.1680E-07 -0.2369E-07 -0.1127E-07 -0.1651E-07
      0.323  0.1298E-02  0.2207E-02  0.1201E-06  0.3310E-05  0.1586E-06  0.2838E-05  0.1199E-06  0.2744E-05 -0.6380E-07 -0.6619E-07 -0.5878E-07 -0.5587E-07 -0.2154E-07 -0.1879E-07 -0.5129E-07 -0.5714E-08 -0.6090E-07 -0.4824E-07
      0.519  0.7931E-02  0.9406E-02  0.5956E-04  0.8832E-04  0.3511E-04  0.4601E-04  0.3351E-04  0.4363E-04  0.1988E-06  0.3410E-06  0.4058E-06  0.6041E-06  0.1029E-06  0.1624E-06  0.6200E-06  0.7161E-06  0.4620E-06  0.6945E-06
      0.714  0.1338E-01  0.1381E-01  0.2276E-03  0.2589E-03  0.8720E-04  0.1011E-03  0.9034E-04  0.1118E-03  0.2093E-05  0.2672E-05  0.1691E-05  0.1510E-05  0.1023E-05  0.1360E-05  0.3027E-05  0.3776E-05  0.2770E-05  0.3162E-05
      0.909  0.1786E-01  0.1899E-01  0.4956E-03  0.5836E-03  0.1921E-03  0.2076E-03  0.2535E-03  0.2737E-03  0.1305E-04  0.1339E-04  0.5469E-05  0.6585E-05  0.4960E-05  0.5233E-05  0.1212E-04  0.1097E-04  0.9224E-05  0.1029E-04
      1.105  0.1936E-01  0.1869E-01  0.8528E-03  0.8687E-03  0.2106E-03  0.2187E-03  0.2438E-03  0.2551E-03  0.2043E-04  0.1906E-04  0.1672E-04  0.1436E-04  0.8167E-05  0.8247E-05  0.1387E-04  0.1418E-04  0.2173E-04  0.2114E-04
      1.300  0.2255E-01  0.2444E-01  0.1150E-02  0.1304E-02  0.3740E-03  0.4083E-03  0.5970E-03  0.6834E-03  0.6666E-04  0.6812E-04  0.1715E-04  0.1630E-04  0.2376E-04  0.2558E-04  0.4917E-04  0.4633E-04  0.3698E-04  0.3839E-04
      1.496  0.2698E-01  0.2556E-01  0.1923E-02  0.1943E-02  0.3699E-03  0.3541E-03  0.6334E-03  0.5639E-03  0.1119E-03  0.9055E-04  0.5192E-04  0.5003E-04  0.3759E-04  0.3241E-04  0.4540E-04  0.3470E-04  0.7426E-04  0.6943E-04
      1.691  0.2203E-01  0.2283E-01  0.1606E-02  0.1582E-02  0.7212E-03  0.8794E-03  0.6013E-03  0.7153E-03  0.7700E-04  0.6667E-04  0.7249E-04  0.5779E-04  0.4707E-04  0.5011E-04  0.1192E-03  0.1257E-03  0.9973E-04  0.9592E-04
      1.887  0.3397E-01  0.3488E-01  0.2535E-02  0.2790E-02  0.1322E-02  0.1263E-02  0.1442E-02  0.1506E-02  0.2678E-03  0.2569E-03  0.9244E-04  0.8213E-04  0.1250E-03  0.1174E-03  0.2678E-03  0.2152E-03  0.1666E-03  0.1535E-03
      2.082  0.2903E-01  0.2698E-01  0.3339E-02  0.3324E-02  0.5766E-03  0.5079E-03  0.1060E-02  0.9394E-03  0.3684E-03  0.2847E-03  0.1607E-03  0.1379E-03  0.1232E-03  0.1051E-03  0.1408E-03  0.1004E-03  0.2336E-03  0.2173E-03
      2.277  0.2856E-01  0.2955E-01  0.3283E-02  0.3192E-02  0.1355E-02  0.1631E-02  0.1117E-02  0.1279E-02  0.2741E-03  0.2154E-03  0.2573E-03  0.2076E-03  0.1678E-03  0.1582E-03  0.4020E-03  0.3909E-03  0.3696E-03  0.3249E-03
      2.473  0.3760E-01  0.3756E-01  0.3383E-02  0.3630E-02  0.2665E-02  0.2569E-02  0.2348E-02  0.2388E-02  0.5707E-03  0.5112E-03  0.2791E-03  0.2247E-03  0.3187E-03  0.2913E-03  0.8846E-03  0.6889E-03  0.4269E-03  0.3873E-03
      2.668  0.3867E-01  0.3726E-01  0.6345E-02  0.6390E-02  0.1003E-02  0.8818E-03  0.2037E-02  0.1959E-02  0.1213E-02  0.9581E-03  0.4754E-03  0.3662E-03  0.4192E-03  0.3590E-03  0.4895E-03  0.3432E-03  0.7639E-03  0.6595E-03
      2.864  0.2825E-01  0.2728E-01  0.4975E-02  0.4789E-02  0.1209E-02  0.1302E-02  0.1432E-02  0.1454E-02  0.8710E-03  0.6480E-03  0.6132E-03  0.4656E-03  0.3579E-03  0.3010E-03  0.6880E-03  0.5498E-03  0.8213E-03  0.6850E-03
      3.059  0.4393E-01  0.4378E-01  0.5543E-02  0.5622E-02  0.4215E-02  0.4295E-02  0.3383E-02  0.3440E-02  0.1183E-02  0.8990E-03  0.8650E-03  0.6495E-03  0.7837E-03  0.6789E-03  0.2346E-02  0.1824E-02  0.1349E-02  0.1153E-02
      3.255  0.4508E-01  0.4284E-01  0.8362E-02  0.8066E-02  0.2512E-02  0.2492E-02  0.3452E-02  0.3370E-02  0.2812E-02  0.2018E-02  0.1252E-02  0.8472E-03  0.1010E-02  0.8337E-03  0.1911E-02  0.1353E-02  0.1685E-02  0.1349E-02
      3.450  0.3599E-01  0.3561E-01  0.9105E-02  0.9171E-02  0.8744E-03  0.8416E-03  0.2269E-02  0.2382E-02  0.3037E-02  0.2339E-02  0.1609E-02  0.1115E-02  0.1056E-02  0.8749E-03  0.1369E-02  0.8829E-03  0.2385E-02  0.1873E-02
      3.646  0.4307E-01  0.3847E-01  0.7780E-02  0.7617E-02  0.4700E-02  0.3919E-02  0.3830E-02  0.3363E-02  0.2733E-02  0.1762E-02  0.2296E-02  0.1434E-02  0.1621E-02  0.1202E-02  0.4835E-02  0.2894E-02  0.3150E-02  0.2464E-02
      3.841  0.5592E-01  0.5241E-01  0.9900E-02  0.8627E-02  0.6604E-02  0.7190E-02  0.5749E-02  0.5670E-02  0.5840E-02  0.3162E-02  0.3668E-02  0.2110E-02  0.2791E-02  0.2109E-02  0.7560E-02  0.5252E-02  0.4285E-02  0.3018E-02
      4.036  0.4623E-01  0.4619E-01  0.1401E-01  0.1336E-01  0.1460E-02  0.2354E-02  0.3497E-02  0.4122E-02  0.8757E-02  0.5817E-02  0.5147E-02  0.2967E-02  0.2976E-02  0.2407E-02  0.5119E-02  0.3364E-02  0.6510E-02  0.4684E-02
      4.232  0.4930E-01  0.3852E-01  0.1207E-01  0.1232E-01  0.4959E-02  0.1940E-02  0.4865E-02  0.3320E-02  0.9811E-02  0.5353E-02  0.7832E-02  0.3435E-02  0.4117E-02  0.2490E-02  0.1298E-01  0.4048E-02  0.9009E-02  0.5816E-02
      4.427  0.7449E-01  0.5677E-01  0.1513E-01  0.1133E-01  0.9253E-02  0.9584E-02  0.8010E-02  0.7381E-02  0.2491E-01  0.6860E-02  0.1997E-01  0.5603E-02  0.7197E-02  0.4728E-02  0.3099E-01  0.1299E-01  0.1244E-01  0.8288E-02
      4.623  0.7266E-01  0.6068E-01  0.2074E-01  0.1697E-01  0.3309E-02  0.6390E-02  0.5038E-02  0.6948E-02  0.4288E-01  0.1428E-01  0.3437E-01  0.9201E-02  0.1593E-01  0.6500E-02  0.4347E-01  0.1371E-01  0.4038E-01  0.1189E-01
      4.818  0.8236E-01  0.5221E-01  0.2096E-01  0.1904E-01  0.7938E-02  0.1895E-02  0.7852E-02  0.4336E-02  0.4956E-01  0.1963E-01  0.3882E-01  0.1478E-01  0.4341E-01  0.7925E-02  0.6578E-01  0.1731E-01  0.1133E+00  0.1909E-01
      5.014  0.7718E-01  0.7996E-01  0.2273E-01  0.1837E-01  0.8599E-02  0.1068E-01  0.9871E-02  0.9327E-02  0.5399E-01  0.3525E-01  0.3604E-01  0.2960E-01  0.6269E-01  0.2224E-01  0.8124E-01  0.4756E-01  0.1464E+00  0.5413E-01
      5.209  0.5866E-01  0.7962E-01  0.1909E-01  0.2400E-01  0.7886E-02  0.7662E-02  0.1000E-01  0.9134E-02  0.5398E-01  0.4265E-01  0.3343E-01  0.3064E-01  0.7103E-01  0.4648E-01  0.1958E+00  0.4995E-01  0.1460E+00  0.1136E+00
      5.405  0.4786E-01  0.6259E-01  0.1469E-01  0.2087E-01  0.1361E-01  0.6030E-02  0.1397E-01  0.8889E-02  0.5125E-01  0.4183E-01  0.2826E-01  0.2901E-01  0.9212E-01  0.5431E-01  0.4116E+00  0.5768E-01  0.1397E+00  0.1262E+00
      5.600  0.2980E-01  0.5959E-01  0.8885E-02  0.1819E-01  0.2089E-01  0.1175E-01  0.1913E-01  0.1356E-01  0.3847E-01  0.4341E-01  0.1930E-01  0.2692E-01  0.1268E+00  0.6906E-01  0.5393E+00  0.8000E-01  0.1236E+00  0.1282E+00
      5.795  0.1283E-01  0.4280E-01  0.3301E-02  0.1538E-01  0.3002E-01  0.9350E-02  0.2129E-01  0.1370E-01  0.1917E-01  0.4084E-01  0.1336E-01  0.2285E-01  0.1232E+00  0.8627E-01  0.5300E+00  0.1726E+00  0.1028E+00  0.1284E+00
      5.991  0.3583E-02  0.3141E-01  0.4298E-02  0.1066E-01  0.2806E-01  0.1588E-01  0.1916E-01  0.2016E-01  0.3759E-01  0.3404E-01  0.1987E-01  0.1688E-01  0.1203E+00  0.1275E+00  0.4268E+00  0.3730E+00  0.1179E+00  0.1201E+00
      6.186  0.3001E-02  0.1661E-01  0.1294E-01  0.4292E-02  0.1932E-01  0.2717E-01  0.1762E-01  0.2232E-01  0.1369E+00  0.2005E-01  0.5753E-01  0.1139E-01  0.1277E+00  0.1106E+00  0.2973E+00  0.5161E+00  0.1272E+00  0.8523E-01
      6.382  0.6013E-02  0.6247E-02  0.2686E-01  0.1988E-02  0.1720E-01  0.3329E-01  0.1742E-01  0.1942E-01  0.2829E+00  0.1623E-01  0.1196E+00  0.1424E-01  0.1259E+00  0.8408E-01  0.2621E+00  0.5105E+00  0.1212E+00  0.8741E-01
      6.577  0.1023E-01  0.3360E-02  0.3870E-01  0.6070E-02  0.1770E-01  0.2810E-01  0.1676E-01  0.1737E-01  0.3766E+00  0.4199E-01  0.1263E+00  0.2348E-01  0.1427E+00  0.1071E+00  0.2793E+00  0.4057E+00  0.1231E+00  0.1100E+00
      6.773  0.1368E-01  0.2161E-02  0.4776E-01  0.1611E-01  0.1542E-01  0.2023E-01  0.1390E-01  0.1755E-01  0.4175E+00  0.1336E+00  0.1050E+00  0.5756E-01  0.1839E+00  0.1069E+00  0.3028E+00  0.2795E+00  0.1583E+00  0.1068E+00
      6.968  0.1519E-01  0.4750E-02  0.4694E-01  0.3319E-01  0.1386E-01  0.1955E-01  0.1326E-01  0.1838E-01  0.4724E+00  0.2806E+00  0.1900E+00  0.1201E+00  0.2347E+00  0.1029E+00  0.3150E+00  0.2502E+00  0.2294E+00  0.9752E-01
      7.163  0.1186E-01  0.8834E-02  0.3410E-01  0.4588E-01  0.1132E-01  0.1965E-01  0.1174E-01  0.1708E-01  0.4894E+00  0.3689E+00  0.3390E+00  0.1302E+00  0.2400E+00  0.1197E+00  0.2382E+00  0.2713E+00  0.2402E+00  0.9837E-01
      7.359  0.7617E-02  0.1352E-01  0.2568E-01  0.5721E-01  0.8203E-02  0.1718E-01  0.7861E-02  0.1405E-01  0.3022E+00  0.3974E+00  0.3394E+00  0.1091E+00  0.1858E+00  0.1631E+00  0.6687E-01  0.2991E+00  0.1899E+00  0.1384E+00