Warning: no access to tty (Bad file descriptor).
Thus no job control in this shell.
Loading compiler-rt version 2021.4.0
Loading mpi version 2021.4.0
Loading mkl version 2021.4.0
Loading tbb version 2021.4.0

Loading mkl
  Loading requirement: tbb
a= 3.2
 running on   12 total cores
 distrk:  each k-point on   12 cores,    1 groups
 distr:  one band on    1 cores,   12 groups
 using from now: INCAR     
 vasp.5.4.4.18Apr17-6-g9f103f2a35 (build Mar 30 2023 15:39:25) complex          
  
 POSCAR found :  1 types and       1 ions
 scaLAPACK will be used

 ----------------------------------------------------------------------------- 
|                                                                             |
|           W    W    AA    RRRRR   N    N  II  N    N   GGGG   !!!           |
|           W    W   A  A   R    R  NN   N  II  NN   N  G    G  !!!           |
|           W    W  A    A  R    R  N N  N  II  N N  N  G       !!!           |
|           W WW W  AAAAAA  RRRRR   N  N N  II  N  N N  G  GGG   !            |
|           WW  WW  A    A  R   R   N   NN  II  N   NN  G    G                |
|           W    W  A    A  R    R  N    N  II  N    N   GGGG   !!!           |
|                                                                             |
|      For optimal performance we recommend to set                            |
|        NCORE= 4 - approx SQRT( number of cores)                             |
|      NCORE specifies how many cores store one orbital (NPAR=cpu/NCORE).     |
|      This setting can  greatly improve the performance of VASP for DFT.     |
|      The default,   NCORE=1            might be grossly inefficient         |
|      on modern multi-core architectures or massively parallel machines.     |
|      Do your own testing !!!!                                               |
|      Unfortunately you need to use the default for GW and RPA calculations. |
|      (for HF NCORE is supported but not extensively tested yet)             |
|                                                                             |
 ----------------------------------------------------------------------------- 

 LDA part: xc-table for Pade appr. of Perdew
 POSCAR, INCAR and KPOINTS ok, starting setup
 FFT: planning ...
 WAVECAR not read
 entering main loop
       N       E                     dE             d eps       ncg     rms          rms(c)
DAV:   1    -0.282275671594E+01   -0.28228E+01   -0.15296E+03  1776   0.153E+02
DAV:   2    -0.299348681596E+01   -0.17073E+00   -0.16743E+00  1548   0.677E+00
DAV:   3    -0.299352512748E+01   -0.38312E-04   -0.38309E-04  2028   0.808E-02
DAV:   4    -0.299352512452E+01    0.29587E-08   -0.42037E-09  1692   0.152E-04
DAV:   5    -0.299352512762E+01   -0.30976E-08    0.10320E-13  1908   0.163E-07    0.873E+00
DAV:   6    -0.293977970976E+01    0.53745E-01   -0.26618E-03  1368   0.200E-01    0.497E+00
DAV:   7    -0.290667532598E+01    0.33104E-01   -0.69422E-03  1416   0.322E-01    0.346E-01
DAV:   8    -0.290649643393E+01    0.17889E-03   -0.35689E-05  1788   0.234E-02    0.817E-02
DAV:   9    -0.290649296640E+01    0.34675E-05   -0.17116E-06  1464   0.508E-03    0.972E-04
DAV:  10    -0.290649299333E+01   -0.26934E-07   -0.15195E-09  1416   0.214E-04
   1 F= -.29064930E+01 E0= -.29058916E+01  d E =-.120277E-02
 writing wavefunctions
a= 3.3
 running on   12 total cores
 distrk:  each k-point on   12 cores,    1 groups
 distr:  one band on    1 cores,   12 groups
 using from now: INCAR     
 vasp.5.4.4.18Apr17-6-g9f103f2a35 (build Mar 30 2023 15:39:25) complex          
  
 POSCAR found :  1 types and       1 ions
 scaLAPACK will be used

 ----------------------------------------------------------------------------- 
|                                                                             |
|           W    W    AA    RRRRR   N    N  II  N    N   GGGG   !!!           |
|           W    W   A  A   R    R  NN   N  II  NN   N  G    G  !!!           |
|           W    W  A    A  R    R  N N  N  II  N N  N  G       !!!           |
|           W WW W  AAAAAA  RRRRR   N  N N  II  N  N N  G  GGG   !            |
|           WW  WW  A    A  R   R   N   NN  II  N   NN  G    G                |
|           W    W  A    A  R    R  N    N  II  N    N   GGGG   !!!           |
|                                                                             |
|      For optimal performance we recommend to set                            |
|        NCORE= 4 - approx SQRT( number of cores)                             |
|      NCORE specifies how many cores store one orbital (NPAR=cpu/NCORE).     |
|      This setting can  greatly improve the performance of VASP for DFT.     |
|      The default,   NCORE=1            might be grossly inefficient         |
|      on modern multi-core architectures or massively parallel machines.     |
|      Do your own testing !!!!                                               |
|      Unfortunately you need to use the default for GW and RPA calculations. |
|      (for HF NCORE is supported but not extensively tested yet)             |
|                                                                             |
 ----------------------------------------------------------------------------- 

 LDA part: xc-table for Pade appr. of Perdew
 POSCAR, INCAR and KPOINTS ok, starting setup
 FFT: planning ...
 WAVECAR not read
 entering main loop
       N       E                     dE             d eps       ncg     rms          rms(c)
DAV:   1    -0.341816552235E+01   -0.34182E+01   -0.14436E+03  1776   0.152E+02
DAV:   2    -0.365933560012E+01   -0.24117E+00   -0.24111E+00  1680   0.786E+00
DAV:   3    -0.365939903056E+01   -0.63430E-04   -0.63430E-04  1872   0.110E-01
DAV:   4    -0.365939903198E+01   -0.14199E-08   -0.15526E-08  1824   0.371E-04
DAV:   5    -0.365939903309E+01   -0.11127E-08    0.84870E-13  1812   0.700E-07    0.727E+00
DAV:   6    -0.361846634560E+01    0.40933E-01   -0.29586E-03  1368   0.196E-01    0.412E+00
DAV:   7    -0.359317911385E+01    0.25287E-01   -0.72274E-03  1416   0.307E-01    0.287E-01
DAV:   8    -0.359303061593E+01    0.14850E-03   -0.30348E-05  1788   0.217E-02    0.510E-02
DAV:   9    -0.359302890477E+01    0.17112E-05   -0.14279E-06  1488   0.436E-03    0.107E-03
DAV:  10    -0.359302890768E+01   -0.29108E-08   -0.18534E-09  1416   0.236E-04
   1 F= -.35930289E+01 E0= -.35926300E+01  d E =-.797729E-03
 writing wavefunctions
a= 3.4
 running on   12 total cores
 distrk:  each k-point on   12 cores,    1 groups
 distr:  one band on    1 cores,   12 groups
 using from now: INCAR     
 vasp.5.4.4.18Apr17-6-g9f103f2a35 (build Mar 30 2023 15:39:25) complex          
  
 POSCAR found :  1 types and       1 ions
 scaLAPACK will be used

 ----------------------------------------------------------------------------- 
|                                                                             |
|           W    W    AA    RRRRR   N    N  II  N    N   GGGG   !!!           |
|           W    W   A  A   R    R  NN   N  II  NN   N  G    G  !!!           |
|           W    W  A    A  R    R  N N  N  II  N N  N  G       !!!           |
|           W WW W  AAAAAA  RRRRR   N  N N  II  N  N N  G  GGG   !            |
|           WW  WW  A    A  R   R   N   NN  II  N   NN  G    G                |
|           W    W  A    A  R    R  N    N  II  N    N   GGGG   !!!           |
|                                                                             |
|      For optimal performance we recommend to set                            |
|        NCORE= 4 - approx SQRT( number of cores)                             |
|      NCORE specifies how many cores store one orbital (NPAR=cpu/NCORE).     |
|      This setting can  greatly improve the performance of VASP for DFT.     |
|      The default,   NCORE=1            might be grossly inefficient         |
|      on modern multi-core architectures or massively parallel machines.     |
|      Do your own testing !!!!                                               |
|      Unfortunately you need to use the default for GW and RPA calculations. |
|      (for HF NCORE is supported but not extensively tested yet)             |
|                                                                             |
 ----------------------------------------------------------------------------- 

 LDA part: xc-table for Pade appr. of Perdew
 POSCAR, INCAR and KPOINTS ok, starting setup
 FFT: planning ...
 WAVECAR not read
 entering main loop
       N       E                     dE             d eps       ncg     rms          rms(c)
DAV:   1    -0.383370095913E+01   -0.38337E+01   -0.13536E+03  1728   0.145E+02
DAV:   2    -0.413563883807E+01   -0.30194E+00   -0.30180E+00  1728   0.852E+00
DAV:   3    -0.413582659448E+01   -0.18776E-03   -0.18775E-03  1812   0.173E-01
DAV:   4    -0.413582660572E+01   -0.11245E-07   -0.90086E-08  1872   0.803E-04
DAV:   5    -0.413582660548E+01    0.23950E-09    0.40357E-13  1836   0.126E-06    0.610E+00
DAV:   6    -0.410355412959E+01    0.32272E-01   -0.33755E-03  1416   0.196E-01    0.344E+00
DAV:   7    -0.408372370632E+01    0.19830E-01   -0.77522E-03  1404   0.299E-01    0.238E-01
DAV:   8    -0.408360092732E+01    0.12278E-03   -0.26746E-05  1812   0.213E-02    0.268E-02
DAV:   9    -0.408360028817E+01    0.63915E-06   -0.11330E-06  1524   0.370E-03
   1 F= -.40836003E+01 E0= -.40834702E+01  d E =-.260163E-03
 writing wavefunctions
a= 3.5
 running on   12 total cores
 distrk:  each k-point on   12 cores,    1 groups
 distr:  one band on    1 cores,   12 groups
 using from now: INCAR     
 vasp.5.4.4.18Apr17-6-g9f103f2a35 (build Mar 30 2023 15:39:25) complex          
  
 POSCAR found :  1 types and       1 ions
 scaLAPACK will be used

 ----------------------------------------------------------------------------- 
|                                                                             |
|           W    W    AA    RRRRR   N    N  II  N    N   GGGG   !!!           |
|           W    W   A  A   R    R  NN   N  II  NN   N  G    G  !!!           |
|           W    W  A    A  R    R  N N  N  II  N N  N  G       !!!           |
|           W WW W  AAAAAA  RRRRR   N  N N  II  N  N N  G  GGG   !            |
|           WW  WW  A    A  R   R   N   NN  II  N   NN  G    G                |
|           W    W  A    A  R    R  N    N  II  N    N   GGGG   !!!           |
|                                                                             |
|      For optimal performance we recommend to set                            |
|        NCORE= 4 - approx SQRT( number of cores)                             |
|      NCORE specifies how many cores store one orbital (NPAR=cpu/NCORE).     |
|      This setting can  greatly improve the performance of VASP for DFT.     |
|      The default,   NCORE=1            might be grossly inefficient         |
|      on modern multi-core architectures or massively parallel machines.     |
|      Do your own testing !!!!                                               |
|      Unfortunately you need to use the default for GW and RPA calculations. |
|      (for HF NCORE is supported but not extensively tested yet)             |
|                                                                             |
 ----------------------------------------------------------------------------- 

 LDA part: xc-table for Pade appr. of Perdew
 POSCAR, INCAR and KPOINTS ok, starting setup
 FFT: planning ...
 WAVECAR not read
 entering main loop
       N       E                     dE             d eps       ncg     rms          rms(c)
DAV:   1    -0.418129887304E+01   -0.41813E+01   -0.13584E+03  1728   0.150E+02
DAV:   2    -0.446604403708E+01   -0.28475E+00   -0.28393E+00  1692   0.823E+00
DAV:   3    -0.446622615971E+01   -0.18212E-03   -0.18212E-03  1932   0.169E-01
DAV:   4    -0.446622616640E+01   -0.66965E-08   -0.63515E-08  1848   0.801E-04
DAV:   5    -0.446622616670E+01   -0.29934E-09   -0.10133E-12  1860   0.151E-06    0.515E+00
DAV:   6    -0.444100717258E+01    0.25219E-01   -0.34775E-03  1440   0.189E-01    0.289E+00
DAV:   7    -0.442582815456E+01    0.15179E-01   -0.75384E-03  1416   0.281E-01    0.181E-01
DAV:   8    -0.442573790471E+01    0.90250E-04   -0.20011E-05  1848   0.206E-02    0.136E-02
DAV:   9    -0.442573744553E+01    0.45917E-06   -0.71915E-07  1488   0.301E-03
   1 F= -.44257374E+01 E0= -.44234652E+01  d E =-.454452E-02
 writing wavefunctions
a= 3.6
 running on   12 total cores
 distrk:  each k-point on   12 cores,    1 groups
 distr:  one band on    1 cores,   12 groups
 using from now: INCAR     
 vasp.5.4.4.18Apr17-6-g9f103f2a35 (build Mar 30 2023 15:39:25) complex          
  
 POSCAR found :  1 types and       1 ions
 scaLAPACK will be used

 ----------------------------------------------------------------------------- 
|                                                                             |
|           W    W    AA    RRRRR   N    N  II  N    N   GGGG   !!!           |
|           W    W   A  A   R    R  NN   N  II  NN   N  G    G  !!!           |
|           W    W  A    A  R    R  N N  N  II  N N  N  G       !!!           |
|           W WW W  AAAAAA  RRRRR   N  N N  II  N  N N  G  GGG   !            |
|           WW  WW  A    A  R   R   N   NN  II  N   NN  G    G                |
|           W    W  A    A  R    R  N    N  II  N    N   GGGG   !!!           |
|                                                                             |
|      For optimal performance we recommend to set                            |
|        NCORE= 4 - approx SQRT( number of cores)                             |
|      NCORE specifies how many cores store one orbital (NPAR=cpu/NCORE).     |
|      This setting can  greatly improve the performance of VASP for DFT.     |
|      The default,   NCORE=1            might be grossly inefficient         |
|      on modern multi-core architectures or massively parallel machines.     |
|      Do your own testing !!!!                                               |
|      Unfortunately you need to use the default for GW and RPA calculations. |
|      (for HF NCORE is supported but not extensively tested yet)             |
|                                                                             |
 ----------------------------------------------------------------------------- 

 LDA part: xc-table for Pade appr. of Perdew
 POSCAR, INCAR and KPOINTS ok, starting setup
 FFT: planning ...
 WAVECAR not read
 entering main loop
       N       E                     dE             d eps       ncg     rms          rms(c)
DAV:   1    -0.435146778954E+01   -0.43515E+01   -0.12389E+03  1728   0.141E+02
DAV:   2    -0.469335022694E+01   -0.34188E+00   -0.34172E+00  1860   0.867E+00
DAV:   3    -0.469357332272E+01   -0.22310E-03   -0.22310E-03  1740   0.189E-01
DAV:   4    -0.469357333032E+01   -0.76036E-08   -0.74494E-08  2040   0.106E-03
DAV:   5    -0.469357332972E+01    0.60217E-09   -0.11753E-13  1692   0.120E-06    0.443E+00
DAV:   6    -0.467365667336E+01    0.19917E-01   -0.34002E-03  1488   0.181E-01    0.249E+00
DAV:   7    -0.466163111965E+01    0.12026E-01   -0.73617E-03  1476   0.269E-01    0.164E-01
DAV:   8    -0.466156027469E+01    0.70845E-04   -0.20814E-05  1824   0.208E-02    0.128E-02
DAV:   9    -0.466156008392E+01    0.19077E-06   -0.54837E-07  1524   0.259E-03
   1 F= -.46615601E+01 E0= -.46601305E+01  d E =-.285925E-02
 writing wavefunctions
a= 3.7
 running on   12 total cores
 distrk:  each k-point on   12 cores,    1 groups
 distr:  one band on    1 cores,   12 groups
 using from now: INCAR     
 vasp.5.4.4.18Apr17-6-g9f103f2a35 (build Mar 30 2023 15:39:25) complex          
  
 POSCAR found :  1 types and       1 ions
 scaLAPACK will be used

 ----------------------------------------------------------------------------- 
|                                                                             |
|           W    W    AA    RRRRR   N    N  II  N    N   GGGG   !!!           |
|           W    W   A  A   R    R  NN   N  II  NN   N  G    G  !!!           |
|           W    W  A    A  R    R  N N  N  II  N N  N  G       !!!           |
|           W WW W  AAAAAA  RRRRR   N  N N  II  N  N N  G  GGG   !            |
|           WW  WW  A    A  R   R   N   NN  II  N   NN  G    G                |
|           W    W  A    A  R    R  N    N  II  N    N   GGGG   !!!           |
|                                                                             |
|      For optimal performance we recommend to set                            |
|        NCORE= 4 - approx SQRT( number of cores)                             |
|      NCORE specifies how many cores store one orbital (NPAR=cpu/NCORE).     |
|      This setting can  greatly improve the performance of VASP for DFT.     |
|      The default,   NCORE=1            might be grossly inefficient         |
|      on modern multi-core architectures or massively parallel machines.     |
|      Do your own testing !!!!                                               |
|      Unfortunately you need to use the default for GW and RPA calculations. |
|      (for HF NCORE is supported but not extensively tested yet)             |
|                                                                             |
 ----------------------------------------------------------------------------- 

 LDA part: xc-table for Pade appr. of Perdew
 POSCAR, INCAR and KPOINTS ok, starting setup
 FFT: planning ...
 WAVECAR not read
 entering main loop
       N       E                     dE             d eps       ncg     rms          rms(c)
DAV:   1    -0.438301355417E+01   -0.43830E+01   -0.12730E+03  1704   0.141E+02
DAV:   2    -0.482475969399E+01   -0.44175E+00   -0.43345E+00  1860   0.912E+00
DAV:   3    -0.482518640274E+01   -0.42671E-03   -0.42669E-03  1740   0.241E-01
DAV:   4    -0.482518645287E+01   -0.50138E-07   -0.48451E-07  2112   0.209E-03
DAV:   5    -0.482518645267E+01    0.19955E-09   -0.57236E-12  1704   0.426E-06    0.384E+00
DAV:   6    -0.480819628589E+01    0.16990E-01   -0.37606E-03  1464   0.183E-01    0.214E+00
DAV:   7    -0.479815837945E+01    0.10038E-01   -0.77763E-03  1476   0.265E-01    0.149E-01
DAV:   8    -0.479809925080E+01    0.59129E-04   -0.20763E-05  1764   0.220E-02    0.152E-02
DAV:   9    -0.479809939646E+01   -0.14566E-06   -0.43076E-07  1596   0.234E-03
   1 F= -.47980994E+01 E0= -.47960429E+01  d E =-.411307E-02
 writing wavefunctions
a= 3.8
 running on   12 total cores
 distrk:  each k-point on   12 cores,    1 groups
 distr:  one band on    1 cores,   12 groups
 using from now: INCAR     
 vasp.5.4.4.18Apr17-6-g9f103f2a35 (build Mar 30 2023 15:39:25) complex          
  
 POSCAR found :  1 types and       1 ions
 scaLAPACK will be used

 ----------------------------------------------------------------------------- 
|                                                                             |
|           W    W    AA    RRRRR   N    N  II  N    N   GGGG   !!!           |
|           W    W   A  A   R    R  NN   N  II  NN   N  G    G  !!!           |
|           W    W  A    A  R    R  N N  N  II  N N  N  G       !!!           |
|           W WW W  AAAAAA  RRRRR   N  N N  II  N  N N  G  GGG   !            |
|           WW  WW  A    A  R   R   N   NN  II  N   NN  G    G                |
|           W    W  A    A  R    R  N    N  II  N    N   GGGG   !!!           |
|                                                                             |
|      For optimal performance we recommend to set                            |
|        NCORE= 4 - approx SQRT( number of cores)                             |
|      NCORE specifies how many cores store one orbital (NPAR=cpu/NCORE).     |
|      This setting can  greatly improve the performance of VASP for DFT.     |
|      The default,   NCORE=1            might be grossly inefficient         |
|      on modern multi-core architectures or massively parallel machines.     |
|      Do your own testing !!!!                                               |
|      Unfortunately you need to use the default for GW and RPA calculations. |
|      (for HF NCORE is supported but not extensively tested yet)             |
|                                                                             |
 ----------------------------------------------------------------------------- 

 LDA part: xc-table for Pade appr. of Perdew
 POSCAR, INCAR and KPOINTS ok, starting setup
 FFT: planning ...
 WAVECAR not read
 entering main loop
       N       E                     dE             d eps       ncg     rms          rms(c)
DAV:   1    -0.455667952969E+01   -0.45567E+01   -0.11894E+03  1776   0.139E+02
DAV:   2    -0.488728202957E+01   -0.33060E+00   -0.32984E+00  1836   0.841E+00
DAV:   3    -0.488751483805E+01   -0.23281E-03   -0.23281E-03  1716   0.197E-01
DAV:   4    -0.488751487321E+01   -0.35154E-07   -0.33905E-07  2100   0.169E-03
DAV:   5    -0.488751487368E+01   -0.46917E-09    0.29986E-13  1692   0.167E-06    0.335E+00
DAV:   6    -0.487305057801E+01    0.14464E-01   -0.38962E-03  1488   0.183E-01    0.186E+00
DAV:   7    -0.486466589005E+01    0.83847E-02   -0.78046E-03  1500   0.259E-01    0.138E-01
DAV:   8    -0.486461751255E+01    0.48378E-04   -0.21001E-05  1776   0.223E-02    0.154E-02
DAV:   9    -0.486461794415E+01   -0.43160E-06   -0.29238E-07  1644   0.202E-03
   1 F= -.48646179E+01 E0= -.48631198E+01  d E =-.299633E-02
 writing wavefunctions
a= 3.9
 running on   12 total cores
 distrk:  each k-point on   12 cores,    1 groups
 distr:  one band on    1 cores,   12 groups
 using from now: INCAR     
 vasp.5.4.4.18Apr17-6-g9f103f2a35 (build Mar 30 2023 15:39:25) complex          
  
 POSCAR found :  1 types and       1 ions
 scaLAPACK will be used

 ----------------------------------------------------------------------------- 
|                                                                             |
|           W    W    AA    RRRRR   N    N  II  N    N   GGGG   !!!           |
|           W    W   A  A   R    R  NN   N  II  NN   N  G    G  !!!           |
|           W    W  A    A  R    R  N N  N  II  N N  N  G       !!!           |
|           W WW W  AAAAAA  RRRRR   N  N N  II  N  N N  G  GGG   !            |
|           WW  WW  A    A  R   R   N   NN  II  N   NN  G    G                |
|           W    W  A    A  R    R  N    N  II  N    N   GGGG   !!!           |
|                                                                             |
|      For optimal performance we recommend to set                            |
|        NCORE= 4 - approx SQRT( number of cores)                             |
|      NCORE specifies how many cores store one orbital (NPAR=cpu/NCORE).     |
|      This setting can  greatly improve the performance of VASP for DFT.     |
|      The default,   NCORE=1            might be grossly inefficient         |
|      on modern multi-core architectures or massively parallel machines.     |
|      Do your own testing !!!!                                               |
|      Unfortunately you need to use the default for GW and RPA calculations. |
|      (for HF NCORE is supported but not extensively tested yet)             |
|                                                                             |
 ----------------------------------------------------------------------------- 

 LDA part: xc-table for Pade appr. of Perdew
 POSCAR, INCAR and KPOINTS ok, starting setup
 FFT: planning ...
 WAVECAR not read
 entering main loop
       N       E                     dE             d eps       ncg     rms          rms(c)
DAV:   1    -0.449752517772E+01   -0.44975E+01   -0.12286E+03  1680   0.144E+02
DAV:   2    -0.489726876739E+01   -0.39974E+00   -0.39754E+00  1896   0.894E+00
DAV:   3    -0.489759920748E+01   -0.33044E-03   -0.33044E-03  1644   0.240E-01
DAV:   4    -0.489759925411E+01   -0.46630E-07   -0.46343E-07  2244   0.242E-03
DAV:   5    -0.489759925321E+01    0.89932E-09    0.28271E-13  1596   0.245E-06    0.295E+00
DAV:   6    -0.488476740758E+01    0.12832E-01   -0.40822E-03  1524   0.185E-01    0.163E+00
DAV:   7    -0.487750713928E+01    0.72603E-02   -0.79702E-03  1488   0.258E-01    0.131E-01
DAV:   8    -0.487746929138E+01    0.37848E-04   -0.22971E-05  1752   0.242E-02    0.155E-02
DAV:   9    -0.487746989612E+01   -0.60474E-06   -0.28296E-07  1836   0.207E-03
   1 F= -.48774699E+01 E0= -.48759390E+01  d E =-.306188E-02
 writing wavefunctions
a= 4.0
 running on   12 total cores
 distrk:  each k-point on   12 cores,    1 groups
 distr:  one band on    1 cores,   12 groups
 using from now: INCAR     
 vasp.5.4.4.18Apr17-6-g9f103f2a35 (build Mar 30 2023 15:39:25) complex          
  
 POSCAR found :  1 types and       1 ions
 scaLAPACK will be used

 ----------------------------------------------------------------------------- 
|                                                                             |
|           W    W    AA    RRRRR   N    N  II  N    N   GGGG   !!!           |
|           W    W   A  A   R    R  NN   N  II  NN   N  G    G  !!!           |
|           W    W  A    A  R    R  N N  N  II  N N  N  G       !!!           |
|           W WW W  AAAAAA  RRRRR   N  N N  II  N  N N  G  GGG   !            |
|           WW  WW  A    A  R   R   N   NN  II  N   NN  G    G                |
|           W    W  A    A  R    R  N    N  II  N    N   GGGG   !!!           |
|                                                                             |
|      For optimal performance we recommend to set                            |
|        NCORE= 4 - approx SQRT( number of cores)                             |
|      NCORE specifies how many cores store one orbital (NPAR=cpu/NCORE).     |
|      This setting can  greatly improve the performance of VASP for DFT.     |
|      The default,   NCORE=1            might be grossly inefficient         |
|      on modern multi-core architectures or massively parallel machines.     |
|      Do your own testing !!!!                                               |
|      Unfortunately you need to use the default for GW and RPA calculations. |
|      (for HF NCORE is supported but not extensively tested yet)             |
|                                                                             |
 ----------------------------------------------------------------------------- 

 LDA part: xc-table for Pade appr. of Perdew
 POSCAR, INCAR and KPOINTS ok, starting setup
 FFT: planning ...
 WAVECAR not read
 entering main loop
       N       E                     dE             d eps       ncg     rms          rms(c)
DAV:   1    -0.444799206886E+01   -0.44480E+01   -0.11843E+03  1620   0.138E+02
DAV:   2    -0.486592221261E+01   -0.41793E+00   -0.41593E+00  1944   0.909E+00
DAV:   3    -0.486627625237E+01   -0.35404E-03   -0.35403E-03  1680   0.254E-01
DAV:   4    -0.486627630718E+01   -0.54810E-07   -0.54693E-07  2208   0.268E-03
DAV:   5    -0.486627630743E+01   -0.25494E-09   -0.29760E-12  1632   0.451E-06    0.259E+00
DAV:   6    -0.485504831861E+01    0.11228E-01   -0.41215E-03  1536   0.184E-01    0.143E+00
DAV:   7    -0.484881488773E+01    0.62334E-02   -0.79303E-03  1560   0.255E-01    0.125E-01
DAV:   8    -0.484878790061E+01    0.26987E-04   -0.25903E-05  1716   0.256E-02    0.163E-02
DAV:   9    -0.484878875442E+01   -0.85381E-06   -0.19690E-07  1992   0.191E-03
   1 F= -.48487888E+01 E0= -.48481543E+01  d E =-.126897E-02
 writing wavefunctions
a= 4.1
 running on   12 total cores
 distrk:  each k-point on   12 cores,    1 groups
 distr:  one band on    1 cores,   12 groups
 using from now: INCAR     
 vasp.5.4.4.18Apr17-6-g9f103f2a35 (build Mar 30 2023 15:39:25) complex          
  
 POSCAR found :  1 types and       1 ions
 scaLAPACK will be used

 ----------------------------------------------------------------------------- 
|                                                                             |
|           W    W    AA    RRRRR   N    N  II  N    N   GGGG   !!!           |
|           W    W   A  A   R    R  NN   N  II  NN   N  G    G  !!!           |
|           W    W  A    A  R    R  N N  N  II  N N  N  G       !!!           |
|           W WW W  AAAAAA  RRRRR   N  N N  II  N  N N  G  GGG   !            |
|           WW  WW  A    A  R   R   N   NN  II  N   NN  G    G                |
|           W    W  A    A  R    R  N    N  II  N    N   GGGG   !!!           |
|                                                                             |
|      For optimal performance we recommend to set                            |
|        NCORE= 4 - approx SQRT( number of cores)                             |
|      NCORE specifies how many cores store one orbital (NPAR=cpu/NCORE).     |
|      This setting can  greatly improve the performance of VASP for DFT.     |
|      The default,   NCORE=1            might be grossly inefficient         |
|      on modern multi-core architectures or massively parallel machines.     |
|      Do your own testing !!!!                                               |
|      Unfortunately you need to use the default for GW and RPA calculations. |
|      (for HF NCORE is supported but not extensively tested yet)             |
|                                                                             |
 ----------------------------------------------------------------------------- 

 LDA part: xc-table for Pade appr. of Perdew
 POSCAR, INCAR and KPOINTS ok, starting setup
 FFT: planning ...
 WAVECAR not read
 entering main loop
       N       E                     dE             d eps       ncg     rms          rms(c)
DAV:   1    -0.435372174799E+01   -0.43537E+01   -0.11060E+03  1656   0.139E+02
DAV:   2    -0.480082879171E+01   -0.44711E+00   -0.43209E+00  1896   0.909E+00
DAV:   3    -0.480167152499E+01   -0.84273E-03   -0.84273E-03  1680   0.311E-01
DAV:   4    -0.480167175405E+01   -0.22906E-06   -0.22915E-06  2184   0.400E-03
DAV:   5    -0.480167175375E+01    0.30290E-09   -0.25029E-12  1680   0.562E-06    0.226E+00
DAV:   6    -0.479107886222E+01    0.10593E-01   -0.44226E-03  1476   0.190E-01    0.124E+00
DAV:   7    -0.478532411701E+01    0.57547E-02   -0.84382E-03  1608   0.261E-01    0.125E-01
DAV:   8    -0.478530638645E+01    0.17731E-04   -0.28425E-05  1644   0.265E-02    0.157E-02
DAV:   9    -0.478530738912E+01   -0.10027E-05   -0.26677E-07  2040   0.219E-03    0.196E-03
DAV:  10    -0.478530706735E+01    0.32177E-06   -0.83218E-09  1464   0.338E-04
   1 F= -.47853071E+01 E0= -.47845289E+01  d E =-.155634E-02
 writing wavefunctions
a= 4.2
 running on   12 total cores
 distrk:  each k-point on   12 cores,    1 groups
 distr:  one band on    1 cores,   12 groups
 using from now: INCAR     
 vasp.5.4.4.18Apr17-6-g9f103f2a35 (build Mar 30 2023 15:39:25) complex          
  
 POSCAR found :  1 types and       1 ions
 scaLAPACK will be used

 ----------------------------------------------------------------------------- 
|                                                                             |
|           W    W    AA    RRRRR   N    N  II  N    N   GGGG   !!!           |
|           W    W   A  A   R    R  NN   N  II  NN   N  G    G  !!!           |
|           W    W  A    A  R    R  N N  N  II  N N  N  G       !!!           |
|           W WW W  AAAAAA  RRRRR   N  N N  II  N  N N  G  GGG   !            |
|           WW  WW  A    A  R   R   N   NN  II  N   NN  G    G                |
|           W    W  A    A  R    R  N    N  II  N    N   GGGG   !!!           |
|                                                                             |
|      For optimal performance we recommend to set                            |
|        NCORE= 4 - approx SQRT( number of cores)                             |
|      NCORE specifies how many cores store one orbital (NPAR=cpu/NCORE).     |
|      This setting can  greatly improve the performance of VASP for DFT.     |
|      The default,   NCORE=1            might be grossly inefficient         |
|      on modern multi-core architectures or massively parallel machines.     |
|      Do your own testing !!!!                                               |
|      Unfortunately you need to use the default for GW and RPA calculations. |
|      (for HF NCORE is supported but not extensively tested yet)             |
|                                                                             |
 ----------------------------------------------------------------------------- 

 LDA part: xc-table for Pade appr. of Perdew
 POSCAR, INCAR and KPOINTS ok, starting setup
 FFT: planning ...
 WAVECAR not read
 entering main loop
       N       E                     dE             d eps       ncg     rms          rms(c)
DAV:   1    -0.420024656494E+01   -0.42002E+01   -0.11317E+03  1680   0.139E+02
DAV:   2    -0.470827704820E+01   -0.50803E+00   -0.50123E+00  1800   0.924E+00
DAV:   3    -0.470912720537E+01   -0.85016E-03   -0.85004E-03  1800   0.354E-01
DAV:   4    -0.470912745846E+01   -0.25308E-06   -0.25345E-06  2100   0.512E-03
DAV:   5    -0.470912745940E+01   -0.94165E-09   -0.65013E-12  1776   0.655E-06    0.198E+00
DAV:   6    -0.469903370193E+01    0.10094E-01   -0.47202E-03  1488   0.196E-01    0.107E+00
DAV:   7    -0.469373395759E+01    0.52997E-02   -0.88498E-03  1536   0.266E-01    0.124E-01
DAV:   8    -0.469372637691E+01    0.75807E-05   -0.33039E-05  1668   0.286E-02    0.152E-02
DAV:   9    -0.469372767229E+01   -0.12954E-05   -0.30596E-07  2088   0.244E-03    0.237E-03
DAV:  10    -0.469372739679E+01    0.27549E-06   -0.93146E-09  1416   0.368E-04
   1 F= -.46937274E+01 E0= -.46922855E+01  d E =-.288389E-02
 writing wavefunctions
a= 4.3
 running on   12 total cores
 distrk:  each k-point on   12 cores,    1 groups
 distr:  one band on    1 cores,   12 groups
 using from now: INCAR     
 vasp.5.4.4.18Apr17-6-g9f103f2a35 (build Mar 30 2023 15:39:25) complex          
  
 POSCAR found :  1 types and       1 ions
 scaLAPACK will be used

 ----------------------------------------------------------------------------- 
|                                                                             |
|           W    W    AA    RRRRR   N    N  II  N    N   GGGG   !!!           |
|           W    W   A  A   R    R  NN   N  II  NN   N  G    G  !!!           |
|           W    W  A    A  R    R  N N  N  II  N N  N  G       !!!           |
|           W WW W  AAAAAA  RRRRR   N  N N  II  N  N N  G  GGG   !            |
|           WW  WW  A    A  R   R   N   NN  II  N   NN  G    G                |
|           W    W  A    A  R    R  N    N  II  N    N   GGGG   !!!           |
|                                                                             |
|      For optimal performance we recommend to set                            |
|        NCORE= 4 - approx SQRT( number of cores)                             |
|      NCORE specifies how many cores store one orbital (NPAR=cpu/NCORE).     |
|      This setting can  greatly improve the performance of VASP for DFT.     |
|      The default,   NCORE=1            might be grossly inefficient         |
|      on modern multi-core architectures or massively parallel machines.     |
|      Do your own testing !!!!                                               |
|      Unfortunately you need to use the default for GW and RPA calculations. |
|      (for HF NCORE is supported but not extensively tested yet)             |
|                                                                             |
 ----------------------------------------------------------------------------- 

 LDA part: xc-table for Pade appr. of Perdew
 POSCAR, INCAR and KPOINTS ok, starting setup
 FFT: planning ...
 WAVECAR not read
 entering main loop
       N       E                     dE             d eps       ncg     rms          rms(c)
DAV:   1    -0.397693340581E+01   -0.39769E+01   -0.10942E+03  1584   0.136E+02
DAV:   2    -0.459597389467E+01   -0.61904E+00   -0.59900E+00  1884   0.981E+00
DAV:   3    -0.459706968175E+01   -0.10958E-02   -0.10958E-02  1632   0.401E-01
DAV:   4    -0.459707004036E+01   -0.35861E-06   -0.35806E-06  2232   0.640E-03
DAV:   5    -0.459707004000E+01    0.35689E-09   -0.11348E-11  1632   0.915E-06    0.174E+00
DAV:   6    -0.458781397876E+01    0.92561E-02   -0.48100E-03  1512   0.197E-01    0.936E-01
DAV:   7    -0.458315052957E+01    0.46634E-02   -0.88268E-03  1596   0.266E-01    0.118E-01
DAV:   8    -0.458315448542E+01   -0.39558E-05   -0.36187E-05  1656   0.293E-02    0.147E-02
DAV:   9    -0.458315613281E+01   -0.16474E-05   -0.35983E-07  2088   0.275E-03    0.264E-03
DAV:  10    -0.458315591919E+01    0.21362E-06   -0.11565E-08  1440   0.431E-04
   1 F= -.45831559E+01 E0= -.45812230E+01  d E =-.386577E-02
 writing wavefunctions
a= 4.4
 running on   12 total cores
 distrk:  each k-point on   12 cores,    1 groups
 distr:  one band on    1 cores,   12 groups
 using from now: INCAR     
 vasp.5.4.4.18Apr17-6-g9f103f2a35 (build Mar 30 2023 15:39:25) complex          
  
 POSCAR found :  1 types and       1 ions
 scaLAPACK will be used

 ----------------------------------------------------------------------------- 
|                                                                             |
|           W    W    AA    RRRRR   N    N  II  N    N   GGGG   !!!           |
|           W    W   A  A   R    R  NN   N  II  NN   N  G    G  !!!           |
|           W    W  A    A  R    R  N N  N  II  N N  N  G       !!!           |
|           W WW W  AAAAAA  RRRRR   N  N N  II  N  N N  G  GGG   !            |
|           WW  WW  A    A  R   R   N   NN  II  N   NN  G    G                |
|           W    W  A    A  R    R  N    N  II  N    N   GGGG   !!!           |
|                                                                             |
|      For optimal performance we recommend to set                            |
|        NCORE= 4 - approx SQRT( number of cores)                             |
|      NCORE specifies how many cores store one orbital (NPAR=cpu/NCORE).     |
|      This setting can  greatly improve the performance of VASP for DFT.     |
|      The default,   NCORE=1            might be grossly inefficient         |
|      on modern multi-core architectures or massively parallel machines.     |
|      Do your own testing !!!!                                               |
|      Unfortunately you need to use the default for GW and RPA calculations. |
|      (for HF NCORE is supported but not extensively tested yet)             |
|                                                                             |
 ----------------------------------------------------------------------------- 

 LDA part: xc-table for Pade appr. of Perdew
 POSCAR, INCAR and KPOINTS ok, starting setup
 FFT: planning ...
 WAVECAR not read
 entering main loop
       N       E                     dE             d eps       ncg     rms          rms(c)
DAV:   1    -0.388395115196E+01   -0.38840E+01   -0.10922E+03  1512   0.138E+02
DAV:   2    -0.447312719708E+01   -0.58918E+00   -0.58624E+00  1956   0.979E+00
DAV:   3    -0.447406266837E+01   -0.93547E-03   -0.93524E-03  1476   0.394E-01
DAV:   4    -0.447406300062E+01   -0.33225E-06   -0.33277E-06  2364   0.717E-03
DAV:   5    -0.447406300111E+01   -0.48934E-09   -0.83791E-12  1464   0.977E-06    0.154E+00
DAV:   6    -0.446555985612E+01    0.85031E-02   -0.48429E-03  1524   0.198E-01    0.826E-01
DAV:   7    -0.446133930676E+01    0.42205E-02   -0.89771E-03  1536   0.269E-01    0.116E-01
DAV:   8    -0.446135356473E+01   -0.14258E-04   -0.41617E-05  1752   0.307E-02    0.146E-02
DAV:   9    -0.446135542376E+01   -0.18590E-05   -0.44850E-07  2052   0.308E-03    0.260E-03
DAV:  10    -0.446135533100E+01    0.92758E-07   -0.10323E-08  1368   0.434E-04
   1 F= -.44613553E+01 E0= -.44593939E+01  d E =-.392283E-02
 writing wavefunctions
a= 4.5
 running on   12 total cores
 distrk:  each k-point on   12 cores,    1 groups
 distr:  one band on    1 cores,   12 groups
 using from now: INCAR     
 vasp.5.4.4.18Apr17-6-g9f103f2a35 (build Mar 30 2023 15:39:25) complex          
  
 POSCAR found :  1 types and       1 ions
 scaLAPACK will be used

 ----------------------------------------------------------------------------- 
|                                                                             |
|           W    W    AA    RRRRR   N    N  II  N    N   GGGG   !!!           |
|           W    W   A  A   R    R  NN   N  II  NN   N  G    G  !!!           |
|           W    W  A    A  R    R  N N  N  II  N N  N  G       !!!           |
|           W WW W  AAAAAA  RRRRR   N  N N  II  N  N N  G  GGG   !            |
|           WW  WW  A    A  R   R   N   NN  II  N   NN  G    G                |
|           W    W  A    A  R    R  N    N  II  N    N   GGGG   !!!           |
|                                                                             |
|      For optimal performance we recommend to set                            |
|        NCORE= 4 - approx SQRT( number of cores)                             |
|      NCORE specifies how many cores store one orbital (NPAR=cpu/NCORE).     |
|      This setting can  greatly improve the performance of VASP for DFT.     |
|      The default,   NCORE=1            might be grossly inefficient         |
|      on modern multi-core architectures or massively parallel machines.     |
|      Do your own testing !!!!                                               |
|      Unfortunately you need to use the default for GW and RPA calculations. |
|      (for HF NCORE is supported but not extensively tested yet)             |
|                                                                             |
 ----------------------------------------------------------------------------- 

 LDA part: xc-table for Pade appr. of Perdew
 POSCAR, INCAR and KPOINTS ok, starting setup
 FFT: planning ...
 WAVECAR not read
 entering main loop
       N       E                     dE             d eps       ncg     rms          rms(c)
DAV:   1    -0.376212944183E+01   -0.37621E+01   -0.10789E+03  1536   0.136E+02
DAV:   2    -0.433940304249E+01   -0.57727E+00   -0.56805E+00  1956   0.961E+00
DAV:   3    -0.434072969158E+01   -0.13266E-02   -0.13257E-02  1596   0.431E-01
DAV:   4    -0.434073015211E+01   -0.46053E-06   -0.46038E-06  2244   0.766E-03
DAV:   5    -0.434073015210E+01    0.64517E-11   -0.23517E-11  1560   0.139E-05    0.139E+00
DAV:   6    -0.433230240518E+01    0.84277E-02   -0.51597E-03  1548   0.204E-01    0.739E-01
DAV:   7    -0.432822504604E+01    0.40774E-02   -0.96007E-03  1620   0.278E-01    0.117E-01
DAV:   8    -0.432825017506E+01   -0.25129E-04   -0.46901E-05  1680   0.316E-02    0.139E-02
DAV:   9    -0.432825183578E+01   -0.16607E-05   -0.76837E-07  2052   0.392E-03    0.267E-03
DAV:  10    -0.432825117803E+01    0.65775E-06   -0.87730E-09  1368   0.390E-04
   1 F= -.43282512E+01 E0= -.43263727E+01  d E =-.375690E-02
 writing wavefunctions
a= 4.6
 running on   12 total cores
 distrk:  each k-point on   12 cores,    1 groups
 distr:  one band on    1 cores,   12 groups
 using from now: INCAR     
 vasp.5.4.4.18Apr17-6-g9f103f2a35 (build Mar 30 2023 15:39:25) complex          
  
 POSCAR found :  1 types and       1 ions
 scaLAPACK will be used

 ----------------------------------------------------------------------------- 
|                                                                             |
|           W    W    AA    RRRRR   N    N  II  N    N   GGGG   !!!           |
|           W    W   A  A   R    R  NN   N  II  NN   N  G    G  !!!           |
|           W    W  A    A  R    R  N N  N  II  N N  N  G       !!!           |
|           W WW W  AAAAAA  RRRRR   N  N N  II  N  N N  G  GGG   !            |
|           WW  WW  A    A  R   R   N   NN  II  N   NN  G    G                |
|           W    W  A    A  R    R  N    N  II  N    N   GGGG   !!!           |
|                                                                             |
|      For optimal performance we recommend to set                            |
|        NCORE= 4 - approx SQRT( number of cores)                             |
|      NCORE specifies how many cores store one orbital (NPAR=cpu/NCORE).     |
|      This setting can  greatly improve the performance of VASP for DFT.     |
|      The default,   NCORE=1            might be grossly inefficient         |
|      on modern multi-core architectures or massively parallel machines.     |
|      Do your own testing !!!!                                               |
|      Unfortunately you need to use the default for GW and RPA calculations. |
|      (for HF NCORE is supported but not extensively tested yet)             |
|                                                                             |
 ----------------------------------------------------------------------------- 

 LDA part: xc-table for Pade appr. of Perdew
 POSCAR, INCAR and KPOINTS ok, starting setup
 FFT: planning ...
 WAVECAR not read
 entering main loop
       N       E                     dE             d eps       ncg     rms          rms(c)
DAV:   1    -0.351480480704E+01   -0.35148E+01   -0.10653E+03  1500   0.133E+02
DAV:   2    -0.419815635950E+01   -0.68335E+00   -0.67741E+00  2004   0.101E+01
DAV:   3    -0.419964943833E+01   -0.14931E-02   -0.14929E-02  1488   0.468E-01
DAV:   4    -0.419965013719E+01   -0.69886E-06   -0.69842E-06  2340   0.958E-03
DAV:   5    -0.419965013695E+01    0.24318E-09   -0.36409E-11  1452   0.174E-05    0.126E+00
DAV:   6    -0.419123455495E+01    0.84156E-02   -0.54889E-03  1548   0.210E-01    0.668E-01
DAV:   7    -0.418727560910E+01    0.39589E-02   -0.10193E-02  1644   0.287E-01    0.119E-01
DAV:   8    -0.418731279013E+01   -0.37181E-04   -0.52787E-05  1656   0.330E-02    0.118E-02
DAV:   9    -0.418731446296E+01   -0.16728E-05   -0.89938E-07  2148   0.422E-03    0.254E-03
DAV:  10    -0.418731383995E+01    0.62301E-06   -0.10178E-08  1428   0.483E-04
   1 F= -.41873138E+01 E0= -.41858680E+01  d E =-.289174E-02
 writing wavefunctions
a= 4.7
 running on   12 total cores
 distrk:  each k-point on   12 cores,    1 groups
 distr:  one band on    1 cores,   12 groups
 using from now: INCAR     
 vasp.5.4.4.18Apr17-6-g9f103f2a35 (build Mar 30 2023 15:39:25) complex          
  
 POSCAR found :  1 types and       1 ions
 scaLAPACK will be used

 ----------------------------------------------------------------------------- 
|                                                                             |
|           W    W    AA    RRRRR   N    N  II  N    N   GGGG   !!!           |
|           W    W   A  A   R    R  NN   N  II  NN   N  G    G  !!!           |
|           W    W  A    A  R    R  N N  N  II  N N  N  G       !!!           |
|           W WW W  AAAAAA  RRRRR   N  N N  II  N  N N  G  GGG   !            |
|           WW  WW  A    A  R   R   N   NN  II  N   NN  G    G                |
|           W    W  A    A  R    R  N    N  II  N    N   GGGG   !!!           |
|                                                                             |
|      For optimal performance we recommend to set                            |
|        NCORE= 4 - approx SQRT( number of cores)                             |
|      NCORE specifies how many cores store one orbital (NPAR=cpu/NCORE).     |
|      This setting can  greatly improve the performance of VASP for DFT.     |
|      The default,   NCORE=1            might be grossly inefficient         |
|      on modern multi-core architectures or massively parallel machines.     |
|      Do your own testing !!!!                                               |
|      Unfortunately you need to use the default for GW and RPA calculations. |
|      (for HF NCORE is supported but not extensively tested yet)             |
|                                                                             |
 ----------------------------------------------------------------------------- 

 LDA part: xc-table for Pade appr. of Perdew
 POSCAR, INCAR and KPOINTS ok, starting setup
 FFT: planning ...
 WAVECAR not read
 entering main loop
       N       E                     dE             d eps       ncg     rms          rms(c)
DAV:   1    -0.349160975595E+01   -0.34916E+01   -0.98773E+02  1572   0.132E+02
DAV:   2    -0.405250111925E+01   -0.56089E+00   -0.55807E+00  1956   0.940E+00
DAV:   3    -0.405360716903E+01   -0.11060E-02   -0.11060E-02  1440   0.403E-01
DAV:   4    -0.405360768446E+01   -0.51542E-06   -0.51515E-06  2436   0.897E-03
DAV:   5    -0.405360768394E+01    0.51833E-09   -0.12353E-11  1452   0.106E-05    0.115E+00
DAV:   6    -0.404493364202E+01    0.86740E-02   -0.59817E-03  1608   0.218E-01    0.608E-01
DAV:   7    -0.404093805541E+01    0.39956E-02   -0.11184E-02  1632   0.300E-01    0.123E-01
DAV:   8    -0.404099009344E+01   -0.52038E-04   -0.68263E-05  1740   0.367E-02    0.125E-02
DAV:   9    -0.404099225223E+01   -0.21588E-05   -0.11987E-06  2064   0.489E-03    0.264E-03
DAV:  10    -0.404099162977E+01    0.62246E-06   -0.14916E-08  1488   0.615E-04
   1 F= -.40409916E+01 E0= -.40400095E+01  d E =-.196422E-02
 writing wavefunctions
a= 4.8
 running on   12 total cores
 distrk:  each k-point on   12 cores,    1 groups
 distr:  one band on    1 cores,   12 groups
 using from now: INCAR     
 vasp.5.4.4.18Apr17-6-g9f103f2a35 (build Mar 30 2023 15:39:25) complex          
  
 POSCAR found :  1 types and       1 ions
 scaLAPACK will be used

 ----------------------------------------------------------------------------- 
|                                                                             |
|           W    W    AA    RRRRR   N    N  II  N    N   GGGG   !!!           |
|           W    W   A  A   R    R  NN   N  II  NN   N  G    G  !!!           |
|           W    W  A    A  R    R  N N  N  II  N N  N  G       !!!           |
|           W WW W  AAAAAA  RRRRR   N  N N  II  N  N N  G  GGG   !            |
|           WW  WW  A    A  R   R   N   NN  II  N   NN  G    G                |
|           W    W  A    A  R    R  N    N  II  N    N   GGGG   !!!           |
|                                                                             |
|      For optimal performance we recommend to set                            |
|        NCORE= 4 - approx SQRT( number of cores)                             |
|      NCORE specifies how many cores store one orbital (NPAR=cpu/NCORE).     |
|      This setting can  greatly improve the performance of VASP for DFT.     |
|      The default,   NCORE=1            might be grossly inefficient         |
|      on modern multi-core architectures or massively parallel machines.     |
|      Do your own testing !!!!                                               |
|      Unfortunately you need to use the default for GW and RPA calculations. |
|      (for HF NCORE is supported but not extensively tested yet)             |
|                                                                             |
 ----------------------------------------------------------------------------- 

 LDA part: xc-table for Pade appr. of Perdew
 POSCAR, INCAR and KPOINTS ok, starting setup
 FFT: planning ...
 WAVECAR not read
 entering main loop
       N       E                     dE             d eps       ncg     rms          rms(c)
DAV:   1    -0.313554027836E+01   -0.31355E+01   -0.10283E+03  1488   0.133E+02
DAV:   2    -0.390013997007E+01   -0.76460E+00   -0.74818E+00  1944   0.103E+01
DAV:   3    -0.390258278826E+01   -0.24428E-02   -0.24425E-02  1476   0.569E-01
DAV:   4    -0.390258452259E+01   -0.17343E-05   -0.17339E-05  2412   0.145E-02
DAV:   5    -0.390258452203E+01    0.56666E-09   -0.11236E-10  1440   0.252E-05    0.107E+00
DAV:   6    -0.389343169440E+01    0.91528E-02   -0.66585E-03  1572   0.229E-01    0.562E-01
DAV:   7    -0.388931533976E+01    0.41164E-02   -0.12512E-02  1668   0.315E-01    0.128E-01
DAV:   8    -0.388938523276E+01   -0.69893E-04   -0.84895E-05  1692   0.400E-02    0.118E-02
DAV:   9    -0.388938790868E+01   -0.26759E-05   -0.16881E-06  2124   0.576E-03    0.279E-03
DAV:  10    -0.388938737284E+01    0.53585E-06   -0.30600E-08  1584   0.877E-04
   1 F= -.38893874E+01 E0= -.38883256E+01  d E =-.212347E-02
 writing wavefunctions
a= 4.9
 running on   12 total cores
 distrk:  each k-point on   12 cores,    1 groups
 distr:  one band on    1 cores,   12 groups
 using from now: INCAR     
 vasp.5.4.4.18Apr17-6-g9f103f2a35 (build Mar 30 2023 15:39:25) complex          
  
 POSCAR found :  1 types and       1 ions
 scaLAPACK will be used

 ----------------------------------------------------------------------------- 
|                                                                             |
|           W    W    AA    RRRRR   N    N  II  N    N   GGGG   !!!           |
|           W    W   A  A   R    R  NN   N  II  NN   N  G    G  !!!           |
|           W    W  A    A  R    R  N N  N  II  N N  N  G       !!!           |
|           W WW W  AAAAAA  RRRRR   N  N N  II  N  N N  G  GGG   !            |
|           WW  WW  A    A  R   R   N   NN  II  N   NN  G    G                |
|           W    W  A    A  R    R  N    N  II  N    N   GGGG   !!!           |
|                                                                             |
|      For optimal performance we recommend to set                            |
|        NCORE= 4 - approx SQRT( number of cores)                             |
|      NCORE specifies how many cores store one orbital (NPAR=cpu/NCORE).     |
|      This setting can  greatly improve the performance of VASP for DFT.     |
|      The default,   NCORE=1            might be grossly inefficient         |
|      on modern multi-core architectures or massively parallel machines.     |
|      Do your own testing !!!!                                               |
|      Unfortunately you need to use the default for GW and RPA calculations. |
|      (for HF NCORE is supported but not extensively tested yet)             |
|                                                                             |
 ----------------------------------------------------------------------------- 

 LDA part: xc-table for Pade appr. of Perdew
 POSCAR, INCAR and KPOINTS ok, starting setup
 FFT: planning ...
 WAVECAR not read
 entering main loop
       N       E                     dE             d eps       ncg     rms          rms(c)
DAV:   1    -0.293531022286E+01   -0.29353E+01   -0.98992E+02  1524   0.134E+02
DAV:   2    -0.374527076135E+01   -0.80996E+00   -0.80137E+00  2004   0.106E+01
DAV:   3    -0.374778951590E+01   -0.25188E-02   -0.25186E-02  1416   0.589E-01
DAV:   4    -0.374779140523E+01   -0.18893E-05   -0.18894E-05  2316   0.166E-02
DAV:   5    -0.374779140546E+01   -0.23158E-09   -0.42088E-10  1440   0.481E-05    0.100E+00
DAV:   6    -0.373825192706E+01    0.95395E-02   -0.73328E-03  1644   0.239E-01    0.526E-01
DAV:   7    -0.373410583369E+01    0.41461E-02   -0.13719E-02  1584   0.329E-01    0.130E-01
DAV:   8    -0.373419892432E+01   -0.93091E-04   -0.11261E-04  1728   0.449E-02    0.121E-02
DAV:   9    -0.373420251021E+01   -0.35859E-05   -0.24461E-06  2100   0.689E-03    0.317E-03
DAV:  10    -0.373420199986E+01    0.51035E-06   -0.47636E-08  1788   0.108E-03
   1 F= -.37342020E+01 E0= -.37328571E+01  d E =-.268977E-02
 writing wavefunctions
a= 5.0
 running on   12 total cores
 distrk:  each k-point on   12 cores,    1 groups
 distr:  one band on    1 cores,   12 groups
 using from now: INCAR     
 vasp.5.4.4.18Apr17-6-g9f103f2a35 (build Mar 30 2023 15:39:25) complex          
  
 POSCAR found :  1 types and       1 ions
 scaLAPACK will be used

 ----------------------------------------------------------------------------- 
|                                                                             |
|           W    W    AA    RRRRR   N    N  II  N    N   GGGG   !!!           |
|           W    W   A  A   R    R  NN   N  II  NN   N  G    G  !!!           |
|           W    W  A    A  R    R  N N  N  II  N N  N  G       !!!           |
|           W WW W  AAAAAA  RRRRR   N  N N  II  N  N N  G  GGG   !            |
|           WW  WW  A    A  R   R   N   NN  II  N   NN  G    G                |
|           W    W  A    A  R    R  N    N  II  N    N   GGGG   !!!           |
|                                                                             |
|      For optimal performance we recommend to set                            |
|        NCORE= 4 - approx SQRT( number of cores)                             |
|      NCORE specifies how many cores store one orbital (NPAR=cpu/NCORE).     |
|      This setting can  greatly improve the performance of VASP for DFT.     |
|      The default,   NCORE=1            might be grossly inefficient         |
|      on modern multi-core architectures or massively parallel machines.     |
|      Do your own testing !!!!                                               |
|      Unfortunately you need to use the default for GW and RPA calculations. |
|      (for HF NCORE is supported but not extensively tested yet)             |
|                                                                             |
 ----------------------------------------------------------------------------- 

 LDA part: xc-table for Pade appr. of Perdew
 POSCAR, INCAR and KPOINTS ok, starting setup
 FFT: planning ...
 WAVECAR not read
 entering main loop
       N       E                     dE             d eps       ncg     rms          rms(c)
DAV:   1    -0.269240180791E+01   -0.26924E+01   -0.97907E+02  1428   0.132E+02
DAV:   2    -0.358856835470E+01   -0.89617E+00   -0.89004E+00  1968   0.108E+01
DAV:   3    -0.359218938111E+01   -0.36210E-02   -0.36208E-02  1500   0.670E-01
DAV:   4    -0.359219188792E+01   -0.25068E-05   -0.25069E-05  2364   0.173E-02
DAV:   5    -0.359219188832E+01   -0.40374E-09   -0.26771E-10  1476   0.466E-05    0.948E-01
DAV:   6    -0.358248617393E+01    0.97057E-02   -0.79102E-03  1656   0.248E-01    0.498E-01
DAV:   7    -0.357839703937E+01    0.40891E-02   -0.14870E-02  1596   0.342E-01    0.132E-01
DAV:   8    -0.357851680537E+01   -0.11977E-03   -0.14235E-04  1740   0.491E-02    0.122E-02
DAV:   9    -0.357852150207E+01   -0.46967E-05   -0.33725E-06  2040   0.804E-03    0.357E-03
DAV:  10    -0.357852112277E+01    0.37930E-06   -0.82489E-08  1752   0.138E-03
   1 F= -.35785211E+01 E0= -.35772953E+01  d E =-.245159E-02
 writing wavefunctions
3.2 1 F= -.29064930E+01 E0= -.29058916E+01 d E =-.120277E-02
3.3 1 F= -.35930289E+01 E0= -.35926300E+01 d E =-.797729E-03
3.4 1 F= -.40836003E+01 E0= -.40834702E+01 d E =-.260163E-03
3.5 1 F= -.44257374E+01 E0= -.44234652E+01 d E =-.454452E-02
3.6 1 F= -.46615601E+01 E0= -.46601305E+01 d E =-.285925E-02
3.7 1 F= -.47980994E+01 E0= -.47960429E+01 d E =-.411307E-02
3.8 1 F= -.48646179E+01 E0= -.48631198E+01 d E =-.299633E-02
3.9 1 F= -.48774699E+01 E0= -.48759390E+01 d E =-.306188E-02
4.0 1 F= -.48487888E+01 E0= -.48481543E+01 d E =-.126897E-02
4.1 1 F= -.47853071E+01 E0= -.47845289E+01 d E =-.155634E-02
4.2 1 F= -.46937274E+01 E0= -.46922855E+01 d E =-.288389E-02
4.3 1 F= -.45831559E+01 E0= -.45812230E+01 d E =-.386577E-02
4.4 1 F= -.44613553E+01 E0= -.44593939E+01 d E =-.392283E-02
4.5 1 F= -.43282512E+01 E0= -.43263727E+01 d E =-.375690E-02
4.6 1 F= -.41873138E+01 E0= -.41858680E+01 d E =-.289174E-02
4.7 1 F= -.40409916E+01 E0= -.40400095E+01 d E =-.196422E-02
4.8 1 F= -.38893874E+01 E0= -.38883256E+01 d E =-.212347E-02
4.9 1 F= -.37342020E+01 E0= -.37328571E+01 d E =-.268977E-02
5.0 1 F= -.35785211E+01 E0= -.35772953E+01 d E =-.245159E-02
