   8   8   0   0
  0.5796174E+02  0.5174000E-09  0.5174160E-09  0.2000000E-08  0.5000000E-15
  1.000000000000000E-004
  CAR 
 BC3                                     
      5.62476727    -22.30428409  301     -4.22022333      1.00000000
    -22.304  0.0000E+00  0.0000E+00
    -22.211  0.0000E+00  0.0000E+00
    -22.118  0.0000E+00  0.0000E+00
    -22.025  0.0000E+00  0.0000E+00
    -21.932  0.0000E+00  0.0000E+00
    -21.839  0.0000E+00  0.0000E+00
    -21.746  0.0000E+00  0.0000E+00
    -21.653  0.0000E+00  0.0000E+00
    -21.560  0.0000E+00  0.0000E+00
    -21.466  0.0000E+00  0.0000E+00
    -21.373  0.0000E+00  0.0000E+00
    -21.280  0.0000E+00  0.0000E+00
    -21.187  0.0000E+00  0.0000E+00
    -21.094  0.0000E+00  0.0000E+00
    -21.001  0.0000E+00  0.0000E+00
    -20.908  0.0000E+00  0.0000E+00
    -20.815  0.0000E+00  0.0000E+00
    -20.722  0.0000E+00  0.0000E+00
    -20.629  0.0000E+00  0.0000E+00
    -20.535  0.0000E+00  0.0000E+00
    -20.442  0.0000E+00  0.0000E+00
    -20.349  0.0000E+00  0.0000E+00
    -20.256  0.6818E+00  0.1641E-01
    -20.163  0.2001E+01  0.1413E+00
    -20.070  0.2304E+01  0.3847E+00
    -19.977  0.2891E+01  0.6265E+00
    -19.884  0.3478E+01  0.9230E+00
    -19.791  0.4064E+01  0.1274E+01
    -19.698  0.0000E+00  0.2000E+01
    -19.604  0.0000E+00  0.2000E+01
    -19.511  0.0000E+00  0.2000E+01
    -19.418  0.0000E+00  0.2000E+01
    -19.325  0.0000E+00  0.2000E+01
    -19.232  0.0000E+00  0.2000E+01
    -19.139  0.0000E+00  0.2000E+01
    -19.046  0.0000E+00  0.2000E+01
    -18.953  0.0000E+00  0.2000E+01
    -18.860  0.0000E+00  0.2000E+01
    -18.767  0.0000E+00  0.2000E+01
    -18.674  0.0000E+00  0.2000E+01
    -18.580  0.0000E+00  0.2000E+01
    -18.487  0.0000E+00  0.2000E+01
    -18.394  0.0000E+00  0.2000E+01
    -18.301  0.0000E+00  0.2000E+01
    -18.208  0.0000E+00  0.2000E+01
    -18.115  0.0000E+00  0.2000E+01
    -18.022  0.3577E+00  0.2004E+01
    -17.929  0.1952E+01  0.2111E+01
    -17.836  0.3546E+01  0.2367E+01
    -17.743  0.1918E+01  0.2817E+01
    -17.649  0.1836E+01  0.2992E+01
    -17.556  0.1754E+01  0.3159E+01
    -17.463  0.1672E+01  0.3318E+01
    -17.370  0.1590E+01  0.3470E+01
    -17.277  0.3358E+01  0.3841E+01
    -17.184  0.2935E+01  0.4109E+01
    -17.091  0.3136E+01  0.4392E+01
    -16.998  0.3337E+01  0.4693E+01
    -16.905  0.3538E+01  0.5013E+01
    -16.812  0.2799E+01  0.5317E+01
    -16.718  0.1802E+01  0.5531E+01
    -16.625  0.2393E+01  0.5746E+01
    -16.532  0.1343E+01  0.5920E+01
    -16.439  0.2929E+00  0.5996E+01
    -16.346  0.0000E+00  0.6000E+01
    -16.253  0.0000E+00  0.6000E+01
    -16.160  0.0000E+00  0.6000E+01
    -16.067  0.0000E+00  0.6000E+01
    -15.974  0.0000E+00  0.6000E+01
    -15.881  0.0000E+00  0.6000E+01
    -15.788  0.0000E+00  0.6000E+01
    -15.694  0.0000E+00  0.6000E+01
    -15.601  0.0000E+00  0.6000E+01
    -15.508  0.0000E+00  0.6000E+01
    -15.415  0.0000E+00  0.6000E+01
    -15.322  0.0000E+00  0.6000E+01
    -15.229  0.0000E+00  0.6000E+01
    -15.136  0.0000E+00  0.6000E+01
    -15.043  0.0000E+00  0.6000E+01
    -14.950  0.0000E+00  0.6000E+01
    -14.857  0.0000E+00  0.6000E+01
    -14.763  0.0000E+00  0.6000E+01
    -14.670  0.0000E+00  0.6000E+01
    -14.577  0.3631E+00  0.6008E+01
    -14.484  0.1165E+01  0.6079E+01
    -14.391  0.1967E+01  0.6225E+01
    -14.298  0.4883E+01  0.6675E+01
    -14.205  0.3733E+01  0.7076E+01
    -14.112  0.2584E+01  0.7370E+01
    -14.019  0.1929E+01  0.7570E+01
    -13.926  0.1653E+01  0.7737E+01
    -13.832  0.1378E+01  0.7878E+01
    -13.739  0.4378E+00  0.8073E+01
    -13.646  0.5608E+00  0.8119E+01
    -13.553  0.6837E+00  0.8177E+01
    -13.460  0.8066E+00  0.8246E+01
    -13.367  0.9296E+00  0.8327E+01
    -13.274  0.3809E+01  0.8559E+01
    -13.181  0.1939E+01  0.8827E+01
    -13.088  0.2142E+01  0.9147E+01
    -12.995  0.1896E+01  0.9335E+01
    -12.902  0.1708E+01  0.9503E+01
    -12.808  0.1520E+01  0.9653E+01
    -12.715  0.1331E+01  0.9786E+01
    -12.622  0.1143E+01  0.9901E+01
    -12.529  0.9549E+00  0.9999E+01
    -12.436  0.7666E+00  0.1008E+02
    -12.343  0.5783E+00  0.1014E+02
    -12.250  0.5025E+00  0.1019E+02
    -12.157  0.5648E+00  0.1024E+02
    -12.064  0.6270E+00  0.1029E+02
    -11.971  0.6893E+00  0.1036E+02
    -11.877  0.6745E+00  0.1042E+02
    -11.784  0.7021E+00  0.1048E+02
    -11.691  0.7329E+00  0.1055E+02
    -11.598  0.8086E+00  0.1062E+02
    -11.505  0.8844E+00  0.1070E+02
    -11.412  0.9601E+00  0.1079E+02
    -11.319  0.1036E+01  0.1088E+02
    -11.226  0.1112E+01  0.1098E+02
    -11.133  0.1187E+01  0.1109E+02
    -11.040  0.1263E+01  0.1120E+02
    -10.946  0.1339E+01  0.1132E+02
    -10.853  0.1415E+01  0.1145E+02
    -10.760  0.3221E+01  0.1178E+02
    -10.667  0.2491E+01  0.1205E+02
    -10.574  0.1761E+01  0.1224E+02
    -10.481  0.2149E+01  0.1239E+02
    -10.388  0.2577E+01  0.1260E+02
    -10.295  0.3406E+01  0.1288E+02
    -10.202  0.3942E+01  0.1323E+02
    -10.109  0.3865E+01  0.1359E+02
    -10.016  0.0000E+00  0.1400E+02
     -9.922  0.0000E+00  0.1400E+02
     -9.829  0.0000E+00  0.1400E+02
     -9.736  0.0000E+00  0.1400E+02
     -9.643  0.0000E+00  0.1400E+02
     -9.550  0.1181E+01  0.1404E+02
     -9.457  0.2675E+01  0.1422E+02
     -9.364  0.5848E+01  0.1476E+02
     -9.271  0.4409E+01  0.1524E+02
     -9.178  0.2970E+01  0.1559E+02
     -9.085  0.1713E+01  0.1580E+02
     -8.991  0.0000E+00  0.1600E+02
     -8.898  0.0000E+00  0.1600E+02
     -8.805  0.3150E+01  0.1613E+02
     -8.712  0.1296E+01  0.1642E+02
     -8.619  0.1421E+01  0.1655E+02
     -8.526  0.1547E+01  0.1668E+02
     -8.433  0.1673E+01  0.1683E+02
     -8.340  0.1798E+01  0.1700E+02
     -8.247  0.1924E+01  0.1717E+02
     -8.154  0.2050E+01  0.1735E+02
     -8.060  0.8310E+01  0.1839E+02
     -7.967  0.4075E+01  0.1888E+02
     -7.874  0.3265E+01  0.1922E+02
     -7.781  0.2456E+01  0.1949E+02
     -7.688  0.1336E+01  0.1967E+02
     -7.595  0.2094E+01  0.1983E+02
     -7.502  0.2851E+01  0.2006E+02
     -7.409  0.3608E+01  0.2036E+02
     -7.316  0.1988E+01  0.2075E+02
     -7.223  0.1874E+01  0.2093E+02
     -7.129  0.1760E+01  0.2110E+02
     -7.036  0.1882E+01  0.2126E+02
     -6.943  0.2425E+01  0.2146E+02
     -6.850  0.2969E+01  0.2171E+02
     -6.757  0.6623E+01  0.2231E+02
     -6.664  0.2864E+01  0.2258E+02
     -6.571  0.1210E+01  0.2285E+02
     -6.478  0.2466E+01  0.2355E+02
     -6.385  0.2377E+01  0.2377E+02
     -6.292  0.2288E+01  0.2399E+02
     -6.199  0.2199E+01  0.2420E+02
     -6.105  0.2110E+01  0.2440E+02
     -6.012  0.3351E+01  0.2473E+02
     -5.919  0.3374E+01  0.2505E+02
     -5.826  0.4363E+01  0.2553E+02
     -5.733  0.4437E+01  0.2594E+02
     -5.640  0.4511E+01  0.2636E+02
     -5.547  0.4585E+01  0.2678E+02
     -5.454  0.4657E+01  0.2721E+02
     -5.361  0.5085E+01  0.2766E+02
     -5.268  0.4530E+01  0.2811E+02
     -5.174  0.3938E+01  0.2851E+02
     -5.081  0.3037E+01  0.2883E+02
     -4.988  0.2411E+01  0.2909E+02
     -4.895  0.1752E+01  0.2928E+02
     -4.802  0.1396E+01  0.2942E+02
     -4.709  0.1757E+01  0.2958E+02
     -4.616  0.1412E+01  0.2973E+02
     -4.523  0.1067E+01  0.2985E+02
     -4.430  0.7220E+00  0.2993E+02
     -4.337  0.3771E+00  0.2998E+02
     -4.243  0.3218E-01  0.3000E+02
     -4.150  0.0000E+00  0.3000E+02
     -4.057  0.0000E+00  0.3000E+02
     -3.964  0.0000E+00  0.3000E+02
     -3.871  0.0000E+00  0.3000E+02
     -3.778  0.0000E+00  0.3000E+02
     -3.685  0.0000E+00  0.3000E+02
     -3.592  0.2668E-01  0.3000E+02
     -3.499  0.5161E+00  0.3003E+02
     -3.406  0.1005E+01  0.3010E+02
     -3.313  0.1495E+01  0.3021E+02
     -3.219  0.3844E+01  0.3043E+02
     -3.126  0.3394E+01  0.3076E+02
     -3.033  0.2944E+01  0.3106E+02
     -2.940  0.2494E+01  0.3131E+02
     -2.847  0.2044E+01  0.3152E+02
     -2.754  0.1594E+01  0.3169E+02
     -2.661  0.1144E+01  0.3182E+02
     -2.568  0.1687E+00  0.3199E+02
     -2.475  0.6859E-01  0.3200E+02
     -2.382  0.0000E+00  0.3200E+02
     -2.288  0.0000E+00  0.3200E+02
     -2.195  0.0000E+00  0.3200E+02
     -2.102  0.0000E+00  0.3200E+02
     -2.009  0.0000E+00  0.3200E+02
     -1.916  0.0000E+00  0.3200E+02
     -1.823  0.0000E+00  0.3200E+02
     -1.730  0.0000E+00  0.3200E+02
     -1.637  0.0000E+00  0.3200E+02
     -1.544  0.0000E+00  0.3200E+02
     -1.451  0.0000E+00  0.3200E+02
     -1.357  0.0000E+00  0.3200E+02
     -1.264  0.0000E+00  0.3200E+02
     -1.171  0.0000E+00  0.3200E+02
     -1.078  0.0000E+00  0.3200E+02
     -0.985  0.6516E+00  0.3215E+02
     -0.892  0.8502E+00  0.3222E+02
     -0.799  0.1049E+01  0.3230E+02
     -0.706  0.1247E+01  0.3241E+02
     -0.613  0.1663E+01  0.3254E+02
     -0.520  0.2257E+01  0.3272E+02
     -0.427  0.2851E+01  0.3296E+02
     -0.333  0.3445E+01  0.3326E+02
     -0.240  0.4040E+01  0.3360E+02
     -0.147  0.1507E+01  0.3383E+02
     -0.054  0.1300E+01  0.3396E+02
      0.039  0.1144E+01  0.3407E+02
      0.132  0.1024E+01  0.3417E+02
      0.225  0.9043E+00  0.3426E+02
      0.318  0.9045E+00  0.3434E+02
      0.411  0.1048E+01  0.3443E+02
      0.504  0.1179E+01  0.3454E+02
      0.598  0.1451E+01  0.3466E+02
      0.691  0.1724E+01  0.3481E+02
      0.784  0.1996E+01  0.3498E+02
      0.877  0.1930E+01  0.3518E+02
      0.970  0.2151E+01  0.3537E+02
      1.063  0.2373E+01  0.3558E+02
      1.156  0.2539E+01  0.3581E+02
      1.249  0.2604E+01  0.3605E+02
      1.342  0.2840E+01  0.3630E+02
      1.435  0.2889E+01  0.3657E+02
      1.529  0.3371E+01  0.3686E+02
      1.622  0.3974E+01  0.3720E+02
      1.715  0.4577E+01  0.3760E+02
      1.808  0.4070E+01  0.3817E+02
      1.901  0.4040E+01  0.3855E+02
      1.994  0.3493E+01  0.3889E+02
      2.087  0.3728E+01  0.3923E+02
      2.180  0.3962E+01  0.3959E+02
      2.273  0.5238E+01  0.3998E+02
      2.366  0.9199E+01  0.4065E+02
      2.459  0.3330E+01  0.4110E+02
      2.553  0.3631E+01  0.4142E+02
      2.646  0.4050E+01  0.4178E+02
      2.739  0.4469E+01  0.4218E+02
      2.832  0.4887E+01  0.4261E+02
      2.925  0.4388E+01  0.4316E+02
      3.018  0.6392E+01  0.4447E+02
      3.111  0.2757E+01  0.4472E+02
      3.204  0.3495E+01  0.4501E+02
      3.297  0.4234E+01  0.4537E+02
      3.390  0.9010E+01  0.4612E+02
      3.484  0.7613E+01  0.4690E+02
      3.577  0.6216E+01  0.4754E+02
      3.670  0.0000E+00  0.4800E+02
      3.763  0.0000E+00  0.4800E+02
      3.856  0.0000E+00  0.4800E+02
      3.949  0.0000E+00  0.4800E+02
      4.042  0.0000E+00  0.4800E+02
      4.135  0.0000E+00  0.4800E+02
      4.228  0.0000E+00  0.4800E+02
      4.321  0.0000E+00  0.4800E+02
      4.415  0.0000E+00  0.4800E+02
      4.508  0.0000E+00  0.4800E+02
      4.601  0.0000E+00  0.4800E+02
      4.694  0.0000E+00  0.4800E+02
      4.787  0.0000E+00  0.4800E+02
      4.880  0.0000E+00  0.4800E+02
      4.973  0.0000E+00  0.4800E+02
      5.066  0.0000E+00  0.4800E+02
      5.159  0.0000E+00  0.4800E+02
      5.252  0.0000E+00  0.4800E+02
      5.345  0.0000E+00  0.4800E+02
      5.439  0.0000E+00  0.4800E+02
      5.532  0.0000E+00  0.4800E+02
      5.625  0.0000E+00  0.4800E+02
