    8    8    1    1
  0.5796174E+02  0.5174000E-09  0.5174160E-09  0.2000000E-08  0.5000000E-15
  1.000000000000000E-004
  CAR 
 BC3                                     
     30      7     24
 
  0.0000000E+00  0.0000000E+00  0.0000000E+00  0.6250000E-01
    1      -20.304284   1.000000
    2      -16.413720   1.000000
    3      -16.413168   1.000000
    4      -14.071411   1.000000
    5      -14.070962   1.000000
    6      -13.001408   1.000000
    7      -11.697530   1.000000
    8       -9.110918   1.000000
    9       -8.886385   1.000000
   10       -6.744291   1.000000
   11       -6.743338   1.000000
   12       -4.910360   1.000000
   13       -4.910302   1.000000
   14       -4.236559   1.000000
   15       -4.234058   1.000000
   16       -2.410886   0.000000
   17       -0.663953   0.000000
   18       -0.663520   0.000000
   19       -0.015742   0.000000
   20        0.413459   0.000000
   21        1.263841   0.000000
   22        1.470699   0.000000
   23        2.494505   0.000000
   24        2.842859   0.000000
 
  0.2500000E+00 -0.5551115E-16  0.0000000E+00  0.2500000E+00
    1      -20.074169   1.000000
    2      -17.270096   1.000000
    3      -16.683474   1.000000
    4      -14.376303   1.000000
    5      -13.317114   1.000000
    6      -11.942408   1.000000
    7      -10.493894   1.000000
    8       -9.441049   1.000000
    9       -8.747378   1.000000
   10       -7.719471   1.000000
   11       -6.791464   1.000000
   12       -5.856926   1.000000
   13       -5.405652   1.000000
   14       -5.055065   1.000000
   15       -4.772210   1.000000
   16       -3.246157   0.000000
   17       -0.210381   0.000000
   18        0.454179   0.000000
   19        0.876423   0.000000
   20        1.427651   0.000000
   21        1.851551   0.000000
   22        1.938340   0.000000
   23        2.966631   0.000000
   24        3.309900   0.000000
 
  0.5000000E+00 -0.1110223E-15  0.0000000E+00  0.1250000E+00
    1      -19.729507   1.000000
    2      -18.042944   1.000000
    3      -16.884547   1.000000
    4      -14.619428   1.000000
    5      -12.291202   1.000000
    6      -10.433365   1.000000
    7      -10.231662   1.000000
    8       -9.623647   1.000000
    9       -8.018858   1.000000
   10       -8.001751   1.000000
   11       -7.754562   1.000000
   12       -7.069811   1.000000
   13       -6.529643   1.000000
   14       -5.454133   1.000000
   15       -5.184770   1.000000
   16       -3.597159   0.000000
   17        0.276048   0.000000
   18        1.123463   0.000000
   19        2.247407   0.000000
   20        2.250497   0.000000
   21        2.975525   0.000000
   22        3.027985   0.000000
   23        3.338638   0.000000
   24        3.338889   0.000000
 
  0.0000000E+00  0.2500000E+00  0.0000000E+00  0.1250000E+00
    1      -20.074237   1.000000
    2      -17.269590   1.000000
    3      -16.683809   1.000000
    4      -14.376216   1.000000
    5      -13.317701   1.000000
    6      -11.942058   1.000000
    7      -10.494234   1.000000
    8       -9.440861   1.000000
    9       -8.747447   1.000000
   10       -7.718461   1.000000
   11       -6.792368   1.000000
   12       -5.856981   1.000000
   13       -5.404356   1.000000
   14       -5.054996   1.000000
   15       -4.773499   1.000000
   16       -3.245472   0.000000
   17       -0.210824   0.000000
   18        0.453055   0.000000
   19        0.876397   0.000000
   20        1.427828   0.000000
   21        1.851943   0.000000
   22        1.938311   0.000000
   23        2.966627   0.000000
   24        3.309880   0.000000
 
  0.5000000E+00  0.2500000E+00  0.0000000E+00  0.1250000E+00
    1      -19.744827   1.000000
    2      -17.769803   1.000000
    3      -17.334271   1.000000
    4      -13.798062   1.000000
    5      -13.156044   1.000000
    6      -10.797751   1.000000
    7      -10.035489   1.000000
    8       -9.032016   1.000000
    9       -8.146761   1.000000
   10       -8.110261   1.000000
   11       -7.364329   1.000000
   12       -6.645706   1.000000
   13       -6.553182   1.000000
   14       -6.024697   1.000000
   15       -5.868014   1.000000
   16       -2.636315   0.000000
   17       -1.018172   0.000000
   18        1.795455   0.000000
   19        2.369952   0.000000
   20        2.872677   0.000000
   21        2.952806   0.000000
   22        2.985121   0.000000
   23        3.599969   0.000000
   24        3.624740   0.000000
 
 -0.2500000E+00  0.2500000E+00  0.0000000E+00  0.2500000E+00
    1      -19.744949   1.000000
    2      -17.768959   1.000000
    3      -17.334967   1.000000
    4      -13.797023   1.000000
    5      -13.157601   1.000000
    6      -10.797897   1.000000
    7      -10.034291   1.000000
    8       -9.033044   1.000000
    9       -8.146360   1.000000
   10       -8.110449   1.000000
   11       -7.364269   1.000000
   12       -6.644107   1.000000
   13       -6.552611   1.000000
   14       -6.025181   1.000000
   15       -5.869666   1.000000
   16       -2.635066   0.000000
   17       -1.019540   0.000000
   18        1.795366   0.000000
   19        2.369883   0.000000
   20        2.872590   0.000000
   21        2.952100   0.000000
   22        2.985300   0.000000
   23        3.600034   0.000000
   24        3.624767   0.000000
 
  0.0000000E+00  0.5000000E+00  0.0000000E+00  0.6250000E-01
    1      -19.729753   1.000000
    2      -18.042258   1.000000
    3      -16.884836   1.000000
    4      -14.619329   1.000000
    5      -12.292471   1.000000
    6      -10.432530   1.000000
    7      -10.232145   1.000000
    8       -9.623388   1.000000
    9       -8.019250   1.000000
   10       -8.000126   1.000000
   11       -7.754028   1.000000
   12       -7.069511   1.000000
   13       -6.531071   1.000000
   14       -5.454581   1.000000
   15       -5.184680   1.000000
   16       -3.596364   0.000000
   17        0.275459   0.000000
   18        1.122104   0.000000
   19        2.247267   0.000000
   20        2.250409   0.000000
   21        2.975400   0.000000
   22        3.027730   0.000000
   23        3.338520   0.000000
   24        3.338776   0.000000
