    8    8    1    1
  0.5796174E+02  0.5174000E-09  0.5174160E-09  0.2000000E-08  0.5000000E-15
  1.000000000000000E-004
  CAR 
 BC3                                     
     30     73     24
 
  0.0000000E+00  0.0000000E+00  0.0000000E+00  0.3906250E-02
    1      -20.312739   1.000000
    2      -16.422032   1.000000
    3      -16.421486   1.000000
    4      -14.074646   1.000000
    5      -14.074194   1.000000
    6      -13.004263   1.000000
    7      -11.691725   1.000000
    8       -9.119074   1.000000
    9       -8.897275   1.000000
   10       -6.747178   1.000000
   11       -6.746232   1.000000
   12       -4.922917   1.000000
   13       -4.922851   1.000000
   14       -4.243280   1.000000
   15       -4.240781   1.000000
   16       -2.408592   0.000000
   17       -0.675993   0.000000
   18       -0.675565   0.000000
   19       -0.019012   0.000000
   20        0.414165   0.000000
   21        1.270646   0.000000
   22        1.487652   0.000000
   23        2.503102   0.000000
   24        2.859769   0.000000
 
  0.6250000E-01 -0.1387779E-16  0.0000000E+00  0.1562500E-01
    1      -20.297438   1.000000
    2      -16.498175   1.000000
    3      -16.446064   1.000000
    4      -14.096177   1.000000
    5      -14.018267   1.000000
    6      -12.928480   1.000000
    7      -11.600037   1.000000
    8       -9.095908   1.000000
    9       -8.929360   1.000000
   10       -6.816931   1.000000
   11       -6.759886   1.000000
   12       -4.993622   1.000000
   13       -4.934633   1.000000
   14       -4.323493   1.000000
   15       -4.280473   1.000000
   16       -2.533821   0.000000
   17       -0.642047   0.000000
   18       -0.487798   0.000000
   19        0.046612   0.000000
   20        0.443275   0.000000
   21        1.302088   0.000000
   22        1.516909   0.000000
   23        2.532480   0.000000
   24        2.889194   0.000000
 
  0.1250000E+00 -0.2775558E-16  0.0000000E+00  0.1562500E-01
    1      -20.252191   1.000000
    2      -16.700734   1.000000
    3      -16.511275   1.000000
    4      -14.164253   1.000000
    5      -13.859249   1.000000
    6      -12.705588   1.000000
    7      -11.344148   1.000000
    8       -9.029347   1.000000
    9       -9.026650   1.000000
   10       -7.018691   1.000000
   11       -6.789096   1.000000
   12       -5.195714   1.000000
   13       -4.967413   1.000000
   14       -4.558795   1.000000
   15       -4.392952   1.000000
   16       -2.788916   0.000000
   17       -0.545859   0.000000
   18       -0.110120   0.000000
   19        0.295423   0.000000
   20        0.530418   0.000000
   21        1.397783   0.000000
   22        1.604650   0.000000
   23        2.620682   0.000000
   24        2.977203   0.000000
 
  0.1875000E+00 -0.2775558E-16  0.0000000E+00  0.1562500E-01
    1      -20.179274   1.000000
    2      -16.976111   1.000000
    3      -16.599023   1.000000
    4      -14.266710   1.000000
    5      -13.618741   1.000000
    6      -12.364322   1.000000
    7      -10.962594   1.000000
    8       -9.203904   1.000000
    9       -8.912536   1.000000
   10       -7.330619   1.000000
   11       -6.808812   1.000000
   12       -5.500302   1.000000
   13       -5.014786   1.000000
   14       -4.929814   1.000000
   15       -4.565425   1.000000
   16       -3.040917   0.000000
   17       -0.399881   0.000000
   18        0.190276   0.000000
   19        0.675170   0.000000
   20        0.814459   0.000000
   21        1.565705   0.000000
   22        1.750803   0.000000
   23        2.767933   0.000000
   24        3.123237   0.000000
 
  0.2500000E+00 -0.5551115E-16  0.0000000E+00  0.1562500E-01
    1      -20.083233   1.000000
    2      -17.276372   1.000000
    3      -16.690986   1.000000
    4      -14.378072   1.000000
    5      -13.321595   1.000000
    6      -11.946165   1.000000
    7      -10.491166   1.000000
    8       -9.451283   1.000000
    9       -8.756066   1.000000
   10       -7.722892   1.000000
   11       -6.795714   1.000000
   12       -5.867251   1.000000
   13       -5.410203   1.000000
   14       -5.068067   1.000000
   15       -4.778257   1.000000
   16       -3.247751   0.000000
   17       -0.224393   0.000000
   18        0.448326   0.000000
   19        0.877050   0.000000
   20        1.421269   0.000000
   21        1.854326   0.000000
   22        1.955292   0.000000
   23        2.975025   0.000000
   24        3.326777   0.000000
 
  0.3125000E+00 -0.5551115E-16  0.0000000E+00  0.1562500E-01
    1      -19.972362   1.000000
    2      -17.565458   1.000000
    3      -16.773482   1.000000
    4      -14.478330   1.000000
    5      -12.993958   1.000000
    6      -11.483298   1.000000
    7       -9.965055   1.000000
    8       -9.752486   1.000000
    9       -8.562390   1.000000
   10       -8.157162   1.000000
   11       -6.741874   1.000000
   12       -6.256492   1.000000
   13       -5.971588   1.000000
   14       -5.118997   1.000000
   15       -5.007735   1.000000
   16       -3.404352   0.000000
   17       -0.043831   0.000000
   18        0.696107   0.000000
   19        1.135677   0.000000
   20        1.865210   0.000000
   21        2.218063   0.000000
   22        2.409458   0.000000
   23        3.244627   0.000000
   24        3.587474   0.000000
 
  0.3750000E+00 -0.5551115E-16  0.0000000E+00  0.1562500E-01
    1      -19.861369   1.000000
    2      -17.812439   1.000000
    3      -16.837574   1.000000
    4      -14.555795   1.000000
    5      -12.669582   1.000000
    6      -10.999129   1.000000
    7      -10.068323   1.000000
    8       -9.467627   1.000000
    9       -8.543134   1.000000
   10       -8.343535   1.000000
   11       -6.658118   1.000000
   12       -6.630463   1.000000
   13       -6.586007   1.000000
   14       -5.225284   1.000000
   15       -5.160501   1.000000
   16       -3.513636   0.000000
   17        0.113580   0.000000
   18        0.912192   0.000000
   19        1.450761   0.000000
   20        2.215465   0.000000
   21        2.539082   0.000000
   22        3.100249   0.000000
   23        3.269125   0.000000
   24        3.580097   0.000000
 
  0.4375000E+00 -0.5551115E-16  0.0000000E+00  0.1562500E-01
    1      -19.774150   1.000000
    2      -17.984299   1.000000
    3      -16.877900   1.000000
    4      -14.604249   1.000000
    5      -12.405736   1.000000
    6      -10.525951   1.000000
    7      -10.331930   1.000000
    8       -9.407708   1.000000
    9       -8.455557   1.000000
   10       -8.133448   1.000000
   11       -7.224109   1.000000
   12       -6.939145   1.000000
   13       -6.574125   1.000000
   14       -5.392083   1.000000
   15       -5.187464   1.000000
   16       -3.578225   0.000000
   17        0.221930   0.000000
   18        1.062999   0.000000
   19        1.822053   0.000000
   20        2.588123   0.000000
   21        2.731876   0.000000
   22        2.918315   0.000000
   23        3.447549   0.000000
   24        3.851247   0.000000
 
  0.5000000E+00 -0.1110223E-15  0.0000000E+00  0.7812500E-02
    1      -19.740060   1.000000
    2      -18.047071   1.000000
    3      -16.891632   1.000000
    4      -14.620699   1.000000
    5      -12.296839   1.000000
    6      -10.441646   1.000000
    7      -10.235164   1.000000
    8       -9.627547   1.000000
    9       -8.030460   1.000000
   10       -8.004988   1.000000
   11       -7.752687   1.000000
   12       -7.075885   1.000000
   13       -6.536568   1.000000
   14       -5.457512   1.000000
   15       -5.196789   1.000000
   16       -3.599649   0.000000
   17        0.260604   0.000000
   18        1.117493   0.000000
   19        2.247216   0.000000
   20        2.251278   0.000000
   21        2.979991   0.000000
   22        3.032253   0.000000
   23        3.355473   0.000000
   24        3.355960   0.000000
 
  0.0000000E+00  0.6250000E-01  0.0000000E+00  0.7812500E-02
    1      -20.297441   1.000000
    2      -16.497755   1.000000
    3      -16.446466   1.000000
    4      -14.095900   1.000000
    5      -14.018624   1.000000
    6      -12.928396   1.000000
    7      -11.600072   1.000000
    8       -9.095912   1.000000
    9       -8.929349   1.000000
   10       -6.816205   1.000000
   11       -6.760609   1.000000
   12       -4.993683   1.000000
   13       -4.934582   1.000000
   14       -4.321642   1.000000
   15       -4.282329   1.000000
   16       -2.533668   0.000000
   17       -0.642376   0.000000
   18       -0.487820   0.000000
   19        0.046796   0.000000
   20        0.443273   0.000000
   21        1.302093   0.000000
   22        1.516907   0.000000
   23        2.532479   0.000000
   24        2.889194   0.000000
 
  0.1250000E+00  0.6250000E-01  0.0000000E+00  0.7812500E-02
    1      -20.267149   1.000000
    2      -16.632284   1.000000
    3      -16.496480   1.000000
    4      -14.121957   1.000000
    5      -13.932141   1.000000
    6      -12.775724   1.000000
    7      -11.427019   1.000000
    8       -9.049674   1.000000
    9       -8.995833   1.000000
   10       -6.944924   1.000000
   11       -6.788647   1.000000
   12       -5.122654   1.000000
   13       -4.965626   1.000000
   14       -4.479088   1.000000
   15       -4.358613   1.000000
   16       -2.713389   0.000000
   17       -0.606871   0.000000
   18       -0.164795   0.000000
   19        0.184598   0.000000
   20        0.501406   0.000000
   21        1.365497   0.000000
   22        1.575410   0.000000
   23        2.591266   0.000000
   24        2.947920   0.000000
 
  0.1875000E+00  0.6250000E-01  0.0000000E+00  0.1562500E-01
    1      -20.208015   1.000000
    2      -16.860112   1.000000
    3      -16.585487   1.000000
    4      -14.176693   1.000000
    5      -13.769876   1.000000
    6      -12.481526   1.000000
    7      -11.111979   1.000000
    8       -9.136283   1.000000
    9       -8.957962   1.000000
   10       -7.181223   1.000000
   11       -6.830813   1.000000
   12       -5.361342   1.000000
   13       -5.027918   1.000000
   14       -4.774455   1.000000
   15       -4.508826   1.000000
   16       -2.933865   0.000000
   17       -0.546041   0.000000
   18        0.248000   0.000000
   19        0.531794   0.000000
   20        0.617365   0.000000
   21        1.495317   0.000000
   22        1.692362   0.000000
   23        2.708931   0.000000
   24        3.064978   0.000000
 
  0.2500000E+00  0.6250000E-01  0.0000000E+00  0.1562500E-01
    1      -20.123338   1.000000
    2      -17.138211   1.000000
    3      -16.687550   1.000000
    4      -14.264456   1.000000
    5      -13.525031   1.000000
    6      -12.088261   1.000000
    7      -10.691264   1.000000
    8       -9.355545   1.000000
    9       -8.822551   1.000000
   10       -7.509252   1.000000
   11       -6.851103   1.000000
   12       -5.685782   1.000000
   13       -5.190343   1.000000
   14       -5.104474   1.000000
   15       -4.711084   1.000000
   16       -3.120794   0.000000
   17       -0.444501   0.000000
   18        0.543055   0.000000
   19        0.790707   0.000000
   20        1.127089   0.000000
   21        1.707840   0.000000
   22        1.867690   0.000000
   23        2.885824   0.000000
   24        3.239844   0.000000
 
  0.3125000E+00  0.6250000E-01  0.0000000E+00  0.1562500E-01
    1      -20.019316   1.000000
    2      -17.426504   1.000000
    3      -16.784212   1.000000
    4      -14.359411   1.000000
    5      -13.222876   1.000000
    6      -11.638460   1.000000
    7      -10.197200   1.000000
    8       -9.642857   1.000000
    9       -8.647034   1.000000
   10       -7.902044   1.000000
   11       -6.829355   1.000000
   12       -6.057846   1.000000
   13       -5.700556   1.000000
   14       -5.180634   1.000000
   15       -4.941970   1.000000
   16       -3.261831   0.000000
   17       -0.313179   0.000000
   18        0.815544   0.000000
   19        1.020996   0.000000
   20        1.688123   0.000000
   21        2.101073   0.000000
   22        2.101329   0.000000
   23        3.123175   0.000000
   24        3.472083   0.000000
 
  0.3750000E+00  0.6250000E-01  0.0000000E+00  0.1562500E-01
    1      -19.907055   1.000000
    2      -17.691450   1.000000
    3      -16.864027   1.000000
    4      -14.441936   1.000000
    5      -12.896558   1.000000
    6      -11.161974   1.000000
    7       -9.971565   1.000000
    8       -9.667341   1.000000
    9       -8.439227   1.000000
   10       -8.313304   1.000000
   11       -6.771529   1.000000
   12       -6.437747   1.000000
   13       -6.272721   1.000000
   14       -5.245836   1.000000
   15       -5.174957   1.000000
   16       -3.362285   0.000000
   17       -0.176459   0.000000
   18        1.065863   0.000000
   19        1.307899   0.000000
   20        2.067116   0.000000
   21        2.393230   0.000000
   22        2.749191   0.000000
   23        3.424752   0.000000
   24        3.579668   0.000000
 
  0.4375000E+00  0.6250000E-01  0.0000000E+00  0.1562500E-01
    1      -19.805527   1.000000
    2      -17.900729   1.000000
    3      -16.920269   1.000000
    4      -14.501296   1.000000
    5      -12.592068   1.000000
    6      -10.692368   1.000000
    7      -10.271046   1.000000
    8       -9.291046   1.000000
    9       -8.553045   1.000000
   10       -8.218975   1.000000
   11       -6.933852   1.000000
   12       -6.783358   1.000000
   13       -6.643975   1.000000
   14       -5.376996   1.000000
   15       -5.292979   1.000000
   16       -3.427396   0.000000
   17       -0.062967   0.000000
   18        1.264019   0.000000
   19        1.651139   0.000000
   20        2.422423   0.000000
   21        2.743372   0.000000
   22        3.015475   0.000000
   23        3.412683   0.000000
   24        3.712471   0.000000
 
  0.5000000E+00  0.6250000E-01  0.0000000E+00  0.1562500E-01
    1      -19.742331   1.000000
    2      -18.019405   1.000000
    3      -16.949230   1.000000
    4      -14.532094   1.000000
    5      -12.389332   1.000000
    6      -10.526870   1.000000
    7      -10.230038   1.000000
    8       -9.448316   1.000000
    9       -8.193967   1.000000
   10       -8.045955   1.000000
   11       -7.537424   1.000000
   12       -7.021899   1.000000
   13       -6.595505   1.000000
   14       -5.502136   1.000000
   15       -5.317610   1.000000
   16       -3.459504   0.000000
   17        0.001617   0.000000
   18        1.375402   0.000000
   19        2.050434   0.000000
   20        2.505417   0.000000
   21        2.813623   0.000000
   22        3.151709   0.000000
   23        3.253873   0.000000
   24        3.618157   0.000000
 
 -0.4375000E+00  0.6250000E-01  0.0000000E+00  0.1562500E-01
    1      -19.742341   1.000000
    2      -18.019370   1.000000
    3      -16.949258   1.000000
    4      -14.532066   1.000000
    5      -12.389405   1.000000
    6      -10.527320   1.000000
    7      -10.229317   1.000000
    8       -9.448495   1.000000
    9       -8.194295   1.000000
   10       -8.045976   1.000000
   11       -7.537058   1.000000
   12       -7.021862   1.000000
   13       -6.595492   1.000000
   14       -5.502235   1.000000
   15       -5.317658   1.000000
   16       -3.459415   0.000000
   17        0.001488   0.000000
   18        1.375470   0.000000
   19        2.050405   0.000000
   20        2.505451   0.000000
   21        2.813600   0.000000
   22        3.151682   0.000000
   23        3.253894   0.000000
   24        3.618189   0.000000
 
 -0.3750000E+00  0.6250000E-01  0.0000000E+00  0.1562500E-01
    1      -19.805552   1.000000
    2      -17.900626   1.000000
    3      -16.920354   1.000000
    4      -14.501212   1.000000
    5      -12.592274   1.000000
    6      -10.692783   1.000000
    7      -10.270219   1.000000
    8       -9.291218   1.000000
    9       -8.553365   1.000000
   10       -8.219014   1.000000
   11       -6.933370   1.000000
   12       -6.783267   1.000000
   13       -6.643980   1.000000
   14       -5.377277   1.000000
   15       -5.293110   1.000000
   16       -3.427134   0.000000
   17       -0.063325   0.000000
   18        1.264269   0.000000
   19        1.651115   0.000000
   20        2.422403   0.000000
   21        2.743349   0.000000
   22        3.015515   0.000000
   23        3.412540   0.000000
   24        3.712468   0.000000
 
 -0.3125000E+00  0.6250000E-01  0.0000000E+00  0.1562500E-01
    1      -19.907086   1.000000
    2      -17.691282   1.000000
    3      -16.864173   1.000000
    4      -14.441789   1.000000
    5      -12.896882   1.000000
    6      -11.161911   1.000000
    7       -9.971189   1.000000
    8       -9.667543   1.000000
    9       -8.439268   1.000000
   10       -8.313475   1.000000
   11       -6.771445   1.000000
   12       -6.437627   1.000000
   13       -6.272258   1.000000
   14       -5.246058   1.000000
   15       -5.175408   1.000000
   16       -3.361869   0.000000
   17       -0.177077   0.000000
   18        1.066194   0.000000
   19        1.307879   0.000000
   20        2.067088   0.000000
   21        2.393211   0.000000
   22        2.749035   0.000000
   23        3.424733   0.000000
   24        3.579683   0.000000
 
 -0.2500000E+00  0.6250000E-01  0.0000000E+00  0.1562500E-01
    1      -20.019345   1.000000
    2      -17.426267   1.000000
    3      -16.784425   1.000000
    4      -14.359189   1.000000
    5      -13.223318   1.000000
    6      -11.638248   1.000000
    7      -10.197394   1.000000
    8       -9.642637   1.000000
    9       -8.647068   1.000000
   10       -7.902069   1.000000
   11       -6.829385   1.000000
   12       -6.057698   1.000000
   13       -5.699900   1.000000
   14       -5.180914   1.000000
   15       -4.942617   1.000000
   16       -3.261300   0.000000
   17       -0.313997   0.000000
   18        0.815997   0.000000
   19        1.020981   0.000000
   20        1.688023   0.000000
   21        2.100995   0.000000
   22        2.101313   0.000000
   23        3.123164   0.000000
   24        3.472069   0.000000
 
 -0.1875000E+00  0.6250000E-01  0.0000000E+00  0.1562500E-01
    1      -20.123363   1.000000
    2      -17.137894   1.000000
    3      -16.687839   1.000000
    4      -14.264137   1.000000
    5      -13.525602   1.000000
    6      -12.087976   1.000000
    7      -10.691444   1.000000
    8       -9.355410   1.000000
    9       -8.822578   1.000000
   10       -7.509102   1.000000
   11       -6.851273   1.000000
   12       -5.685617   1.000000
   13       -5.189437   1.000000
   14       -5.104769   1.000000
   15       -4.711996   1.000000
   16       -3.120215   0.000000
   17       -0.445457   0.000000
   18        0.543607   0.000000
   19        0.790695   0.000000
   20        1.126907   0.000000
   21        1.707853   0.000000
   22        1.867677   0.000000
   23        2.885818   0.000000
   24        3.239835   0.000000
 
 -0.1250000E+00  0.6250000E-01  0.0000000E+00  0.1562500E-01
    1      -20.208033   1.000000
    2      -16.859701   1.000000
    3      -16.585864   1.000000
    4      -14.176257   1.000000
    5      -13.770572   1.000000
    6      -12.481231   1.000000
    7      -11.112127   1.000000
    8       -9.136207   1.000000
    9       -8.957982   1.000000
   10       -7.180833   1.000000
   11       -6.831203   1.000000
   12       -5.361194   1.000000
   13       -5.028157   1.000000
   14       -4.773167   1.000000
   15       -4.510127   1.000000
   16       -2.933328   0.000000
   17       -0.547019   0.000000
   18        0.248478   0.000000
   19        0.531738   0.000000
   20        0.617357   0.000000
   21        1.495338   0.000000
   22        1.692353   0.000000
   23        2.708927   0.000000
   24        3.064972   0.000000
 
 -0.6250000E-01  0.6250000E-01  0.0000000E+00  0.1562500E-01
    1      -20.267160   1.000000
    2      -16.631778   1.000000
    3      -16.496950   1.000000
    4      -14.121478   1.000000
    5      -13.932828   1.000000
    6      -12.775497   1.000000
    7      -11.427118   1.000000
    8       -9.049686   1.000000
    9       -8.995796   1.000000
   10       -6.944223   1.000000
   11       -6.789343   1.000000
   12       -5.122603   1.000000
   13       -4.965719   1.000000
   14       -4.477238   1.000000
   15       -4.360476   1.000000
   16       -2.712993   0.000000
   17       -0.607678   0.000000
   18       -0.164755   0.000000
   19        0.184941   0.000000
   20        0.501401   0.000000
   21        1.365511   0.000000
   22        1.575406   0.000000
   23        2.591264   0.000000
   24        2.947917   0.000000
 
  0.0000000E+00  0.1250000E+00  0.0000000E+00  0.7812500E-02
    1      -20.252206   1.000000
    2      -16.700295   1.000000
    3      -16.511656   1.000000
    4      -14.164082   1.000000
    5      -13.859655   1.000000
    6      -12.705355   1.000000
    7      -11.344267   1.000000
    8       -9.029303   1.000000
    9       -9.026666   1.000000
   10       -7.017921   1.000000
   11       -6.789853   1.000000
   12       -5.195796   1.000000
   13       -4.967356   1.000000
   14       -4.557103   1.000000
   15       -4.394662   1.000000
   16       -2.788520   0.000000
   17       -0.546212   0.000000
   18       -0.111015   0.000000
   19        0.296197   0.000000
   20        0.530412   0.000000
   21        1.397809   0.000000
   22        1.604643   0.000000
   23        2.620679   0.000000
   24        2.977199   0.000000
 
  0.2500000E+00  0.1250000E+00  0.0000000E+00  0.7812500E-02
    1      -20.136980   1.000000
    2      -17.071935   1.000000
    3      -16.709763   1.000000
    4      -14.153584   1.000000
    5      -13.672672   1.000000
    6      -12.120680   1.000000
    7      -10.763676   1.000000
    8       -9.328053   1.000000
    9       -8.844856   1.000000
   10       -7.393839   1.000000
   11       -6.907590   1.000000
   12       -5.592351   1.000000
   13       -5.159521   1.000000
   14       -5.101147   1.000000
   15       -4.702295   1.000000
   16       -3.043953   0.000000
   17       -0.581662   0.000000
   18        0.761936   0.000000
   19        0.804273   0.000000
   20        0.834329   0.000000
   21        1.661763   0.000000
   22        1.838492   0.000000
   23        2.856057   0.000000
   24        3.210936   0.000000
 
  0.3125000E+00  0.1250000E+00  0.0000000E+00  0.1562500E-01
    1      -20.043755   1.000000
    2      -17.316020   1.000000
    3      -16.842431   1.000000
    4      -14.165694   1.000000
    5      -13.484395   1.000000
    6      -11.678736   1.000000
    7      -10.329322   1.000000
    8       -9.603111   1.000000
    9       -8.690014   1.000000
   10       -7.666728   1.000000
   11       -6.962543   1.000000
   12       -5.890831   1.000000
   13       -5.524657   1.000000
   14       -5.310614   1.000000
   15       -4.944127   1.000000
   16       -3.099684   0.000000
   17       -0.582783   0.000000
   18        0.963734   0.000000
   19        1.106228   0.000000
   20        1.465886   0.000000
   21        1.920521   0.000000
   22        2.042980   0.000000
   23        3.062327   0.000000
   24        3.414644   0.000000
 
  0.3750000E+00  0.1250000E+00  0.0000000E+00  0.1562500E-01
    1      -19.936742   1.000000
    2      -17.565176   1.000000
    3      -16.956211   1.000000
    4      -14.212698   1.000000
    5      -13.209106   1.000000
    6      -11.203582   1.000000
    7       -9.941830   1.000000
    8       -9.829252   1.000000
    9       -8.498867   1.000000
   10       -8.002311   1.000000
   11       -6.962805   1.000000
   12       -6.235936   1.000000
   13       -6.023218   1.000000
   14       -5.438731   1.000000
   15       -5.201588   1.000000
   16       -3.123347   0.000000
   17       -0.546466   0.000000
   18        1.222365   0.000000
   19        1.392744   0.000000
   20        1.973085   0.000000
   21        2.305768   0.000000
   22        2.401547   0.000000
   23        3.328894   0.000000
   24        3.675708   0.000000
 
  0.4375000E+00  0.1250000E+00  0.0000000E+00  0.1562500E-01
    1      -19.830451   1.000000
    2      -17.785887   1.000000
    3      -17.040639   1.000000
    4      -14.262865   1.000000
    5      -12.902463   1.000000
    6      -10.752280   1.000000
    7      -10.251106   1.000000
    8       -9.341800   1.000000
    9       -8.341614   1.000000
   10       -8.283939   1.000000
   11       -6.954572   1.000000
   12       -6.584157   1.000000
   13       -6.535884   1.000000
   14       -5.531602   1.000000
   15       -5.441888   1.000000
   16       -3.134213   0.000000
   17       -0.491795   0.000000
   18        1.537505   0.000000
   19        1.644863   0.000000
   20        2.328735   0.000000
   21        2.626815   0.000000
   22        3.076405   0.000000
   23        3.355695   0.000000
   24        3.655328   0.000000
 
  0.5000000E+00  0.1250000E+00  0.0000000E+00  0.1562500E-01
    1      -19.747739   1.000000
    2      -17.941997   1.000000
    3      -17.092177   1.000000
    4      -14.298034   1.000000
    5      -12.637309   1.000000
    6      -10.674119   1.000000
    7      -10.165135   1.000000
    8       -9.146256   1.000000
    9       -8.366074   1.000000
   10       -8.079704   1.000000
   11       -7.280048   1.000000
   12       -6.876817   1.000000
   13       -6.726960   1.000000
   14       -5.624758   1.000000
   15       -5.587472   1.000000
   16       -3.139925   0.000000
   17       -0.444576   0.000000
   18        1.823686   0.000000
   19        1.908847   0.000000
   20        2.689686   0.000000
   21        2.818608   0.000000
   22        3.006088   0.000000
   23        3.526498   0.000000
   24        3.787345   0.000000
 
 -0.4375000E+00  0.1250000E+00  0.0000000E+00  0.1562500E-01
    1      -19.715671   1.000000
    2      -17.999236   1.000000
    3      -17.109516   1.000000
    4      -14.310432   1.000000
    5      -12.523911   1.000000
    6      -10.772613   1.000000
    7       -9.929116   1.000000
    8       -9.290330   1.000000
    9       -7.995750   1.000000
   10       -7.981134   1.000000
   11       -7.733004   1.000000
   12       -7.006132   1.000000
   13       -6.714235   1.000000
   14       -5.696665   1.000000
   15       -5.606158   1.000000
   16       -3.141736   0.000000
   17       -0.426238   0.000000
   18        1.888901   0.000000
   19        2.332377   0.000000
   20        2.339725   0.000000
   21        3.062659   0.000000
   22        3.134399   0.000000
   23        3.443444   0.000000
   24        3.443545   0.000000
 
 -0.3750000E+00  0.1250000E+00  0.0000000E+00  0.1562500E-01
    1      -19.747777   1.000000
    2      -17.941840   1.000000
    3      -17.092300   1.000000
    4      -14.297906   1.000000
    5      -12.637606   1.000000
    6      -10.674609   1.000000
    7      -10.164038   1.000000
    8       -9.146553   1.000000
    9       -8.366726   1.000000
   10       -8.079775   1.000000
   11       -7.279218   1.000000
   12       -6.876675   1.000000
   13       -6.726877   1.000000
   14       -5.625176   1.000000
   15       -5.587622   1.000000
   16       -3.139593   0.000000
   17       -0.444977   0.000000
   18        1.823813   0.000000
   19        1.908793   0.000000
   20        2.689646   0.000000
   21        2.818682   0.000000
   22        3.006037   0.000000
   23        3.526459   0.000000
   24        3.787188   0.000000
 
 -0.3125000E+00  0.1250000E+00  0.0000000E+00  0.1562500E-01
    1      -19.830510   1.000000
    2      -17.785581   1.000000
    3      -17.040891   1.000000
    4      -14.262594   1.000000
    5      -12.903011   1.000000
    6      -10.752736   1.000000
    7      -10.249913   1.000000
    8       -9.342206   1.000000
    9       -8.341979   1.000000
   10       -8.284024   1.000000
   11       -6.954223   1.000000
   12       -6.583928   1.000000
   13       -6.535173   1.000000
   14       -5.531898   1.000000
   15       -5.442670   1.000000
   16       -3.133577   0.000000
   17       -0.492563   0.000000
   18        1.537460   0.000000
   19        1.645110   0.000000
   20        2.328699   0.000000
   21        2.626772   0.000000
   22        3.076079   0.000000
   23        3.355783   0.000000
   24        3.655284   0.000000
 
 -0.2500000E+00  0.1250000E+00  0.0000000E+00  0.1562500E-01
    1      -19.936805   1.000000
    2      -17.564726   1.000000
    3      -16.956598   1.000000
    4      -14.212249   1.000000
    5      -13.209898   1.000000
    6      -11.203398   1.000000
    7       -9.941264   1.000000
    8       -9.829664   1.000000
    9       -8.498944   1.000000
   10       -8.002376   1.000000
   11       -6.962825   1.000000
   12       -6.235642   1.000000
   13       -6.022042   1.000000
   14       -5.439156   1.000000
   15       -5.202725   1.000000
   16       -3.122473   0.000000
   17       -0.547532   0.000000
   18        1.222329   0.000000
   19        1.393118   0.000000
   20        1.972958   0.000000
   21        2.305733   0.000000
   22        2.401319   0.000000
   23        3.328869   0.000000
   24        3.675677   0.000000
 
 -0.1875000E+00  0.1250000E+00  0.0000000E+00  0.1562500E-01
    1      -20.043812   1.000000
    2      -17.315437   1.000000
    3      -16.842947   1.000000
    4      -14.165037   1.000000
    5      -13.485448   1.000000
    6      -11.678354   1.000000
    7      -10.329689   1.000000
    8       -9.602776   1.000000
    9       -8.690077   1.000000
   10       -7.666447   1.000000
   11       -6.962866   1.000000
   12       -5.890508   1.000000
   13       -5.523135   1.000000
   14       -5.311104   1.000000
   15       -4.945637   1.000000
   16       -3.098690   0.000000
   17       -0.584031   0.000000
   18        0.963707   0.000000
   19        1.106753   0.000000
   20        1.465483   0.000000