 running on   12 total cores
 distrk:  each k-point on   12 cores,    1 groups
 distr:  one band on    1 cores,   12 groups
 using from now: INCAR     
 vasp.5.4.4.18Apr17-6-g9f103f2a35 (build Mar 30 2023 15:39:25) complex          
  
 POSCAR found type information on POSCAR  B  C 
 POSCAR found :  2 types and       8 ions
 scaLAPACK will be used

 ----------------------------------------------------------------------------- 
|                                                                             |
|           W    W    AA    RRRRR   N    N  II  N    N   GGGG   !!!           |
|           W    W   A  A   R    R  NN   N  II  NN   N  G    G  !!!           |
|           W    W  A    A  R    R  N N  N  II  N N  N  G       !!!           |
|           W WW W  AAAAAA  RRRRR   N  N N  II  N  N N  G  GGG   !            |
|           WW  WW  A    A  R   R   N   NN  II  N   NN  G    G                |
|           W    W  A    A  R    R  N    N  II  N    N   GGGG   !!!           |
|                                                                             |
|      For optimal performance we recommend to set                            |
|        NCORE= 4 - approx SQRT( number of cores)                             |
|      NCORE specifies how many cores store one orbital (NPAR=cpu/NCORE).     |
|      This setting can  greatly improve the performance of VASP for DFT.     |
|      The default,   NCORE=1            might be grossly inefficient         |
|      on modern multi-core architectures or massively parallel machines.     |
|      Do your own testing !!!!                                               |
|      Unfortunately you need to use the default for GW and RPA calculations. |
|      (for HF NCORE is supported but not extensively tested yet)             |
|                                                                             |
 ----------------------------------------------------------------------------- 

 LDA part: xc-table for Pade appr. of Perdew
 POSCAR, INCAR and KPOINTS ok, starting setup
 FFT: planning ...
 WAVECAR not read
 entering main loop
       N       E                     dE             d eps       ncg     rms          rms(c)
DAV:   1     0.181091701800E+03    0.18109E+03   -0.94744E+03   372   0.719E+02
DAV:   2    -0.427605782539E+02   -0.22385E+03   -0.20682E+03   468   0.179E+02
DAV:   3    -0.726529178369E+02   -0.29892E+02   -0.29738E+02   420   0.784E+01
DAV:   4    -0.734016791680E+02   -0.74876E+00   -0.74679E+00   480   0.153E+01
DAV:   5    -0.734217379828E+02   -0.20059E-01   -0.20037E-01   432   0.227E+00    0.131E+01
DAV:   6    -0.689816184864E+02    0.44401E+01   -0.51688E+00   492   0.104E+01    0.741E+00
DAV:   7    -0.673346223753E+02    0.16470E+01   -0.39654E+00   492   0.906E+00    0.214E+00
DAV:   8    -0.672583886347E+02    0.76234E-01   -0.21598E-01   408   0.210E+00    0.602E-01
DAV:   9    -0.672409543578E+02    0.17434E-01   -0.17873E-02   432   0.744E-01    0.176E-01
DAV:  10    -0.672298435777E+02    0.11111E-01   -0.16691E-02   408   0.524E-01    0.133E-01
DAV:  11    -0.672286795587E+02    0.11640E-02   -0.54995E-03   384   0.354E-01    0.607E-02
DAV:  12    -0.672289976931E+02   -0.31813E-03   -0.19323E-03   360   0.159E-01    0.360E-02
DAV:  13    -0.672328902948E+02   -0.38926E-02   -0.45387E-04   336   0.904E-02    0.218E-02
DAV:  14    -0.672355972454E+02   -0.27070E-02   -0.32469E-04   384   0.559E-02    0.113E-02
DAV:  15    -0.672363673056E+02   -0.77006E-03   -0.59752E-05   360   0.275E-02    0.563E-03
DAV:  16    -0.672366656582E+02   -0.29835E-03   -0.30886E-05   360   0.181E-02    0.226E-03
DAV:  17    -0.672367423431E+02   -0.76685E-04   -0.53680E-06   408   0.714E-03    0.145E-03
DAV:  18    -0.672367694491E+02   -0.27106E-04   -0.97281E-07   432   0.385E-03    0.572E-04
DAV:  19    -0.672367845648E+02   -0.15116E-04   -0.86662E-07   360   0.244E-03    0.674E-04
DAV:  20    -0.672367950545E+02   -0.10490E-04   -0.53504E-08   252   0.108E-03    0.247E-04
DAV:  21    -0.672367997299E+02   -0.46753E-05   -0.41878E-08   252   0.903E-04    0.211E-04
DAV:  22    -0.672368006157E+02   -0.88583E-06   -0.92391E-09   252   0.468E-04
   1 F= -.67236801E+02 E0= -.67236801E+02  d E =0.000000E+00
 writing wavefunctions
