<?xml version="1.0" encoding="ISO-8859-1"?>
<modeling>
 <generator>
  <i name="program" type="string">vasp </i>
  <i name="version" type="string">5.4.4.18Apr17-6-g9f103f2a35  </i>
  <i name="subversion" type="string">(build Mar 30 2023 15:39:25) complex            parallel </i>
  <i name="platform" type="string">LinuxIFC </i>
  <i name="date" type="string">2023 05 18 </i>
  <i name="time" type="string">21:47:05 </i>
 </generator>
 <incar>
  <i type="string" name="SYSTEM"> BC3</i>
  <i type="int" name="ISTART">     0</i>
  <i type="string" name="PREC">accurate</i>
  <i type="int" name="ICHARG">     2</i>
  <i name="EDIFF">      0.00000100</i>
  <i name="EDIFFG">     -0.00000100</i>
  <i name="ENCUT">    400.00000000</i>
  <i type="int" name="ISMEAR">    -5</i>
  <i name="SIGMA">      0.20000000</i>
  <v type="int" name="KPOINT_BSE">    -1     0     0     0</v>
 </incar>
 <structure name="primitive_cell" >
  <crystal>
   <varray name="basis" >
    <v>       5.17400000       0.00000000       0.00000000 </v>
    <v>       2.58700000       4.48100000       0.00000000 </v>
    <v>       0.00000000       0.00000000      20.00000000 </v>
   </varray>
   <i name="volume">    463.69388000 </i>
   <varray name="rec_basis" >
    <v>       0.19327406      -0.11158224       0.00000000 </v>
    <v>       0.00000000       0.22316447       0.00000000 </v>
    <v>       0.00000000       0.00000000       0.05000000 </v>
   </varray>
  </crystal>
  <varray name="positions" >
   <v>       0.17457326       0.17462620       0.00000000 </v>
   <v>       0.00000000       0.00000000       0.00000000 </v>
   <v>      -0.47622729       0.00000000       0.00000000 </v>
   <v>      -0.00005294      -0.47612140       0.00000000 </v>
   <v>      -0.31744862       0.15866994       0.00000000 </v>
   <v>      -0.31750156      -0.31745146       0.00000000 </v>
   <v>       0.15872573      -0.31745146       0.00000000 </v>
   <v>      -0.49207481      -0.49207766       0.00000000 </v>
  </varray>
 </structure>
 <varray name="primitive_index" >
  <v type="int" >        1 </v>
  <v type="int" >        3 </v>
  <v type="int" >        4 </v>
  <v type="int" >        6 </v>
  <v type="int" >        5 </v>
  <v type="int" >        8 </v>
  <v type="int" >        7 </v>
  <v type="int" >        2 </v>
 </varray>
 <kpoints>
  <generation param="Gamma">
   <v type="int" name="divisions">       4        4        1 </v>
   <v name="usershift">      0.00000000       0.00000000       0.00000000 </v>
   <v name="genvec1">      0.25000000       0.00000000       0.00000000 </v>
   <v name="genvec2">      0.00000000       0.25000000       0.00000000 </v>
   <v name="genvec3">      0.00000000       0.00000000       1.00000000 </v>
   <v name="shift">      0.00000000       0.00000000       0.00000000 </v>
  </generation>
  <varray name="kpointlist" >
   <v>       0.00000000       0.00000000       0.00000000 </v>
   <v>       0.25000000      -0.00000000       0.00000000 </v>
   <v>       0.50000000      -0.00000000       0.00000000 </v>
   <v>       0.00000000       0.25000000       0.00000000 </v>
   <v>       0.50000000       0.25000000       0.00000000 </v>
   <v>      -0.25000000       0.25000000       0.00000000 </v>
   <v>       0.00000000       0.50000000       0.00000000 </v>
  </varray>
  <varray name="weights" >
   <v>       0.06250000 </v>
   <v>       0.25000000 </v>
   <v>       0.12500000 </v>
   <v>       0.12500000 </v>
   <v>       0.12500000 </v>
   <v>       0.25000000 </v>
   <v>       0.06250000 </v>
  </varray>
  <varray name="tetrahedronlist"  type="int" >
   <v type="int" >        2        1        1        2        2 </v>
   <v type="int" >        4        1        1        2        4 </v>
   <v type="int" >        4        1        2        4        4 </v>
   <v type="int" >        4        1        2        2        2 </v>
   <v type="int" >        4        1        2        2        4 </v>
   <v type="int" >        4        2        2        3        5 </v>
   <v type="int" >        4        2        2        2        5 </v>
   <v type="int" >        4        2        3        3        5 </v>
   <v type="int" >        4        2        3        5        5 </v>
   <v type="int" >        2        2        2        5        5 </v>
   <v type="int" >        4        2        3        3        6 </v>
   <v type="int" >        4        3        3        5        6 </v>
   <v type="int" >        4        3        5        5        6 </v>
   <v type="int" >        4        2        2        3        6 </v>
   <v type="int" >        4        2        3        6        6 </v>
   <v type="int" >        4        3        5        6        6 </v>
   <v type="int" >        4        2        2        4        6 </v>
   <v type="int" >        4        2        4        6        6 </v>
   <v type="int" >        4        2        4        4        6 </v>
   <v type="int" >        4        4        4        6        7 </v>
   <v type="int" >        4        4        6        7        7 </v>
   <v type="int" >        4        4        6        6        7 </v>
   <v type="int" >        2        5        5        6        6 </v>
   <v type="int" >        4        5        6        6        6 </v>
   <v type="int" >        4        6        6        6        7 </v>
   <v type="int" >        2        6        6        7        7 </v>
  </varray>
  <i name="volumeweight">      0.01041667 </i>
 </kpoints>
 <parameters>
  <separator name="general" >
   <i type="string" name="SYSTEM">BC3</i>
   <i type="logical" name="LCOMPAT"> F  </i>
  </separator>
  <separator name="electronic" >
   <i type="string" name="PREC">accura</i>
   <i name="ENMAX">    400.00000000</i>
   <i name="ENAUG">    644.87300000</i>
   <i name="EDIFF">      0.00000100</i>
   <i type="int" name="IALGO">    38</i>
   <i type="int" name="IWAVPR">    10</i>
   <i type="int" name="NBANDS">    24</i>
   <i name="NELECT">     30.00000000</i>
   <i type="int" name="TURBO">     0</i>
   <i type="int" name="IRESTART">     0</i>
   <i type="int" name="NREBOOT">     0</i>
   <i type="int" name="NMIN">     0</i>
   <i name="EREF">      0.00000000</i>
   <separator name="electronic smearing" >
    <i type="int" name="ISMEAR">    -5</i>
    <i name="SIGMA">      0.20000000</i>
    <i name="KSPACING">      0.50000000</i>
    <i type="logical" name="KGAMMA"> T  </i>
   </separator>
   <separator name="electronic projectors" >
    <i type="logical" name="LREAL"> F  </i>
    <v name="ROPT">      0.00000000      0.00000000</v>
    <i type="int" name="LMAXPAW">  -100</i>
    <i type="int" name="LMAXMIX">     2</i>
    <i type="logical" name="NLSPLINE"> F  </i>
   </separator>
   <separator name="electronic startup" >
    <i type="int" name="ISTART">     0</i>
    <i type="int" name="ICHARG">     2</i>
    <i type="int" name="INIWAV">     1</i>
   </separator>
   <separator name="electronic spin" >
    <i type="int" name="ISPIN">     1</i>
    <i type="logical" name="LNONCOLLINEAR"> F  </i>
    <v name="MAGMOM">      1.00000000      1.00000000      1.00000000      1.00000000      1.00000000      1.00000000      1.00000000      1.00000000</v>
    <i name="NUPDOWN">     -1.00000000</i>
    <i type="logical" name="LSORBIT"> F  </i>
    <v name="SAXIS">      0.00000000      0.00000000      1.00000000</v>
    <i type="logical" name="LSPIRAL"> F  </i>
    <v name="QSPIRAL">      0.00000000      0.00000000      0.00000000</v>
    <i type="logical" name="LZEROZ"> F  </i>
   </separator>
   <separator name="electronic exchange-correlation" >
    <i type="logical" name="LASPH"> F  </i>
    <i type="logical" name="LMETAGGA"> F  </i>
   </separator>
   <separator name="electronic convergence" >
    <i type="int" name="NELM">    60</i>
    <i type="int" name="NELMDL">    -5</i>
    <i type="int" name="NELMIN">     2</i>
    <i name="ENINI">    400.00000000</i>
    <separator name="electronic convergence detail" >
     <i type="logical" name="LDIAG"> T  </i>
     <i type="logical" name="LSUBROT"> F  </i>
     <i name="WEIMIN">      0.00000000</i>
     <i name="EBREAK">      0.00000000</i>
     <i name="DEPER">      0.30000000</i>
     <i type="int" name="NRMM">     4</i>
     <i name="TIME">      0.40000000</i>
    </separator>
   </separator>
   <separator name="electronic mixer" >
    <i name="AMIX">      0.40000000</i>
    <i name="BMIX">      1.00000000</i>
    <i name="AMIN">      0.10000000</i>
    <i name="AMIX_MAG">      1.60000000</i>
    <i name="BMIX_MAG">      1.00000000</i>
    <separator name="electronic mixer details" >
     <i type="int" name="IMIX">     4</i>
     <i type="logical" name="MIXFIRST"> F  </i>
     <i type="int" name="MAXMIX">   -45</i>
     <i name="WC">    100.00000000</i>
     <i type="int" name="INIMIX">     1</i>
     <i type="int" name="MIXPRE">     1</i>
     <i type="int" name="MREMOVE">     5</i>
    </separator>
   </separator>
   <separator name="electronic dipolcorrection" >
    <i type="logical" name="LDIPOL"> F  </i>
    <i type="logical" name="LMONO"> F  </i>
    <i type="int" name="IDIPOL">     0</i>
    <i name="EPSILON">      1.00000000</i>
    <v name="DIPOL">   -100.00000000   -100.00000000   -100.00000000</v>
    <i name="EFIELD">      0.00000000</i>
   </separator>
  </separator>
  <separator name="grids" >
   <i type="int" name="NGX">    36</i>
   <i type="int" name="NGY">    36</i>
   <i type="int" name="NGZ">   140</i>
   <i type="int" name="NGXF">    72</i>
   <i type="int" name="NGYF">    72</i>
   <i type="int" name="NGZF">   280</i>
   <i type="logical" name="ADDGRID"> F  </i>
  </separator>
  <separator name="ionic" >
   <i type="int" name="NSW">     0</i>
   <i type="int" name="IBRION">    -1</i>
   <i type="int" name="MDALGO">     0</i>
   <i type="int" name="ISIF">     2</i>
   <i name="PSTRESS">      0.00000000</i>
   <i name="EDIFFG">     -0.00000100</i>
   <i type="int" name="NFREE">     0</i>
   <i name="POTIM">      0.50000000</i>
   <i name="SMASS">     -3.00000000</i>
   <i name="SCALEE">      1.00000000</i>
  </separator>
  <separator name="ionic md" >
   <i name="TEBEG">      0.00010000</i>
   <i name="TEEND">      0.00010000</i>
   <i type="int" name="NBLOCK">     1</i>
   <i type="int" name="KBLOCK">     1</i>
   <i type="int" name="NPACO">   256</i>
   <i name="APACO">     16.00000000</i>
  </separator>
  <separator name="symmetry" >
   <i type="int" name="ISYM">     2</i>
   <i name="SYMPREC">      0.00001000</i>
  </separator>
  <separator name="dos" >
   <i type="int" name="LORBIT">     0</i>
   <v name="RWIGS">     -1.00000000     -1.00000000</v>
   <i type="int" name="NEDOS">   301</i>
   <i name="EMIN">     10.00000000</i>
   <i name="EMAX">    -10.00000000</i>
   <i name="EFERMI">      0.00000000</i>
  </separator>
  <separator name="writing" >
   <i type="int" name="NWRITE">     2</i>
   <i type="logical" name="LWAVE"> T  </i>
   <i type="logical" name="LDOWNSAMPLE"> F  </i>
   <i type="logical" name="LCHARG"> T  </i>
   <i type="logical" name="LPARD"> F  </i>
   <i type="logical" name="LVTOT"> F  </i>
   <i type="logical" name="LVHAR"> F  </i>
   <i type="logical" name="LELF"> F  </i>
   <i type="logical" name="LOPTICS"> F  </i>
   <v name="STM">      0.00000000      0.00000000      0.00000000      0.00000000      0.00000000      0.00000000      0.00000000</v>
  </separator>
  <separator name="performance" >
   <i type="int" name="NPAR">    12</i>
   <i type="int" name="NSIM">     4</i>
   <i type="int" name="NBLK">    -1</i>
   <i type="logical" name="LPLANE"> T  </i>
   <i type="logical" name="LSCALAPACK"> T  </i>
   <i type="logical" name="LSCAAWARE"> F  </i>
   <i type="logical" name="LSCALU"> F  </i>
   <i type="logical" name="LASYNC"> F  </i>
   <i type="logical" name="LORBITALREAL"> F  </i>
  </separator>
  <separator name="miscellaneous" >
   <i type="int" name="IDIOT">     3</i>
   <i type="int" name="ISPECIAL">     0</i>
   <i type="logical" name="LMUSIC"> F  </i>
   <v name="POMASS">     10.81100000     12.01100000</v>
   <v name="DARWINR">      0.00000000      0.00000000</v>
   <v name="DARWINV">      1.00000000      1.00000000</v>
   <i type="logical" name="LCORR"> T  </i>
  </separator>
  <i type="logical" name="GGA_COMPAT"> T  </i>
  <i type="logical" name="LBERRY"> F  </i>
  <i type="int" name="ICORELEVEL">     0</i>
  <i type="logical" name="LDAU"> F  </i>
  <i type="int" name="I_CONSTRAINED_M">     0</i>
  <separator name="electronic exchange-correlation" >
   <i type="string" name="GGA">--</i>
   <i type="int" name="VOSKOWN">     0</i>
   <i type="logical" name="LHFCALC"> F  </i>
   <i type="string" name="PRECFOCK"></i>
   <i type="logical" name="LSYMGRAD"> F  </i>
   <i type="logical" name="LHFONE"> F  </i>
   <i type="logical" name="LRHFCALC"> F  </i>
   <i type="logical" name="LTHOMAS"> F  </i>
   <i type="logical" name="LMODELHF"> F  </i>
   <i name="ENCUT4O">     -1.00000000</i>
   <i type="int" name="EXXOEP">     0</i>
   <i type="int" name="FOURORBIT">     0</i>
   <i name="AEXX">      0.00000000</i>
   <i name="HFALPHA">      0.00000000</i>
   <i name="MCALPHA">      0.00000000</i>
   <i name="ALDAX">      1.00000000</i>
   <i name="AGGAX">      1.00000000</i>
   <i name="ALDAC">      1.00000000</i>
   <i name="AGGAC">      1.00000000</i>
   <i type="int" name="NKREDX">     1</i>
   <i type="int" name="NKREDY">     1</i>
   <i type="int" name="NKREDZ">     1</i>
   <i type="logical" name="SHIFTRED"> F  </i>
   <i type="logical" name="ODDONLY"> F  </i>
   <i type="logical" name="EVENONLY"> F  </i>
   <i type="int" name="LMAXFOCK">     0</i>
   <i type="int" name="NMAXFOCKAE">     0</i>
   <i type="logical" name="LFOCKAEDFT"> F  </i>
   <i name="HFSCREEN">      0.00000000</i>
   <i name="HFSCREENC">      0.00000000</i>
   <i type="int" name="NBANDSGWLOW">     0</i>
  </separator>
  <separator name="vdW DFT" >
   <i type="logical" name="LUSE_VDW"> F  </i>
   <i name="Zab_VDW">     -0.84910000</i>
   <i name="PARAM1">      0.12340000</i>
   <i name="PARAM2">      1.00000000</i>
   <i name="PARAM3">      0.00000000</i>
  </separator>
  <separator name="model GW" >
   <i type="int" name="MODEL_GW">     0</i>
   <i name="MODEL_EPS0">     34.77704100</i>
   <i name="MODEL_ALPHA">      1.00000000</i>
  </separator>
  <separator name="linear response parameters" >
   <i type="logical" name="LEPSILON"> F  </i>
   <i type="logical" name="LRPA"> F  </i>
   <i type="logical" name="LNABLA"> F  </i>
   <i type="logical" name="LVEL"> F  </i>
   <i type="int" name="KINTER">     0</i>
   <i name="CSHIFT">      0.10000000</i>
   <i name="OMEGAMAX">     -1.00000000</i>
   <i name="DEG_THRESHOLD">      0.00200000</i>
   <i name="RTIME">     -0.10000000</i>
   <i name="WPLASMAI">      0.00000000</i>
   <v name="DFIELD">      0.00000000      0.00000000      0.00000000</v>
   <v name="WPLASMA">      0.00000000      0.00000000      0.00000000      0.00000000      0.00000000      0.00000000      0.00000000      0.00000000      0.00000000</v>
  </separator>
  <separator name="orbital magnetization" >
   <i type="logical" name="NUCIND"> F  </i>
   <v name="MAGPOS">      0.00000000      0.00000000      0.00000000</v>
   <i type="logical" name="LNICSALL"> T  </i>
   <i type="logical" name="ORBITALMAG"> F  </i>
   <i type="logical" name="LMAGBLOCH"> F  </i>
   <i type="logical" name="LCHIMAG"> F  </i>
   <i type="logical" name="LGAUGE"> T  </i>
   <i type="int" name="MAGATOM">     0</i>
   <v name="MAGDIPOL">      0.00000000      0.00000000      0.00000000</v>
   <v name="AVECCONST">      0.00000000      0.00000000      0.00000000</v>
  </separator>
  <separator name="response functions" >
   <i type="logical" name="LADDER"> F  </i>
   <i type="logical" name="LRPAFORCE"> F  </i>
   <i type="logical" name="LFXC"> F  </i>
   <i type="logical" name="LHARTREE"> T  </i>
   <i type="int" name="IBSE">     0</i>
   <v type="int" name="KPOINT">    -1     0     0     0</v>
   <i type="logical" name="LTCTE"> F  </i>
   <i type="logical" name="LTETE"> F  </i>
   <i type="logical" name="LTRIPLET"> F  </i>
   <i type="logical" name="LFXCEPS"> F  </i>
   <i type="logical" name="LFXHEG"> F  </i>
   <i type="int" name="NATURALO">     2</i>
   <i type="logical" name="L2ORDER"> F  </i>
   <i type="logical" name="LMP2LT"> F  </i>
   <i type="logical" name="LUSEW"> F  </i>
   <i name="ENCUTGW">     -2.00000000</i>
   <i name="ENCUTGWSOFT">     -2.00000000</i>
   <i name="ENCUTLF">     -1.00000000</i>
   <i type="int" name="LMAXMP2">    -1</i>
   <i name="SCISSOR">      0.00000000</i>
   <i type="int" name="NOMEGA">     0</i>
   <i type="int" name="NOMEGAR">     0</i>
   <i type="int" name="NBANDSGW">    -1</i>
   <i type="int" name="NBANDSO">    -1</i>
   <i type="int" name="NBANDSV">    -1</i>
   <i type="int" name="NELM">     1</i>
   <i type="int" name="NELMHF">     1</i>
   <i type="int" name="DIM">     3</i>
   <i type="int" name="ANTIRES">     0</i>
   <i name="OMEGAMAX">    -30.00000000</i>
   <i name="OMEGAMIN">    -30.00000000</i>
   <i name="OMEGATL">   -200.00000000</i>
   <i type="int" name="OMEGAGRID">   140</i>
   <i name="CSHIFT">     -0.10000000</i>
   <i type="logical" name="SELFENERGY"> F  </i>
   <i type="logical" name="LSPECTRAL"> F  </i>
   <i type="logical" name="LSPECTRALGW"> F  </i>
   <i type="logical" name="LSINGLES"> F  </i>
   <i type="logical" name="LFERMIGW"> F  </i>
   <i type="logical" name="ODDONLYGW"> F  </i>
   <i type="logical" name="EVENONLYGW"> F  </i>
   <i type="int" name="NKREDLFX">     1</i>
   <i type="int" name="NKREDLFY">     1</i>
   <i type="int" name="NKREDLFZ">     1</i>
   <i type="int" name="MAXMEM">  2800</i>
   <i type="int" name="TELESCOPE">     0</i>
   <i type="int" name="TAUPAR">     1</i>
   <i type="int" name="OMEGAPAR">    -1</i>
   <i name="LAMBDA">      1.00000000</i>
  </separator>
  <separator name="External order field" >
   <i name="OFIELD_KAPPA">      0.00000000</i>
   <v name="OFIELD_K">      0.00000000      0.00000000      0.00000000</v>
   <i name="OFIELD_Q6_NEAR">      0.00000000</i>
   <i name="OFIELD_Q6_FAR">      0.00000000</i>
   <i name="OFIELD_A">      0.00000000</i>
  </separator>
 </parameters>
 <atominfo>
  <atoms>       8 </atoms>
  <types>       2 </types>
  <array name="atoms" >
   <dimension dim="1">ion</dimension>
   <field type="string">element</field>
   <field type="int">atomtype</field>
   <set>
    <rc><c>B </c><c>   1</c></rc>
    <rc><c>B </c><c>   1</c></rc>
    <rc><c>C </c><c>   2</c></rc>
    <rc><c>C </c><c>   2</c></rc>
    <rc><c>C </c><c>   2</c></rc>
    <rc><c>C </c><c>   2</c></rc>
    <rc><c>C </c><c>   2</c></rc>
    <rc><c>C </c><c>   2</c></rc>
   </set>
  </array>
  <array name="atomtypes" >
   <dimension dim="1">type</dimension>
   <field type="int">atomspertype</field>
   <field type="string">element</field>
   <field>mass</field>
   <field>valence</field>
   <field type="string">pseudopotential</field>
   <set>
    <rc><c>   2</c><c>B </c><c>     10.81100000</c><c>      3.00000000</c><c>  PAW_PBE B 06Sep2000                   </c></rc>
    <rc><c>   6</c><c>C </c><c>     12.01100000</c><c>      4.00000000</c><c>  PAW_PBE C 08Apr2002                   </c></rc>
   </set>
  </array>
 </atominfo>
 <structure name="initialpos" >
  <crystal>
   <varray name="basis" >
    <v>       5.17400000       0.00000000       0.00000000 </v>
    <v>       2.58700000       4.48100000       0.00000000 </v>
    <v>       0.00000000       0.00000000      20.00000000 </v>
   </varray>
   <i name="volume">    463.69388000 </i>
   <varray name="rec_basis" >
    <v>       0.19327406      -0.11158224       0.00000000 </v>
    <v>       0.00000000       0.22316447       0.00000000 </v>
    <v>       0.00000000       0.00000000       0.05000000 </v>
   </varray>
  </crystal>
  <varray name="positions" >
   <v>       0.17457326       0.17462620       0.00000000 </v>
   <v>       0.50792519       0.50792234       0.00000000 </v>
   <v>       0.00000000       0.00000000       0.00000000 </v>
   <v>       0.52377271       0.00000000       0.00000000 </v>
   <v>       0.68255138       0.15866994       0.00000000 </v>
   <v>       0.99994706       0.52387860       0.00000000 </v>
   <v>       0.15872573       0.68254854       0.00000000 </v>
   <v>       0.68249844       0.68254854       0.00000000 </v>
  </varray>
 </structure>
 <calculation>
  <scstep>
   <time name="dav">    1.09    1.09</time>
   <time name="total">    1.25    1.25</time>
   <energy>
    <i name="alphaZ">     10.93933817 </i>
    <i name="ewald">   4060.05404224 </i>
    <i name="hartreedc">  -4796.78910906 </i>
    <i name="XCdc">     91.14028263 </i>
    <i name="pawpsdc">    738.13200929 </i>
    <i name="pawaedc">   -739.83780425 </i>
    <i name="eentropy">      0.00000000 </i>
    <i name="bandstr">   -207.64699817 </i>
    <i name="atom">   1025.09994095 </i>
    <i name="e_fr_energy">    181.09170180 </i>
    <i name="e_wo_entrp">    181.09170180 </i>
    <i name="e_0_energy">    181.09170180 </i>
   </energy>
  </scstep>
  <scstep>
   <time name="dav">    1.28    1.28</time>
   <time name="total">    1.28    1.28</time>
   <energy>
    <i name="e_fr_energy">    -42.76057825 </i>
    <i name="e_wo_entrp">    -42.76057825 </i>
    <i name="e_0_energy">    -42.76057825 </i>
   </energy>
  </scstep>
  <scstep>
   <time name="dav">    1.18    1.18</time>
   <time name="total">    1.18    1.18</time>
   <energy>
    <i name="e_fr_energy">    -72.65291784 </i>
    <i name="e_wo_entrp">    -72.65291784 </i>
    <i name="e_0_energy">    -72.65291784 </i>
   </energy>
  </scstep>
  <scstep>
   <time name="dav">    1.31    1.31</time>
   <time name="total">    1.31    1.31</time>
   <energy>
    <i name="e_fr_energy">    -73.40167917 </i>
    <i name="e_wo_entrp">    -73.40167917 </i>
    <i name="e_0_energy">    -73.40167917 </i>
   </energy>
  </scstep>
  <scstep>
   <time name="dav">    1.21    1.21</time>
   <time name="total">    1.34    1.34</time>
   <energy>
    <i name="e_fr_energy">    -73.42173798 </i>
    <i name="e_wo_entrp">    -73.42173798 </i>
    <i name="e_0_energy">    -73.42173798 </i>
   </energy>
  </scstep>
  <scstep>
   <time name="dav">    1.34    1.34</time>
   <time name="total">    1.61    1.61</time>
   <energy>
    <i name="e_fr_energy">    -68.98161849 </i>
    <i name="e_wo_entrp">    -68.98161849 </i>
    <i name="e_0_energy">    -68.98161849 </i>
   </energy>
  </scstep>
  <scstep>
   <time name="dav">    1.33    1.33</time>
   <time name="total">    1.60    1.61</time>
   <energy>
    <i name="e_fr_energy">    -67.33462238 </i>
    <i name="e_wo_entrp">    -67.33462238 </i>
    <i name="e_0_energy">    -67.33462238 </i>
   </energy>
  </scstep>
  <scstep>
   <time name="dav">    1.16    1.16</time>
   <time name="total">    1.43    1.43</time>
   <energy>
    <i name="e_fr_energy">    -67.25838863 </i>
    <i name="e_wo_entrp">    -67.25838863 </i>
    <i name="e_0_energy">    -67.25838863 </i>
   </energy>
  </scstep>
  <scstep>
   <time name="dav">    1.21    1.21</time>
   <time name="total">    1.48    1.48</time>
   <energy>
    <i name="e_fr_energy">    -67.24095436 </i>
    <i name="e_wo_entrp">    -67.24095436 </i>
    <i name="e_0_energy">    -67.24095436 </i>
   </energy>
  </scstep>
  <scstep>
   <time name="dav">    1.16    1.16</time>
   <time name="total">    1.44    1.44</time>
   <energy>
    <i name="e_fr_energy">    -67.22984358 </i>
    <i name="e_wo_entrp">    -67.22984358 </i>
    <i name="e_0_energy">    -67.22984358 </i>
   </energy>
  </scstep>
  <scstep>
   <time name="dav">    1.11    1.11</time>
   <time name="total">    1.38    1.38</time>
   <energy>
    <i name="e_fr_energy">    -67.22867956 </i>
    <i name="e_wo_entrp">    -67.22867956 </i>
    <i name="e_0_energy">    -67.22867956 </i>
   </energy>
  </scstep>
  <scstep>
   <time name="dav">    1.05    1.05</time>
   <time name="total">    1.32    1.32</time>
   <energy>
    <i name="e_fr_energy">    -67.22899769 </i>
    <i name="e_wo_entrp">    -67.22899769 </i>
    <i name="e_0_energy">    -67.22899769 </i>
   </energy>
  </scstep>
  <scstep>
   <time name="dav">    1.00    1.00</time>
   <time name="total">    1.27    1.27</time>
   <energy>
    <i name="e_fr_energy">    -67.23289029 </i>
    <i name="e_wo_entrp">    -67.23289029 </i>
    <i name="e_0_energy">    -67.23289029 </i>
   </energy>
  </scstep>
  <scstep>
   <time name="dav">    1.10    1.10</time>
   <time name="total">    1.37    1.37</time>
   <energy>
    <i name="e_fr_energy">    -67.23559725 </i>
    <i name="e_wo_entrp">    -67.23559725 </i>
    <i name="e_0_energy">    -67.23559725 </i>
   </energy>
  </scstep>
  <scstep>
   <time name="dav">    1.05    1.05</time>
   <time name="total">    1.32    1.32</time>
   <energy>
    <i name="e_fr_energy">    -67.23636731 </i>
    <i name="e_wo_entrp">    -67.23636731 </i>
    <i name="e_0_energy">    -67.23636731 </i>
   </energy>
  </scstep>
  <scstep>
   <time name="dav">    1.05    1.05</time>
   <time name="total">    1.33    1.33</time>
   <energy>
    <i name="e_fr_energy">    -67.23666566 </i>
    <i name="e_wo_entrp">    -67.23666566 </i>
    <i name="e_0_energy">    -67.23666566 </i>
   </energy>
  </scstep>
  <scstep>
   <time name="dav">    1.15    1.15</time>
   <time name="total">    1.42    1.42</time>
   <energy>
    <i name="e_fr_energy">    -67.23674234 </i>
    <i name="e_wo_entrp">    -67.23674234 </i>
    <i name="e_0_energy">    -67.23674234 </i>
   </energy>
  </scstep>
  <scstep>
   <time name="dav">    1.21    1.21</time>
   <time name="total">    1.48    1.48</time>
   <energy>
    <i name="e_fr_energy">    -67.23676945 </i>
    <i name="e_wo_entrp">    -67.23676945 </i>
    <i name="e_0_energy">    -67.23676945 </i>
   </energy>
  </scstep>
  <scstep>
   <time name="dav">    1.05    1.05</time>
   <time name="total">    1.32    1.32</time>
   <energy>
    <i name="e_fr_energy">    -67.23678456 </i>
    <i name="e_wo_entrp">    -67.23678456 </i>
    <i name="e_0_energy">    -67.23678456 </i>
   </energy>
  </scstep>
  <scstep>
   <time name="dav">    0.84    0.84</time>
   <time name="total">    1.11    1.11</time>
   <energy>
    <i name="e_fr_energy">    -67.23679505 </i>
    <i name="e_wo_entrp">    -67.23679505 </i>
    <i name="e_0_energy">    -67.23679505 </i>
   </energy>
  </scstep>
  <scstep>
   <time name="dav">    0.84    0.84</time>
   <time name="total">    1.11    1.12</time>
   <energy>
    <i name="e_fr_energy">    -67.23679973 </i>
    <i name="e_wo_entrp">    -67.23679973 </i>
    <i name="e_0_energy">    -67.23679973 </i>
   </energy>
  </scstep>
  <scstep>
   <time name="dav">    0.84    0.84</time>
   <time name="total">    0.98    0.98</time>
   <energy>
    <i name="alphaZ">     10.93933817 </i>
    <i name="ewald">   4060.05404224 </i>
    <i name="hartreedc">  -4938.70525277 </i>
    <i name="XCdc">     96.02736096 </i>
    <i name="pawpsdc">   2920.96470173 </i>
    <i name="pawaedc">  -2923.45111188 </i>
    <i name="eentropy">      0.00000000 </i>
    <i name="bandstr">   -318.16582001 </i>
    <i name="atom">   1025.09994095 </i>
    <i name="e_fr_energy">    -67.23680062 </i>
    <i name="e_wo_entrp">    -67.23680062 </i>
    <i name="e_0_energy">    -67.23680062 </i>
   </energy>
  </scstep>
  <structure>
   <crystal>
    <varray name="basis" >
     <v>       5.17400000       0.00000000       0.00000000 </v>
     <v>       2.58700000       4.48100000       0.00000000 </v>
     <v>       0.00000000       0.00000000      20.00000000 </v>
    </varray>
    <i name="volume">    463.69388000 </i>
    <varray name="rec_basis" >
     <v>       0.19327406      -0.11158224       0.00000000 </v>
     <v>       0.00000000       0.22316447       0.00000000 </v>
     <v>       0.00000000       0.00000000       0.05000000 </v>
    </varray>
   </crystal>
   <varray name="positions" >
    <v>       0.17457326       0.17462620       0.00000000 </v>
    <v>       0.50792519       0.50792234       0.00000000 </v>
    <v>       0.00000000       0.00000000       0.00000000 </v>
    <v>       0.52377271       0.00000000       0.00000000 </v>
    <v>       0.68255138       0.15866994       0.00000000 </v>
    <v>       0.99994706       0.52387860       0.00000000 </v>
    <v>       0.15872573       0.68254854       0.00000000 </v>
    <v>       0.68249844       0.68254854       0.00000000 </v>
   </varray>
  </structure>
  <varray name="forces" >
   <v>       0.00000000       0.00446406      -0.00000000 </v>
   <v>      -0.00000000      -0.00446406      -0.00000000 </v>
   <v>      -0.08050864      -0.04741989      -0.00000000 </v>
   <v>       0.08050864      -0.04741989      -0.00000000 </v>
   <v>      -0.00000000      -0.08087523       0.00000000 </v>
   <v>       0.00000000       0.08087523      -0.00000000 </v>
   <v>      -0.08050864       0.04741989      -0.00000000 </v>
   <v>       0.08050864       0.04741989      -0.00000000 </v>
  </varray>
  <varray name="stress" >
   <v>      -2.26504676       0.00000000       0.00000000 </v>
   <v>      -0.00000000      -2.31641659       0.00000000 </v>
   <v>       0.00000000       0.00000000      -2.74983441 </v>
  </varray>
  <energy>
   <i name="e_fr_energy">    -67.23680062 </i>
   <i name="e_wo_entrp">    -67.23680062 </i>
   <i name="e_0_energy">      0.00000000 </i>
  </energy>
  <time name="totalsc">   32.37   33.49</time>
  <eigenvalues>
   <array>
    <dimension dim="1">band</dimension>
    <dimension dim="2">kpoint</dimension>
    <dimension dim="3">spin</dimension>
    <field>eigene</field>
    <field>occ</field>
    <set>
     <set comment="spin 1">
      <set comment="kpoint 1">
       <r>  -20.3043    1.0000 </r>
       <r>  -16.4137    1.0000 </r>
       <r>  -16.4132    1.0000 </r>
       <r>  -14.0714    1.0000 </r>
       <r>  -14.0710    1.0000 </r>
       <r>  -13.0014    1.0000 </r>
       <r>  -11.6975    1.0000 </r>
       <r>   -9.1109    1.0000 </r>
       <r>   -8.8864    1.0000 </r>
       <r>   -6.7443    1.0000 </r>
       <r>   -6.7433    1.0000 </r>
       <r>   -4.9104    1.0000 </r>
       <r>   -4.9103    1.0000 </r>
       <r>   -4.2366    1.0000 </r>
       <r>   -4.2341    1.0000 </r>
       <r>   -2.4109    0.0000 </r>
       <r>   -0.6640    0.0000 </r>
       <r>   -0.6635    0.0000 </r>
       <r>   -0.0157    0.0000 </r>
       <r>    0.4135    0.0000 </r>
       <r>    1.2638    0.0000 </r>
       <r>    1.4707    0.0000 </r>
       <r>    2.4945    0.0000 </r>
       <r>    2.8429    0.0000 </r>
      </set>
      <set comment="kpoint 2">
       <r>  -20.0742    1.0000 </r>
       <r>  -17.2701    1.0000 </r>
       <r>  -16.6835    1.0000 </r>
       <r>  -14.3763    1.0000 </r>
       <r>  -13.3171    1.0000 </r>
       <r>  -11.9424    1.0000 </r>
       <r>  -10.4939    1.0000 </r>
       <r>   -9.4410    1.0000 </r>
       <r>   -8.7474    1.0000 </r>
       <r>   -7.7195    1.0000 </r>
       <r>   -6.7915    1.0000 </r>
       <r>   -5.8569    1.0000 </r>
       <r>   -5.4057    1.0000 </r>
       <r>   -5.0551    1.0000 </r>
       <r>   -4.7722    1.0000 </r>
       <r>   -3.2462    0.0000 </r>
       <r>   -0.2104    0.0000 </r>
       <r>    0.4542    0.0000 </r>
       <r>    0.8764    0.0000 </r>
       <r>    1.4277    0.0000 </r>
       <r>    1.8516    0.0000 </r>
       <r>    1.9383    0.0000 </r>
       <r>    2.9666    0.0000 </r>
       <r>    3.3099    0.0000 </r>
      </set>
      <set comment="kpoint 3">
       <r>  -19.7295    1.0000 </r>
       <r>  -18.0429    1.0000 </r>
       <r>  -16.8845    1.0000 </r>
       <r>  -14.6194    1.0000 </r>
       <r>  -12.2912    1.0000 </r>
       <r>  -10.4334    1.0000 </r>
       <r>  -10.2317    1.0000 </r>
       <r>   -9.6236    1.0000 </r>
       <r>   -8.0189    1.0000 </r>
       <r>   -8.0018    1.0000 </r>
       <r>   -7.7546    1.0000 </r>
       <r>   -7.0698    1.0000 </r>
       <r>   -6.5296    1.0000 </r>
       <r>   -5.4541    1.0000 </r>
       <r>   -5.1848    1.0000 </r>
       <r>   -3.5972    0.0000 </r>
       <r>    0.2760    0.0000 </r>
       <r>    1.1235    0.0000 </r>
       <r>    2.2474    0.0000 </r>
       <r>    2.2505    0.0000 </r>
       <r>    2.9755    0.0000 </r>
       <r>    3.0280    0.0000 </r>
       <r>    3.3386    0.0000 </r>
       <r>    3.3389    0.0000 </r>
      </set>
      <set comment="kpoint 4">
       <r>  -20.0742    1.0000 </r>
       <r>  -17.2696    1.0000 </r>
       <r>  -16.6838    1.0000 </r>
       <r>  -14.3762    1.0000 </r>
       <r>  -13.3177    1.0000 </r>
       <r>  -11.9421    1.0000 </r>
       <r>  -10.4942    1.0000 </r>
       <r>   -9.4409    1.0000 </r>
       <r>   -8.7474    1.0000 </r>
       <r>   -7.7185    1.0000 </r>
       <r>   -6.7924    1.0000 </r>
       <r>   -5.8570    1.0000 </r>
       <r>   -5.4044    1.0000 </r>
       <r>   -5.0550    1.0000 </r>
       <r>   -4.7735    1.0000 </r>
       <r>   -3.2455    0.0000 </r>
       <r>   -0.2108    0.0000 </r>
       <r>    0.4531    0.0000 </r>
       <r>    0.8764    0.0000 </r>
       <r>    1.4278    0.0000 </r>
       <r>    1.8519    0.0000 </r>
       <r>    1.9383    0.0000 </r>
       <r>    2.9666    0.0000 </r>
       <r>    3.3099    0.0000 </r>
      </set>
      <set comment="kpoint 5">
       <r>  -19.7448    1.0000 </r>
       <r>  -17.7698    1.0000 </r>
       <r>  -17.3343    1.0000 </r>
       <r>  -13.7981    1.0000 </r>
       <r>  -13.1560    1.0000 </r>
       <r>  -10.7978    1.0000 </r>
       <r>  -10.0355    1.0000 </r>
       <r>   -9.0320    1.0000 </r>
       <r>   -8.1468    1.0000 </r>
       <r>   -8.1103    1.0000 </r>
       <r>   -7.3643    1.0000 </r>
       <r>   -6.6457    1.0000 </r>
       <r>   -6.5532    1.0000 </r>
       <r>   -6.0247    1.0000 </r>
       <r>   -5.8680    1.0000 </r>
       <r>   -2.6363    0.0000 </r>
       <r>   -1.0182    0.0000 </r>
       <r>    1.7955    0.0000 </r>
       <r>    2.3700    0.0000 </r>
       <r>    2.8727    0.0000 </r>
       <r>    2.9528    0.0000 </r>
       <r>    2.9851    0.0000 </r>
       <r>    3.6000    0.0000 </r>
       <r>    3.6247    0.0000 </r>
      </set>
      <set comment="kpoint 6">
       <r>  -19.7449    1.0000 </r>
       <r>  -17.7690    1.0000 </r>
       <r>  -17.3350    1.0000 </r>
       <r>  -13.7970    1.0000 </r>
       <r>  -13.1576    1.0000 </r>
       <r>  -10.7979    1.0000 </r>
       <r>  -10.0343    1.0000 </r>
       <r>   -9.0330    1.0000 </r>
       <r>   -8.1464    1.0000 </r>
       <r>   -8.1104    1.0000 </r>
       <r>   -7.3643    1.0000 </r>
       <r>   -6.6441    1.0000 </r>
       <r>   -6.5526    1.0000 </r>
       <r>   -6.0252    1.0000 </r>
       <r>   -5.8697    1.0000 </r>
       <r>   -2.6351    0.0000 </r>
       <r>   -1.0195    0.0000 </r>
       <r>    1.7954    0.0000 </r>
       <r>    2.3699    0.0000 </r>
       <r>    2.8726    0.0000 </r>
       <r>    2.9521    0.0000 </r>
       <r>    2.9853    0.0000 </r>
       <r>    3.6000    0.0000 </r>
       <r>    3.6248    0.0000 </r>
      </set>
      <set comment="kpoint 7">
       <r>  -19.7298    1.0000 </r>
       <r>  -18.0423    1.0000 </r>
       <r>  -16.8848    1.0000 </r>
       <r>  -14.6193    1.0000 </r>
       <r>  -12.2925    1.0000 </r>
       <r>  -10.4325    1.0000 </r>
       <r>  -10.2321    1.0000 </r>
       <r>   -9.6234    1.0000 </r>
       <r>   -8.0192    1.0000 </r>
       <r>   -8.0001    1.0000 </r>
       <r>   -7.7540    1.0000 </r>
       <r>   -7.0695    1.0000 </r>
       <r>   -6.5311    1.0000 </r>
       <r>   -5.4546    1.0000 </r>
       <r>   -5.1847    1.0000 </r>
       <r>   -3.5964    0.0000 </r>
       <r>    0.2755    0.0000 </r>
       <r>    1.1221    0.0000 </r>
       <r>    2.2473    0.0000 </r>
       <r>    2.2504    0.0000 </r>
       <r>    2.9754    0.0000 </r>
       <r>    3.0277    0.0000 </r>
       <r>    3.3385    0.0000 </r>
       <r>    3.3388    0.0000 </r>
      </set>
     </set>
    </set>
   </array>
  </eigenvalues>
  <separator name="orbital magnetization" >
   <v name="MAGDIPOLOUT">      0.00000000      0.00000000      0.00000000</v>
  </separator>
  <dos>
   <i name="efermi">     -4.22022333 </i>
   <total>
    <array>
     <dimension dim="1">gridpoints</dimension>
     <dimension dim="2">spin</dimension>
     <field>energy</field>
     <field>total</field>
     <field>integrated</field>
     <set>
      <set comment="spin 1">
       <r>   -22.3043     0.0000     0.0000 </r>
       <r>   -22.2112     0.0000     0.0000 </r>
       <r>   -22.1181     0.0000     0.0000 </r>
       <r>   -22.0250     0.0000     0.0000 </r>
       <r>   -21.9319     0.0000     0.0000 </r>
       <r>   -21.8388     0.0000     0.0000 </r>
       <r>   -21.7457     0.0000     0.0000 </r>
       <r>   -21.6526     0.0000     0.0000 </r>
       <r>   -21.5595     0.0000     0.0000 </r>
       <r>   -21.4664     0.0000     0.0000 </r>
       <r>   -21.3733     0.0000     0.0000 </r>
       <r>   -21.2802     0.0000     0.0000 </r>
       <r>   -21.1871     0.0000     0.0000 </r>
       <r>   -21.0940     0.0000     0.0000 </r>
       <r>   -21.0009     0.0000     0.0000 </r>
       <r>   -20.9078     0.0000     0.0000 </r>
       <r>   -20.8147     0.0000     0.0000 </r>
       <r>   -20.7216     0.0000     0.0000 </r>
       <r>   -20.6285     0.0000     0.0000 </r>
       <r>   -20.5354     0.0000     0.0000 </r>
       <r>   -20.4423     0.0000     0.0000 </r>
       <r>   -20.3493     0.0000     0.0000 </r>
       <r>   -20.2562     0.6818     0.0164 </r>
       <r>   -20.1631     2.0007     0.1413 </r>
       <r>   -20.0700     2.3043     0.3847 </r>
       <r>   -19.9769     2.8910     0.6265 </r>
       <r>   -19.8838     3.4777     0.9230 </r>
       <r>   -19.7907     4.0644     1.2741 </r>
       <r>   -19.6976     0.0000     2.0000 </r>
       <r>   -19.6045     0.0000     2.0000 </r>
       <r>   -19.5114     0.0000     2.0000 </r>
       <r>   -19.4183     0.0000     2.0000 </r>
       <r>   -19.3252     0.0000     2.0000 </r>
       <r>   -19.2321     0.0000     2.0000 </r>
       <r>   -19.1390     0.0000     2.0000 </r>
       <r>   -19.0459     0.0000     2.0000 </r>
       <r>   -18.9528     0.0000     2.0000 </r>
       <r>   -18.8597     0.0000     2.0000 </r>
       <r>   -18.7666     0.0000     2.0000 </r>
       <r>   -18.6735     0.0000     2.0000 </r>
       <r>   -18.5804     0.0000     2.0000 </r>
       <r>   -18.4873     0.0000     2.0000 </r>
       <r>   -18.3942     0.0000     2.0000 </r>
       <r>   -18.3011     0.0000     2.0000 </r>
       <r>   -18.2080     0.0000     2.0000 </r>
       <r>   -18.1149     0.0000     2.0000 </r>
       <r>   -18.0218     0.3577     2.0037 </r>
       <r>   -17.9287     1.9521     2.1113 </r>
       <r>   -17.8356     3.5464     2.3672 </r>
       <r>   -17.7425     1.9176     2.8169 </r>
       <r>   -17.6494     1.8357     2.9916 </r>
       <r>   -17.5563     1.7539     3.1587 </r>
       <r>   -17.4632     1.6720     3.3182 </r>
       <r>   -17.3702     1.5902     3.4700 </r>
       <r>   -17.2771     3.3584     3.8407 </r>
       <r>   -17.1840     2.9345     4.1090 </r>
       <r>   -17.0909     3.1358     4.3915 </r>
       <r>   -16.9978     3.3370     4.6928 </r>
       <r>   -16.9047     3.5383     5.0129 </r>
       <r>   -16.8116     2.7988     5.3173 </r>
       <r>   -16.7185     1.8016     5.5314 </r>
       <r>   -16.6254     2.3930     5.7462 </r>
       <r>   -16.5323     1.3429     5.9201 </r>
       <r>   -16.4392     0.2929     5.9962 </r>
       <r>   -16.3461     0.0000     6.0000 </r>
       <r>   -16.2530     0.0000     6.0000 </r>
       <r>   -16.1599     0.0000     6.0000 </r>
       <r>   -16.0668     0.0000     6.0000 </r>
       <r>   -15.9737     0.0000     6.0000 </r>
       <r>   -15.8806     0.0000     6.0000 </r>
       <r>   -15.7875     0.0000     6.0000 </r>
       <r>   -15.6944     0.0000     6.0000 </r>
       <r>   -15.6013     0.0000     6.0000 </r>
       <r>   -15.5082     0.0000     6.0000 </r>
       <r>   -15.4151     0.0000     6.0000 </r>
       <r>   -15.3220     0.0000     6.0000 </r>
       <r>   -15.2289     0.0000     6.0000 </r>
       <r>   -15.1358     0.0000     6.0000 </r>
       <r>   -15.0427     0.0000     6.0000 </r>
       <r>   -14.9496     0.0000     6.0000 </r>
       <r>   -14.8565     0.0000     6.0000 </r>
       <r>   -14.7634     0.0000     6.0000 </r>
       <r>   -14.6703     0.0000     6.0000 </r>
       <r>   -14.5772     0.3631     6.0077 </r>
       <r>   -14.4841     1.1652     6.0788 </r>
       <r>   -14.3911     1.9673     6.2246 </r>
       <r>   -14.2980     4.8831     6.6749 </r>
       <r>   -14.2049     3.7334     7.0760 </r>
       <r>   -14.1118     2.5836     7.3701 </r>
       <r>   -14.0187     1.9286     7.5701 </r>
       <r>   -13.9256     1.6531     7.7368 </r>
       <r>   -13.8325     1.3775     7.8779 </r>
       <r>   -13.7394     0.4378     8.0726 </r>
       <r>   -13.6463     0.5608     8.1191 </r>
       <r>   -13.5532     0.6837     8.1770 </r>
       <r>   -13.4601     0.8066     8.2464 </r>
       <r>   -13.3670     0.9296     8.3272 </r>
       <r>   -13.2739     3.8087     8.5593 </r>
       <r>   -13.1808     1.9386     8.8268 </r>
       <r>   -13.0877     2.1423     9.1473 </r>
       <r>   -12.9946     1.8963     9.3351 </r>
       <r>   -12.9015     1.7080     9.5029 </r>
       <r>   -12.8084     1.5198     9.6531 </r>
       <r>   -12.7153     1.3315     9.7858 </r>
       <r>   -12.6222     1.1432     9.9010 </r>
       <r>   -12.5291     0.9549     9.9987 </r>
       <r>   -12.4360     0.7666    10.0788 </r>
       <r>   -12.3429     0.5783    10.1414 </r>
       <r>   -12.2498     0.5025    10.1888 </r>
       <r>   -12.1567     0.5648    10.2385 </r>
       <r>   -12.0636     0.6270    10.2940 </r>
       <r>   -11.9705     0.6893    10.3553 </r>
       <r>   -11.8774     0.6745    10.4181 </r>
       <r>   -11.7843     0.7021    10.4822 </r>
       <r>   -11.6912     0.7329    10.5489 </r>
       <r>   -11.5981     0.8086    10.6206 </r>
       <r>   -11.5051     0.8844    10.6994 </r>
       <r>   -11.4120     0.9601    10.7853 </r>
       <r>   -11.3189     1.0358    10.8782 </r>
       <r>   -11.2258     1.1116    10.9781 </r>
       <r>   -11.1327     1.1873    11.0851 </r>
       <r>   -11.0396     1.2631    11.1992 </r>
       <r>   -10.9465     1.3388    11.3203 </r>
       <r>   -10.8534     1.4146    11.4485 </r>
       <r>   -10.7603     3.2212    11.7799 </r>
       <r>   -10.6672     2.4909    12.0457 </r>
       <r>   -10.5741     1.7607    12.2436 </r>
       <r>   -10.4810     2.1493    12.3874 </r>
       <r>   -10.3879     2.5774    12.5984 </r>
       <r>   -10.2948     3.4060    12.8769 </r>
       <r>   -10.2017     3.9418    13.2282 </r>
       <r>   -10.1086     3.8653    13.5916 </r>
       <r>   -10.0155     0.0000    14.0000 </r>
       <r>    -9.9224     0.0000    14.0000 </r>
       <r>    -9.8293     0.0000    14.0000 </r>
       <r>    -9.7362     0.0000    14.0000 </r>
       <r>    -9.6431     0.0000    14.0000 </r>
       <r>    -9.5500     1.1806    14.0434 </r>
       <r>    -9.4569     2.6751    14.2229 </r>
       <r>    -9.3638     5.8477    14.7648 </r>
       <r>    -9.2707     4.4091    15.2422 </r>
       <r>    -9.1776     2.9705    15.5857 </r>
       <r>    -9.0845     1.7135    15.7977 </r>
       <r>    -8.9914     0.0000    16.0000 </r>
       <r>    -8.8983     0.0000    16.0000 </r>
       <r>    -8.8052     3.1505    16.1278 </r>
       <r>    -8.7121     1.2957    16.4198 </r>
       <r>    -8.6190     1.4214    16.5463 </r>
       <r>    -8.5260     1.5470    16.6845 </r>
       <r>    -8.4329     1.6727    16.8344 </r>
       <r>    -8.3398     1.7984    16.9959 </r>
       <r>    -8.2467     1.9241    17.1692 </r>
       <r>    -8.1536     2.0497    17.3542 </r>
       <r>    -8.0605     8.3096    18.3858 </r>
       <r>    -7.9674     4.0746    18.8813 </r>
       <r>    -7.8743     3.2654    19.2230 </r>
       <r>    -7.7812     2.4562    19.4893 </r>
       <r>    -7.6881     1.3365    19.6681 </r>
       <r>    -7.5950     2.0937    19.8278 </r>
       <r>    -7.5019     2.8510    20.0580 </r>
       <r>    -7.4088     3.6082    20.3586 </r>
       <r>    -7.3157     1.9881    20.7503 </r>
       <r>    -7.2226     1.8743    20.9301 </r>
       <r>    -7.1295     1.7604    21.0993 </r>
       <r>    -7.0364     1.8818    21.2618 </r>
       <r>    -6.9433     2.4253    21.4623 </r>
       <r>    -6.8502     2.9687    21.7134 </r>
       <r>    -6.7571     6.6227    22.3146 </r>
       <r>    -6.6640     2.8645    22.5810 </r>
       <r>    -6.5709     1.2102    22.8531 </r>
       <r>    -6.4778     2.4656    23.5474 </r>
       <r>    -6.3847     2.3768    23.7728 </r>
       <r>    -6.2916     2.2880    23.9899 </r>
       <r>    -6.1985     2.1992    24.1988 </r>
       <r>    -6.1054     2.1104    24.3994 </r>
       <r>    -6.0123     3.3509    24.7335 </r>
       <r>    -5.9192     3.3742    25.0465 </r>
       <r>    -5.8261     4.3628    25.5296 </r>
       <r>    -5.7330     4.4370    25.9392 </r>
       <r>    -5.6400     4.5111    26.3558 </r>
       <r>    -5.5469     4.5852    26.7792 </r>
       <r>    -5.4538     4.6571    27.2095 </r>
       <r>    -5.3607     5.0845    27.6639 </r>
       <r>    -5.2676     4.5302    28.1115 </r>
       <r>    -5.1745     3.9378    28.5072 </r>
       <r>    -5.0814     3.0374    28.8319 </r>
       <r>    -4.9883     2.4108    29.0867 </r>
       <r>    -4.8952     1.7517    29.2781 </r>
       <r>    -4.8021     1.3965    29.4247 </r>
       <r>    -4.7090     1.7569    29.5835 </r>
       <r>    -4.6159     1.4119    29.7310 </r>
       <r>    -4.5228     1.0670    29.8464 </r>
       <r>    -4.4297     0.7220    29.9296 </r>
       <r>    -4.3366     0.3771    29.9808 </r>
       <r>    -4.2435     0.0322    29.9999 </r>
       <r>    -4.1504     0.0000    30.0000 </r>
       <r>    -4.0573     0.0000    30.0000 </r>
       <r>    -3.9642     0.0000    30.0000 </r>
       <r>    -3.8711     0.0000    30.0000 </r>
       <r>    -3.7780     0.0000    30.0000 </r>
       <r>    -3.6849     0.0000    30.0000 </r>
       <r>    -3.5918     0.0267    30.0001 </r>
       <r>    -3.4987     0.5161    30.0253 </r>
       <r>    -3.4056     1.0055    30.0962 </r>
       <r>    -3.3125     1.4949    30.2125 </r>
       <r>    -3.2194     3.8437    30.4273 </r>
       <r>    -3.1263     3.3938    30.7642 </r>
       <r>    -3.0332     2.9439    31.0592 </r>
       <r>    -2.9401     2.4940    31.3123 </r>
       <r>    -2.8470     2.0441    31.5236 </r>
       <r>    -2.7539     1.5942    31.6929 </r>
       <r>    -2.6609     1.1443    31.8204 </r>
       <r>    -2.5678     0.1687    31.9868 </r>
       <r>    -2.4747     0.0686    31.9978 </r>
       <r>    -2.3816     0.0000    32.0000 </r>
       <r>    -2.2885     0.0000    32.0000 </r>
       <r>    -2.1954     0.0000    32.0000 </r>
       <r>    -2.1023     0.0000    32.0000 </r>
       <r>    -2.0092     0.0000    32.0000 </r>
       <r>    -1.9161     0.0000    32.0000 </r>
       <r>    -1.8230     0.0000    32.0000 </r>
       <r>    -1.7299     0.0000    32.0000 </r>
       <r>    -1.6368     0.0000    32.0000 </r>
       <r>    -1.5437     0.0000    32.0000 </r>
       <r>    -1.4506     0.0000    32.0000 </r>
       <r>    -1.3575     0.0000    32.0000 </r>
       <r>    -1.2644     0.0000    32.0000 </r>
       <r>    -1.1713     0.0000    32.0000 </r>
       <r>    -1.0782     0.0000    32.0000 </r>
       <r>    -0.9851     0.6516    32.1459 </r>
       <r>    -0.8920     0.8502    32.2158 </r>
       <r>    -0.7989     1.0487    32.3042 </r>
       <r>    -0.7058     1.2472    32.4111 </r>
       <r>    -0.6127     1.6632    32.5420 </r>
       <r>    -0.5196     2.2573    32.7245 </r>
       <r>    -0.4265     2.8513    32.9623 </r>
       <r>    -0.3334     3.4454    33.2554 </r>
       <r>    -0.2403     4.0395    33.6038 </r>
       <r>    -0.1472     1.5070    33.8269 </r>
       <r>    -0.0541     1.2996    33.9575 </r>
       <r>     0.0390     1.1437    34.0703 </r>
       <r>     0.1321     1.0240    34.1712 </r>
       <r>     0.2252     0.9043    34.2609 </r>
       <r>     0.3182     0.9045    34.3421 </r>
       <r>     0.4113     1.0482    34.4330 </r>
       <r>     0.5044     1.1790    34.5354 </r>
       <r>     0.5975     1.4514    34.6579 </r>
       <r>     0.6906     1.7237    34.8057 </r>
       <r>     0.7837     1.9961    34.9788 </r>
       <r>     0.8768     1.9297    35.1772 </r>
       <r>     0.9699     2.1512    35.3671 </r>
       <r>     1.0630     2.3727    35.5777 </r>
       <r>     1.1561     2.5388    35.8080 </r>
       <r>     1.2492     2.6044    36.0474 </r>
       <r>     1.3423     2.8404    36.2996 </r>
       <r>     1.4354     2.8890    36.5748 </r>
       <r>     1.5285     3.3711    36.8627 </r>
       <r>     1.6216     3.9742    37.2046 </r>
       <r>     1.7147     4.5773    37.6027 </r>
       <r>     1.8078     4.0702    38.1681 </r>
       <r>     1.9009     4.0404    38.5457 </r>
       <r>     1.9940     3.4927    38.8912 </r>
       <r>     2.0871     3.7276    39.2273 </r>
       <r>     2.1802     3.9625    39.5853 </r>
       <r>     2.2733     5.2378    39.9786 </r>
       <r>     2.3664     9.1985    40.6506 </r>
       <r>     2.4595     3.3301    41.1020 </r>
       <r>     2.5526     3.6310    41.4227 </r>
       <r>     2.6457     4.0498    41.7802 </r>
       <r>     2.7388     4.4687    42.1767 </r>
       <r>     2.8319     4.8875    42.6122 </r>
       <r>     2.9250     4.3878    43.1603 </r>
       <r>     3.0181     6.3923    44.4731 </r>
       <r>     3.1112     2.7566    44.7169 </r>
       <r>     3.2042     3.4954    45.0079 </r>
       <r>     3.2973     4.2342    45.3677 </r>
       <r>     3.3904     9.0096    46.1219 </r>
       <r>     3.4835     7.6126    46.8956 </r>
       <r>     3.5766     6.2155    47.5393 </r>
       <r>     3.6697     0.0000    48.0000 </r>
       <r>     3.7628     0.0000    48.0000 </r>
       <r>     3.8559     0.0000    48.0000 </r>
       <r>     3.9490     0.0000    48.0000 </r>
       <r>     4.0421     0.0000    48.0000 </r>
       <r>     4.1352     0.0000    48.0000 </r>
       <r>     4.2283     0.0000    48.0000 </r>
       <r>     4.3214     0.0000    48.0000 </r>
       <r>     4.4145     0.0000    48.0000 </r>
       <r>     4.5076     0.0000    48.0000 </r>
       <r>     4.6007     0.0000    48.0000 </r>
       <r>     4.6938     0.0000    48.0000 </r>
       <r>     4.7869     0.0000    48.0000 </r>
       <r>     4.8800     0.0000    48.0000 </r>
       <r>     4.9731     0.0000    48.0000 </r>
       <r>     5.0662     0.0000    48.0000 </r>
       <r>     5.1593     0.0000    48.0000 </r>
       <r>     5.2524     0.0000    48.0000 </r>
       <r>     5.3455     0.0000    48.0000 </r>
       <r>     5.4386     0.0000    48.0000 </r>
       <r>     5.5317     0.0000    48.0000 </r>
       <r>     5.6248     0.0000    48.0000 </r>
      </set>
     </set>
    </array>
   </total>
  </dos>
 </calculation>
 <structure name="finalpos" >
  <crystal>
   <varray name="basis" >
    <v>       5.17400000       0.00000000       0.00000000 </v>
    <v>       2.58700000       4.48100000       0.00000000 </v>
    <v>       0.00000000       0.00000000      20.00000000 </v>
   </varray>
   <i name="volume">    463.69388000 </i>
   <varray name="rec_basis" >
    <v>       0.19327406      -0.11158224       0.00000000 </v>
    <v>       0.00000000       0.22316447       0.00000000 </v>
    <v>       0.00000000       0.00000000       0.05000000 </v>
   </varray>
  </crystal>
  <varray name="positions" >
   <v>       0.17457326       0.17462620       0.00000000 </v>
   <v>       0.50792519       0.50792234       0.00000000 </v>
   <v>       0.00000000       0.00000000       0.00000000 </v>
   <v>       0.52377271       0.00000000       0.00000000 </v>
   <v>       0.68255138       0.15866994       0.00000000 </v>
   <v>       0.99994706       0.52387860       0.00000000 </v>
   <v>       0.15872573       0.68254854       0.00000000 </v>
   <v>       0.68249844       0.68254854       0.00000000 </v>
  </varray>
 </structure>
</modeling>
