 running on   12 total cores
 distrk:  each k-point on   12 cores,    1 groups
 distr:  one band on    1 cores,   12 groups
 using from now: INCAR     
 vasp.5.4.4.18Apr17-6-g9f103f2a35 (build Mar 30 2023 15:39:25) complex          
  
 POSCAR found :  1 types and       1 ions
 scaLAPACK will be used

 ----------------------------------------------------------------------------- 
|                                                                             |
|           W    W    AA    RRRRR   N    N  II  N    N   GGGG   !!!           |
|           W    W   A  A   R    R  NN   N  II  NN   N  G    G  !!!           |
|           W    W  A    A  R    R  N N  N  II  N N  N  G       !!!           |
|           W WW W  AAAAAA  RRRRR   N  N N  II  N  N N  G  GGG   !            |
|           WW  WW  A    A  R   R   N   NN  II  N   NN  G    G                |
|           W    W  A    A  R    R  N    N  II  N    N   GGGG   !!!           |
|                                                                             |
|      For optimal performance we recommend to set                            |
|        NCORE= 4 - approx SQRT( number of cores)                             |
|      NCORE specifies how many cores store one orbital (NPAR=cpu/NCORE).     |
|      This setting can  greatly improve the performance of VASP for DFT.     |
|      The default,   NCORE=1            might be grossly inefficient         |
|      on modern multi-core architectures or massively parallel machines.     |
|      Do your own testing !!!!                                               |
|      Unfortunately you need to use the default for GW and RPA calculations. |
|      (for HF NCORE is supported but not extensively tested yet)             |
|                                                                             |
 ----------------------------------------------------------------------------- 

 LDA part: xc-table for Pade appr. of Perdew
 POSCAR, INCAR and KPOINTS ok, starting setup
 FFT: planning ...
 WAVECAR not read
 entering main loop
       N       E                     dE             d eps       ncg     rms          rms(c)
DAV:   1    -0.280880302102E+01   -0.28088E+01   -0.96206E+02  7356   0.130E+02
DAV:   2    -0.358674235912E+01   -0.77794E+00   -0.77288E+00 10032   0.102E+01
DAV:   3    -0.358940377469E+01   -0.26614E-02   -0.26572E-02  7512   0.595E-01
DAV:   4    -0.358940602282E+01   -0.22481E-05   -0.22460E-05 12000   0.176E-02
DAV:   5    -0.358940602303E+01   -0.20422E-09   -0.20578E-10  7428   0.421E-05    0.945E-01
DAV:   6    -0.357997042462E+01    0.94356E-02   -0.77011E-03  8424   0.245E-01    0.497E-01
DAV:   7    -0.357594992172E+01    0.40205E-02   -0.14556E-02  8664   0.339E-01    0.131E-01
DAV:   8    -0.357607118213E+01   -0.12126E-03   -0.13904E-04  8760   0.486E-02    0.109E-02
DAV:   9    -0.357607516039E+01   -0.39783E-05   -0.30972E-06 10620   0.772E-03    0.344E-03
DAV:  10    -0.357607479994E+01    0.36044E-06   -0.92139E-08  8940   0.145E-03
   1 F= -.35760748E+01 E0= -.35760748E+01  d E =0.000000E+00
 writing wavefunctions
