   8   8   0   0
  0.2469169E+02  0.5174038E-09  0.5174038E-09  0.8520222E-09  0.5000000E-15
  1.000000000000000E-004
  CAR 
 BC3-optical                             
     90.01660948    -23.70970790 2400     -2.41268910      1.00000000
    -23.710  0.0000E+00  0.0000E+00
    -23.662  0.0000E+00  0.0000E+00
    -23.615  0.0000E+00  0.0000E+00
    -23.567  0.0000E+00  0.0000E+00
    -23.520  0.0000E+00  0.0000E+00
    -23.473  0.0000E+00  0.0000E+00
    -23.425  0.0000E+00  0.0000E+00
    -23.378  0.0000E+00  0.0000E+00
    -23.330  0.0000E+00  0.0000E+00
    -23.283  0.0000E+00  0.0000E+00
    -23.236  0.0000E+00  0.0000E+00
    -23.188  0.0000E+00  0.0000E+00
    -23.141  0.0000E+00  0.0000E+00
    -23.093  0.0000E+00  0.0000E+00
    -23.046  0.0000E+00  0.0000E+00
    -22.999  0.0000E+00  0.0000E+00
    -22.951  0.0000E+00  0.0000E+00
    -22.904  0.0000E+00  0.0000E+00
    -22.856  0.0000E+00  0.0000E+00
    -22.809  0.0000E+00  0.0000E+00
    -22.762  0.0000E+00  0.0000E+00
    -22.714  0.0000E+00  0.0000E+00
    -22.667  0.0000E+00  0.0000E+00
    -22.619  0.0000E+00  0.0000E+00
    -22.572  0.0000E+00  0.0000E+00
    -22.525  0.0000E+00  0.0000E+00
    -22.477  0.0000E+00  0.0000E+00
    -22.430  0.0000E+00  0.0000E+00
    -22.382  0.0000E+00  0.0000E+00
    -22.335  0.0000E+00  0.0000E+00
    -22.288  0.0000E+00  0.0000E+00
    -22.240  0.0000E+00  0.0000E+00
    -22.193  0.0000E+00  0.0000E+00
    -22.145  0.0000E+00  0.0000E+00
    -22.098  0.0000E+00  0.0000E+00
    -22.051  0.0000E+00  0.0000E+00
    -22.003  0.0000E+00  0.0000E+00
    -21.956  0.0000E+00  0.0000E+00
    -21.908  0.0000E+00  0.0000E+00
    -21.861  0.0000E+00  0.0000E+00
    -21.813  0.0000E+00  0.0000E+00
    -21.766  0.0000E+00  0.0000E+00
    -21.719  0.0000E+00  0.0000E+00
    -21.671  0.0000E+00  0.0000E+00
    -21.624  0.0000E+00  0.0000E+00
    -21.576  0.0000E+00  0.0000E+00
    -21.529  0.0000E+00  0.0000E+00
    -21.482  0.0000E+00  0.0000E+00
    -21.434  0.0000E+00  0.0000E+00
    -21.387  0.0000E+00  0.0000E+00
    -21.339  0.0000E+00  0.0000E+00
    -21.292  0.0000E+00  0.0000E+00
    -21.245  0.0000E+00  0.0000E+00
    -21.197  0.0000E+00  0.0000E+00
    -21.150  0.0000E+00  0.0000E+00
    -21.102  0.0000E+00  0.0000E+00
    -21.055  0.0000E+00  0.0000E+00
    -21.008  0.0000E+00  0.0000E+00
    -20.960  0.0000E+00  0.0000E+00
    -20.913  0.0000E+00  0.0000E+00
    -20.865  0.0000E+00  0.0000E+00
    -20.818  0.0000E+00  0.0000E+00
    -20.771  0.0000E+00  0.0000E+00
    -20.723  0.0000E+00  0.0000E+00
    -20.676  0.0000E+00  0.0000E+00
    -20.628  0.0000E+00  0.0000E+00
    -20.581  0.0000E+00  0.0000E+00
    -20.534  0.0000E+00  0.0000E+00
    -20.486  0.0000E+00  0.0000E+00
    -20.439  0.0000E+00  0.0000E+00
    -20.391  0.0000E+00  0.0000E+00
    -20.344  0.0000E+00  0.0000E+00
    -20.296  0.0000E+00  0.0000E+00
    -20.249  0.0000E+00  0.0000E+00
    -20.202  0.0000E+00  0.0000E+00
    -20.154  0.0000E+00  0.0000E+00
    -20.107  0.0000E+00  0.0000E+00
    -20.059  0.0000E+00  0.0000E+00
    -20.012  0.0000E+00  0.0000E+00
    -19.965  0.0000E+00  0.0000E+00
    -19.917  0.0000E+00  0.0000E+00
    -19.870  0.0000E+00  0.0000E+00
    -19.822  0.0000E+00  0.0000E+00
    -19.775  0.0000E+00  0.0000E+00
    -19.728  0.0000E+00  0.0000E+00
    -19.680  0.0000E+00  0.0000E+00
    -19.633  0.0000E+00  0.0000E+00
    -19.585  0.0000E+00  0.0000E+00
    -19.538  0.0000E+00  0.0000E+00
    -19.491  0.0000E+00  0.0000E+00
    -19.443  0.0000E+00  0.0000E+00
    -19.396  0.0000E+00  0.0000E+00
    -19.348  0.0000E+00  0.0000E+00
    -19.301  0.0000E+00  0.0000E+00
    -19.254  0.0000E+00  0.0000E+00
    -19.206  0.0000E+00  0.0000E+00
    -19.159  0.0000E+00  0.0000E+00
    -19.111  0.0000E+00  0.0000E+00
    -19.064  0.0000E+00  0.0000E+00
    -19.017  0.0000E+00  0.0000E+00
    -18.969  0.0000E+00  0.0000E+00
    -18.922  0.0000E+00  0.0000E+00
    -18.874  0.0000E+00  0.0000E+00
    -18.827  0.0000E+00  0.0000E+00
    -18.780  0.0000E+00  0.0000E+00
    -18.732  0.0000E+00  0.0000E+00
    -18.685  0.0000E+00  0.0000E+00
    -18.637  0.0000E+00  0.0000E+00
    -18.590  0.3518E-12  0.1668E-13
    -18.542  0.1114E+00  0.5283E-02
    -18.495  0.1930E+01  0.9679E-01
    -18.448  0.1747E+01  0.1796E+00
    -18.400  0.1778E+01  0.2639E+00
    -18.353  0.2799E+01  0.3966E+00
    -18.305  0.2101E+01  0.4962E+00
    -18.258  0.3958E+00  0.5150E+00
    -18.211  0.5035E+01  0.7537E+00
    -18.163  0.1026E+01  0.8023E+00
    -18.116  0.1099E+01  0.8544E+00
    -18.068  0.6339E+01  0.1155E+01
    -18.021  0.1963E+01  0.1248E+01
    -17.974  0.6599E+01  0.1561E+01
    -17.926  0.4435E+01  0.1771E+01
    -17.879  0.4389E+01  0.1979E+01
    -17.831  0.4417E+00  0.2000E+01
    -17.784  0.0000E+00  0.2000E+01
    -17.737  0.0000E+00  0.2000E+01
    -17.689  0.0000E+00  0.2000E+01
    -17.642  0.0000E+00  0.2000E+01
    -17.594  0.0000E+00  0.2000E+01
    -17.547  0.0000E+00  0.2000E+01
    -17.500  0.0000E+00  0.2000E+01
    -17.452  0.0000E+00  0.2000E+01
    -17.405  0.0000E+00  0.2000E+01
    -17.357  0.0000E+00  0.2000E+01
    -17.310  0.0000E+00  0.2000E+01
    -17.263  0.0000E+00  0.2000E+01
    -17.215  0.0000E+00  0.2000E+01
    -17.168  0.0000E+00  0.2000E+01
    -17.120  0.0000E+00  0.2000E+01
    -17.073  0.0000E+00  0.2000E+01
    -17.026  0.0000E+00  0.2000E+01
    -16.978  0.0000E+00  0.2000E+01
    -16.931  0.0000E+00  0.2000E+01
    -16.883  0.0000E+00  0.2000E+01
    -16.836  0.0000E+00  0.2000E+01
    -16.788  0.0000E+00  0.2000E+01
    -16.741  0.0000E+00  0.2000E+01
    -16.694  0.0000E+00  0.2000E+01
    -16.646  0.0000E+00  0.2000E+01
    -16.599  0.0000E+00  0.2000E+01
    -16.551  0.0000E+00  0.2000E+01
    -16.504  0.0000E+00  0.2000E+01
    -16.457  0.0000E+00  0.2000E+01
    -16.409  0.0000E+00  0.2000E+01
    -16.362  0.0000E+00  0.2000E+01
    -16.314  0.1045E-08  0.2000E+01
    -16.267  0.6756E+00  0.2032E+01
    -16.220  0.2725E+01  0.2161E+01
    -16.172  0.2891E+01  0.2298E+01
    -16.125  0.1619E+01  0.2375E+01
    -16.077  0.4519E+01  0.2589E+01
    -16.030  0.3393E+01  0.2750E+01
    -15.983  0.4381E+01  0.2958E+01
    -15.935  0.9785E+00  0.3004E+01
    -15.888  0.4718E+00  0.3026E+01
    -15.840  0.5008E+01  0.3264E+01
    -15.793  0.1590E-04  0.3264E+01
    -15.746  0.1435E-04  0.3264E+01
    -15.698  0.5672E+01  0.3533E+01
    -15.651  0.1360E+01  0.3597E+01
    -15.603  0.1930E+00  0.3606E+01
    -15.556  0.3188E+01  0.3757E+01
    -15.509  0.4812E+00  0.3780E+01
    -15.461  0.2813E+01  0.3914E+01
    -15.414  0.3832E+01  0.4095E+01
    -15.366  0.4056E-01  0.4097E+01
    -15.319  0.4695E+01  0.4320E+01
    -15.271  0.2336E+01  0.4431E+01
    -15.224  0.5214E+00  0.4455E+01
    -15.177  0.3099E+01  0.4602E+01
    -15.129  0.4732E+01  0.4826E+01
    -15.082  0.4761E+01  0.5052E+01
    -15.034  0.3705E+01  0.5228E+01
    -14.987  0.3130E+01  0.5376E+01
    -14.940  0.3235E+00  0.5392E+01
    -14.892  0.5217E+01  0.5639E+01
    -14.845  0.2791E-03  0.5639E+01
    -14.797  0.7159E+00  0.5673E+01
    -14.750  0.4558E+01  0.5889E+01
    -14.703  0.9296E-01  0.5893E+01
    -14.655  0.1772E+01  0.5977E+01
    -14.608  0.4792E+00  0.6000E+01
    -14.560  0.0000E+00  0.6000E+01
    -14.513  0.0000E+00  0.6000E+01
    -14.466  0.0000E+00  0.6000E+01
    -14.418  0.0000E+00  0.6000E+01
    -14.371  0.0000E+00  0.6000E+01
    -14.323  0.0000E+00  0.6000E+01
    -14.276  0.0000E+00  0.6000E+01
    -14.229  0.0000E+00  0.6000E+01
    -14.181  0.0000E+00  0.6000E+01
    -14.134  0.0000E+00  0.6000E+01
    -14.086  0.0000E+00  0.6000E+01
    -14.039  0.0000E+00  0.6000E+01
    -13.992  0.0000E+00  0.6000E+01
    -13.944  0.0000E+00  0.6000E+01
    -13.897  0.0000E+00  0.6000E+01
    -13.849  0.0000E+00  0.6000E+01
    -13.802  0.0000E+00  0.6000E+01
    -13.755  0.0000E+00  0.6000E+01
    -13.707  0.0000E+00  0.6000E+01
    -13.660  0.0000E+00  0.6000E+01
    -13.612  0.0000E+00  0.6000E+01
    -13.565  0.0000E+00  0.6000E+01
    -13.517  0.0000E+00  0.6000E+01
    -13.470  0.0000E+00  0.6000E+01
    -13.423  0.0000E+00  0.6000E+01
    -13.375  0.0000E+00  0.6000E+01
    -13.328  0.0000E+00  0.6000E+01
    -13.280  0.0000E+00  0.6000E+01
    -13.233  0.0000E+00  0.6000E+01
    -13.186  0.0000E+00  0.6000E+01
    -13.138  0.0000E+00  0.6000E+01
    -13.091  0.0000E+00  0.6000E+01
    -13.043  0.0000E+00  0.6000E+01
    -12.996  0.0000E+00  0.6000E+01
    -12.949  0.0000E+00  0.6000E+01
    -12.901  0.1025E-14  0.6000E+01
    -12.854  0.9819E-01  0.6005E+01
    -12.806  0.2387E+01  0.6118E+01
    -12.759  0.1514E+00  0.6125E+01
    -12.712  0.1763E+01  0.6209E+01
    -12.664  0.3512E+01  0.6375E+01
    -12.617  0.3553E+01  0.6543E+01
    -12.569  0.1722E+01  0.6625E+01
    -12.522  0.3512E+01  0.6792E+01
    -12.475  0.5527E-02  0.6792E+01
    -12.427  0.5013E+01  0.7030E+01
    -12.380  0.3180E+00  0.7045E+01
    -12.332  0.4842E+01  0.7274E+01
    -12.285  0.9569E+01  0.7728E+01
    -12.238  0.1754E+00  0.7736E+01
    -12.190  0.1642E+01  0.7814E+01
    -12.143  0.1161E+00  0.7819E+01
    -12.095  0.2703E-02  0.7820E+01
    -12.048  0.1756E+01  0.7903E+01
    -12.000  0.1756E+01  0.7986E+01
    -11.953  0.2475E-02  0.7986E+01
    -11.906  0.3056E+01  0.8131E+01
    -11.858  0.2215E+01  0.8236E+01
    -11.811  0.3317E+01  0.8393E+01
    -11.763  0.1983E+00  0.8403E+01
    -11.716  0.1090E+01  0.8454E+01
    -11.669  0.6676E+00  0.8486E+01
    -11.621  0.0000E+00  0.8486E+01
    -11.574  0.1379E-03  0.8486E+01
    -11.526  0.1768E+01  0.8570E+01
    -11.479  0.1161E+01  0.8625E+01
    -11.432  0.5763E+01  0.8898E+01
    -11.384  0.2354E+01  0.9010E+01
    -11.337  0.6725E+00  0.9042E+01
    -11.289  0.5056E-13  0.9042E+01
    -11.242  0.6635E+00  0.9073E+01
    -11.195  0.3145E+01  0.9222E+01
    -11.147  0.6714E-07  0.9222E+01
    -11.100  0.2131E+01  0.9323E+01
    -11.052  0.4900E+01  0.9556E+01
    -11.005  0.2900E+01  0.9693E+01
    -10.958  0.6162E+00  0.9722E+01
    -10.910  0.6882E-02  0.9723E+01
    -10.863  0.1751E+01  0.9806E+01
    -10.815  0.1626E+01  0.9883E+01
    -10.768  0.1318E+00  0.9889E+01
    -10.721  0.4414E+00  0.9910E+01
    -10.673  0.6377E+01  0.1021E+02
    -10.626  0.2135E+00  0.1022E+02
    -10.578  0.3025E-14  0.1022E+02
    -10.531  0.1226E+00  0.1023E+02
    -10.484  0.7564E+00  0.1026E+02
    -10.436  0.0000E+00  0.1026E+02
    -10.389  0.1132E-13  0.1026E+02
    -10.341  0.4836E+00  0.1029E+02
    -10.294  0.3032E+01  0.1043E+02
    -10.246  0.0000E+00  0.1043E+02
    -10.199  0.1391E-03  0.1043E+02
    -10.152  0.1755E+01  0.1051E+02
    -10.104  0.3013E-02  0.1051E+02
    -10.057  0.0000E+00  0.1051E+02
    -10.009  0.0000E+00  0.1051E+02
     -9.962  0.1014E-11  0.1051E+02
     -9.915  0.1284E+00  0.1052E+02
     -9.867  0.1646E+00  0.1053E+02
     -9.820  0.0000E+00  0.1053E+02
     -9.772  0.8242E-02  0.1053E+02
     -9.725  0.6105E+01  0.1082E+02
     -9.678  0.9182E+00  0.1086E+02
     -9.630  0.0000E+00  0.1086E+02
     -9.583  0.2190E-05  0.1086E+02
     -9.535  0.2282E+01  0.1097E+02
     -9.488  0.6202E-01  0.1097E+02
     -9.441  0.1755E+01  0.1106E+02
     -9.393  0.8643E-02  0.1106E+02
     -9.346  0.3511E+01  0.1122E+02
     -9.298  0.1756E+01  0.1131E+02
     -9.251  0.2964E-03  0.1131E+02
     -9.204  0.3300E-10  0.1131E+02
     -9.156  0.9425E+00  0.1135E+02
     -9.109  0.4290E+01  0.1155E+02
     -9.061  0.3557E+01  0.1172E+02
     -9.014  0.1735E+01  0.1180E+02
     -8.967  0.2953E+01  0.1194E+02
     -8.919  0.4132E+01  0.1214E+02
     -8.872  0.1727E+01  0.1222E+02
     -8.824  0.6313E-02  0.1222E+02
     -8.777  0.3509E+01  0.1239E+02
     -8.730  0.2472E-01  0.1239E+02
     -8.682  0.1750E+01  0.1247E+02
     -8.635  0.8623E+00  0.1251E+02
     -8.587  0.0000E+00  0.1251E+02
     -8.540  0.9758E-16  0.1251E+02
     -8.492  0.1078E+00  0.1252E+02
     -8.445  0.3246E+01  0.1267E+02
     -8.398  0.5915E+01  0.1295E+02
     -8.350  0.5697E+01  0.1322E+02
     -8.303  0.6079E+01  0.1351E+02
     -8.255  0.2613E+01  0.1364E+02
     -8.208  0.7402E-01  0.1364E+02
     -8.161  0.0000E+00  0.1364E+02
     -8.113  0.6469E-04  0.1364E+02
     -8.066  0.1752E+01  0.1372E+02
     -8.018  0.2549E+00  0.1373E+02
     -7.971  0.1583E+01  0.1381E+02
     -7.924  0.6615E+01  0.1412E+02
     -7.876  0.3429E+00  0.1414E+02
     -7.829  0.8780E+00  0.1418E+02
     -7.781  0.3429E+01  0.1434E+02
     -7.734  0.8699E-01  0.1435E+02
     -7.687  0.2083E+00  0.1436E+02
     -7.639  0.5401E+01  0.1461E+02
     -7.592  0.3199E+01  0.1476E+02
     -7.544  0.8767E+01  0.1518E+02
     -7.497  0.2845E-02  0.1518E+02
     -7.450  0.0000E+00  0.1518E+02
     -7.402  0.9134E-07  0.1518E+02
     -7.355  0.2573E+01  0.1530E+02
     -7.307  0.2398E+01  0.1542E+02
     -7.260  0.4937E+01  0.1565E+02
     -7.213  0.4297E+01  0.1585E+02
     -7.165  0.3635E+01  0.1603E+02
     -7.118  0.2787E+00  0.1604E+02
     -7.070  0.3893E+00  0.1606E+02
     -7.023  0.4344E+01  0.1626E+02
     -6.975  0.4973E+01  0.1650E+02
     -6.928  0.3002E+00  0.1651E+02
     -6.881  0.3008E-01  0.1652E+02
     -6.833  0.2543E+01  0.1664E+02
     -6.786  0.4177E+01  0.1683E+02
     -6.738  0.2843E+00  0.1685E+02
     -6.691  0.1953E+01  0.1694E+02
     -6.644  0.3903E+01  0.1712E+02
     -6.596  0.3350E+01  0.1728E+02
     -6.549  0.4464E+01  0.1750E+02
     -6.501  0.4762E+01  0.1772E+02
     -6.454  0.6761E+01  0.1804E+02
     -6.407  0.1751E+01  0.1812E+02
     -6.359  0.1853E+01  0.1821E+02
     -6.312  0.5149E+01  0.1846E+02
     -6.264  0.5448E+01  0.1871E+02
     -6.217  0.5088E+01  0.1896E+02
     -6.170  0.2861E+01  0.1909E+02
     -6.122  0.5123E+01  0.1933E+02
     -6.075  0.8545E+00  0.1938E+02
     -6.027  0.5631E+00  0.1940E+02
     -5.980  0.2418E+00  0.1941E+02
     -5.933  0.4084E+01  0.1961E+02
     -5.885  0.2435E+01  0.1972E+02
     -5.838  0.2284E+01  0.1983E+02
     -5.790  0.1232E+01  0.1989E+02
     -5.743  0.0000E+00  0.1989E+02
     -5.696  0.5297E-02  0.1989E+02
     -5.648  0.6997E+01  0.2022E+02
     -5.601  0.2456E+00  0.2023E+02
     -5.553  0.1541E+01  0.2031E+02
     -5.506  0.2799E-12  0.2031E+02
     -5.459  0.8874E+00  0.2035E+02
     -5.411  0.4386E+01  0.2056E+02
     -5.364  0.3041E-04  0.2056E+02
     -5.316  0.2304E+01  0.2066E+02
     -5.269  0.3850E+01  0.2085E+02
     -5.221  0.3516E+01  0.2101E+02
     -5.174  0.4651E+01  0.2123E+02
     -5.127  0.6229E+00  0.2126E+02
     -5.079  0.1109E+02  0.2179E+02
     -5.032  0.9678E+01  0.2225E+02
     -4.984  0.8449E+01  0.2265E+02
     -4.937  0.9589E+01  0.2310E+02
     -4.890  0.1386E+01  0.2317E+02
     -4.842  0.5944E+01  0.2345E+02
     -4.795  0.6210E+01  0.2375E+02
     -4.747  0.5926E+01  0.2403E+02
     -4.700  0.2820E-01  0.2403E+02
     -4.653  0.1870E-08  0.2403E+02
     -4.605  0.1341E+01  0.2409E+02
     -4.558  0.3841E+01  0.2427E+02
     -4.510  0.9077E-01  0.2428E+02
     -4.463  0.3950E+01  0.2447E+02
     -4.416  0.6602E+01  0.2478E+02
     -4.368  0.1755E+01  0.2486E+02
     -4.321  0.3513E+01  0.2503E+02
     -4.273  0.2519E-01  0.2503E+02
     -4.226  0.1734E+01  0.2511E+02
     -4.179  0.6366E+00  0.2514E+02
     -4.131  0.1121E+01  0.2519E+02
     -4.084  0.4738E+01  0.2542E+02
     -4.036  0.2813E+01  0.2555E+02
     -3.989  0.6507E+01  0.2586E+02
     -3.942  0.3437E+01  0.2602E+02
     -3.894  0.9060E-01  0.2603E+02
     -3.847  0.8710E+01  0.2644E+02
     -3.799  0.7263E-01  0.2644E+02
     -3.752  0.2959E+01  0.2658E+02
     -3.704  0.5570E+00  0.2661E+02
     -3.657  0.9017E+00  0.2665E+02
     -3.610  0.1186E+02  0.2722E+02
     -3.562  0.5328E+01  0.2747E+02
     -3.515  0.3884E+01  0.2765E+02
     -3.467  0.5142E+01  0.2790E+02
     -3.420  0.7464E+00  0.2793E+02
     -3.373  0.2676E+01  0.2806E+02
     -3.325  0.8145E+01  0.2844E+02
     -3.278  0.4025E+01  0.2864E+02
     -3.230  0.7932E+01  0.2901E+02
     -3.183  0.2149E+01  0.2911E+02
     -3.136  0.2276E+01  0.2922E+02
     -3.088  0.1577E-01  0.2922E+02
     -3.041  0.5054E-03  0.2922E+02
     -2.993  0.3353E+01  0.2938E+02
     -2.946  0.2027E+00  0.2939E+02
     -2.899  0.3476E+01  0.2956E+02
     -2.851  0.1756E+01  0.2964E+02
     -2.804  0.6570E-03  0.2964E+02
     -2.756  0.3157E-04  0.2964E+02
     -2.709  0.1749E+01  0.2972E+02
     -2.662  0.1714E+01  0.2980E+02
     -2.614  0.4800E+00  0.2983E+02
     -2.567  0.1331E+01  0.2989E+02
     -2.519  0.1737E+01  0.2997E+02
     -2.472  0.1529E+00  0.2998E+02
     -2.425  0.4536E+00  0.3000E+02
     -2.377  0.0000E+00  0.3000E+02
     -2.330  0.0000E+00  0.3000E+02
     -2.282  0.0000E+00  0.3000E+02
     -2.235  0.0000E+00  0.3000E+02
     -2.188  0.0000E+00  0.3000E+02
     -2.140  0.0000E+00  0.3000E+02
     -2.093  0.0000E+00  0.3000E+02
     -2.045  0.0000E+00  0.3000E+02
     -1.998  0.0000E+00  0.3000E+02
     -1.950  0.0000E+00  0.3000E+02
     -1.903  0.0000E+00  0.3000E+02
     -1.856  0.1520E-05  0.3000E+02
     -1.808  0.8625E+00  0.3004E+02
     -1.761  0.1774E+01  0.3012E+02
     -1.713  0.6469E-03  0.3013E+02
     -1.666  0.1157E+01  0.3018E+02
     -1.619  0.6010E+00  0.3021E+02
     -1.571  0.3485E+01  0.3037E+02
     -1.524  0.3539E+01  0.3054E+02
     -1.476  0.3779E+00  0.3056E+02
     -1.429  0.4902E+01  0.3079E+02
     -1.382  0.1058E-02  0.3079E+02
     -1.334  0.2424E-04  0.3079E+02
     -1.287  0.4084E+01  0.3099E+02
     -1.239  0.1189E+01  0.3104E+02
     -1.192  0.3240E+01  0.3120E+02
     -1.145  0.2119E+01  0.3130E+02
     -1.097  0.5015E+01  0.3153E+02
     -1.050  0.1931E+01  0.3162E+02
     -1.002  0.1398E-03  0.3162E+02
     -0.955  0.0000E+00  0.3162E+02
     -0.908  0.3591E-08  0.3163E+02
     -0.860  0.1398E+01  0.3169E+02
     -0.813  0.2117E+01  0.3179E+02
     -0.765  0.8253E-03  0.3179E+02
     -0.718  0.0000E+00  0.3179E+02
     -0.671  0.4838E-08  0.3179E+02
     -0.623  0.2694E+00  0.3180E+02
     -0.576  0.3539E+01  0.3197E+02
     -0.528  0.1209E-03  0.3197E+02
     -0.481  0.0000E+00  0.3197E+02
     -0.434  0.0000E+00  0.3197E+02
     -0.386  0.0000E+00  0.3197E+02
     -0.339  0.0000E+00  0.3197E+02
     -0.291  0.0000E+00  0.3197E+02
     -0.244  0.0000E+00  0.3197E+02
     -0.196  0.0000E+00  0.3197E+02
     -0.149  0.0000E+00  0.3197E+02
     -0.102  0.1626E-15  0.3197E+02
     -0.054  0.8148E-01  0.3198E+02
     -0.007  0.1090E+01  0.3203E+02
      0.041  0.0000E+00  0.3203E+02
      0.088  0.0000E+00  0.3203E+02
      0.135  0.0000E+00  0.3203E+02
      0.183  0.0000E+00  0.3203E+02
      0.230  0.0000E+00  0.3203E+02
      0.278  0.0000E+00  0.3203E+02
      0.325  0.0000E+00  0.3203E+02
      0.372  0.0000E+00  0.3203E+02
      0.420  0.0000E+00  0.3203E+02
      0.467  0.8546E-10  0.3203E+02
      0.515  0.1938E+01  0.3212E+02
      0.562  0.1577E+01  0.3219E+02
      0.609  0.0000E+00  0.3219E+02
      0.657  0.0000E+00  0.3219E+02
      0.704  0.7578E-09  0.3219E+02
      0.752  0.1259E+01  0.3225E+02
      0.799  0.4992E+00  0.3228E+02
      0.846  0.0000E+00  0.3228E+02
      0.894  0.0000E+00  0.3228E+02
      0.941  0.0000E+00  0.3228E+02
      0.989  0.0000E+00  0.3228E+02
      1.036  0.1639E+00  0.3229E+02
      1.083  0.8619E+01  0.3269E+02
      1.131  0.1445E+01  0.3276E+02
      1.178  0.2688E+01  0.3289E+02
      1.226  0.1733E+01  0.3297E+02
      1.273  0.3403E+01  0.3313E+02
      1.321  0.6764E+00  0.3317E+02
      1.368  0.1196E+01  0.3322E+02
      1.415  0.4748E+01  0.3345E+02
      1.463  0.5236E+00  0.3347E+02
      1.510  0.1875E-03  0.3347E+02
      1.558  0.4870E+01  0.3370E+02
      1.605  0.4037E+00  0.3372E+02
      1.652  0.3501E+01  0.3389E+02
      1.700  0.1459E-01  0.3389E+02
      1.747  0.3482E-08  0.3389E+02
      1.795  0.1601E+01  0.3396E+02
      1.842  0.4502E+00  0.3399E+02
      1.889  0.1008E+01  0.3403E+02
      1.937  0.4536E+01  0.3425E+02
      1.984  0.3398E+01  0.3441E+02
      2.032  0.3414E+00  0.3443E+02
      2.079  0.1787E+01  0.3451E+02
      2.126  0.1358E+01  0.3458E+02
      2.174  0.2095E+01  0.3467E+02
      2.221  0.7127E+00  0.3471E+02
      2.269  0.1845E+01  0.3480E+02
      2.316  0.3428E+01  0.3496E+02
      2.363  0.2070E-02  0.3496E+02
      2.411  0.1784E+01  0.3504E+02
      2.458  0.5244E+01  0.3529E+02
      2.506  0.1350E-02  0.3529E+02
      2.553  0.1742E+01  0.3537E+02
      2.600  0.5050E+01  0.3561E+02
      2.648  0.2392E+00  0.3562E+02
      2.695  0.1358E-10  0.3563E+02
      2.743  0.8513E+00  0.3567E+02
      2.790  0.9415E+00  0.3571E+02
      2.837  0.5336E+01  0.3596E+02
      2.885  0.3575E+01  0.3613E+02
      2.932  0.4238E+01  0.3633E+02
      2.980  0.1479E-01  0.3633E+02
      3.027  0.3501E+01  0.3650E+02
      3.075  0.8318E-04  0.3650E+02
      3.122  0.1295E+01  0.3656E+02
      3.169  0.2221E+01  0.3667E+02
      3.217  0.1745E+01  0.3675E+02
      3.264  0.1771E+01  0.3683E+02
      3.312  0.3351E+01  0.3699E+02
      3.359  0.7814E+01  0.3736E+02
      3.406  0.1140E+01  0.3742E+02
      3.454  0.7631E-13  0.3742E+02
      3.501  0.6986E+00  0.3745E+02
      3.549  0.2817E+01  0.3758E+02
      3.596  0.0000E+00  0.3758E+02
      3.643  0.1395E-01  0.3758E+02
      3.691  0.3502E+01  0.3775E+02
      3.738  0.1846E-02  0.3775E+02
      3.786  0.2075E+01  0.3785E+02
      3.833  0.6700E+01  0.3817E+02
      3.880  0.1243E-01  0.3817E+02
      3.928  0.3359E+01  0.3833E+02
      3.975  0.3672E+01  0.3850E+02
      4.023  0.1239E-02  0.3850E+02
      4.070  0.1642E+01  0.3858E+02
      4.117  0.2220E+01  0.3868E+02
      4.165  0.1412E+01  0.3875E+02
      4.212  0.1064E-06  0.3875E+02
      4.260  0.3167E+01  0.3890E+02
      4.307  0.2090E+01  0.3900E+02
      4.354  0.2164E+00  0.3901E+02
      4.402  0.1581E+01  0.3908E+02
      4.449  0.5250E+01  0.3933E+02
      4.497  0.1732E+01  0.3942E+02
      4.544  0.3193E+00  0.3943E+02
      4.592  0.5255E+01  0.3968E+02
      4.639  0.1825E-01  0.3968E+02
      4.686  0.1590E+01  0.3976E+02
      4.734  0.3201E+01  0.3991E+02
      4.781  0.4037E+01  0.4010E+02
      4.829  0.6279E+01  0.4040E+02
      4.876  0.9796E+00  0.4044E+02
      4.923  0.3251E+01  0.4060E+02
      4.971  0.1699E-02  0.4060E+02
      5.018  0.2012E+01  0.4069E+02
      5.066  0.3260E+01  0.4085E+02
      5.113  0.4711E+00  0.4087E+02
      5.160  0.5009E+01  0.4111E+02
      5.208  0.9199E+01  0.4154E+02
      5.255  0.1142E+01  0.4160E+02
      5.303  0.1092E-02  0.4160E+02
      5.350  0.3514E+01  0.4176E+02
      5.397  0.1758E+01  0.4185E+02
      5.445  0.3327E-03  0.4185E+02
      5.492  0.6304E+00  0.4188E+02
      5.540  0.6401E+01  0.4218E+02
      5.587  0.2612E+01  0.4230E+02
      5.634  0.5747E+01  0.4258E+02
      5.682  0.3363E+01  0.4274E+02
      5.729  0.1549E+01  0.4281E+02
      5.777  0.2308E+01  0.4292E+02
      5.824  0.2195E+01  0.4302E+02
      5.871  0.9014E+00  0.4307E+02
      5.919  0.5831E+01  0.4334E+02
      5.966  0.3760E+01  0.4352E+02
      6.014  0.5055E+01  0.4376E+02
      6.061  0.2163E+01  0.4386E+02
      6.108  0.3508E+01  0.4403E+02
      6.156  0.6012E+01  0.4431E+02
      6.203  0.2746E+01  0.4444E+02
      6.251  0.6004E-02  0.4444E+02
      6.298  0.7006E+01  0.4478E+02
      6.346  0.8774E+00  0.4482E+02
      6.393  0.6438E+01  0.4512E+02
      6.440  0.3273E+00  0.4514E+02
      6.488  0.2172E+01  0.4524E+02
      6.535  0.1137E+02  0.4578E+02
      6.583  0.1210E+02  0.4635E+02
      6.630  0.2193E+01  0.4646E+02
      6.677  0.1058E+01  0.4651E+02
      6.725  0.7074E+00  0.4654E+02
      6.772  0.1309E+02  0.4716E+02
      6.820  0.4509E+01  0.4738E+02
      6.867  0.8500E+00  0.4742E+02
      6.914  0.4443E+01  0.4763E+02
      6.962  0.8958E+01  0.4805E+02
      7.009  0.2968E+01  0.4819E+02
      7.057  0.4817E+00  0.4822E+02
      7.104  0.1162E+02  0.4877E+02
      7.151  0.5461E+01  0.4903E+02
      7.199  0.4043E+01  0.4922E+02
      7.246  0.4625E+01  0.4944E+02
      7.294  0.6927E+01  0.4976E+02
      7.341  0.5258E+01  0.5001E+02
      7.388  0.7446E+00  0.5005E+02
      7.436  0.4270E+01  0.5025E+02
      7.483  0.1272E+02  0.5085E+02
      7.531  0.7804E+01  0.5122E+02
      7.578  0.8540E+01  0.5163E+02
      7.625  0.7225E+01  0.5197E+02
      7.673  0.3483E+01  0.5214E+02
      7.720  0.3737E+00  0.5215E+02
      7.768  0.1716E+01  0.5224E+02
      7.815  0.6649E+01  0.5255E+02
      7.863  0.4380E+01  0.5276E+02
      7.910  0.1734E+01  0.5284E+02
      7.957  0.5696E+01  0.5311E+02
      8.005  0.1138E+02  0.5365E+02
      8.052  0.5114E+01  0.5389E+02
      8.100  0.8749E+01  0.5431E+02
      8.147  0.7197E+01  0.5465E+02
      8.194  0.8341E+01  0.5504E+02
      8.242  0.1238E+02  0.5563E+02
      8.289  0.3672E+01  0.5581E+02
      8.337  0.2164E+01  0.5591E+02
      8.384  0.9245E+01  0.5635E+02
      8.431  0.1015E+02  0.5683E+02
      8.479  0.2176E+01  0.5693E+02
      8.526  0.3457E+01  0.5709E+02
      8.574  0.7289E+01  0.5744E+02
      8.621  0.8487E+01  0.5784E+02
      8.668  0.1188E+02  0.5841E+02
      8.716  0.1123E+02  0.5894E+02
      8.763  0.9198E+01  0.5937E+02
      8.811  0.9971E+00  0.5942E+02
      8.858  0.5903E+01  0.5970E+02
      8.905  0.1990E+01  0.5980E+02
      8.953  0.4560E+01  0.6001E+02
      9.000  0.1738E+01  0.6009E+02
      9.048  0.7323E+01  0.6044E+02
      9.095  0.9643E+01  0.6090E+02
      9.142  0.3915E+01  0.6108E+02
      9.190  0.8493E+01  0.6149E+02
      9.237  0.7944E+01  0.6186E+02
      9.285  0.7806E+01  0.6223E+02
      9.332  0.5301E+01  0.6248E+02
      9.379  0.5448E+01  0.6274E+02
      9.427  0.8600E+01  0.6315E+02
      9.474  0.9192E+01  0.6359E+02
      9.522  0.1314E+02  0.6421E+02
      9.569  0.3501E+01  0.6437E+02
      9.617  0.4816E-02  0.6438E+02
      9.664  0.1325E+01  0.6444E+02
      9.711  0.1229E+02  0.6502E+02
      9.759  0.7651E+01  0.6538E+02
      9.806  0.9101E+01  0.6581E+02
      9.854  0.4617E+01  0.6603E+02
      9.901  0.2465E+01  0.6615E+02
      9.948  0.6792E+01  0.6647E+02
      9.996  0.4922E+01  0.6671E+02
     10.043  0.7912E+00  0.6674E+02
     10.091  0.3650E+01  0.6692E+02
     10.138  0.1653E+01  0.6699E+02
     10.185  0.5194E+01  0.6724E+02
     10.233  0.3886E+01  0.6742E+02
     10.280  0.8175E+01  0.6781E+02
     10.328  0.2350E+01  0.6792E+02
     10.375  0.4450E+01  0.6813E+02
     10.422  0.1078E+02  0.6865E+02
     10.470  0.3220E+01  0.6880E+02
     10.517  0.6303E+01  0.6910E+02
     10.565  0.3866E+01  0.6928E+02
     10.612  0.9929E+01  0.6975E+02
     10.659  0.1991E+01  0.6985E+02
     10.707  0.6206E+00  0.6987E+02
     10.754  0.4363E+01  0.7008E+02
     10.802  0.5006E+01  0.7032E+02
     10.849  0.5855E+01  0.7060E+02
     10.896  0.3035E+00  0.7061E+02
     10.944  0.8240E+01  0.7100E+02
     10.991  0.6561E+00  0.7103E+02
     11.039  0.9080E+01  0.7146E+02
     11.086  0.1018E+02  0.7195E+02
     11.133  0.5510E+01  0.7221E+02
     11.181  0.2077E+01  0.7231E+02
     11.228  0.4775E+00  0.7233E+02
     11.276  0.1284E+01  0.7239E+02
     11.323  0.6011E+01  0.7267E+02
     11.371  0.3355E+01  0.7283E+02
     11.418  0.6912E+01  0.7316E+02
     11.465  0.7108E+00  0.7319E+02
     11.513  0.5304E-03  0.7319E+02
     11.560  0.3534E+01  0.7336E+02
     11.608  0.5218E+01  0.7361E+02
     11.655  0.8274E-01  0.7361E+02
     11.702  0.7138E+01  0.7395E+02
     11.750  0.7325E+01  0.7430E+02
     11.797  0.1899E+01  0.7439E+02
     11.845  0.4210E+01  0.7459E+02
     11.892  0.9756E+01  0.7505E+02
     11.939  0.8776E+01  0.7547E+02
     11.987  0.7331E+01  0.7581E+02
     12.034  0.4796E+01  0.7604E+02
     12.082  0.4978E+01  0.7628E+02
     12.129  0.1421E+02  0.7695E+02
     12.176  0.1620E+02  0.7772E+02
     12.224  0.6502E+01  0.7803E+02
     12.271  0.1457E+01  0.7810E+02
     12.319  0.5700E+01  0.7837E+02
     12.366  0.1000E+02  0.7884E+02
     12.413  0.8359E+01  0.7924E+02
     12.461  0.8482E+00  0.7928E+02
     12.508  0.1435E+01  0.7935E+02
     12.556  0.4506E+01  0.7956E+02
     12.603  0.1076E+02  0.8007E+02
     12.650  0.5065E+01  0.8031E+02
     12.698  0.9319E+01  0.8075E+02
     12.745  0.4082E+01  0.8094E+02
     12.793  0.1752E+01  0.8103E+02
     12.840  0.7778E+01  0.8140E+02
     12.888  0.1890E+01  0.8149E+02
     12.935  0.7883E+01  0.8186E+02
     12.982  0.4598E+01  0.8208E+02
     13.030  0.1283E+02  0.8269E+02
     13.077  0.5027E+01  0.8292E+02
     13.125  0.7542E+01  0.8328E+02
     13.172  0.2538E+01  0.8340E+02
     13.219  0.5305E+01  0.8365E+02
     13.267  0.8057E+01  0.8404E+02
     13.314  0.1086E+02  0.8455E+02
     13.362  0.2160E+01  0.8465E+02
     13.409  0.2933E+01  0.8479E+02
     13.456  0.2355E+01  0.8490E+02
     13.504  0.5320E+01  0.8516E+02
     13.551  0.2399E+01  0.8527E+02
     13.599  0.8059E+01  0.8565E+02
     13.646  0.3923E+01  0.8584E+02
     13.693  0.8730E+01  0.8625E+02
     13.741  0.2031E+01  0.8635E+02
     13.788  0.8340E+01  0.8674E+02
     13.836  0.5127E+01  0.8699E+02
     13.883  0.9922E+01  0.8746E+02
     13.930  0.7804E+01  0.8783E+02
     13.978  0.1023E+02  0.8831E+02
     14.025  0.7381E+01  0.8866E+02
     14.073  0.5915E+01  0.8894E+02
     14.120  0.7321E+01  0.8929E+02
     14.167  0.2155E+01  0.8939E+02
     14.215  0.1113E+02  0.8992E+02
     14.262  0.5085E+01  0.9016E+02
     14.310  0.1243E+02  0.9075E+02
     14.357  0.1197E+02  0.9132E+02
     14.404  0.7097E+01  0.9165E+02
     14.452  0.3436E+01  0.9182E+02
     14.499  0.1046E+02  0.9231E+02
     14.547  0.5399E+01  0.9257E+02
     14.594  0.7509E-01  0.9257E+02
     14.642  0.3458E+01  0.9273E+02
     14.689  0.9095E+01  0.9317E+02
     14.736  0.4127E+01  0.9336E+02
     14.784  0.5823E+00  0.9339E+02
     14.831  0.1458E-02  0.9339E+02
     14.879  0.6175E+01  0.9368E+02
     14.926  0.9162E+01  0.9412E+02
     14.973  0.7498E+01  0.9447E+02
     15.021  0.6067E+01  0.9476E+02
     15.068  0.1057E+02  0.9526E+02
     15.116  0.3597E+01  0.9543E+02
     15.163  0.3394E+01  0.9559E+02
     15.210  0.4082E+01  0.9578E+02
     15.258  0.5712E+01  0.9606E+02
     15.305  0.3165E+01  0.9621E+02
     15.353  0.3919E+01  0.9639E+02
     15.400  0.3978E+01  0.9658E+02