    8    8    1    1
  0.2469169E+02  0.5174038E-09  0.5174038E-09  0.8520221E-09  0.5000000E-15
  1.000000000000000E-004
  CAR 
 BC3-optical                             
     30     19    384
 
  0.0000000E+00  0.0000000E+00  0.0000000E+00  0.6944444E-02
    1      -18.540330   1.000000
    2      -14.648830   1.000000
    3      -14.648777   1.000000
    4      -12.299229   1.000000
    5      -12.299167   1.000000
    6      -11.230715   1.000000
    7       -9.913547   1.000000
    8       -7.345203   1.000000
    9       -7.124896   1.000000
   10       -4.970975   1.000000
   11       -4.970956   1.000000
   12       -3.149280   1.000000
   13       -3.149244   1.000000
   14       -2.466679   1.000000
   15       -2.466575   1.000000
   16       -0.631464   0.000000
   17        1.101129   0.000000
   18        1.101169   0.000000
   19        1.790598   0.000000
   20        1.921674   0.000000
   21        4.520662   0.000000
   22        5.912961   0.000000
   23        6.315096   0.000000
   24        6.315115   0.000000
   25        7.672551   0.000000
   26        8.079556   0.000000
   27        8.079673   0.000000
   28        8.995488   0.000000
   29        9.141934   0.000000
   30        9.141937   0.000000
   31        9.297564   0.000000
   32        9.297571   0.000000
   33        9.515962   0.000000
   34       10.327330   0.000000
   35       10.683641   0.000000
   36       10.683642   0.000000
   37       11.354047   0.000000
   38       11.354052   0.000000
   39       11.392154   0.000000
   40       11.399470   0.000000
   41       11.984097   0.000000
   42       13.000816   0.000000
   43       13.000817   0.000000
   44       13.028540   0.000000
   45       13.131890   0.000000
   46       13.131908   0.000000
   47       13.182485   0.000000
   48       13.527899   0.000000
   49       15.613508   0.000000
   50       15.800768   0.000000
   51       15.800779   0.000000
   52       16.491310   0.000000
   53       18.292253   0.000000
   54       18.292256   0.000000
   55       18.860150   0.000000
   56       18.860163   0.000000
   57       19.147298   0.000000
   58       19.229015   0.000000
   59       19.533273   0.000000
   60       19.533315   0.000000
   61       19.721663   0.000000
   62       19.988751   0.000000
   63       19.988761   0.000000
   64       20.016688   0.000000
   65       20.454582   0.000000
   66       21.081347   0.000000
   67       21.302664   0.000000
   68       21.302697   0.000000
   69       22.879326   0.000000
   70       23.296805   0.000000
   71       23.296810   0.000000
   72       23.439718   0.000000
   73       23.439726   0.000000
   74       23.573846   0.000000
   75       24.093577   0.000000
   76       24.093579   0.000000
   77       24.412553   0.000000
   78       24.412557   0.000000
   79       24.537175   0.000000
   80       24.637383   0.000000
   81       24.876313   0.000000
   82       25.217383   0.000000
   83       25.217417   0.000000
   84       26.651568   0.000000
   85       26.651616   0.000000
   86       26.753758   0.000000
   87       26.753762   0.000000
   88       26.846263   0.000000
   89       27.034087   0.000000
   90       27.121610   0.000000
   91       27.730780   0.000000
   92       27.730800   0.000000
   93       27.799804   0.000000
   94       27.799810   0.000000
   95       27.840132   0.000000
   96       28.296661   0.000000
   97       28.296686   0.000000
   98       28.793610   0.000000
   99       28.793617   0.000000
  100       28.952424   0.000000
  101       29.648908   0.000000
  102       30.289686   0.000000
  103       31.191995   0.000000
  104       31.191998   0.000000
  105       31.423948   0.000000
  106       31.481643   0.000000
  107       31.481645   0.000000
  108       31.884134   0.000000
  109       32.086519   0.000000
  110       32.086521   0.000000
  111       32.404351   0.000000
  112       32.684378   0.000000
  113       33.298301   0.000000
  114       33.298302   0.000000
  115       33.312672   0.000000
  116       33.312680   0.000000
  117       33.460645   0.000000
  118       34.009881   0.000000
  119       34.981579   0.000000
  120       34.981581   0.000000
  121       35.044186   0.000000
  122       35.044191   0.000000
  123       35.226808   0.000000
  124       35.226835   0.000000
  125       35.833401   0.000000
  126       35.865511   0.000000
  127       35.865523   0.000000
  128       36.045391   0.000000
  129       36.696358   0.000000
  130       36.696365   0.000000
  131       37.054605   0.000000
  132       37.300973   0.000000
  133       37.312412   0.000000
  134       37.312440   0.000000
  135       37.341555   0.000000
  136       37.341562   0.000000
  137       37.366296   0.000000
  138       37.456389   0.000000
  139       37.456391   0.000000
  140       37.659463   0.000000
  141       37.889841   0.000000
  142       37.946924   0.000000
  143       38.210467   0.000000
  144       38.210468   0.000000
  145       38.557686   0.000000
  146       38.847366   0.000000
  147       38.847368   0.000000
  148       40.894251   0.000000
  149       42.208908   0.000000
  150       42.208950   0.000000
  151       42.391510   0.000000
  152       43.754099   0.000000
  153       43.754099   0.000000
  154       43.938480   0.000000
  155       43.938496   0.000000
  156       44.310334   0.000000
  157       44.310335   0.000000
  158       44.356574   0.000000
  159       44.492624   0.000000
  160       44.492625   0.000000
  161       44.797730   0.000000
  162       45.326365   0.000000
  163       45.326376   0.000000
  164       45.609172   0.000000
  165       45.609188   0.000000
  166       46.065495   0.000000
  167       46.598664   0.000000
  168       46.826255   0.000000
  169       47.887070   0.000000
  170       47.968150   0.000000
  171       48.726195   0.000000
  172       48.726197   0.000000
  173       48.938505   0.000000
  174       49.020647   0.000000
  175       49.020666   0.000000
  176       49.189464   0.000000
  177       49.378865   0.000000
  178       49.507629   0.000000
  179       49.507689   0.000000
  180       49.712416   0.000000
  181       49.712416   0.000000
  182       50.136963   0.000000
  183       50.345745   0.000000
  184       50.345763   0.000000
  185       50.571790   0.000000
  186       50.614980   0.000000
  187       50.614989   0.000000
  188       51.578456   0.000000
  189       51.578474   0.000000
  190       51.718355   0.000000
  191       52.020281   0.000000
  192       52.495101   0.000000
  193       52.495102   0.000000
  194       52.504913   0.000000
  195       52.504916   0.000000
  196       52.886654   0.000000
  197       53.491834   0.000000
  198       53.491844   0.000000
  199       53.492620   0.000000
  200       53.830026   0.000000
  201       53.830035   0.000000
  202       53.914275   0.000000
  203       54.291584   0.000000
  204       54.318578   0.000000
  205       54.318582   0.000000
  206       54.469440   0.000000
  207       54.469450   0.000000
  208       54.649017   0.000000
  209       54.943263   0.000000
  210       54.943269   0.000000
  211       55.268415   0.000000
  212       55.338321   0.000000
  213       55.600013   0.000000
  214       55.709123   0.000000
  215       55.856151   0.000000
  216       55.856154   0.000000
  217       55.978437   0.000000
  218       55.978465   0.000000
  219       56.027300   0.000000
  220       56.406241   0.000000
  221       56.406248   0.000000
  222       57.054134   0.000000
  223       57.054137   0.000000
  224       57.168393   0.000000
  225       57.181258   0.000000
  226       57.181258   0.000000
  227       57.434511   0.000000
  228       57.475857   0.000000
  229       57.475862   0.000000
  230       57.690883   0.000000
  231       57.690884   0.000000
  232       57.866020   0.000000
  233       57.878575   0.000000
  234       57.983040   0.000000
  235       57.983044   0.000000
  236       58.011273   0.000000
  237       58.022537   0.000000
  238       58.148966   0.000000
  239       58.148967   0.000000
  240       58.172730   0.000000
  241       58.363098   0.000000
  242       58.363126   0.000000
  243       58.383868   0.000000
  244       58.383878   0.000000
  245       58.898756   0.000000
  246       58.898777   0.000000
  247       59.056349   0.000000
  248       59.711882   0.000000
  249       59.711899   0.000000
  250       59.971044   0.000000
  251       60.220015   0.000000
  252       60.610790   0.000000
  253       60.610804   0.000000
  254       60.978134   0.000000
  255       61.158460   0.000000
  256       61.158502   0.000000
  257       62.118681   0.000000
  258       62.118681   0.000000
  259       62.765371   0.000000
  260       63.252678   0.000000
  261       63.671952   0.000000
  262       63.671953   0.000000
  263       65.391631   0.000000
  264       65.391636   0.000000
  265       65.760967   0.000000
  266       65.760978   0.000000
  267       65.965919   0.000000
  268       66.027138   0.000000
  269       66.178831   0.000000
  270       66.178845   0.000000
  271       66.212015   0.000000
  272       66.253739   0.000000
  273       66.349405   0.000000
  274       66.349416   0.000000
  275       66.592527   0.000000
  276       66.750694   0.000000
  277       66.750753   0.000000
  278       66.889638   0.000000
  279       67.071254   0.000000
  280       67.071261   0.000000
  281       67.211345   0.000000
  282       67.298869   0.000000
  283       67.298874   0.000000
  284       67.385085   0.000000
  285       67.690773   0.000000
  286       67.690777   0.000000
  287       68.211521   0.000000
  288       68.211526   0.000000
  289       68.511364   0.000000
  290       68.511377   0.000000
  291       68.601536   0.000000
  292       68.601549   0.000000
  293       68.615687   0.000000
  294       68.624722   0.000000
  295       68.634436   0.000000
  296       68.997180   0.000000
  297       69.282465   0.000000
  298       69.311900   0.000000
  299       69.311916   0.000000
  300       69.417628   0.000000
  301       69.417657   0.000000
  302       69.574407   0.000000
  303       69.978631   0.000000
  304       69.978640   0.000000
  305       70.257332   0.000000
  306       70.713373   0.000000
  307       70.713397   0.000000
  308       71.102367   0.000000
  309       71.274763   0.000000
  310       71.787785   0.000000
  311       72.406129   0.000000
  312       72.406139   0.000000
  313       72.415643   0.000000
  314       72.673376   0.000000
  315       72.704253   0.000000
  316       72.704264   0.000000
  317       72.742860   0.000000
  318       72.747165   0.000000
  319       72.747169   0.000000
  320       73.372690   0.000000
  321       73.372737   0.000000
  322       73.375051   0.000000
  323       73.375052   0.000000
  324       73.465314   0.000000
  325       73.465324   0.000000
  326       73.671454   0.000000
  327       73.991960   0.000000
  328       74.007506   0.000000
  329       74.007507   0.000000
  330       74.482802   0.000000
  331       75.059668   0.000000
  332       75.059678   0.000000
  333       75.147782   0.000000
  334       75.834950   0.000000
  335       76.625596   0.000000
  336       76.625608   0.000000
  337       76.871027   0.000000
  338       77.027708   0.000000
  339       77.507657   0.000000
  340       77.784038   0.000000
  341       77.784044   0.000000
  342       77.873399   0.000000
  343       77.873417   0.000000
  344       77.911254   0.000000
  345       77.911257   0.000000
  346       78.021249   0.000000
  347       78.321102   0.000000
  348       78.321109   0.000000
  349       78.611948   0.000000
  350       78.611962   0.000000
  351       78.657206   0.000000
  352       78.960538   0.000000
  353       78.960556   0.000000
  354       79.366604   0.000000
  355       79.451004   0.000000
  356       79.451006   0.000000
  357       79.935201   0.000000
  358       79.935203   0.000000
  359       80.012136   0.000000
  360       80.089741   0.000000
  361       80.782433   0.000000
  362       80.782453   0.000000
  363       81.032070   0.000000
  364       81.032070   0.000000
  365       81.152572   0.000000
  366       81.352005   0.000000
  367       81.352018   0.000000
  368       81.378357   0.000000
  369       81.407023   0.000000
  370       81.590090   0.000000
  371       81.872159   0.000000
  372       81.925418   0.000000
  373       81.925421   0.000000
  374       81.936565   0.000000
  375       81.936583   0.000000
  376       82.357047   0.000000
  377       82.641825   0.000000
  378       82.641829   0.000000
  379       82.646165   0.000000
  380       82.781158   0.000000
  381       82.788043   0.000000
  382       82.976946   0.000000
  383       83.026299   0.000000
  384       83.026311   0.000000
 
  0.8333333E-01  0.6938894E-17  0.0000000E+00  0.4166667E-01
    1      -18.513219   1.000000
    2      -14.780927   1.000000
    3      -14.691183   1.000000
    4      -12.338411   1.000000
    5      -12.200768   1.000000
    6      -11.096134   1.000000
    7       -9.753142   1.000000
    8       -7.304002   1.000000
    9       -7.182205   1.000000
   10       -5.094396   1.000000
   11       -4.993439   1.000000
   12       -3.273748   1.000000
   13       -3.169697   1.000000
   14       -2.609233   1.000000
   15       -2.535391   1.000000
   16       -0.836139   0.000000
   17        1.160463   0.000000
   18        1.411559   0.000000
   19        1.915317   0.000000
   20        1.973408   0.000000
   21        4.572778   0.000000
   22        5.969168   0.000000
   23        6.386616   0.000000
   24        6.478100   0.000000
   25        7.662719   0.000000
   26        8.037652   0.000000
   27        8.233585   0.000000
   28        8.235190   0.000000
   29        8.680798   0.000000
   30        8.755488   0.000000
   31        9.848013   0.000000
   32        9.861911   0.000000
   33        9.912362   0.000000
   34       10.375910   0.000000
   35       10.399520   0.000000
   36       10.419300   0.000000
   37       10.907718   0.000000
   38       11.413702   0.000000
   39       11.668726   0.000000
   40       12.044827   0.000000
   41       12.151565   0.000000
   42       12.334546   0.000000
   43       12.560814   0.000000
   44       12.838062   0.000000
   45       13.097162   0.000000
   46       13.627932   0.000000
   47       13.800125   0.000000
   48       14.260285   0.000000
   49       15.562307   0.000000
   50       15.661367   0.000000
   51       15.718135   0.000000
   52       16.279188   0.000000
   53       18.021122   0.000000
   54       18.071613   0.000000
   55       18.645211   0.000000
   56       18.983447   0.000000
   57       18.992847   0.000000
   58       19.396110   0.000000
   59       19.443014   0.000000
   60       19.859374   0.000000
   61       19.922710   0.000000
   62       19.935464   0.000000
   63       20.022165   0.000000
   64       20.069520   0.000000
   65       20.446863   0.000000
   66       20.948038   0.000000
   67       21.130559   0.000000
   68       21.170060   0.000000
   69       22.300551   0.000000
   70       22.512943   0.000000
   71       23.092303   0.000000
   72       23.559179   0.000000
   73       23.574374   0.000000
   74       23.601511   0.000000
   75       23.816537   0.000000
   76       24.024795   0.000000
   77       24.267355   0.000000
   78       24.521674   0.000000
   79       24.830603   0.000000
   80       24.967555   0.000000
   81       25.047522   0.000000
   82       25.552089   0.000000
   83       25.696434   0.000000
   84       25.798048   0.000000
   85       25.918940   0.000000
   86       26.127547   0.000000
   87       26.397264   0.000000
   88       26.909436   0.000000
   89       26.923355   0.000000
   90       27.081497   0.000000
   91       27.084933   0.000000
   92       27.581292   0.000000
   93       27.891767   0.000000
   94       28.106461   0.000000
   95       28.663238   0.000000
   96       28.918359   0.000000
   97       29.046576   0.000000
   98       29.176324   0.000000
   99       29.264645   0.000000
  100       29.636578   0.000000
  101       29.647793   0.000000
  102       30.121338   0.000000
  103       30.181783   0.000000
  104       30.767770   0.000000
  105       31.125852   0.000000
  106       31.874948   0.000000
  107       31.910769   0.000000
  108       32.014758   0.000000
  109       32.088624   0.000000
  110       32.546086   0.000000
  111       32.654204   0.000000
  112       32.944439   0.000000
  113       33.081580   0.000000
  114       33.338415   0.000000
  115       33.464019   0.000000
  116       33.584790   0.000000
  117       33.608722   0.000000
  118       33.844512   0.000000
  119       34.007452   0.000000
  120       34.068620   0.000000
  121       34.128081   0.000000
  122       34.229137   0.000000
  123       35.128148   0.000000
  124       35.914634   0.000000
  125       35.961039   0.000000
  126       35.988158   0.000000
  127       36.233230   0.000000
  128       36.384035   0.000000
  129       36.594218   0.000000
  130       36.759645   0.000000
  131       36.864725   0.000000
  132       37.021949   0.000000
  133       37.118782   0.000000
  134       37.208986   0.000000
  135       37.456782   0.000000
  136       37.534811   0.000000
  137       37.882994   0.000000
  138       37.973999   0.000000
  139       38.060612   0.000000
  140       38.170727   0.000000
  141       38.334178   0.000000
  142       38.448814   0.000000
  143       38.958242   0.000000
  144       39.015087   0.000000
  145       39.151180   0.000000
  146       39.741150   0.000000
  147       39.891337   0.000000
  148       40.403559   0.000000
  149       41.659128   0.000000
  150       41.787423   0.000000
  151       42.018343   0.000000
  152       43.052854   0.000000
  153       43.137145   0.000000
  154       43.185289   0.000000
  155       43.371092   0.000000
  156       43.667983   0.000000
  157       43.909999   0.000000
  158       44.335566   0.000000
  159       44.458077   0.000000
  160       44.794028   0.000000
  161       44.872775   0.000000
  162       45.048686   0.000000
  163       45.233506   0.000000
  164       46.103235   0.000000
  165       46.226906   0.000000
  166       46.365140   0.000000
  167       46.421587   0.000000
  168       46.896316   0.000000
  169       47.101281   0.000000
  170       48.008481   0.000000
  171       48.204351   0.000000
  172       48.268537   0.000000
  173       48.486678   0.000000
  174       48.486711   0.000000
  175       48.607736   0.000000
  176       49.419287   0.000000
  177       49.467367   0.000000
  178       49.481299   0.000000
  179       49.497122   0.000000
  180       50.189083   0.000000
  181       50.248874   0.000000
  182       50.348149   0.000000
  183       50.441128   0.000000
  184       50.749528   0.000000
  185       50.770322   0.000000
  186       51.025211   0.000000
  187       51.083650   0.000000
  188       51.220147   0.000000
  189       51.237186   0.000000
  190       51.323256   0.000000
  191       52.079025   0.000000
  192       52.131020   0.000000
  193       52.338251   0.000000
  194       52.534104   0.000000
  195       52.662098   0.000000
  196       52.705063   0.000000
  197       52.796763   0.000000
  198       52.983940   0.000000
  199       53.159074   0.000000
  200       53.456380   0.000000
  201       53.630062   0.000000
  202       53.677577   0.000000
  203       53.857493   0.000000
  204       54.163802   0.000000
  205       54.415770   0.000000
  206       54.503718   0.000000
  207       54.690181   0.000000
  208       54.754284   0.000000
  209       54.826261   0.000000
  210       54.842077   0.000000
  211       54.867912   0.000000
  212       55.043055   0.000000
  213       55.073596   0.000000
  214       55.302452   0.000000
  215       55.466171   0.000000
  216       55.531124   0.000000
  217       55.669195   0.000000
  218       56.175619   0.000000
  219       56.191236   0.000000
  220       56.244884   0.000000
  221       56.374972   0.000000
  222       56.463886   0.000000
  223       56.546432   0.000000
  224       56.574709   0.000000
  225       56.825125   0.000000
  226       56.885915   0.000000
  227       57.018930   0.000000
  228       57.057695   0.000000
  229       57.165243   0.000000
  230       57.209489   0.000000
  231       57.457887   0.000000
  232       57.639052   0.000000
  233       57.679114   0.000000
  234       57.726080   0.000000
  235       58.093906   0.000000
  236       58.146336   0.000000
  237       58.233982   0.000000
  238       58.606705   0.000000
  239       58.725433   0.000000
  240       58.731655   0.000000
  241       59.175525   0.000000
  242       59.408509   0.000000
  243       59.503721   0.000000
  244       60.019872   0.000000
  245       60.030640   0.000000
  246       60.294318   0.000000
  247       60.332163   0.000000
  248       60.421072   0.000000
  249       60.572523   0.000000
  250       60.584927   0.000000
  251       60.732670   0.000000
  252       61.021712   0.000000
  253       61.034064   0.000000
  254       61.376300   0.000000
  255       61.550656   0.000000
  256       61.670194   0.000000
  257       62.137412   0.000000
  258       62.260366   0.000000
  259       62.775990   0.000000
  260       63.538601   0.000000
  261       63.810625   0.000000
  262       64.065515   0.000000
  263       64.133173   0.000000
  264       64.139265   0.000000
  265       64.161460   0.000000
  266       64.211160   0.000000
  267       64.457413   0.000000
  268       65.070965   0.000000
  269       65.209871   0.000000
  270       65.305056   0.000000
  271       65.603248   0.000000
  272       65.643851   0.000000
  273       65.829172   0.000000
  274       66.375163   0.000000
  275       66.426827   0.000000
  276       66.456090   0.000000
  277       66.696646   0.000000
  278       66.748523   0.000000
  279       66.865467   0.000000
  280       66.876913   0.000000
  281       67.146079   0.000000
  282       67.154992   0.000000
  283       67.406390   0.000000
  284       67.569142   0.000000
  285       67.635905   0.000000
  286       67.804262   0.000000
  287       67.892465   0.000000
  288       68.215192   0.000000
  289       68.308502   0.000000
  290       68.510598   0.000000
  291       68.584535   0.000000
  292       69.038987   0.000000
  293       69.134026   0.000000
  294       69.149082   0.000000
  295       69.388649   0.000000
  296       69.723843   0.000000
  297       69.747106   0.000000
  298       69.847884   0.000000
  299       69.876205   0.000000
  300       70.122835   0.000000
  301       70.330150   0.000000
  302       70.492098   0.000000
  303       70.496733   0.000000
  304       70.634162   0.000000
  305       70.699616   0.000000
  306       70.920156   0.000000
  307       70.926350   0.000000
  308       71.076686   0.000000
  309       71.354788   0.000000
  310       71.428464   0.000000
  311       71.442230   0.000000
  312       71.448059   0.000000
  313       71.569670   0.000000
  314       71.628203   0.000000
  315       72.817978   0.000000
  316       72.964070   0.000000
  317       72.994082   0.000000
  318       73.084013   0.000000
  319       73.570737   0.000000
  320       73.615834   0.000000
  321       73.743794   0.000000
  322       73.777357   0.000000
  323       74.038132   0.000000
  324       74.087255   0.000000
  325       74.279030   0.000000
  326       74.599835   0.000000
  327       74.621190   0.000000
  328       74.664506   0.000000
  329       74.890918   0.000000
  330       74.979877   0.000000
  331       75.351580   0.000000
  332       75.520655   0.000000
  333       75.947754   0.000000
  334       76.225110   0.000000
  335       76.326914   0.000000
  336       76.437840   0.000000
  337       76.643243   0.000000
  338       77.040041   0.000000
  339       77.060994   0.000000
  340       77.214358   0.000000
  341       77.362808   0.000000
  342       77.419832   0.000000
  343       77.580605   0.000000
  344       77.719983   0.000000
  345       77.910779   0.000000
  346       78.208160   0.000000
  347       78.242676   0.000000
  348       78.261176   0.000000
  349       78.290676   0.000000
  350       78.675973   0.000000
  351       78.709362   0.000000
  352       78.727532   0.000000
  353       79.014962   0.000000
  354       79.142090   0.000000
  355       79.151476   0.000000
  356       79.234494   0.000000
  357       79.261155   0.000000
  358       79.317427   0.000000
  359       79.572102   0.000000
  360       79.668867   0.000000
  361       79.898248   0.000000
  362       79.911769   0.000000
  363       80.192329   0.000000
  364       80.244376   0.000000
  365       80.426275   0.000000
  366       80.490055   0.000000
  367       80.561138   0.000000
  368       80.988156   0.000000
  369       81.265065   0.000000
  370       81.348106   0.000000
  371       81.853985   0.000000
  372       81.885162   0.000000
  373       82.002319   0.000000
  374       82.239510   0.000000
  375       82.600492   0.000000
  376       82.700893   0.000000
  377       82.948684   0.000000
  378       83.145107   0.000000
  379       83.178321   0.000000
  380       83.401922   0.000000
  381       83.485771   0.000000
  382       83.937555   0.000000
  383       84.093659   0.000000
  384       84.183838   0.000000
 
  0.1666667E+00  0.0000000E+00  0.0000000E+00  0.4166667E-01
    1      -18.434145   1.000000
    2      -15.105930   1.000000
    3      -14.795418   1.000000
    4      -12.454902   1.000000
    5      -11.931654   1.000000
    6      -10.714920   1.000000
    7       -9.323718   1.000000
    8       -7.364524   1.000000
    9       -7.181602   1.000000
   10       -5.440381   1.000000
   11       -5.029597   1.000000
   12       -3.615707   1.000000
   13       -3.223984   1.000000
   14       -3.016468   1.000000
   15       -2.727161   1.000000
   16       -1.183930   0.000000
   17        1.323802   0.000000
   18        1.888075   0.000000
   19        2.128145   0.000000
   20        2.435798   0.000000
   21        4.729426   0.000000
   22        6.123977   0.000000
   23        6.555115   0.000000
   24        6.943984   0.000000
   25        6.959753   0.000000
   26        7.914594   0.000000
   27        8.172931   0.000000
   28        8.202038   0.000000
   29        8.578981   0.000000
   30        8.743557   0.000000
   31        9.073976   0.000000
   32        9.907715   0.000000
   33        9.915970   0.000000
   34       10.467196   0.000000
   35       10.571619   0.000000
   36       10.578806   0.000000
   37       10.911376   0.000000
   38       11.589393   0.000000
   39       11.880233   0.000000
   40       12.107703   0.000000
   41       12.142364   0.000000
   42       12.341925   0.000000
   43       12.642257   0.000000
   44       13.007456   0.000000
   45       13.477549   0.000000
   46       14.169512   0.000000
   47       14.385826   0.000000
   48       15.154526   0.000000
   49       15.276505   0.000000
   50       15.388927   0.000000
   51       15.799741   0.000000
   52       16.174283   0.000000
   53       17.357407   0.000000
   54       17.594126   0.000000
   55       17.861584   0.000000
   56       19.027340   0.000000
   57       19.083086   0.000000
   58       19.161221   0.000000
   59       19.552235   0.000000
   60       19.834361   0.000000
   61       19.923143   0.000000
   62       20.185900   0.000000
   63       20.200575   0.000000
   64       20.295343   0.000000
   65       20.460973   0.000000
   66       20.685381   0.000000
   67       20.907586   0.000000
   68       20.917741   0.000000
   69       20.965825   0.000000
   70       21.297353   0.000000
   71       23.108352   0.000000
   72       23.741731   0.000000
   73       23.780782   0.000000
   74       23.936752   0.000000
   75       24.047992   0.000000
   76       24.115464   0.000000
   77       24.228806   0.000000
   78       24.247843   0.000000
   79       24.457148   0.000000
   80       24.511396   0.000000
   81       24.693368   0.000000
   82       24.712601   0.000000
   83       25.103866   0.000000
   84       25.171696   0.000000
   85       25.229326   0.000000
   86       26.477561   0.000000
   87       26.605178   0.000000
   88       26.933680   0.000000
   89       27.066341   0.000000
   90       27.556104   0.000000
   91       27.700979   0.000000
   92       28.059487   0.000000
   93       28.103245   0.000000
   94       28.111775   0.000000
   95       28.188472   0.000000
   96       29.120697   0.000000
   97       29.132031   0.000000
   98       29.699831   0.000000
   99       29.733058   0.000000
  100       29.799695   0.000000
  101       30.252497   0.000000
  102       30.351032   0.000000
  103       30.588522   0.000000
  104       30.958187   0.000000
  105       30.970494   0.000000
  106       31.501984   0.000000
  107       31.756693   0.000000
  108       31.939731   0.000000
  109       32.638457   0.000000
  110       32.756928   0.000000
  111       32.816921   0.000000
  112       32.839678   0.000000
  113       32.928288   0.000000
  114       33.086862   0.000000
  115       33.163208   0.000000
  116       33.236123   0.000000
  117       33.748590   0.000000
  118       33.764805   0.000000
  119       33.966018   0.000000
  120       34.018581   0.000000
  121       34.204384   0.000000
  122       34.604656   0.000000
  123       34.949810   0.000000
  124       35.243668   0.000000
  125       35.487362   0.000000
  126       36.230181   0.000000
  127       36.518311   0.000000
  128       36.757300   0.000000
  129       36.877702   0.000000