       N       E                     dE             d eps       ncg     rms          rms(c)
DAV:   1    -0.567043834959E+01   -0.56704E+01   -0.20976E+03  1416   0.284E+02
DAV:   2    -0.109468317976E+02   -0.52764E+01   -0.52573E+01  1992   0.328E+01
DAV:   3    -0.109806735058E+02   -0.33842E-01   -0.33842E-01  1668   0.307E+00
DAV:   4    -0.109807491505E+02   -0.75645E-04   -0.75645E-04  2268   0.138E-01
DAV:   5    -0.109807491555E+02   -0.50694E-08   -0.50694E-08  1584   0.109E-03    0.519E+00
DAV:   6    -0.108723557840E+02    0.10839E+00   -0.69274E-02  1632   0.910E-01    0.315E+00
DAV:   7    -0.108218068138E+02    0.50549E-01   -0.13443E-01  1776   0.136E+00    0.156E-01
DAV:   8    -0.108228499821E+02   -0.10432E-02   -0.27955E-03  1572   0.254E-01    0.770E-02
DAV:   9    -0.108230657393E+02   -0.21576E-03   -0.23870E-04  2004   0.777E-02    0.577E-02
DAV:  10    -0.108230777911E+02   -0.12052E-04   -0.88770E-06  2004   0.160E-02    0.558E-03
DAV:  11    -0.108230793795E+02   -0.15884E-05   -0.23949E-06  1968   0.706E-03    0.329E-03
DAV:  12    -0.108230796931E+02   -0.31354E-06   -0.48456E-07  1908   0.372E-03
   1 F= -.10823080E+02 E0= -.10823080E+02  d E =-.108231E+02
       N       E                     dE             d eps       ncg     rms          rms(c)
DAV:   1    -0.108309943905E+02   -0.79150E-02   -0.21114E-01  1692   0.172E+00    0.435E-01
DAV:   2    -0.108274238272E+02    0.35706E-02   -0.24648E-03  1452   0.197E-01    0.241E-01
DAV:   3    -0.108256160011E+02    0.18078E-02   -0.37319E-03  1560   0.207E-01    0.100E-01
DAV:   4    -0.108256181725E+02   -0.21714E-05   -0.25818E-05  1932   0.305E-02    0.964E-02
DAV:   5    -0.108256175864E+02    0.58614E-06   -0.59963E-06  1512   0.118E-02
   2 F= -.10825618E+02 E0= -.10825618E+02  d E =-.253789E-02
       N       E                     dE             d eps       ncg     rms          rms(c)
DAV:   1    -0.108280062512E+02   -0.23881E-02   -0.30048E-02  1692   0.644E-01    0.147E-01
DAV:   2    -0.108274849886E+02    0.52126E-03   -0.35250E-04  1476   0.749E-02    0.817E-02
DAV:   3    -0.108272245526E+02    0.26044E-03   -0.53620E-04  1572   0.782E-02    0.379E-02
DAV:   4    -0.108272244798E+02    0.72788E-07   -0.37549E-06  1860   0.115E-02
   3 F= -.10827224E+02 E0= -.10827224E+02  d E =-.414479E-02
       N       E                     dE             d eps       ncg     rms          rms(c)
DAV:   1    -0.108272214980E+02    0.30545E-05   -0.32458E-06  1560   0.703E-03    0.535E-03
DAV:   2    -0.108272211092E+02    0.38878E-06   -0.56375E-08  1440   0.126E-03
   4 F= -.10827221E+02 E0= -.10827221E+02  d E =-.414142E-02
       N       E                     dE             d eps       ncg     rms          rms(c)
DAV:   1    -0.108272206867E+02    0.81129E-06   -0.68232E-08  1728   0.132E-03    0.595E-04
DAV:   2    -0.108272206563E+02    0.30460E-07   -0.17297E-09   756   0.214E-04
   5 F= -.10827221E+02 E0= -.10827221E+02  d E =-.414096E-02
       N       E                     dE             d eps       ncg     rms          rms(c)
DAV:   1    -0.108272206521E+02    0.34646E-07   -0.76848E-08   732   0.107E-03    0.211E-04
DAV:   2    -0.108272206611E+02   -0.89987E-08   -0.33452E-09   720   0.286E-04
   6 F= -.10827221E+02 E0= -.10827221E+02  d E =-.414097E-02
       N       E                     dE             d eps       ncg     rms          rms(c)
DAV:   1    -0.108272206654E+02   -0.13293E-07   -0.14679E-09   684   0.170E-04    0.623E-05
DAV:   2    -0.108272206699E+02   -0.45426E-08   -0.13126E-10   708   0.534E-05
   7 F= -.10827221E+02 E0= -.10827221E+02  d E =-.414098E-02
       N       E                     dE             d eps       ncg     rms          rms(c)
DAV:   1    -0.108272206733E+02   -0.79059E-08   -0.59892E-11   696   0.363E-05    0.113E-05
DAV:   2    -0.108272206745E+02   -0.12333E-08   -0.76008E-12   708   0.135E-05
   8 F= -.10827221E+02 E0= -.10827221E+02  d E =-.414098E-02
       N       E                     dE             d eps       ncg     rms          rms(c)
DAV:   1    -0.108272206756E+02   -0.23038E-08   -0.65106E-12   684   0.113E-05    0.378E-06
DAV:   2    -0.108272206759E+02   -0.30241E-09   -0.96577E-13   684   0.422E-06
   9 F= -.10827221E+02 E0= -.10827221E+02  d E =-.414098E-02
       N       E                     dE             d eps       ncg     rms          rms(c)
DAV:   1    -0.108272206762E+02   -0.55331E-09   -0.81007E-13   672   0.345E-06    0.125E-06
DAV:   2    -0.108272206762E+02   -0.82196E-10   -0.62787E-14   672   0.130E-06
  10 F= -.10827221E+02 E0= -.10827221E+02  d E =-.414098E-02
       N       E                     dE             d eps       ncg     rms          rms(c)
DAV:   1    -0.108272206763E+02   -0.14688E-09    0.14584E-13   672   0.101E-06    0.373E-07
DAV:   2    -0.108272206763E+02   -0.21828E-10    0.20248E-13   672   0.382E-07
  11 F= -.10827221E+02 E0= -.10827221E+02  d E =-.414098E-02
       N       E                     dE             d eps       ncg     rms          rms(c)
DAV:   1    -0.108272206763E+02   -0.39222E-10   -0.17177E-13   672   0.293E-07    0.106E-07
DAV:   2    -0.108272206763E+02   -0.48885E-11    0.15378E-13   672   0.112E-07
  12 F= -.10827221E+02 E0= -.10827221E+02  d E =-.414098E-02
       N       E                     dE             d eps       ncg     rms          rms(c)
DAV:   1    -0.108272206764E+02   -0.12960E-10    0.51635E-13   672   0.843E-08    0.297E-08
DAV:   2    -0.108272206764E+02    0.10232E-11   -0.71806E-14   672   0.324E-08
  13 F= -.10827221E+02 E0= -.10827221E+02  d E =-.414098E-02
       N       E                     dE             d eps       ncg     rms          rms(c)
DAV:   1    -0.108251424230E+02    0.20783E-02   -0.79177E-02  1704   0.104E+00    0.263E-01
DAV:   2    -0.108237733113E+02    0.13691E-02   -0.93044E-04  1488   0.121E-01    0.147E-01
DAV:   3    -0.108230859729E+02    0.68734E-03   -0.14184E-03  1584   0.127E-01    0.600E-02
DAV:   4    -0.108230861103E+02   -0.13735E-06   -0.95881E-06  1824   0.184E-02
  14 F= -.10823086E+02 E0= -.10823086E+02  d E =-.641723E-05
