   1   1   0   0
  0.1600000E+02  0.2828427E-09  0.2828427E-09  0.2828427E-09  0.5000000E-15
  1.000000000000000E-004
  CAR 
 fcc Ni                                  
     43.54368649     -3.95317022  301      4.92688148      1.00000000
     -3.953  0.0000E+00  0.0000E+00  0.0000E+00  0.0000E+00
     -3.795  0.0000E+00  0.0000E+00  0.0000E+00  0.0000E+00
     -3.637  0.0000E+00  0.0000E+00  0.0000E+00  0.0000E+00
     -3.478 -0.1975E-34 -0.1832E-32 -0.3127E-35 -0.2900E-33
     -3.320 -0.9009E-29 -0.5460E-27 -0.1426E-29 -0.8645E-28
     -3.162 -0.1162E-23 -0.4598E-22 -0.1839E-24 -0.7280E-23
     -3.003 -0.4224E-19 -0.1091E-17 -0.6688E-20 -0.1727E-18
     -2.845 -0.4177E-15 -0.7004E-14 -0.6614E-16 -0.1109E-14
     -2.687 -0.1180E-11 -0.1283E-10 -0.1868E-12 -0.2032E-11
     -2.528 -0.9168E-09 -0.6429E-08 -0.1453E-09 -0.1020E-08
     -2.370 -0.1916E-06 -0.8555E-06 -0.3049E-07 -0.1365E-06
     -2.212 -0.1022E-04 -0.2810E-04 -0.1648E-05 -0.4585E-05
     -2.053 -0.1198E-03 -0.1811E-03 -0.2061E-04 -0.3326E-04
     -1.895 -0.1512E-03  0.5255E-05 -0.4454E-04 -0.3242E-04
     -1.737  0.7431E-03  0.2082E-02  0.7310E-04  0.2972E-03
     -1.578  0.1141E-01  0.2025E-01  0.1879E-02  0.3504E-02
     -1.420  0.3584E-01  0.3636E-01  0.7554E-02  0.9260E-02
     -1.262  0.2360E-01  0.1813E-01  0.1129E-01  0.1213E-01
     -1.103  0.2304E-01  0.3074E-01  0.1494E-01  0.1700E-01
     -0.945  0.5366E-01  0.6765E-01  0.2343E-01  0.2771E-01
     -0.787  0.9048E-01  0.8559E-01  0.3776E-01  0.4126E-01
     -0.628  0.4392E-01  0.2415E-01  0.4471E-01  0.4508E-01
     -0.470  0.7597E-02  0.1231E-01  0.4592E-01  0.4703E-01
     -0.312  0.5664E-01  0.8042E-01  0.5488E-01  0.5976E-01
     -0.153  0.1286E+00  0.1254E+00  0.7525E-01  0.7962E-01
      0.005  0.8060E-01  0.6431E-01  0.8801E-01  0.8980E-01
      0.163  0.7614E-01  0.8070E-01  0.1001E+00  0.1026E+00
      0.322  0.1051E+00  0.1044E+00  0.1167E+00  0.1191E+00
      0.480  0.6047E-01  0.4971E-01  0.1263E+00  0.1270E+00
      0.638  0.2506E-01  0.2015E-01  0.1302E+00  0.1302E+00
      0.797  0.1561E+00  0.1382E+00  0.1550E+00  0.1521E+00
      0.955  0.2133E+00  0.2173E+00  0.1887E+00  0.1865E+00
      1.113  0.1254E+00  0.9756E-01  0.2086E+00  0.2019E+00
      1.271  0.1683E+00  0.1233E+00  0.2352E+00  0.2214E+00
      1.430  0.9742E-01  0.1432E+00  0.2507E+00  0.2441E+00
      1.588  0.1808E+00  0.6387E-01  0.2793E+00  0.2542E+00
      1.746  0.4732E+00  0.1126E+00  0.3542E+00  0.2720E+00
      1.905  0.5081E+00  0.2719E+00  0.4346E+00  0.3151E+00
      2.063  0.6749E+00  0.3318E+00  0.5415E+00  0.3676E+00
      2.221  0.9309E+00  0.3200E+00  0.6889E+00  0.4183E+00
      2.380  0.1454E+01  0.3308E+00  0.9191E+00  0.4707E+00
      2.538  0.1526E+01  0.4712E+00  0.1161E+01  0.5453E+00
      2.696  0.1438E+01  0.6711E+00  0.1388E+01  0.6515E+00
      2.855  0.1659E+01  0.7542E+00  0.1651E+01  0.7709E+00
      3.013  0.2156E+01  0.8241E+00  0.1992E+01  0.9014E+00
      3.171  0.2616E+01  0.1215E+01  0.2407E+01  0.1094E+01
      3.330  0.2884E+01  0.1364E+01  0.2863E+01  0.1310E+01
      3.488  0.2235E+01  0.1352E+01  0.3217E+01  0.1524E+01
      3.646  0.1898E+01  0.1579E+01  0.3518E+01  0.1774E+01
      3.805  0.2412E+01  0.2015E+01  0.3899E+01  0.2093E+01
      3.963  0.2733E+01  0.2347E+01  0.4332E+01  0.2464E+01
      4.121  0.3338E+01  0.2639E+01  0.4861E+01  0.2882E+01
      4.280  0.2376E+01  0.2240E+01  0.5237E+01  0.3237E+01
      4.438  0.3413E+00  0.1961E+01  0.5291E+01  0.3547E+01
      4.596 -0.7025E-01  0.2244E+01  0.5280E+01  0.3902E+01
      4.755  0.2231E+00  0.2026E+01  0.5315E+01  0.4223E+01
      4.913  0.4105E+00  0.2228E+01  0.5380E+01  0.4576E+01
      5.071  0.2804E+00  0.2886E+01  0.5424E+01  0.5033E+01
      5.230  0.1338E+00  0.1549E+01  0.5446E+01  0.5278E+01
      5.388  0.9523E-01  0.2135E+00  0.5461E+01  0.5312E+01
      5.546  0.6875E-01  0.3721E+00  0.5472E+01  0.5371E+01
      5.705  0.5739E-01  0.4026E+00  0.5481E+01  0.5434E+01
      5.863  0.1959E+00  0.1467E+00  0.5512E+01  0.5458E+01
      6.021  0.3387E+00  0.1516E+00  0.5565E+01  0.5482E+01
      6.179  0.2521E+00  0.1685E+00  0.5605E+01  0.5508E+01
      6.338  0.1778E+00  0.1312E+00  0.5633E+01  0.5529E+01
      6.496  0.1369E+00  0.3205E+00  0.5655E+01  0.5580E+01
      6.654  0.1141E+00  0.2897E+00  0.5673E+01  0.5626E+01
      6.813  0.1384E+00  0.1485E+00  0.5695E+01  0.5649E+01
      6.971  0.1712E+00  0.1483E+00  0.5722E+01  0.5673E+01
      7.129  0.5753E-01  0.1915E+00  0.5731E+01  0.5703E+01
      7.288  0.4905E-01  0.1737E+00  0.5739E+01  0.5731E+01
      7.446  0.7777E-01  0.8173E-01  0.5751E+01  0.5743E+01
      7.604  0.1695E+00  0.5468E-01  0.5778E+01  0.5752E+01
      7.763  0.3090E+00  0.7403E-01  0.5827E+01  0.5764E+01
      7.921  0.2219E+00  0.2396E+00  0.5862E+01  0.5802E+01
      8.079  0.5463E-01  0.3218E+00  0.5871E+01  0.5853E+01
      8.238  0.1239E+00  0.8933E-01  0.5891E+01  0.5867E+01
      8.396  0.9957E-01  0.7345E-01  0.5906E+01  0.5879E+01
      8.554  0.1013E+00  0.1155E+00  0.5922E+01  0.5897E+01
      8.713  0.1821E+00  0.7076E-01  0.5951E+01  0.5908E+01
      8.871  0.1705E+00  0.1852E+00  0.5978E+01  0.5937E+01
      9.029  0.2126E+00  0.1602E+00  0.6012E+01  0.5963E+01
      9.188  0.2935E+00  0.1981E+00  0.6058E+01  0.5994E+01
      9.346  0.1714E+00  0.2108E+00  0.6085E+01  0.6027E+01
      9.504  0.1412E-01  0.2270E+00  0.6088E+01  0.6063E+01
      9.663  0.4503E-01  0.1459E+00  0.6095E+01  0.6086E+01
      9.821  0.1216E+00  0.4361E-01  0.6114E+01  0.6093E+01
      9.979  0.1146E+00  0.7995E-01  0.6132E+01  0.6106E+01
     10.138  0.2436E+00  0.1312E+00  0.6171E+01  0.6127E+01
     10.296  0.2677E+00  0.2241E+00  0.6213E+01  0.6162E+01
     10.454  0.1518E+00  0.2826E+00  0.6237E+01  0.6207E+01
     10.613  0.1455E+00  0.2027E+00  0.6260E+01  0.6239E+01
     10.771  0.3332E+00  0.1113E+00  0.6313E+01  0.6257E+01
     10.929  0.1756E+00  0.3029E+00  0.6341E+01  0.6305E+01
     11.088  0.1542E-01  0.2200E+00  0.6343E+01  0.6340E+01
     11.246  0.1270E+00  0.1460E-01  0.6363E+01  0.6342E+01
     11.404  0.1381E+00  0.1141E+00  0.6385E+01  0.6360E+01
     11.562  0.1011E+00  0.1403E+00  0.6401E+01  0.6382E+01
     11.721  0.1345E+00  0.8608E-01  0.6422E+01  0.6396E+01
     11.879  0.1594E+00  0.1577E+00  0.6448E+01  0.6421E+01
     12.037  0.1899E+00  0.1556E+00  0.6478E+01  0.6445E+01
     12.196  0.2728E+00  0.1752E+00  0.6521E+01  0.6473E+01
     12.354  0.1936E+00  0.2895E+00  0.6552E+01  0.6519E+01
     12.512  0.1591E+00  0.2468E+00  0.6577E+01  0.6558E+01
     12.671  0.2454E+00  0.1748E+00  0.6616E+01  0.6586E+01
     12.829  0.3882E+00  0.2512E+00  0.6677E+01  0.6625E+01
     12.987  0.2884E+00  0.3818E+00  0.6723E+01  0.6686E+01
     13.146  0.1707E+00  0.2678E+00  0.6750E+01  0.6728E+01
     13.304  0.9626E-01  0.1585E+00  0.6765E+01  0.6753E+01
     13.462  0.1348E+00  0.9861E-01  0.6786E+01  0.6769E+01
     13.621  0.1534E+00  0.1459E+00  0.6811E+01  0.6792E+01
     13.779  0.2306E+00  0.1677E+00  0.6847E+01  0.6819E+01
     13.937  0.3026E+00  0.2557E+00  0.6895E+01  0.6859E+01
     14.096  0.3170E+00  0.3120E+00  0.6945E+01  0.6908E+01
     14.254  0.3309E+00  0.3373E+00  0.6998E+01  0.6962E+01
     14.412  0.1657E+00  0.2992E+00  0.7024E+01  0.7009E+01
     14.571  0.7825E-01  0.1162E+00  0.7036E+01  0.7028E+01
     14.729  0.1033E+00  0.8030E-01  0.7053E+01  0.7040E+01
     14.887  0.1366E+00  0.1301E+00  0.7074E+01  0.7061E+01
     15.046  0.1504E+00  0.1576E+00  0.7098E+01  0.7086E+01
     15.204  0.2937E+00  0.1895E+00  0.7145E+01  0.7116E+01
     15.362  0.4069E+00  0.3980E+00  0.7209E+01  0.7179E+01
     15.521  0.2977E+00  0.3460E+00  0.7256E+01  0.7234E+01
     15.679  0.2807E+00  0.2466E+00  0.7301E+01  0.7273E+01
     15.837  0.3111E+00  0.3332E+00  0.7350E+01  0.7326E+01
     15.996  0.1973E+00  0.2599E+00  0.7381E+01  0.7367E+01
     16.154  0.2267E+00  0.2382E+00  0.7417E+01  0.7404E+01
     16.312  0.1519E+00  0.1786E+00  0.7441E+01  0.7433E+01
     16.470  0.1499E+00  0.1169E+00  0.7465E+01  0.7451E+01
     16.629  0.2563E+00  0.2152E+00  0.7505E+01  0.7485E+01
     16.787  0.4406E+00  0.3779E+00  0.7575E+01  0.7545E+01
     16.945  0.2712E+00  0.3593E+00  0.7618E+01  0.7602E+01
     17.104  0.1961E+00  0.1998E+00  0.7649E+01  0.7634E+01
     17.262  0.2976E+00  0.2858E+00  0.7696E+01  0.7679E+01
     17.420  0.2574E+00  0.2885E+00  0.7737E+01  0.7724E+01
     17.579  0.2885E+00  0.2686E+00  0.7783E+01  0.7767E+01
     17.737  0.2928E+00  0.2769E+00  0.7829E+01  0.7811E+01
     17.895  0.1563E+00  0.2170E+00  0.7854E+01  0.7845E+01
     18.054  0.1213E+00  0.1113E+00  0.7873E+01  0.7863E+01
     18.212  0.2420E+00  0.1993E+00  0.7911E+01  0.7894E+01
     18.370  0.2583E+00  0.2780E+00  0.7952E+01  0.7938E+01
     18.529  0.2322E+00  0.2516E+00  0.7989E+01  0.7978E+01
     18.687  0.2758E+00  0.2240E+00  0.8033E+01  0.8014E+01
     18.845  0.3428E+00  0.3305E+00  0.8087E+01  0.8066E+01
     19.004  0.2656E+00  0.3141E+00  0.8129E+01  0.8116E+01
     19.162  0.1761E+00  0.1950E+00  0.8157E+01  0.8147E+01
     19.320  0.1933E+00  0.1803E+00  0.8187E+01  0.8175E+01
     19.479  0.1735E+00  0.1965E+00  0.8215E+01  0.8206E+01
     19.637  0.4642E-01  0.9323E-01  0.8222E+01  0.8221E+01
     19.795  0.7264E-01  0.3333E-01  0.8234E+01  0.8226E+01
     19.954  0.3060E+00  0.2337E+00  0.8282E+01  0.8263E+01
     20.112  0.2370E+00  0.2982E+00  0.8320E+01  0.8311E+01
     20.270  0.1268E+00  0.1350E+00  0.8340E+01  0.8332E+01
     20.429  0.2758E+00  0.2115E+00  0.8383E+01  0.8365E+01
     20.587  0.3126E+00  0.3334E+00  0.8433E+01  0.8418E+01
     20.745  0.1119E+00  0.1753E+00  0.8451E+01  0.8446E+01
     20.904  0.1486E+00  0.1138E+00  0.8474E+01  0.8464E+01
     21.062  0.2327E+00  0.2218E+00  0.8511E+01  0.8499E+01
     21.220  0.2269E+00  0.2237E+00  0.8547E+01  0.8534E+01
     21.378  0.1967E+00  0.2145E+00  0.8578E+01  0.8568E+01
     21.537  0.1645E+00  0.1693E+00  0.8604E+01  0.8595E+01
     21.695  0.2010E+00  0.1755E+00  0.8636E+01  0.8623E+01
     21.853  0.4094E+00  0.3296E+00  0.8701E+01  0.8675E+01
     22.012  0.3758E+00  0.4352E+00  0.8760E+01  0.8744E+01
     22.170  0.1352E+00  0.1940E+00  0.8782E+01  0.8775E+01
     22.328  0.1142E+00  0.1527E+00  0.8800E+01  0.8799E+01
     22.487  0.2858E+00  0.2744E+00  0.8845E+01  0.8842E+01
     22.645  0.3113E+00  0.2817E+00  0.8894E+01  0.8887E+01
     22.803  0.2448E+00  0.2293E+00  0.8933E+01  0.8923E+01
     22.962  0.2547E+00  0.2347E+00  0.8973E+01  0.8961E+01
     23.120  0.2623E+00  0.3609E+00  0.9015E+01  0.9018E+01
     23.278  0.2641E+00  0.2916E+00  0.9057E+01  0.9064E+01
     23.437  0.4454E+00  0.3280E+00  0.9127E+01  0.9116E+01
     23.595  0.5557E+00  0.5207E+00  0.9215E+01  0.9198E+01
     23.753  0.3457E+00  0.3596E+00  0.9270E+01  0.9255E+01
     23.912  0.2416E+00  0.2828E+00  0.9308E+01  0.9300E+01
     24.070  0.3832E+00  0.4445E+00  0.9369E+01  0.9370E+01
     24.228  0.5669E+00  0.5281E+00  0.9459E+01  0.9454E+01
     24.387  0.4592E+00  0.5074E+00  0.9531E+01  0.9534E+01
     24.545  0.1874E+00  0.2106E+00  0.9561E+01  0.9568E+01
     24.703  0.2922E+00  0.2861E+00  0.9607E+01  0.9613E+01
     24.862  0.3706E+00  0.3436E+00  0.9666E+01  0.9667E+01
     25.020  0.2634E+00  0.2276E+00  0.9708E+01  0.9703E+01
     25.178  0.2180E+00  0.2134E+00  0.9742E+01  0.9737E+01
     25.337  0.4010E+00  0.3951E+00  0.9806E+01  0.9800E+01
     25.495  0.4627E+00  0.4870E+00  0.9879E+01  0.9877E+01
     25.653  0.2927E+00  0.2883E+00  0.9925E+01  0.9922E+01
     25.812  0.1121E+00  0.1133E+00  0.9943E+01  0.9940E+01
     25.970  0.4000E-01  0.6742E-01  0.9949E+01  0.9951E+01
     26.128  0.1335E-01  0.5578E-02  0.9951E+01  0.9952E+01
     26.286  0.3557E-01  0.3779E-01  0.9957E+01  0.9958E+01
     26.445  0.1713E+00  0.1892E+00  0.9984E+01  0.9988E+01
     26.603  0.2828E+00  0.2632E+00  0.1003E+02  0.1003E+02
     26.761  0.3102E+00  0.2535E+00  0.1008E+02  0.1007E+02
     26.920  0.3977E+00  0.3445E+00  0.1014E+02  0.1012E+02
     27.078  0.4237E+00  0.4439E+00  0.1021E+02  0.1019E+02
     27.236  0.2121E+00  0.2630E+00  0.1024E+02  0.1024E+02
     27.395  0.1703E+00  0.1576E+00  0.1027E+02  0.1026E+02
     27.553  0.2619E+00  0.2208E+00  0.1031E+02  0.1030E+02
     27.711  0.3393E+00  0.3685E+00  0.1036E+02  0.1035E+02
     27.870  0.2326E+00  0.2986E+00  0.1040E+02  0.1040E+02
     28.028  0.1572E+00  0.1360E+00  0.1043E+02  0.1042E+02
     28.186  0.2375E+00  0.2181E+00  0.1046E+02  0.1046E+02
     28.345  0.2855E+00  0.3306E+00  0.1051E+02  0.1051E+02
     28.503  0.2335E+00  0.2909E+00  0.1055E+02  0.1056E+02
     28.661  0.3139E+00  0.3073E+00  0.1059E+02  0.1060E+02
     28.820  0.2725E+00  0.2548E+00  0.1064E+02  0.1065E+02
     28.978  0.4238E+00  0.4666E+00  0.1071E+02  0.1072E+02
     29.136  0.4940E+00  0.4898E+00  0.1078E+02  0.1080E+02
     29.295  0.2242E+00  0.1744E+00  0.1082E+02  0.1082E+02
     29.453  0.8319E-01  0.4909E-01  0.1083E+02  0.1083E+02
     29.611  0.9807E-01  0.1066E+00  0.1085E+02  0.1085E+02
     29.770  0.1201E+00  0.1192E+00  0.1087E+02  0.1087E+02
     29.928  0.2133E+00  0.2288E+00  0.1090E+02  0.1090E+02
     30.086  0.2963E+00  0.2982E+00  0.1095E+02  0.1095E+02
     30.245  0.2707E+00  0.2742E+00  0.1099E+02  0.1099E+02
     30.403  0.3180E+00  0.2699E+00  0.1104E+02  0.1104E+02
     30.561  0.4139E+00  0.3699E+00  0.1111E+02  0.1110E+02
     30.720  0.3787E+00  0.4624E+00  0.1117E+02  0.1117E+02
     30.878  0.2821E+00  0.3094E+00  0.1121E+02  0.1122E+02
     31.036  0.2836E+00  0.2329E+00  0.1126E+02  0.1125E+02
     31.195  0.1481E+00  0.1686E+00  0.1128E+02  0.1128E+02
     31.353  0.1177E+00  0.1879E+00  0.1130E+02  0.1131E+02
     31.511  0.2731E+00  0.2726E+00  0.1134E+02  0.1135E+02
     31.669  0.1675E+00  0.8134E-01  0.1137E+02  0.1137E+02
     31.828  0.1980E+00  0.1536E+00  0.1140E+02  0.1139E+02
     31.986  0.4191E+00  0.4830E+00  0.1147E+02  0.1147E+02
     32.144  0.2696E+00  0.3266E+00  0.1151E+02  0.1152E+02
     32.303  0.1462E+00  0.1111E+00  0.1153E+02  0.1154E+02
     32.461  0.1375E+00  0.7960E-01  0.1155E+02  0.1155E+02
     32.619  0.2074E+00  0.2205E+00  0.1159E+02  0.1158E+02
     32.778  0.1597E+00  0.2070E+00  0.1161E+02  0.1162E+02
     32.936  0.1398E+00  0.1229E+00  0.1163E+02  0.1164E+02
     33.094  0.3842E-01  0.4322E-01  0.1164E+02  0.1164E+02
     33.253  0.8818E-01  0.1110E+00  0.1165E+02  0.1166E+02
     33.411  0.2616E+00  0.2274E+00  0.1169E+02  0.1170E+02
     33.569  0.1786E+00  0.1806E+00  0.1172E+02  0.1173E+02
     33.728  0.3918E-01  0.1816E-01  0.1173E+02  0.1173E+02
     33.886  0.1273E-01  0.4719E-01  0.1173E+02  0.1174E+02
     34.044  0.1759E+00  0.2303E+00  0.1176E+02  0.1177E+02
     34.203  0.2346E+00  0.1824E+00  0.1180E+02  0.1180E+02
     34.361  0.7053E-01  0.3523E-01  0.1181E+02  0.1181E+02
     34.519 -0.2316E-02 -0.5890E-02  0.1181E+02  0.1181E+02
     34.678 -0.6393E-02 -0.4520E-02  0.1181E+02  0.1181E+02
     34.836 -0.1528E-02 -0.4485E-02  0.1181E+02  0.1181E+02
     34.994  0.8369E-01  0.6710E-01  0.1182E+02  0.1182E+02
     35.153  0.1289E+00  0.1379E+00  0.1184E+02  0.1184E+02
     35.311  0.8472E-01  0.1128E+00  0.1185E+02  0.1186E+02
     35.469  0.1174E+00  0.1325E+00  0.1187E+02  0.1188E+02
     35.628  0.8781E-01  0.9506E-01  0.1188E+02  0.1189E+02
     35.786  0.6346E-01  0.4109E-01  0.1190E+02  0.1190E+02
     35.944  0.3543E-01  0.3102E-01  0.1190E+02  0.1190E+02
     36.103  0.2771E-01  0.1777E-01  0.1191E+02  0.1191E+02
     36.261  0.3746E-02 -0.8452E-03  0.1191E+02  0.1191E+02
     36.419 -0.1843E-02 -0.1435E-02  0.1191E+02  0.1191E+02
     36.577 -0.3161E-02 -0.3317E-02  0.1190E+02  0.1190E+02
     36.736  0.9428E-02  0.1901E-01  0.1191E+02  0.1191E+02
     36.894  0.6302E-01  0.6896E-01  0.1192E+02  0.1192E+02
     37.052  0.4564E-01  0.3169E-01  0.1192E+02  0.1192E+02
     37.211 -0.3446E-02 -0.5034E-02  0.1192E+02  0.1192E+02
     37.369  0.1649E-01  0.3874E-01  0.1193E+02  0.1193E+02
     37.527  0.8619E-01  0.1095E+00  0.1194E+02  0.1195E+02
     37.686  0.1012E+00  0.9214E-01  0.1196E+02  0.1196E+02
     37.844  0.4864E-01  0.2285E-01  0.1196E+02  0.1196E+02
     38.002  0.8286E-02 -0.2548E-02  0.1196E+02  0.1196E+02
     38.161 -0.1353E-02 -0.1088E-02  0.1196E+02  0.1196E+02
     38.319 -0.5638E-03 -0.1374E-03  0.1196E+02  0.1196E+02
     38.477 -0.7565E-03 -0.1384E-02  0.1196E+02  0.1196E+02
     38.636 -0.3260E-02 -0.1944E-02  0.1196E+02  0.1196E+02
     38.794  0.2035E-01  0.3603E-01  0.1197E+02  0.1197E+02
     38.952  0.6942E-01  0.6827E-01  0.1198E+02  0.1198E+02
     39.111  0.3189E-01  0.1688E-01  0.1198E+02  0.1198E+02
     39.269 -0.2512E-02 -0.3274E-02  0.1198E+02  0.1198E+02
     39.427 -0.1191E-02 -0.6040E-03  0.1198E+02  0.1198E+02
     39.586 -0.5699E-04 -0.5329E-04  0.1198E+02  0.1198E+02
     39.744 -0.1650E-03 -0.7010E-03  0.1198E+02  0.1198E+02
     39.902 -0.1445E-02 -0.9483E-03  0.1198E+02  0.1198E+02
     40.061  0.3894E-02  0.1800E-01  0.1198E+02  0.1198E+02
     40.219  0.2995E-01  0.3327E-01  0.1199E+02  0.1199E+02
     40.377  0.2743E-01  0.1411E-01  0.1199E+02  0.1199E+02
     40.536  0.1698E-01  0.1585E-01  0.1199E+02  0.1199E+02
     40.694  0.9491E-02  0.6864E-02  0.1200E+02  0.1200E+02
     40.852 -0.2795E-03 -0.8029E-03  0.1200E+02  0.1200E+02
     41.011 -0.7455E-03 -0.9911E-03  0.1200E+02  0.1200E+02
     41.169 -0.5852E-03  0.2088E-02  0.1200E+02  0.1200E+02
     41.327  0.8506E-02  0.1548E-01  0.1200E+02  0.1200E+02
     41.485  0.1722E-01  0.1202E-01  0.1200E+02  0.1200E+02
     41.644  0.4630E-02  0.2317E-03  0.1200E+02  0.1200E+02
     41.802 -0.8196E-03 -0.5061E-03  0.1200E+02  0.1200E+02
     41.960 -0.1650E-03 -0.3544E-04  0.1200E+02  0.1200E+02
     42.119 -0.5120E-05 -0.5341E-06  0.1200E+02  0.1200E+02
     42.277 -0.3856E-07 -0.2067E-08  0.1200E+02  0.1200E+02
     42.435 -0.7698E-10 -0.2161E-11  0.1200E+02  0.1200E+02
     42.594 -0.4202E-13 -0.6259E-15  0.1200E+02  0.1200E+02
     42.752 -0.6322E-17  0.0000E+00  0.1200E+02  0.1200E+02
     42.910  0.0000E+00  0.0000E+00  0.1200E+02  0.1200E+02
     43.069  0.0000E+00  0.0000E+00  0.1200E+02  0.1200E+02
     43.227  0.0000E+00  0.0000E+00  0.1200E+02  0.1200E+02
     43.385  0.0000E+00  0.0000E+00  0.1200E+02  0.1200E+02
     43.544  0.0000E+00  0.0000E+00  0.1200E+02  0.1200E+02
