   8   8   0   0
  0.2469169E+02  0.5174038E-09  0.5174038E-09  0.8520222E-09  0.5000000E-15
  1.000000000000000E-004
  CAR 
 BC3-optical                             
     13.39350343    -20.06098856 2400     -2.41989734      1.00000000
    -20.061  0.0000E+00  0.0000E+00
    -20.047  0.0000E+00  0.0000E+00
    -20.033  0.0000E+00  0.0000E+00
    -20.019  0.0000E+00  0.0000E+00
    -20.005  0.0000E+00  0.0000E+00
    -19.991  0.0000E+00  0.0000E+00
    -19.977  0.0000E+00  0.0000E+00
    -19.963  0.0000E+00  0.0000E+00
    -19.949  0.0000E+00  0.0000E+00
    -19.935  0.0000E+00  0.0000E+00
    -19.922  0.0000E+00  0.0000E+00
    -19.908  0.0000E+00  0.0000E+00
    -19.894  0.0000E+00  0.0000E+00
    -19.880  0.0000E+00  0.0000E+00
    -19.866  0.0000E+00  0.0000E+00
    -19.852  0.0000E+00  0.0000E+00
    -19.838  0.0000E+00  0.0000E+00
    -19.824  0.0000E+00  0.0000E+00
    -19.810  0.0000E+00  0.0000E+00
    -19.796  0.0000E+00  0.0000E+00
    -19.782  0.0000E+00  0.0000E+00
    -19.768  0.0000E+00  0.0000E+00
    -19.754  0.0000E+00  0.0000E+00
    -19.740  0.0000E+00  0.0000E+00
    -19.726  0.0000E+00  0.0000E+00
    -19.712  0.0000E+00  0.0000E+00
    -19.698  0.0000E+00  0.0000E+00
    -19.684  0.0000E+00  0.0000E+00
    -19.671  0.0000E+00  0.0000E+00
    -19.657  0.0000E+00  0.0000E+00
    -19.643  0.0000E+00  0.0000E+00
    -19.629  0.0000E+00  0.0000E+00
    -19.615  0.0000E+00  0.0000E+00
    -19.601  0.0000E+00  0.0000E+00
    -19.587  0.0000E+00  0.0000E+00
    -19.573  0.0000E+00  0.0000E+00
    -19.559  0.0000E+00  0.0000E+00
    -19.545  0.0000E+00  0.0000E+00
    -19.531  0.0000E+00  0.0000E+00
    -19.517  0.0000E+00  0.0000E+00
    -19.503  0.0000E+00  0.0000E+00
    -19.489  0.0000E+00  0.0000E+00
    -19.475  0.0000E+00  0.0000E+00
    -19.461  0.0000E+00  0.0000E+00
    -19.447  0.0000E+00  0.0000E+00
    -19.433  0.0000E+00  0.0000E+00
    -19.420  0.0000E+00  0.0000E+00
    -19.406  0.0000E+00  0.0000E+00
    -19.392  0.0000E+00  0.0000E+00
    -19.378  0.0000E+00  0.0000E+00
    -19.364  0.0000E+00  0.0000E+00
    -19.350  0.0000E+00  0.0000E+00
    -19.336  0.0000E+00  0.0000E+00
    -19.322  0.0000E+00  0.0000E+00
    -19.308  0.0000E+00  0.0000E+00
    -19.294  0.0000E+00  0.0000E+00
    -19.280  0.0000E+00  0.0000E+00
    -19.266  0.0000E+00  0.0000E+00
    -19.252  0.0000E+00  0.0000E+00
    -19.238  0.0000E+00  0.0000E+00
    -19.224  0.0000E+00  0.0000E+00
    -19.210  0.0000E+00  0.0000E+00
    -19.196  0.0000E+00  0.0000E+00
    -19.182  0.0000E+00  0.0000E+00
    -19.168  0.0000E+00  0.0000E+00
    -19.155  0.0000E+00  0.0000E+00
    -19.141  0.0000E+00  0.0000E+00
    -19.127  0.0000E+00  0.0000E+00
    -19.113  0.0000E+00  0.0000E+00
    -19.099  0.0000E+00  0.0000E+00
    -19.085  0.0000E+00  0.0000E+00
    -19.071  0.0000E+00  0.0000E+00
    -19.057  0.0000E+00  0.0000E+00
    -19.043  0.0000E+00  0.0000E+00
    -19.029  0.0000E+00  0.0000E+00
    -19.015  0.0000E+00  0.0000E+00
    -19.001  0.0000E+00  0.0000E+00
    -18.987  0.0000E+00  0.0000E+00
    -18.973  0.0000E+00  0.0000E+00
    -18.959  0.0000E+00  0.0000E+00
    -18.945  0.0000E+00  0.0000E+00
    -18.931  0.0000E+00  0.0000E+00
    -18.917  0.0000E+00  0.0000E+00
    -18.904  0.0000E+00  0.0000E+00
    -18.890  0.0000E+00  0.0000E+00
    -18.876  0.0000E+00  0.0000E+00
    -18.862  0.0000E+00  0.0000E+00
    -18.848  0.0000E+00  0.0000E+00
    -18.834  0.0000E+00  0.0000E+00
    -18.820  0.0000E+00  0.0000E+00
    -18.806  0.0000E+00  0.0000E+00
    -18.792  0.0000E+00  0.0000E+00
    -18.778  0.0000E+00  0.0000E+00
    -18.764  0.0000E+00  0.0000E+00
    -18.750  0.0000E+00  0.0000E+00
    -18.736  0.0000E+00  0.0000E+00
    -18.722  0.0000E+00  0.0000E+00
    -18.708  0.0000E+00  0.0000E+00
    -18.694  0.0000E+00  0.0000E+00
    -18.680  0.0000E+00  0.0000E+00
    -18.666  0.0000E+00  0.0000E+00
    -18.653  0.0000E+00  0.0000E+00
    -18.639  0.0000E+00  0.0000E+00
    -18.625  0.0000E+00  0.0000E+00
    -18.611  0.0000E+00  0.0000E+00
    -18.597  0.7187E-15  0.1002E-16
    -18.583  0.9465E-09  0.1320E-10
    -18.569  0.2731E-04  0.3809E-06
    -18.555  0.1951E-01  0.2724E-03
    -18.541  0.4431E+00  0.6452E-02
    -18.527  0.6559E+00  0.1560E-01
    -18.513  0.2914E+01  0.5624E-01
    -18.499  0.2800E+01  0.9529E-01
    -18.485  0.1392E+00  0.9724E-01
    -18.471  0.3429E+00  0.1020E+00
    -18.457  0.3568E+01  0.1518E+00
    -18.443  0.2588E+01  0.1879E+00
    -18.429  0.3951E+01  0.2430E+00
    -18.415  0.1477E+01  0.2635E+00
    -18.402  0.2455E-01  0.2639E+00
    -18.388  0.2809E-03  0.2639E+00
    -18.374  0.2091E+00  0.2668E+00
    -18.360  0.5121E+01  0.3382E+00
    -18.346  0.6225E+01  0.4250E+00
    -18.332  0.4056E+00  0.4307E+00
    -18.318  0.1009E+01  0.4448E+00
    -18.304  0.4037E+01  0.5011E+00
    -18.290  0.9119E+00  0.5138E+00
    -18.276  0.8294E-02  0.5139E+00
    -18.262  0.1554E-01  0.5141E+00
    -18.248  0.1214E+01  0.5310E+00
    -18.234  0.4444E+01  0.5930E+00
    -18.220  0.7165E+01  0.6929E+00
    -18.206  0.4906E+01  0.7613E+00
    -18.192  0.1836E+00  0.7639E+00
    -18.178  0.7479E-01  0.7649E+00
    -18.164  0.2279E+01  0.7967E+00
    -18.150  0.3358E+01  0.8435E+00
    -18.137  0.2641E+00  0.8472E+00
    -18.123  0.4523E-01  0.8478E+00
    -18.109  0.2833E+01  0.8874E+00
    -18.095  0.7892E+01  0.9974E+00
    -18.081  0.3966E+01  0.1053E+01
    -18.067  0.7893E+01  0.1163E+01
    -18.053  0.1267E+01  0.1180E+01
    -18.039  0.2959E+00  0.1185E+01
    -18.025  0.3429E+01  0.1232E+01
    -18.011  0.2191E+01  0.1263E+01
    -17.997  0.3414E+00  0.1268E+01
    -17.983  0.7725E+01  0.1375E+01
    -17.969  0.1861E+02  0.1635E+01
    -17.955  0.6083E+01  0.1720E+01
    -17.941  0.3377E+00  0.1724E+01
    -17.927  0.2944E+01  0.1766E+01
    -17.913  0.3710E+01  0.1817E+01
    -17.899  0.7732E+01  0.1925E+01
    -17.886  0.3416E+01  0.1973E+01
    -17.872  0.1223E+01  0.1990E+01
    -17.858  0.7118E+00  0.2000E+01
    -17.844  0.2079E-01  0.2000E+01
    -17.830  0.1844E-04  0.2000E+01
    -17.816  0.3980E-09  0.2000E+01
    -17.802  0.2211E-15  0.2000E+01
    -17.788  0.0000E+00  0.2000E+01
    -17.774  0.0000E+00  0.2000E+01
    -17.760  0.0000E+00  0.2000E+01
    -17.746  0.0000E+00  0.2000E+01
    -17.732  0.0000E+00  0.2000E+01
    -17.718  0.0000E+00  0.2000E+01
    -17.704  0.0000E+00  0.2000E+01
    -17.690  0.0000E+00  0.2000E+01
    -17.676  0.0000E+00  0.2000E+01
    -17.662  0.0000E+00  0.2000E+01
    -17.648  0.0000E+00  0.2000E+01
    -17.635  0.0000E+00  0.2000E+01
    -17.621  0.0000E+00  0.2000E+01
    -17.607  0.0000E+00  0.2000E+01
    -17.593  0.0000E+00  0.2000E+01
    -17.579  0.0000E+00  0.2000E+01
    -17.565  0.0000E+00  0.2000E+01
    -17.551  0.0000E+00  0.2000E+01
    -17.537  0.0000E+00  0.2000E+01
    -17.523  0.0000E+00  0.2000E+01
    -17.509  0.0000E+00  0.2000E+01
    -17.495  0.0000E+00  0.2000E+01
    -17.481  0.0000E+00  0.2000E+01
    -17.467  0.0000E+00  0.2000E+01
    -17.453  0.0000E+00  0.2000E+01
    -17.439  0.0000E+00  0.2000E+01
    -17.425  0.0000E+00  0.2000E+01
    -17.411  0.0000E+00  0.2000E+01
    -17.397  0.0000E+00  0.2000E+01
    -17.384  0.0000E+00  0.2000E+01
    -17.370  0.0000E+00  0.2000E+01
    -17.356  0.0000E+00  0.2000E+01
    -17.342  0.0000E+00  0.2000E+01
    -17.328  0.0000E+00  0.2000E+01
    -17.314  0.0000E+00  0.2000E+01
    -17.300  0.0000E+00  0.2000E+01
    -17.286  0.0000E+00  0.2000E+01
    -17.272  0.0000E+00  0.2000E+01
    -17.258  0.0000E+00  0.2000E+01
    -17.244  0.0000E+00  0.2000E+01
    -17.230  0.0000E+00  0.2000E+01
    -17.216  0.0000E+00  0.2000E+01
    -17.202  0.0000E+00  0.2000E+01
    -17.188  0.0000E+00  0.2000E+01
    -17.174  0.0000E+00  0.2000E+01
    -17.160  0.0000E+00  0.2000E+01
    -17.146  0.0000E+00  0.2000E+01
    -17.133  0.0000E+00  0.2000E+01
    -17.119  0.0000E+00  0.2000E+01
    -17.105  0.0000E+00  0.2000E+01
    -17.091  0.0000E+00  0.2000E+01
    -17.077  0.0000E+00  0.2000E+01
    -17.063  0.0000E+00  0.2000E+01
    -17.049  0.0000E+00  0.2000E+01
    -17.035  0.0000E+00  0.2000E+01
    -17.021  0.0000E+00  0.2000E+01
    -17.007  0.0000E+00  0.2000E+01
    -16.993  0.0000E+00  0.2000E+01
    -16.979  0.0000E+00  0.2000E+01
    -16.965  0.0000E+00  0.2000E+01
    -16.951  0.0000E+00  0.2000E+01
    -16.937  0.0000E+00  0.2000E+01
    -16.923  0.0000E+00  0.2000E+01
    -16.909  0.0000E+00  0.2000E+01
    -16.895  0.0000E+00  0.2000E+01
    -16.881  0.0000E+00  0.2000E+01
    -16.868  0.0000E+00  0.2000E+01
    -16.854  0.0000E+00  0.2000E+01
    -16.840  0.0000E+00  0.2000E+01
    -16.826  0.0000E+00  0.2000E+01
    -16.812  0.0000E+00  0.2000E+01
    -16.798  0.0000E+00  0.2000E+01
    -16.784  0.0000E+00  0.2000E+01
    -16.770  0.0000E+00  0.2000E+01
    -16.756  0.0000E+00  0.2000E+01
    -16.742  0.0000E+00  0.2000E+01
    -16.728  0.0000E+00  0.2000E+01
    -16.714  0.0000E+00  0.2000E+01
    -16.700  0.0000E+00  0.2000E+01
    -16.686  0.0000E+00  0.2000E+01
    -16.672  0.0000E+00  0.2000E+01
    -16.658  0.0000E+00  0.2000E+01
    -16.644  0.0000E+00  0.2000E+01
    -16.630  0.0000E+00  0.2000E+01
    -16.617  0.0000E+00  0.2000E+01
    -16.603  0.0000E+00  0.2000E+01
    -16.589  0.0000E+00  0.2000E+01
    -16.575  0.0000E+00  0.2000E+01
    -16.561  0.0000E+00  0.2000E+01
    -16.547  0.0000E+00  0.2000E+01
    -16.533  0.0000E+00  0.2000E+01
    -16.519  0.0000E+00  0.2000E+01
    -16.505  0.0000E+00  0.2000E+01
    -16.491  0.0000E+00  0.2000E+01
    -16.477  0.0000E+00  0.2000E+01
    -16.463  0.0000E+00  0.2000E+01
    -16.449  0.0000E+00  0.2000E+01
    -16.435  0.0000E+00  0.2000E+01
    -16.421  0.0000E+00  0.2000E+01
    -16.407  0.0000E+00  0.2000E+01
    -16.393  0.0000E+00  0.2000E+01
    -16.379  0.0000E+00  0.2000E+01
    -16.366  0.0000E+00  0.2000E+01
    -16.352  0.0000E+00  0.2000E+01
    -16.338  0.0000E+00  0.2000E+01
    -16.324  0.4997E-12  0.2000E+01
    -16.310  0.1659E-06  0.2000E+01
    -16.296  0.1272E-02  0.2000E+01
    -16.282  0.2569E+00  0.2004E+01
    -16.268  0.1919E+01  0.2030E+01
    -16.254  0.7960E+00  0.2041E+01
    -16.240  0.1391E+00  0.2043E+01
    -16.226  0.4266E+01  0.2103E+01
    -16.212  0.6950E+01  0.2200E+01
    -16.198  0.9993E+00  0.2214E+01
    -16.184  0.3668E+01  0.2265E+01
    -16.170  0.2759E+01  0.2303E+01
    -16.156  0.4079E+01  0.2360E+01
    -16.142  0.1045E+01  0.2375E+01
    -16.128  0.1123E-01  0.2375E+01
    -16.115  0.1013E+00  0.2376E+01
    -16.101  0.3950E+01  0.2432E+01
    -16.087  0.7557E+01  0.2537E+01
    -16.073  0.6825E+01  0.2632E+01
    -16.059  0.5245E+01  0.2705E+01
    -16.045  0.2585E+00  0.2709E+01
    -16.031  0.2522E+01  0.2744E+01
    -16.017  0.8021E+01  0.2856E+01
    -16.003  0.3372E+01  0.2903E+01
    -15.989  0.3616E+01  0.2953E+01
    -15.975  0.3620E+00  0.2958E+01
    -15.961  0.1369E-01  0.2959E+01
    -15.947  0.8747E+00  0.2971E+01
    -15.933  0.2645E+01  0.3008E+01
    -15.919  0.4486E+00  0.3014E+01
    -15.905  0.3815E-02  0.3014E+01
    -15.891  0.3289E+00  0.3018E+01
    -15.877  0.5935E+01  0.3101E+01
    -15.863  0.1015E+02  0.3243E+01
    -15.850  0.1506E+01  0.3264E+01
    -15.836  0.1016E-01  0.3264E+01
    -15.822  0.1905E-05  0.3264E+01
    -15.808  0.8356E-11  0.3264E+01
    -15.794  0.0000E+00  0.3264E+01
    -15.780  0.0000E+00  0.3264E+01
    -15.766  0.1323E-11  0.3264E+01
    -15.752  0.4889E-06  0.3264E+01
    -15.738  0.4163E-02  0.3264E+01
    -15.724  0.9328E+00  0.3277E+01
    -15.710  0.8569E+01  0.3396E+01
    -15.696  0.1106E+02  0.3551E+01
    -15.682  0.3277E+01  0.3596E+01
    -15.668  0.5998E-01  0.3597E+01
    -15.654  0.3256E-04  0.3597E+01
    -15.640  0.7255E-09  0.3597E+01
    -15.626  0.2097E-04  0.3597E+01
    -15.612  0.3495E-01  0.3598E+01
    -15.599  0.1707E+01  0.3622E+01
    -15.585  0.3797E+01  0.3674E+01
    -15.571  0.1966E+01  0.3702E+01
    -15.557  0.3885E+01  0.3756E+01
    -15.543  0.5578E+00  0.3764E+01
    -15.529  0.3588E-02  0.3764E+01
    -15.515  0.2390E+00  0.3767E+01
    -15.501  0.3275E+01  0.3813E+01
    -15.487  0.2392E+01  0.3846E+01
    -15.473  0.1246E+01  0.3864E+01
    -15.459  0.4014E+01  0.3920E+01
    -15.445  0.9585E+00  0.3933E+01
    -15.431  0.4856E+01  0.4001E+01
    -15.417  0.6467E+01  0.4091E+01
    -15.403  0.4553E+00  0.4097E+01
    -15.389  0.1081E-02  0.4097E+01
    -15.375  0.6557E-07  0.4097E+01
    -15.361  0.4098E-04  0.4097E+01
    -15.348  0.6902E-01  0.4098E+01
    -15.334  0.3514E+01  0.4147E+01
    -15.320  0.1174E+02  0.4311E+01
    -15.306  0.7938E+01  0.4422E+01
    -15.292  0.6382E+00  0.4431E+01
    -15.278  0.2003E-02  0.4431E+01
    -15.264  0.1626E-06  0.4431E+01
    -15.250  0.1595E-04  0.4431E+01
    -15.236  0.3869E-01  0.4431E+01
    -15.222  0.2668E+01  0.4468E+01
    -15.208  0.7919E+01  0.4579E+01
    -15.194  0.1317E+01  0.4597E+01
    -15.180  0.1122E+00  0.4599E+01
    -15.166  0.3987E+01  0.4654E+01
    -15.152  0.7182E+01  0.4754E+01
    -15.138  0.2137E+01  0.4784E+01
    -15.124  0.4512E+01  0.4847E+01
    -15.110  0.4203E+01  0.4906E+01
    -15.097  0.6352E+01  0.4994E+01
    -15.083  0.4082E+01  0.5051E+01
    -15.069  0.2246E+01  0.5083E+01
    -15.055  0.8079E+01  0.5195E+01
    -15.041  0.1967E+01  0.5223E+01
    -15.027  0.2005E+01  0.5251E+01
    -15.013  0.3611E+01  0.5301E+01
    -14.999  0.1873E+01  0.5327E+01
    -14.985  0.3877E+01  0.5381E+01
    -14.971  0.5495E+00  0.5389E+01
    -14.957  0.2932E-02  0.5389E+01
    -14.943  0.4936E-01  0.5390E+01
    -14.929  0.3253E+01  0.5435E+01
    -14.915  0.1131E+02  0.5593E+01
    -14.901  0.3245E+01  0.5638E+01
    -14.887  0.6511E-01  0.5639E+01
    -14.873  0.5080E-04  0.5639E+01
    -14.859  0.1032E-08  0.5639E+01
    -14.845  0.4269E-11  0.5639E+01
    -14.832  0.9671E-06  0.5639E+01
    -14.818  0.5101E-02  0.5639E+01
    -14.804  0.7320E+00  0.5649E+01
    -14.790  0.5258E+01  0.5722E+01
    -14.776  0.9123E+01  0.5850E+01
    -14.762  0.2768E+01  0.5888E+01
    -14.748  0.4156E-01  0.5889E+01
    -14.734  0.1791E-04  0.5889E+01
    -14.720  0.1386E-03  0.5889E+01
    -14.706  0.1064E+00  0.5890E+01
    -14.692  0.2575E+01  0.5926E+01
    -14.678  0.3099E+01  0.5970E+01
    -14.664  0.2239E+00  0.5973E+01
    -14.650  0.8048E+00  0.5984E+01
    -14.636  0.1081E+01  0.5999E+01
    -14.622  0.7682E-01  0.6000E+01
    -14.608  0.1843E-03  0.6000E+01
    -14.594  0.1120E-07  0.6000E+01
    -14.581  0.1548E-13  0.6000E+01
    -14.567  0.0000E+00  0.6000E+01
    -14.553  0.0000E+00  0.6000E+01
    -14.539  0.0000E+00  0.6000E+01
    -14.525  0.0000E+00  0.6000E+01
    -14.511  0.0000E+00  0.6000E+01
    -14.497  0.0000E+00  0.6000E+01
    -14.483  0.0000E+00  0.6000E+01
    -14.469  0.0000E+00  0.6000E+01
    -14.455  0.0000E+00  0.6000E+01
    -14.441  0.0000E+00  0.6000E+01
    -14.427  0.0000E+00  0.6000E+01
    -14.413  0.0000E+00  0.6000E+01
    -14.399  0.0000E+00  0.6000E+01
    -14.385  0.0000E+00  0.6000E+01
    -14.371  0.0000E+00  0.6000E+01
    -14.357  0.0000E+00  0.6000E+01
    -14.343  0.0000E+00  0.6000E+01
    -14.330  0.0000E+00  0.6000E+01
    -14.316  0.0000E+00  0.6000E+01
    -14.302  0.0000E+00  0.6000E+01
    -14.288  0.0000E+00  0.6000E+01
    -14.274  0.0000E+00  0.6000E+01
    -14.260  0.0000E+00  0.6000E+01
    -14.246  0.0000E+00  0.6000E+01
    -14.232  0.0000E+00  0.6000E+01
    -14.218  0.0000E+00  0.6000E+01
    -14.204  0.0000E+00  0.6000E+01
    -14.190  0.0000E+00  0.6000E+01
    -14.176  0.0000E+00  0.6000E+01
    -14.162  0.0000E+00  0.6000E+01
    -14.148  0.0000E+00  0.6000E+01
    -14.134  0.0000E+00  0.6000E+01
    -14.120  0.0000E+00  0.6000E+01
    -14.106  0.0000E+00  0.6000E+01
    -14.092  0.0000E+00  0.6000E+01
    -14.079  0.0000E+00  0.6000E+01
    -14.065  0.0000E+00  0.6000E+01
    -14.051  0.0000E+00  0.6000E+01
    -14.037  0.0000E+00  0.6000E+01
    -14.023  0.0000E+00  0.6000E+01
    -14.009  0.0000E+00  0.6000E+01
    -13.995  0.0000E+00  0.6000E+01
    -13.981  0.0000E+00  0.6000E+01
    -13.967  0.0000E+00  0.6000E+01
    -13.953  0.0000E+00  0.6000E+01
    -13.939  0.0000E+00  0.6000E+01
    -13.925  0.0000E+00  0.6000E+01
    -13.911  0.0000E+00  0.6000E+01
    -13.897  0.0000E+00  0.6000E+01
    -13.883  0.0000E+00  0.6000E+01
    -13.869  0.0000E+00  0.6000E+01
    -13.855  0.0000E+00  0.6000E+01
    -13.841  0.0000E+00  0.6000E+01
    -13.827  0.0000E+00  0.6000E+01
    -13.814  0.0000E+00  0.6000E+01
    -13.800  0.0000E+00  0.6000E+01
    -13.786  0.0000E+00  0.6000E+01
    -13.772  0.0000E+00  0.6000E+01
    -13.758  0.0000E+00  0.6000E+01
    -13.744  0.0000E+00  0.6000E+01
    -13.730  0.0000E+00  0.6000E+01
    -13.716  0.0000E+00  0.6000E+01
    -13.702  0.0000E+00  0.6000E+01
    -13.688  0.0000E+00  0.6000E+01
    -13.674  0.0000E+00  0.6000E+01
    -13.660  0.0000E+00  0.6000E+01
    -13.646  0.0000E+00  0.6000E+01
    -13.632  0.0000E+00  0.6000E+01
    -13.618  0.0000E+00  0.6000E+01
    -13.604  0.0000E+00  0.6000E+01
    -13.590  0.0000E+00  0.6000E+01
    -13.576  0.0000E+00  0.6000E+01
    -13.563  0.0000E+00  0.6000E+01
    -13.549  0.0000E+00  0.6000E+01
    -13.535  0.0000E+00  0.6000E+01
    -13.521  0.0000E+00  0.6000E+01
    -13.507  0.0000E+00  0.6000E+01
    -13.493  0.0000E+00  0.6000E+01
    -13.479  0.0000E+00  0.6000E+01
    -13.465  0.0000E+00  0.6000E+01
    -13.451  0.0000E+00  0.6000E+01
    -13.437  0.0000E+00  0.6000E+01
    -13.423  0.0000E+00  0.6000E+01
    -13.409  0.0000E+00  0.6000E+01
    -13.395  0.0000E+00  0.6000E+01
    -13.381  0.0000E+00  0.6000E+01
    -13.367  0.0000E+00  0.6000E+01
    -13.353  0.0000E+00  0.6000E+01
    -13.339  0.0000E+00  0.6000E+01
    -13.325  0.0000E+00  0.6000E+01
    -13.312  0.0000E+00  0.6000E+01
    -13.298  0.0000E+00  0.6000E+01
    -13.284  0.0000E+00  0.6000E+01
    -13.270  0.0000E+00  0.6000E+01
    -13.256  0.0000E+00  0.6000E+01
    -13.242  0.0000E+00  0.6000E+01
    -13.228  0.0000E+00  0.6000E+01
    -13.214  0.0000E+00  0.6000E+01
    -13.200  0.0000E+00  0.6000E+01
    -13.186  0.0000E+00  0.6000E+01
    -13.172  0.0000E+00  0.6000E+01
    -13.158  0.0000E+00  0.6000E+01
    -13.144  0.0000E+00  0.6000E+01
    -13.130  0.0000E+00  0.6000E+01
    -13.116  0.0000E+00  0.6000E+01
    -13.102  0.0000E+00  0.6000E+01
    -13.088  0.0000E+00  0.6000E+01
    -13.074  0.0000E+00  0.6000E+01
    -13.061  0.0000E+00  0.6000E+01
    -13.047  0.0000E+00  0.6000E+01
    -13.033  0.0000E+00  0.6000E+01
    -13.019  0.0000E+00  0.6000E+01
    -13.005  0.0000E+00  0.6000E+01
    -12.991  0.0000E+00  0.6000E+01
    -12.977  0.0000E+00  0.6000E+01
    -12.963  0.0000E+00  0.6000E+01
    -12.949  0.0000E+00  0.6000E+01
    -12.935  0.0000E+00  0.6000E+01
    -12.921  0.0000E+00  0.6000E+01
    -12.907  0.0000E+00  0.6000E+01
    -12.893  0.1738E-10  0.6000E+01
    -12.879  0.2226E-05  0.6000E+01
    -12.865  0.6729E-02  0.6000E+01
    -12.851  0.5688E+00  0.6008E+01
    -12.837  0.2017E+01  0.6036E+01
    -12.823  0.1276E+01  0.6054E+01
    -12.809  0.4037E+01  0.6110E+01
    -12.796  0.1047E+01  0.6125E+01
    -12.782  0.1119E-01  0.6125E+01
    -12.768  0.4322E-05  0.6125E+01
    -12.754  0.5220E-02  0.6125E+01
    -12.740  0.7325E+00  0.6135E+01
    -12.726  0.3997E+01  0.6191E+01
    -12.712  0.1252E+01  0.6208E+01
    -12.698  0.2274E+01  0.6240E+01
    -12.684  0.8042E+01  0.6352E+01
    -12.670  0.1613E+01  0.6375E+01
    -12.656  0.1696E+00  0.6377E+01
    -12.642  0.4639E+01  0.6442E+01
    -12.628  0.6648E+01  0.6535E+01
    -12.614  0.8030E+00  0.6546E+01
    -12.600  0.3452E+01  0.6594E+01
    -12.586  0.2163E+01  0.6624E+01
    -12.572  0.6647E-01  0.6625E+01
    -12.558  0.6063E+00  0.6633E+01
    -12.545  0.6939E+01  0.6730E+01
    -12.531  0.4279E+01  0.6790E+01
    -12.517  0.1254E+00  0.6792E+01
    -12.503  0.1117E-03  0.6792E+01
    -12.489  0.5049E-05  0.6792E+01
    -12.475  0.1456E-01  0.6792E+01
    -12.461  0.1184E+01  0.6808E+01
    -12.447  0.5081E+01  0.6879E+01
    -12.433  0.8491E+01  0.6998E+01
    -12.419  0.3103E+01  0.7041E+01
    -12.405  0.5504E-01  0.7042E+01
    -12.391  0.1912E-02  0.7042E+01
    -12.377  0.4409E+00  0.7048E+01
    -12.363  0.3745E+01  0.7100E+01
    -12.349  0.2257E+01  0.7132E+01
    -12.335  0.7360E+01  0.7234E+01
    -12.321  0.1448E+02  0.7436E+01
    -12.307  0.8286E+01  0.7552E+01
    -12.294  0.8978E+01  0.7677E+01
    -12.280  0.4155E+01  0.7735E+01
    -12.266  0.9340E-01  0.7736E+01
    -12.252  0.6345E-04  0.7736E+01
    -12.238  0.5107E-06  0.7736E+01
    -12.224  0.3367E-02  0.7736E+01
    -12.210  0.5911E+00  0.7744E+01
    -12.196  0.3912E+01  0.7799E+01
    -12.182  0.1446E+01  0.7819E+01
    -12.168  0.2335E-01  0.7819E+01
    -12.154  0.1083E-04  0.7819E+01
    -12.140  0.1195E-09  0.7819E+01
    -12.126  0.7072E-12  0.7819E+01
    -12.112  0.2569E-06  0.7819E+01
    -12.098  0.2150E-02  0.7819E+01
    -12.084  0.4717E+00  0.7826E+01
    -12.070  0.3787E+01  0.7879E+01
    -12.056  0.1681E+01  0.7902E+01
    -12.043  0.8390E-01  0.7903E+01
    -12.029  0.1969E+01  0.7931E+01
    -12.015  0.3597E+01  0.7981E+01
    -12.001  0.3578E+00  0.7986E+01
    -11.987  0.1260E-02  0.7986E+01
    -11.973  0.1325E-06  0.7986E+01
    -11.959  0.3610E-03  0.7986E+01
    -11.945  0.1824E+00  0.7989E+01
    -11.931  0.3043E+01  0.8031E+01
    -11.917  0.2954E+01  0.8072E+01
    -11.903  0.5960E+01  0.8155E+01
    -11.889  0.5523E+01  0.8232E+01
    -11.875  0.2641E+00  0.8236E+01
    -11.861  0.4055E-03  0.8236E+01
    -11.847  0.2194E-02  0.8236E+01
    -11.833  0.6654E+00  0.8245E+01
    -11.819  0.7085E+01  0.8344E+01
    -11.805  0.4088E+01  0.8401E+01
    -11.791  0.1110E+00  0.8403E+01
    -11.778  0.9076E-04  0.8403E+01
    -11.764  0.2214E-08  0.8403E+01
    -11.750  0.2620E-04  0.8403E+01
    -11.736  0.3996E-01  0.8403E+01
    -11.722  0.1801E+01  0.8428E+01
    -11.708  0.3712E+01  0.8480E+01
    -11.694  0.4205E+00  0.8486E+01
    -11.680  0.1718E-02  0.8486E+01
    -11.666  0.1829E-06  0.8486E+01
    -11.652  0.4472E-12  0.8486E+01
    -11.638  0.0000E+00  0.8486E+01
    -11.624  0.0000E+00  0.8486E+01
    -11.610  0.0000E+00  0.8486E+01
    -11.596  0.1088E-10  0.8486E+01
    -11.582  0.1916E-05  0.8486E+01
    -11.568  0.7903E-02  0.8486E+01
    -11.554  0.8918E+00  0.8499E+01
    -11.540  0.4036E+01  0.8555E+01
    -11.527  0.1074E+01  0.8570E+01
    -11.513  0.1469E+01  0.8590E+01
    -11.499  0.2288E+01  0.8622E+01
    -11.485  0.1929E+00  0.8625E+01
    -11.471  0.6084E-03  0.8625E+01
    -11.457  0.9696E-01  0.8626E+01
    -11.443  0.5871E+01  0.8708E+01
    -11.429  0.1561E+02  0.8926E+01
    -11.415  0.2316E+01  0.8958E+01
    -11.401  0.1254E+00  0.8960E+01
    -11.387  0.2623E+01  0.8996E+01
    -11.373  0.3055E+01  0.9039E+01
    -11.359  0.1850E+00  0.9042E+01
    -11.345  0.3705E-03  0.9042E+01
    -11.331  0.1864E-07  0.9042E+01
    -11.317  0.2123E-13  0.9042E+01
    -11.303  0.0000E+00  0.9042E+01
    -11.289  0.1606E-12  0.9042E+01
    -11.276  0.1016E-06  0.9042E+01
    -11.262  0.1467E-02  0.9042E+01
    -11.248  0.5441E+00  0.9049E+01
    -11.234  0.7066E+01  0.9148E+01
    -11.220  0.5129E+01  0.9219E+01
    -11.206  0.2065E+00  0.9222E+01
    -11.192  0.3574E-03  0.9222E+01
    -11.178  0.2288E-07  0.9222E+01
    -11.164  0.7132E-13  0.9222E+01
    -11.150  0.2301E-07  0.9222E+01
    -11.136  0.4276E-03  0.9222E+01
    -11.122  0.2009E+00  0.9225E+01
    -11.108  0.3387E+01  0.9272E+01
    -11.094  0.5998E+01  0.9356E+01
    -11.080  0.6209E+01  0.9442E+01
    -11.066  0.7350E+01  0.9545E+01
    -11.052  0.7558E+00  0.9556E+01
    -11.038  0.3657E-02  0.9556E+01
    -11.025  0.4018E+00  0.9561E+01
    -11.011  0.6253E+01  0.9648E+01
    -10.997  0.5090E+01  0.9719E+01
    -10.983  0.2054E+00  0.9722E+01
    -10.969  0.2608E-03  0.9722E+01
    -10.955  0.8161E-08  0.9722E+01
    -10.941  0.7792E-11  0.9722E+01
    -10.927  0.1502E-05  0.9722E+01
    -10.913  0.6764E-02  0.9722E+01
    -10.899  0.8289E+00  0.9734E+01
    -10.885  0.4026E+01  0.9790E+01
    -10.871  0.1102E+01  0.9805E+01
    -10.857  0.1255E-01  0.9806E+01
    -10.843  0.3692E-01  0.9806E+01
    -10.829  0.1745E+01  0.9830E+01
    -10.815  0.3748E+01  0.9883E+01
    -10.801  0.4436E+00  0.9889E+01
    -10.787  0.1907E-02  0.9889E+01
    -10.773  0.2141E-06  0.9889E+01
    -10.760  0.8250E-09  0.9889E+01
    -10.746  0.4292E-04  0.9889E+01
    -10.732  0.5586E-01  0.9890E+01
    -10.718  0.2516E+01  0.9925E+01
    -10.704  0.7418E+01  0.1003E+02
    -10.690  0.4421E+01  0.1009E+02
    -10.676  0.8022E+01  0.1020E+02
    -10.662  0.1459E+01  0.1022E+02
    -10.648  0.1035E-01  0.1022E+02
    -10.634  0.1979E-05  0.1022E+02
    -10.620  0.8807E-11  0.1022E+02
    -10.606  0.0000E+00  0.1022E+02
    -10.592  0.0000E+00  0.1022E+02
    -10.578  0.1095E-13  0.1022E+02
    -10.564  0.9532E-08  0.1022E+02
    -10.550  0.1881E-03  0.1022E+02
    -10.536  0.9330E-01  0.1022E+02
    -10.522  0.1531E+01  0.1024E+02
    -10.509  0.1307E+01  0.1026E+02
    -10.495  0.5570E-01  0.1026E+02
    -10.481  0.7513E-04  0.1026E+02
    -10.467  0.2505E-08  0.1026E+02
    -10.453  0.1990E-14  0.1026E+02
    -10.439  0.0000E+00  0.1026E+02
    -10.425  0.0000E+00  0.1026E+02
    -10.411  0.0000E+00  0.1026E+02
    -10.397  0.0000E+00  0.1026E+02
    -10.383  0.1599E-10  0.1026E+02
    -10.369  0.3061E-05  0.1026E+02
    -10.355  0.1370E-01  0.1026E+02
    -10.341  0.1667E+01  0.1029E+02
    -10.327  0.8054E+01  0.1040E+02
    -10.313  0.2192E+01  0.1043E+02
    -10.299  0.2476E-01  0.1043E+02
    -10.285  0.7794E-05  0.1043E+02
    -10.271  0.5782E-10  0.1043E+02
    -10.258  0.0000E+00  0.1043E+02
    -10.244  0.0000E+00  0.1043E+02
    -10.230  0.1659E-14  0.1043E+02
    -10.216  0.2677E-08  0.1043E+02
    -10.202  0.9730E-04  0.1043E+02
    -10.188  0.8675E-01  0.1043E+02
    -10.174  0.2403E+01  0.1047E+02
    -10.160  0.3253E+01  0.1051E+02
    -10.146  0.2329E+00  0.1051E+02
    -10.132  0.5634E-03  0.1051E+02
    -10.118  0.3456E-07  0.1051E+02
    -10.104  0.4777E-13  0.1051E+02
    -10.090  0.0000E+00  0.1051E+02
    -10.076  0.0000E+00  0.1051E+02
    -10.062  0.0000E+00  0.1051E+02
    -10.048  0.0000E+00  0.1051E+02
    -10.034  0.0000E+00  0.1051E+02
    -10.020  0.0000E+00  0.1051E+02
    -10.007  0.0000E+00  0.1051E+02
     -9.993  0.0000E+00  0.1051E+02
     -9.979  0.0000E+00  0.1051E+02
     -9.965  0.2391E-12  0.1051E+02
     -9.951  0.7225E-07  0.1051E+02
     -9.937  0.5050E-03  0.1051E+02
     -9.923  0.9347E-01  0.1052E+02
     -9.909  0.6477E+00  0.1052E+02
     -9.895  0.2501E+00  0.1053E+02
     -9.881  0.4251E-02  0.1053E+02
     -9.867  0.2083E-05  0.1053E+02
     -9.853  0.2436E-10  0.1053E+02
     -9.839  0.0000E+00  0.1053E+02
     -9.825  0.0000E+00  0.1053E+02
     -9.811  0.6634E-15  0.1053E+02
     -9.797  0.1483E-08  0.1053E+02
     -9.783  0.7501E-04  0.1053E+02
     -9.769  0.9558E-01  0.1053E+02
     -9.755  0.3803E+01  0.1058E+02
     -9.742  0.7800E+01  0.1069E+02
     -9.728  0.7516E+01  0.1080E+02
     -9.714  0.4541E+01  0.1086E+02
     -9.700  0.1474E+00  0.1086E+02
     -9.686  0.1471E-03  0.1086E+02
     -9.672  0.3584E-08  0.1086E+02
     -9.658  0.2654E-14  0.1086E+02
     -9.644  0.0000E+00  0.1086E+02
     -9.630  0.0000E+00  0.1086E+02
     -9.616  0.0000E+00  0.1086E+02
     -9.602  0.2617E-12  0.1086E+02
     -9.588  0.1319E-06  0.1086E+02
     -9.574  0.1523E-02  0.1086E+02
     -9.560  0.4531E+00  0.1087E+02
     -9.546  0.4744E+01  0.1093E+02
     -9.532  0.2697E+01  0.1097E+02
     -9.518  0.7194E-01  0.1097E+02
     -9.504  0.5776E-04  0.1097E+02
     -9.491  0.1272E-03  0.1097E+02
     -9.477  0.1012E+00  0.1097E+02
     -9.463  0.2533E+01  0.1101E+02
     -9.449  0.3137E+01  0.1105E+02
     -9.435  0.2035E+00  0.1106E+02
     -9.421  0.4402E-03  0.1106E+02
     -9.407  0.6978E-05  0.1106E+02
     -9.393  0.2305E-01  0.1106E+02
     -9.379  0.2122E+01  0.1109E+02
     -9.365  0.8064E+01  0.1120E+02
     -9.351  0.1728E+01  0.1122E+02
     -9.337  0.1866E+00  0.1122E+02
     -9.323  0.2991E+01  0.1127E+02
     -9.309  0.2691E+01  0.1130E+02
     -9.295  0.1217E+00  0.1131E+02
     -9.281  0.1755E-03  0.1131E+02
     -9.267  0.6270E-08  0.1131E+02
     -9.253  0.5308E-14  0.1131E+02
     -9.240  0.0000E+00  0.1131E+02
     -9.226  0.0000E+00  0.1131E+02
     -9.212  0.2621E-13  0.1131E+02
     -9.198  0.2182E-07  0.1131E+02
     -9.184  0.4125E-03  0.1131E+02
     -9.170  0.1963E+00  0.1131E+02
     -9.156  0.3106E+01  0.1135E+02
     -9.142  0.2582E+01  0.1139E+02
     -9.128  0.1818E+01  0.1141E+02
     -9.114  0.8130E+01  0.1153E+02
     -9.100  0.5508E+01  0.1160E+02
     -9.086  0.7594E+01  0.1171E+02
     -9.072  0.9402E+00  0.1172E+02
     -9.058  0.4427E-02  0.1172E+02
     -9.044  0.1135E+00  0.1172E+02
     -9.030  0.2631E+01  0.1176E+02
     -9.016  0.3047E+01  0.1180E+02
     -9.002  0.1835E+00  0.1181E+02
     -8.989  0.1379E+00  0.1181E+02
     -8.975  0.4445E+01  0.1187E+02
     -8.961  0.8766E+01  0.1199E+02
     -8.947  0.8642E+01  0.1211E+02
     -8.933  0.1895E+01  0.1214E+02
     -8.919  0.1349E+00  0.1214E+02
     -8.905  0.2657E+01  0.1218E+02
     -8.891  0.3023E+01  0.1222E+02
     -8.877  0.1784E+00  0.1222E+02
     -8.863  0.3468E-03  0.1222E+02
     -8.849  0.1777E-07  0.1222E+02
     -8.835  0.5372E-04  0.1222E+02
     -8.821  0.8114E-01  0.1222E+02
     -8.807  0.3624E+01  0.1227E+02
     -8.793  0.7411E+01  0.1238E+02
     -8.779  0.8324E+00  0.1239E+02
     -8.765  0.3369E-02  0.1239E+02
     -8.751  0.6949E-06  0.1239E+02
     -8.738  0.2584E-02  0.1239E+02
     -8.724  0.5178E+00  0.1240E+02
     -8.710  0.3843E+01  0.1245E+02
     -8.696  0.1584E+01  0.1247E+02
     -8.682  0.9312E-01  0.1247E+02
     -8.668  0.1368E+01  0.1249E+02
     -8.654  0.1474E+01  0.1251E+02
     -8.640  0.8179E-01  0.1251E+02
     -8.626  0.1484E-03  0.1251E+02
     -8.612  0.6734E-08  0.1251E+02
     -8.598  0.6966E-14  0.1251E+02
     -8.584  0.0000E+00  0.1251E+02
     -8.570  0.0000E+00  0.1251E+02
     -8.556  0.0000E+00  0.1251E+02