<?xml version="1.0" encoding="ISO-8859-1"?>
<modeling>
 <generator>
  <i name="program" type="string">vasp </i>
  <i name="version" type="string">5.4.4.18Apr17-6-g9f103f2a35  </i>
  <i name="subversion" type="string">(build Mar 30 2023 15:39:25) complex            parallel </i>
  <i name="platform" type="string">LinuxIFC </i>
  <i name="date" type="string">2023 06 23 </i>
  <i name="time" type="string">15:22:55 </i>
 </generator>
 <incar>
  <i type="string" name="SYSTEM"> BC3-optical</i>
  <i type="int" name="ISTART">     1</i>
  <i type="string" name="PREC">accurate</i>
  <i type="string" name="ALGO"> Exact</i>
  <i type="int" name="ICHARG">     2</i>
  <i name="EDIFF">      0.00000001</i>
  <i name="ENCUT">    450.00000000</i>
  <i type="int" name="NBANDS">    32</i>
  <i type="int" name="NEDOS">  2400</i>
  <i type="logical" name="LREAL"> F  </i>
  <i type="int" name="ISMEAR">     0</i>
  <i name="SIGMA">      0.01000000</i>
  <i type="int" name="NWRITE">     3</i>
  <i type="logical" name="LOPTICS"> T  </i>
  <v type="int" name="KPOINT_BSE">    -1     0     0     0</v>
  <i name="CSHIFT">      0.10000000</i>
  <i name="CSHIFT">      0.10000000</i>
 </incar>
 <structure name="primitive_cell" >
  <crystal>
   <varray name="basis" >
    <v>       4.48084843       2.58701885       0.00000000 </v>
    <v>      -4.48084843       2.58701885       0.00000000 </v>
    <v>       0.00000000       0.00000000       8.52022140 </v>
   </varray>
   <i name="volume">    197.53348383 </i>
   <varray name="rec_basis" >
    <v>       0.11158601       0.19327265       0.00000000 </v>
    <v>      -0.11158601       0.19327265       0.00000000 </v>
    <v>       0.00000000       0.00000000       0.11736784 </v>
   </varray>
  </crystal>
  <varray name="positions" >
   <v>       0.33333300      -0.33333400       0.25000000 </v>
   <v>       0.15869124       0.31738348       0.25000000 </v>
   <v>      -0.31738448      -0.15869224       0.25000000 </v>
   <v>       0.15869124      -0.15869224       0.25000000 </v>
   <v>      -0.15869224       0.15869124       0.25000000 </v>
   <v>       0.31738348       0.15869124       0.25000000 </v>
   <v>      -0.15869224      -0.31738448       0.25000000 </v>
   <v>      -0.33333400       0.33333300       0.25000000 </v>
  </varray>
 </structure>
 <varray name="primitive_index" >
  <v type="int" >        1 </v>
  <v type="int" >        3 </v>
  <v type="int" >        7 </v>
  <v type="int" >        5 </v>
  <v type="int" >        6 </v>
  <v type="int" >        4 </v>
  <v type="int" >        8 </v>
  <v type="int" >        2 </v>
 </varray>
 <kpoints>
  <generation param="Gamma">
   <v type="int" name="divisions">      12       12        1 </v>
   <v name="usershift">      0.00000000       0.00000000       0.00000000 </v>
   <v name="genvec1">      0.08333333       0.00000000       0.00000000 </v>
   <v name="genvec2">      0.00000000       0.08333333       0.00000000 </v>
   <v name="genvec3">      0.00000000       0.00000000       1.00000000 </v>
   <v name="shift">      0.00000000       0.00000000       0.00000000 </v>
  </generation>
  <varray name="kpointlist" >
   <v>       0.00000000       0.00000000       0.00000000 </v>
   <v>       0.08333333       0.00000000       0.00000000 </v>
   <v>       0.16666667       0.00000000       0.00000000 </v>
   <v>       0.25000000      -0.00000000       0.00000000 </v>
   <v>       0.33333333      -0.00000000       0.00000000 </v>
   <v>       0.41666667       0.00000000       0.00000000 </v>
   <v>       0.50000000      -0.00000000       0.00000000 </v>
   <v>       0.08333333       0.08333333       0.00000000 </v>
   <v>       0.16666667       0.08333333       0.00000000 </v>
   <v>       0.25000000       0.08333333       0.00000000 </v>
   <v>       0.33333333       0.08333333       0.00000000 </v>
   <v>       0.41666667       0.08333333       0.00000000 </v>
   <v>       0.16666667       0.16666667       0.00000000 </v>
   <v>       0.25000000       0.16666667       0.00000000 </v>
   <v>       0.33333333       0.16666667       0.00000000 </v>
   <v>       0.41666667       0.16666667       0.00000000 </v>
   <v>       0.25000000       0.25000000       0.00000000 </v>
   <v>       0.33333333       0.25000000       0.00000000 </v>
   <v>       0.33333333       0.33333333       0.00000000 </v>
  </varray>
  <varray name="weights" >
   <v>       0.00694444 </v>
   <v>       0.04166667 </v>
   <v>       0.04166667 </v>
   <v>       0.04166667 </v>
   <v>       0.04166667 </v>
   <v>       0.04166667 </v>
   <v>       0.02083333 </v>
   <v>       0.04166667 </v>
   <v>       0.08333333 </v>
   <v>       0.08333333 </v>
   <v>       0.08333333 </v>
   <v>       0.08333333 </v>
   <v>       0.04166667 </v>
   <v>       0.08333333 </v>
   <v>       0.08333333 </v>
   <v>       0.04166667 </v>
   <v>       0.04166667 </v>
   <v>       0.08333333 </v>
   <v>       0.01388889 </v>
  </varray>
 </kpoints>
 <parameters>
  <separator name="general" >
   <i type="string" name="SYSTEM">BC3-optical</i>
   <i type="logical" name="LCOMPAT"> F  </i>
  </separator>
  <separator name="electronic" >
   <i type="string" name="PREC">accura</i>
   <i name="ENMAX">    450.00000000</i>
   <i name="ENAUG">    644.87300000</i>
   <i name="EDIFF">      0.00000001</i>
   <i type="int" name="IALGO">    90</i>
   <i type="int" name="IWAVPR">    10</i>
   <i type="int" name="NBANDS">    36</i>
   <i name="NELECT">     30.00000000</i>
   <i type="int" name="TURBO">     0</i>
   <i type="int" name="IRESTART">     0</i>
   <i type="int" name="NREBOOT">     0</i>
   <i type="int" name="NMIN">     0</i>
   <i name="EREF">      0.00000000</i>
   <separator name="electronic smearing" >
    <i type="int" name="ISMEAR">     0</i>
    <i name="SIGMA">      0.01000000</i>
    <i name="KSPACING">      0.50000000</i>
    <i type="logical" name="KGAMMA"> T  </i>
   </separator>
   <separator name="electronic projectors" >
    <i type="logical" name="LREAL"> F  </i>
    <v name="ROPT">      0.00000000      0.00000000</v>
    <i type="int" name="LMAXPAW">  -100</i>
    <i type="int" name="LMAXMIX">     2</i>
    <i type="logical" name="NLSPLINE"> F  </i>
   </separator>
   <separator name="electronic startup" >
    <i type="int" name="ISTART">     1</i>
    <i type="int" name="ICHARG">     2</i>
    <i type="int" name="INIWAV">     1</i>
   </separator>
   <separator name="electronic spin" >
    <i type="int" name="ISPIN">     1</i>
    <i type="logical" name="LNONCOLLINEAR"> F  </i>
    <v name="MAGMOM">      1.00000000      1.00000000      1.00000000      1.00000000      1.00000000      1.00000000      1.00000000      1.00000000</v>
    <i name="NUPDOWN">     -1.00000000</i>
    <i type="logical" name="LSORBIT"> F  </i>
    <v name="SAXIS">      0.00000000      0.00000000      1.00000000</v>
    <i type="logical" name="LSPIRAL"> F  </i>
    <v name="QSPIRAL">      0.00000000      0.00000000      0.00000000</v>
    <i type="logical" name="LZEROZ"> F  </i>
   </separator>
   <separator name="electronic exchange-correlation" >
    <i type="logical" name="LASPH"> F  </i>
    <i type="logical" name="LMETAGGA"> F  </i>
   </separator>
   <separator name="electronic convergence" >
    <i type="int" name="NELM">    60</i>
    <i type="int" name="NELMDL">     0</i>
    <i type="int" name="NELMIN">     2</i>
    <i name="ENINI">    450.00000000</i>
    <separator name="electronic convergence detail" >
     <i type="logical" name="LDIAG"> T  </i>
     <i type="logical" name="LSUBROT"> F  </i>
     <i name="WEIMIN">      0.00000000</i>
     <i name="EBREAK">      0.00000000</i>
     <i name="DEPER">      0.30000000</i>
     <i type="int" name="NRMM">     4</i>
     <i name="TIME">      0.40000000</i>
    </separator>
   </separator>
   <separator name="electronic mixer" >
    <i name="AMIX">      0.40000000</i>
    <i name="BMIX">      1.00000000</i>
    <i name="AMIN">      0.10000000</i>
    <i name="AMIX_MAG">      1.60000000</i>
    <i name="BMIX_MAG">      1.00000000</i>
    <separator name="electronic mixer details" >
     <i type="int" name="IMIX">     4</i>
     <i type="logical" name="MIXFIRST"> F  </i>
     <i type="int" name="MAXMIX">   -45</i>
     <i name="WC">    100.00000000</i>
     <i type="int" name="INIMIX">     1</i>
     <i type="int" name="MIXPRE">     1</i>
     <i type="int" name="MREMOVE">     5</i>
    </separator>
   </separator>
   <separator name="electronic dipolcorrection" >
    <i type="logical" name="LDIPOL"> F  </i>
    <i type="logical" name="LMONO"> F  </i>
    <i type="int" name="IDIPOL">     0</i>
    <i name="EPSILON">      1.00000000</i>
    <v name="DIPOL">   -100.00000000   -100.00000000   -100.00000000</v>
    <i name="EFIELD">      0.00000000</i>
   </separator>
  </separator>
  <separator name="grids" >
   <i type="int" name="NGX">    36</i>
   <i type="int" name="NGY">    36</i>
   <i type="int" name="NGZ">    60</i>
   <i type="int" name="NGXF">    72</i>
   <i type="int" name="NGYF">    72</i>
   <i type="int" name="NGZF">   120</i>
   <i type="logical" name="ADDGRID"> F  </i>
  </separator>
  <separator name="ionic" >
   <i type="int" name="NSW">     0</i>
   <i type="int" name="IBRION">    -1</i>
   <i type="int" name="MDALGO">     0</i>
   <i type="int" name="ISIF">     2</i>
   <i name="PSTRESS">      0.00000000</i>
   <i name="EDIFFG">      0.00000010</i>
   <i type="int" name="NFREE">     0</i>
   <i name="POTIM">      0.50000000</i>
   <i name="SMASS">     -3.00000000</i>
   <i name="SCALEE">      1.00000000</i>
  </separator>
  <separator name="ionic md" >
   <i name="TEBEG">      0.00010000</i>
   <i name="TEEND">      0.00010000</i>
   <i type="int" name="NBLOCK">     1</i>
   <i type="int" name="KBLOCK">     1</i>
   <i type="int" name="NPACO">   256</i>
   <i name="APACO">     16.00000000</i>
  </separator>
  <separator name="symmetry" >
   <i type="int" name="ISYM">     2</i>
   <i name="SYMPREC">      0.00001000</i>
  </separator>
  <separator name="dos" >
   <i type="int" name="LORBIT">     0</i>
   <v name="RWIGS">     -1.00000000     -1.00000000</v>
   <i type="int" name="NEDOS">  2400</i>
   <i name="EMIN">     10.00000000</i>
   <i name="EMAX">    -10.00000000</i>
   <i name="EFERMI">      0.00000000</i>
  </separator>
  <separator name="writing" >
   <i type="int" name="NWRITE">     3</i>
   <i type="logical" name="LWAVE"> T  </i>
   <i type="logical" name="LDOWNSAMPLE"> F  </i>
   <i type="logical" name="LCHARG"> T  </i>
   <i type="logical" name="LPARD"> F  </i>
   <i type="logical" name="LVTOT"> F  </i>
   <i type="logical" name="LVHAR"> F  </i>
   <i type="logical" name="LELF"> F  </i>
   <i type="logical" name="LOPTICS"> T  </i>
   <v name="STM">      0.00000000      0.00000000      0.00000000      0.00000000      0.00000000      0.00000000      0.00000000</v>
  </separator>
  <separator name="performance" >
   <i type="int" name="NPAR">    12</i>
   <i type="int" name="NSIM">     4</i>
   <i type="int" name="NBLK">    -1</i>
   <i type="logical" name="LPLANE"> T  </i>
   <i type="logical" name="LSCALAPACK"> T  </i>
   <i type="logical" name="LSCAAWARE"> F  </i>
   <i type="logical" name="LSCALU"> F  </i>
   <i type="logical" name="LASYNC"> F  </i>
   <i type="logical" name="LORBITALREAL"> F  </i>
  </separator>
  <separator name="miscellaneous" >
   <i type="int" name="IDIOT">     3</i>
   <i type="int" name="ISPECIAL">     0</i>
   <i type="logical" name="LMUSIC"> F  </i>
   <v name="POMASS">     10.81100000     12.01100000</v>
   <v name="DARWINR">      0.00000000      0.00000000</v>
   <v name="DARWINV">      1.00000000      1.00000000</v>
   <i type="logical" name="LCORR"> T  </i>
  </separator>
  <i type="logical" name="GGA_COMPAT"> T  </i>
  <i type="logical" name="LBERRY"> F  </i>
  <i type="int" name="ICORELEVEL">     0</i>
  <i type="logical" name="LDAU"> F  </i>
  <i type="int" name="I_CONSTRAINED_M">     0</i>
  <separator name="electronic exchange-correlation" >
   <i type="string" name="GGA">--</i>
   <i type="int" name="VOSKOWN">     0</i>
   <i type="logical" name="LHFCALC"> F  </i>
   <i type="string" name="PRECFOCK"></i>
   <i type="logical" name="LSYMGRAD"> F  </i>
   <i type="logical" name="LHFONE"> F  </i>
   <i type="logical" name="LRHFCALC"> F  </i>
   <i type="logical" name="LTHOMAS"> F  </i>
   <i type="logical" name="LMODELHF"> F  </i>
   <i name="ENCUT4O">     -1.00000000</i>
   <i type="int" name="EXXOEP">     0</i>
   <i type="int" name="FOURORBIT">     0</i>
   <i name="AEXX">      0.00000000</i>
   <i name="HFALPHA">      0.00000000</i>
   <i name="MCALPHA">      0.00000000</i>
   <i name="ALDAX">      1.00000000</i>
   <i name="AGGAX">      1.00000000</i>
   <i name="ALDAC">      1.00000000</i>
   <i name="AGGAC">      1.00000000</i>
   <i type="int" name="NKREDX">     1</i>
   <i type="int" name="NKREDY">     1</i>
   <i type="int" name="NKREDZ">     1</i>
   <i type="logical" name="SHIFTRED"> F  </i>
   <i type="logical" name="ODDONLY"> F  </i>
   <i type="logical" name="EVENONLY"> F  </i>
   <i type="int" name="LMAXFOCK">     0</i>
   <i type="int" name="NMAXFOCKAE">     0</i>
   <i type="logical" name="LFOCKAEDFT"> F  </i>
   <i name="HFSCREEN">      0.00000000</i>
   <i name="HFSCREENC">      0.00000000</i>
   <i type="int" name="NBANDSGWLOW">     0</i>
  </separator>
  <separator name="vdW DFT" >
   <i type="logical" name="LUSE_VDW"> F  </i>
   <i name="Zab_VDW">     -0.84910000</i>
   <i name="PARAM1">      0.12340000</i>
   <i name="PARAM2">      1.00000000</i>
   <i name="PARAM3">      0.00000000</i>
  </separator>
  <separator name="model GW" >
   <i type="int" name="MODEL_GW">     0</i>
   <i name="MODEL_EPS0">     14.81501129</i>
   <i name="MODEL_ALPHA">      1.00000000</i>
  </separator>
  <separator name="linear response parameters" >
   <i type="logical" name="LEPSILON"> F  </i>
   <i type="logical" name="LRPA"> F  </i>
   <i type="logical" name="LNABLA"> F  </i>
   <i type="logical" name="LVEL"> F  </i>
   <i type="int" name="KINTER">     0</i>
   <i name="CSHIFT">      0.10000000</i>
   <i name="OMEGAMAX">     -1.00000000</i>
   <i name="DEG_THRESHOLD">      0.00200000</i>
   <i name="RTIME">     -0.10000000</i>
   <i name="WPLASMAI">      0.00000000</i>
   <v name="DFIELD">      0.00000000      0.00000000      0.00000000</v>
   <v name="WPLASMA">      0.00000000      0.00000000      0.00000000      0.00000000      0.00000000      0.00000000      0.00000000      0.00000000      0.00000000</v>
  </separator>
  <separator name="orbital magnetization" >
   <i type="logical" name="NUCIND"> F  </i>
   <v name="MAGPOS">      0.00000000      0.00000000      0.00000000</v>
   <i type="logical" name="LNICSALL"> T  </i>
   <i type="logical" name="ORBITALMAG"> F  </i>
   <i type="logical" name="LMAGBLOCH"> F  </i>
   <i type="logical" name="LCHIMAG"> F  </i>
   <i type="logical" name="LGAUGE"> T  </i>
   <i type="int" name="MAGATOM">     0</i>
   <v name="MAGDIPOL">      0.00000000      0.00000000      0.00000000</v>
   <v name="AVECCONST">      0.00000000      0.00000000      0.00000000</v>
  </separator>
  <separator name="response functions" >
   <i type="logical" name="LADDER"> F  </i>
   <i type="logical" name="LRPAFORCE"> F  </i>
   <i type="logical" name="LFXC"> F  </i>
   <i type="logical" name="LHARTREE"> T  </i>
   <i type="int" name="IBSE">     0</i>
   <v type="int" name="KPOINT">    -1     0     0     0</v>
   <i type="logical" name="LTCTE"> F  </i>
   <i type="logical" name="LTETE"> F  </i>
   <i type="logical" name="LTRIPLET"> F  </i>
   <i type="logical" name="LFXCEPS"> F  </i>
   <i type="logical" name="LFXHEG"> F  </i>
   <i type="int" name="NATURALO">     2</i>
   <i type="logical" name="L2ORDER"> F  </i>
   <i type="logical" name="LMP2LT"> F  </i>
   <i type="logical" name="LUSEW"> F  </i>
   <i name="ENCUTGW">     -2.00000000</i>
   <i name="ENCUTGWSOFT">     -2.00000000</i>
   <i name="ENCUTLF">     -1.00000000</i>
   <i type="int" name="LMAXMP2">    -1</i>
   <i name="SCISSOR">      0.00000000</i>
   <i type="int" name="NOMEGA">     0</i>
   <i type="int" name="NOMEGAR">     0</i>
   <i type="int" name="NBANDSGW">    -1</i>
   <i type="int" name="NBANDSO">    -1</i>
   <i type="int" name="NBANDSV">    -1</i>
   <i type="int" name="NELM">     1</i>
   <i type="int" name="NELMHF">     1</i>
   <i type="int" name="DIM">     3</i>
   <i type="int" name="ANTIRES">     0</i>
   <i name="OMEGAMAX">    -30.00000000</i>
   <i name="OMEGAMIN">    -30.00000000</i>
   <i name="OMEGATL">   -200.00000000</i>
   <i type="int" name="OMEGAGRID">   140</i>
   <i name="CSHIFT">      0.10000000</i>
   <i type="logical" name="SELFENERGY"> F  </i>
   <i type="logical" name="LSPECTRAL"> F  </i>
   <i type="logical" name="LSPECTRALGW"> F  </i>
   <i type="logical" name="LSINGLES"> F  </i>
   <i type="logical" name="LFERMIGW"> F  </i>
   <i type="logical" name="ODDONLYGW"> F  </i>
   <i type="logical" name="EVENONLYGW"> F  </i>
   <i type="int" name="NKREDLFX">     1</i>
   <i type="int" name="NKREDLFY">     1</i>
   <i type="int" name="NKREDLFZ">     1</i>
   <i type="int" name="MAXMEM">  2800</i>
   <i type="int" name="TELESCOPE">     0</i>
   <i type="int" name="TAUPAR">     1</i>
   <i type="int" name="OMEGAPAR">    -1</i>
   <i name="LAMBDA">      1.00000000</i>
  </separator>
  <separator name="External order field" >
   <i name="OFIELD_KAPPA">      0.00000000</i>
   <v name="OFIELD_K">      0.00000000      0.00000000      0.00000000</v>
   <i name="OFIELD_Q6_NEAR">      0.00000000</i>
   <i name="OFIELD_Q6_FAR">      0.00000000</i>
   <i name="OFIELD_A">      0.00000000</i>
  </separator>
 </parameters>
 <atominfo>
  <atoms>       8 </atoms>
  <types>       2 </types>
  <array name="atoms" >
   <dimension dim="1">ion</dimension>
   <field type="string">element</field>
   <field type="int">atomtype</field>
   <set>
    <rc><c>B </c><c>   1</c></rc>
    <rc><c>B </c><c>   1</c></rc>
    <rc><c>C </c><c>   2</c></rc>
    <rc><c>C </c><c>   2</c></rc>
    <rc><c>C </c><c>   2</c></rc>
    <rc><c>C </c><c>   2</c></rc>
    <rc><c>C </c><c>   2</c></rc>
    <rc><c>C </c><c>   2</c></rc>
   </set>
  </array>
  <array name="atomtypes" >
   <dimension dim="1">type</dimension>
   <field type="int">atomspertype</field>
   <field type="string">element</field>
   <field>mass</field>
   <field>valence</field>
   <field type="string">pseudopotential</field>
   <set>
    <rc><c>   2</c><c>B </c><c>     10.81100000</c><c>      3.00000000</c><c>  PAW_PBE B 06Sep2000                   </c></rc>
    <rc><c>   6</c><c>C </c><c>     12.01100000</c><c>      4.00000000</c><c>  PAW_PBE C 08Apr2002                   </c></rc>
   </set>
  </array>
 </atominfo>
 <structure name="initialpos" >
  <crystal>
   <varray name="basis" >
    <v>       4.48084843       2.58701885       0.00000000 </v>
    <v>      -4.48084843       2.58701885       0.00000000 </v>
    <v>       0.00000000       0.00000000       8.52022140 </v>
   </varray>
   <i name="volume">    197.53348383 </i>
   <varray name="rec_basis" >
    <v>       0.11158601       0.19327265       0.00000000 </v>
    <v>      -0.11158601       0.19327265       0.00000000 </v>
    <v>       0.00000000       0.00000000       0.11736784 </v>
   </varray>
  </crystal>
  <varray name="positions" >
   <v>       0.33333300       0.66666600       0.25000000 </v>
   <v>       0.66666600       0.33333300       0.25000000 </v>
   <v>       0.15869124       0.31738348       0.25000000 </v>
   <v>       0.31738348       0.15869124       0.25000000 </v>
   <v>       0.15869124       0.84130776       0.25000000 </v>
   <v>       0.84130776       0.15869124       0.25000000 </v>
   <v>       0.68261552       0.84130776       0.25000000 </v>
   <v>       0.84130776       0.68261552       0.25000000 </v>
  </varray>
 </structure>
 <calculation>
  <scstep>
   <time name="diag">  547.32  547.32</time>
   <time name="total">  547.42  547.42</time>
   <energy>
    <i name="alphaZ">     25.67921176 </i>
    <i name="ewald">    700.27145080 </i>
    <i name="hartreedc">  -1524.76618073 </i>
    <i name="XCdc">     91.14273073 </i>
    <i name="pawpsdc">    738.13200929 </i>
    <i name="pawaedc">   -739.83780425 </i>
    <i name="eentropy">     -0.00000000 </i>
    <i name="bandstr">   -389.26594481 </i>
    <i name="atom">   1025.20389953 </i>
    <i name="e_fr_energy">    -73.44062769 </i>
    <i name="e_wo_entrp">    -73.44062769 </i>
    <i name="e_0_energy">    -73.44062769 </i>
   </energy>
  </scstep>
  <scstep>
   <time name="diag">  571.33  571.33</time>
   <time name="total">  571.43  571.43</time>
   <energy>
    <i name="e_fr_energy">    -68.99901163 </i>
    <i name="e_wo_entrp">    -68.99901163 </i>
    <i name="e_0_energy">    -68.99901163 </i>
   </energy>
  </scstep>
  <scstep>
   <time name="diag">  557.63  557.63</time>
   <time name="total">  557.73  557.73</time>
   <energy>
    <i name="e_fr_energy">    -67.35394036 </i>
    <i name="e_wo_entrp">    -67.35394036 </i>
    <i name="e_0_energy">    -67.35394036 </i>
   </energy>
  </scstep>
  <scstep>
   <time name="diag">  568.08  568.08</time>
   <time name="total">  568.19  568.18</time>
   <energy>
    <i name="e_fr_energy">    -67.24757337 </i>
    <i name="e_wo_entrp">    -67.24757337 </i>
    <i name="e_0_energy">    -67.24757337 </i>
   </energy>
  </scstep>
  <scstep>
   <time name="diag">  887.22  977.28</time>
   <time name="total">  887.36  977.46</time>
   <energy>
    <i name="e_fr_energy">    -67.22049319 </i>
    <i name="e_wo_entrp">    -67.22049319 </i>
    <i name="e_0_energy">    -67.22049319 </i>
   </energy>
  </scstep>
  <scstep>
   <time name="diag">  975.26 1092.41</time>
   <time name="total">  975.38 1092.56</time>
   <energy>
    <i name="e_fr_energy">    -67.21907962 </i>
    <i name="e_wo_entrp">    -67.21907962 </i>
    <i name="e_0_energy">    -67.21907962 </i>
   </energy>
  </scstep>
  <scstep>
   <time name="diag">  961.44 1082.67</time>
   <time name="total">  961.63 1082.86</time>
   <energy>
    <i name="e_fr_energy">    -67.22295241 </i>
    <i name="e_wo_entrp">    -67.22295241 </i>
    <i name="e_0_energy">    -67.22295241 </i>
   </energy>
  </scstep>
  <scstep>
   <time name="diag"> 1003.76 1125.75</time>
   <time name="total"> 1003.95 1125.94</time>
   <energy>
    <i name="e_fr_energy">    -67.22702477 </i>
    <i name="e_wo_entrp">    -67.22702477 </i>
    <i name="e_0_energy">    -67.22702477 </i>
   </energy>
  </scstep>
  <scstep>
   <time name="diag">  998.08 1125.90</time>
   <time name="total">  998.31 1126.14</time>
   <energy>
    <i name="e_fr_energy">    -67.22770203 </i>
    <i name="e_wo_entrp">    -67.22770203 </i>
    <i name="e_0_energy">    -67.22770203 </i>
   </energy>
  </scstep>
  <scstep>
   <time name="diag"> 1016.29 1149.90</time>
   <time name="total"> 1016.46 1150.07</time>
   <energy>
    <i name="e_fr_energy">    -67.22771724 </i>
    <i name="e_wo_entrp">    -67.22771724 </i>
    <i name="e_0_energy">    -67.22771724 </i>
   </energy>
  </scstep>
  <scstep>
   <time name="diag"> 1008.99 1142.07</time>
   <time name="total"> 1009.11 1142.19</time>
   <energy>
    <i name="e_fr_energy">    -67.22773009 </i>
    <i name="e_wo_entrp">    -67.22773009 </i>
    <i name="e_0_energy">    -67.22773009 </i>
   </energy>
  </scstep>
  <scstep>
   <time name="diag"> 1027.97 1159.65</time>
   <time name="total"> 1028.46 1160.32</time>
   <energy>
    <i name="e_fr_energy">    -67.22773016 </i>
    <i name="e_wo_entrp">    -67.22773016 </i>
    <i name="e_0_energy">    -67.22773016 </i>
   </energy>
  </scstep>
  <scstep>
   <time name="diag"> 1002.57 1138.40</time>
   <time name="total"> 1002.74 1138.57</time>
   <energy>
    <i name="e_fr_energy">    -67.22773024 </i>
    <i name="e_wo_entrp">    -67.22773024 </i>
    <i name="e_0_energy">    -67.22773024 </i>
   </energy>
  </scstep>
  <scstep>
   <time name="diag"> 1039.90 1175.24</time>
   <time name="total"> 1039.95 1175.28</time>
   <energy>
    <i name="alphaZ">     25.67921176 </i>
    <i name="ewald">    700.27145080 </i>
    <i name="hartreedc">  -1646.75291199 </i>
    <i name="XCdc">     96.02426133 </i>
    <i name="pawpsdc">   2894.38113023 </i>
    <i name="pawaedc">  -2896.90834132 </i>
    <i name="eentropy">     -0.00000000 </i>
    <i name="bandstr">   -265.12643058 </i>
    <i name="atom">   1025.20389953 </i>
    <i name="e_fr_energy">    -67.22773025 </i>
    <i name="e_wo_entrp">    -67.22773025 </i>
    <i name="e_0_energy">    -67.22773025 </i>
   </energy>
  </scstep>
  <structure>
   <crystal>
    <varray name="basis" >
     <v>       4.48084843       2.58701885       0.00000000 </v>
     <v>      -4.48084843       2.58701885       0.00000000 </v>
     <v>       0.00000000       0.00000000       8.52022140 </v>
    </varray>
    <i name="volume">    197.53348383 </i>
    <varray name="rec_basis" >
     <v>       0.11158601       0.19327265       0.00000000 </v>
     <v>      -0.11158601       0.19327265       0.00000000 </v>
     <v>       0.00000000       0.00000000       0.11736784 </v>
    </varray>
   </crystal>
   <varray name="positions" >
    <v>       0.33333300       0.66666600       0.25000000 </v>
    <v>       0.66666600       0.33333300       0.25000000 </v>
    <v>       0.15869124       0.31738348       0.25000000 </v>
    <v>       0.31738348       0.15869124       0.25000000 </v>
    <v>       0.15869124       0.84130776       0.25000000 </v>
    <v>       0.84130776       0.15869124       0.25000000 </v>
    <v>       0.68261552       0.84130776       0.25000000 </v>
    <v>       0.84130776       0.68261552       0.25000000 </v>
   </varray>
  </structure>
  <varray name="forces" >
   <v>      -0.00000000       0.00000000       0.00000000 </v>
   <v>      -0.00000000       0.00000000       0.00000000 </v>
   <v>      -0.00064694       0.00112054      -0.00000000 </v>
   <v>       0.00064694       0.00112054      -0.00000000 </v>
   <v>       0.00129389       0.00000000       0.00000000 </v>
   <v>      -0.00129389       0.00000000      -0.00000000 </v>
   <v>      -0.00064694      -0.00112054       0.00000000 </v>
   <v>       0.00064694      -0.00112054       0.00000000 </v>
  </varray>
  <varray name="stress" >
   <v>      -0.53277498       0.00000000       0.00000000 </v>
   <v>       0.00000000      -0.53277489       0.00000000 </v>
   <v>       0.00000000      -0.00000000      -1.27118549 </v>
  </varray>
  <energy>
   <i name="e_fr_energy">    -67.22773025 </i>
   <i name="e_wo_entrp">    -67.22773025 </i>
   <i name="e_0_energy">     -0.00000000 </i>
  </energy>
  <time name="totalsc">12171.3613420.79</time>
  <eigenvalues>
   <array>
    <dimension dim="1">band</dimension>
    <dimension dim="2">kpoint</dimension>
    <dimension dim="3">spin</dimension>
    <field>eigene</field>
    <field>occ</field>
    <set>
     <set comment="spin 1">
      <set comment="kpoint 1">
       <r>  -18.5403    1.0000 </r>
       <r>  -14.6488    1.0000 </r>
       <r>  -14.6488    1.0000 </r>
       <r>  -12.2992    1.0000 </r>
       <r>  -12.2992    1.0000 </r>
       <r>  -11.2307    1.0000 </r>
       <r>   -9.9135    1.0000 </r>
       <r>   -7.3452    1.0000 </r>
       <r>   -7.1249    1.0000 </r>
       <r>   -4.9710    1.0000 </r>
       <r>   -4.9710    1.0000 </r>
       <r>   -3.1493    1.0000 </r>
       <r>   -3.1492    1.0000 </r>
       <r>   -2.4667    1.0000 </r>
       <r>   -2.4666    1.0000 </r>
       <r>   -0.6315    0.0000 </r>
       <r>    1.1011    0.0000 </r>
       <r>    1.1012    0.0000 </r>
       <r>    1.7906    0.0000 </r>
       <r>    1.9217    0.0000 </r>
       <r>    4.5207    0.0000 </r>
       <r>    5.9130    0.0000 </r>
       <r>    6.3151    0.0000 </r>
       <r>    6.3151    0.0000 </r>
       <r>    7.6726    0.0000 </r>
       <r>    8.0796    0.0000 </r>
       <r>    8.0797    0.0000 </r>
       <r>    8.9955    0.0000 </r>
       <r>    9.1419    0.0000 </r>
       <r>    9.1419    0.0000 </r>
       <r>    9.2976    0.0000 </r>
       <r>    9.2976    0.0000 </r>
       <r>    9.5160    0.0000 </r>
       <r>   10.3273    0.0000 </r>
       <r>   10.6836    0.0000 </r>
       <r>   10.6836    0.0000 </r>
      </set>
      <set comment="kpoint 2">
       <r>  -18.5132    1.0000 </r>
       <r>  -14.7809    1.0000 </r>
       <r>  -14.6912    1.0000 </r>
       <r>  -12.3384    1.0000 </r>
       <r>  -12.2008    1.0000 </r>
       <r>  -11.0961    1.0000 </r>
       <r>   -9.7531    1.0000 </r>
       <r>   -7.3040    1.0000 </r>
       <r>   -7.1822    1.0000 </r>
       <r>   -5.0944    1.0000 </r>
       <r>   -4.9934    1.0000 </r>
       <r>   -3.2737    1.0000 </r>
       <r>   -3.1697    1.0000 </r>
       <r>   -2.6092    1.0000 </r>
       <r>   -2.5354    1.0000 </r>
       <r>   -0.8361    0.0000 </r>
       <r>    1.1605    0.0000 </r>
       <r>    1.4116    0.0000 </r>
       <r>    1.9153    0.0000 </r>
       <r>    1.9734    0.0000 </r>
       <r>    4.5728    0.0000 </r>
       <r>    5.9692    0.0000 </r>
       <r>    6.3866    0.0000 </r>
       <r>    6.4781    0.0000 </r>
       <r>    7.6627    0.0000 </r>
       <r>    8.0377    0.0000 </r>
       <r>    8.2336    0.0000 </r>
       <r>    8.2352    0.0000 </r>
       <r>    8.6808    0.0000 </r>
       <r>    8.7555    0.0000 </r>
       <r>    9.8480    0.0000 </r>
       <r>    9.8619    0.0000 </r>
       <r>    9.9124    0.0000 </r>
       <r>   10.3759    0.0000 </r>
       <r>   10.3995    0.0000 </r>
       <r>   10.4193    0.0000 </r>
      </set>
      <set comment="kpoint 3">
       <r>  -18.4341    1.0000 </r>
       <r>  -15.1059    1.0000 </r>
       <r>  -14.7954    1.0000 </r>
       <r>  -12.4549    1.0000 </r>
       <r>  -11.9317    1.0000 </r>
       <r>  -10.7149    1.0000 </r>
       <r>   -9.3237    1.0000 </r>
       <r>   -7.3645    1.0000 </r>
       <r>   -7.1816    1.0000 </r>
       <r>   -5.4404    1.0000 </r>
       <r>   -5.0296    1.0000 </r>
       <r>   -3.6157    1.0000 </r>
       <r>   -3.2240    1.0000 </r>
       <r>   -3.0165    1.0000 </r>
       <r>   -2.7272    1.0000 </r>
       <r>   -1.1839    0.0000 </r>
       <r>    1.3238    0.0000 </r>
       <r>    1.8881    0.0000 </r>
       <r>    2.1281    0.0000 </r>
       <r>    2.4358    0.0000 </r>
       <r>    4.7294    0.0000 </r>
       <r>    6.1240    0.0000 </r>
       <r>    6.5551    0.0000 </r>
       <r>    6.9440    0.0000 </r>
       <r>    6.9598    0.0000 </r>
       <r>    7.9146    0.0000 </r>
       <r>    8.1729    0.0000 </r>
       <r>    8.2020    0.0000 </r>
       <r>    8.5790    0.0000 </r>
       <r>    8.7436    0.0000 </r>
       <r>    9.0740    0.0000 </r>
       <r>    9.9077    0.0000 </r>
       <r>    9.9160    0.0000 </r>
       <r>   10.4672    0.0000 </r>
       <r>   10.5716    0.0000 </r>
       <r>   10.5788    0.0000 </r>
      </set>
      <set comment="kpoint 4">
       <r>  -18.3111    1.0000 </r>
       <r>  -15.5025    1.0000 </r>
       <r>  -14.9178    1.0000 </r>
       <r>  -12.6026    1.0000 </r>
       <r>  -11.5471    1.0000 </r>
       <r>  -10.1724    1.0000 </r>
       <r>   -8.7139    1.0000 </r>
       <r>   -7.6782    1.0000 </r>
       <r>   -6.9823    1.0000 </r>
       <r>   -5.9473    1.0000 </r>
       <r>   -5.0207    1.0000 </r>
       <r>   -4.0930    1.0000 </r>
       <r>   -3.6340    1.0000 </r>
       <r>   -3.2941    1.0000 </r>
       <r>   -3.0028    1.0000 </r>
       <r>   -1.4707    0.0000 </r>
       <r>    1.5522    0.0000 </r>
       <r>    2.2445    0.0000 </r>
       <r>    2.3849    0.0000 </r>
       <r>    3.3190    0.0000 </r>
       <r>    4.9927    0.0000 </r>
       <r>    6.0211    0.0000 </r>
       <r>    6.3584    0.0000 </r>
       <r>    6.7511    0.0000 </r>
       <r>    7.6029    0.0000 </r>
       <r>    7.8092    0.0000 </r>
       <r>    7.9266    0.0000 </r>
       <r>    8.1647    0.0000 </r>
       <r>    8.2206    0.0000 </r>
       <r>    8.9264    0.0000 </r>
       <r>    9.3180    0.0000 </r>
       <r>    9.4674    0.0000 </r>
       <r>    9.4698    0.0000 </r>
       <r>   10.1391    0.0000 </r>
       <r>   10.1768    0.0000 </r>
       <r>   11.1044    0.0000 </r>
      </set>
      <set comment="kpoint 5">
       <r>  -18.1625    1.0000 </r>
       <r>  -15.8797    1.0000 </r>
       <r>  -15.0239    1.0000 </r>
       <r>  -12.7316    1.0000 </r>
       <r>  -11.1092    1.0000 </r>
       <r>   -9.5491    1.0000 </r>
       <r>   -8.0852    1.0000 </r>
       <r>   -8.0108    1.0000 </r>
       <r>   -6.7177    1.0000 </r>
       <r>   -6.5247    1.0000 </r>
       <r>   -4.9417    1.0000 </r>
       <r>   -4.6103    1.0000 </r>
       <r>   -4.3954    1.0000 </r>
       <r>   -3.3602    1.0000 </r>
       <r>   -3.3072    1.0000 </r>
       <r>   -1.6689    0.0000 </r>
       <r>    1.7888    0.0000 </r>
       <r>    2.5685    0.0000 </r>
       <r>    2.7430    0.0000 </r>
       <r>    4.2903    0.0000 </r>
       <r>    5.1738    0.0000 </r>
       <r>    5.3723    0.0000 </r>
       <r>    6.6300    0.0000 </r>
       <r>    6.9218    0.0000 </r>
       <r>    7.4317    0.0000 </r>
       <r>    7.5747    0.0000 </r>
       <r>    7.6596    0.0000 </r>
       <r>    8.1261    0.0000 </r>
       <r>    8.5825    0.0000 </r>
       <r>    8.5992    0.0000 </r>
       <r>    9.1056    0.0000 </r>
       <r>    9.1461    0.0000 </r>
       <r>    9.8097    0.0000 </r>
       <r>    9.9117    0.0000 </r>
       <r>   10.3942    0.0000 </r>
       <r>   11.3233    0.0000 </r>
      </set>
      <set comment="kpoint 6">
       <r>  -18.0272    1.0000 </r>
       <r>  -16.1629    1.0000 </r>
       <r>  -15.0939    1.0000 </r>
       <r>  -12.8160    1.0000 </r>
       <r>  -10.7080    1.0000 </r>
       <r>   -8.9042    1.0000 </r>
       <r>   -8.4816    1.0000 </r>
       <r>   -7.5745    1.0000 </r>
       <r>   -6.7929    1.0000 </r>
       <r>   -6.4253    1.0000 </r>
       <r>   -5.2343    1.0000 </r>
       <r>   -5.0733    1.0000 </r>
       <r>   -4.8255    1.0000 </r>
       <r>   -3.5685    1.0000 </r>
       <r>   -3.4063    1.0000 </r>
       <r>   -1.7847    0.0000 </r>
       <r>    1.9692    0.0000 </r>
       <r>    2.8120    0.0000 </r>
       <r>    3.2016    0.0000 </r>
       <r>    4.4184    0.0000 </r>
       <r>    5.2007    0.0000 </r>
       <r>    5.8937    0.0000 </r>
       <r>    6.7443    0.0000 </r>
       <r>    6.7975    0.0000 </r>
       <r>    7.1991    0.0000 </r>
       <r>    7.4335    0.0000 </r>
       <r>    7.5840    0.0000 </r>
       <r>    7.7340    0.0000 </r>
       <r>    8.0166    0.0000 </r>
       <r>    8.6500    0.0000 </r>
       <r>    8.8572    0.0000 </r>
       <r>    9.5160    0.0000 </r>
       <r>    9.5495    0.0000 </r>
       <r>   10.6449    0.0000 </r>
       <r>   11.2326    0.0000 </r>
       <r>   11.2992    0.0000 </r>
      </set>
      <set comment="kpoint 7">
       <r>  -17.9687    1.0000 </r>
       <r>  -16.2722    1.0000 </r>
       <r>  -15.1182    1.0000 </r>
       <r>  -12.8452    1.0000 </r>
       <r>  -10.5233    1.0000 </r>
       <r>   -8.6674    1.0000 </r>
       <r>   -8.4603    1.0000 </r>
       <r>   -7.8540    1.0000 </r>
       <r>   -6.2579    1.0000 </r>
       <r>   -6.2284    1.0000 </r>
       <r>   -5.9752    1.0000 </r>
       <r>   -5.3004    1.0000 </r>
       <r>   -4.7629    1.0000 </r>
       <r>   -3.6806    1.0000 </r>
       <r>   -3.4227    1.0000 </r>
       <r>   -1.8229    0.0000 </r>
       <r>    2.0369    0.0000 </r>
       <r>    2.9042    0.0000 </r>
       <r>    3.7591    0.0000 </r>
       <r>    3.7616    0.0000 </r>
       <r>    5.8295    0.0000 </r>
       <r>    6.0178    0.0000 </r>
       <r>    6.6833    0.0000 </r>
       <r>    6.8324    0.0000 </r>
       <r>    7.0070    0.0000 </r>
       <r>    7.3848    0.0000 </r>
       <r>    7.5018    0.0000 </r>
       <r>    7.5244    0.0000 </r>
       <r>    7.8615    0.0000 </r>
       <r>    8.4188    0.0000 </r>
       <r>    8.7679    0.0000 </r>
       <r>    9.4538    0.0000 </r>
       <r>   10.0363    0.0000 </r>
       <r>   11.0875    0.0000 </r>
       <r>   11.2965    0.0000 </r>
       <r>   11.3093    0.0000 </r>
      </set>
      <set comment="kpoint 8">
       <r>  -18.4601    1.0000 </r>
       <r>  -14.9943    1.0000 </r>
       <r>  -14.7809    1.0000 </r>
       <r>  -12.3670    1.0000 </r>
       <r>  -12.0744    1.0000 </r>
       <r>  -10.8255    1.0000 </r>
       <r>   -9.4616    1.0000 </r>
       <r>   -7.3045    1.0000 </r>
       <r>   -7.2222    1.0000 </r>
       <r>   -5.3045    1.0000 </r>
       <r>   -5.0454    1.0000 </r>
       <r>   -3.4865    1.0000 </r>
       <r>   -3.2340    1.0000 </r>
       <r>   -2.8750    1.0000 </r>
       <r>   -2.6748    1.0000 </r>
       <r>   -1.0765    0.0000 </r>
       <r>    1.1928    0.0000 </r>
       <r>    1.9201    0.0000 </r>
       <r>    2.0766    0.0000 </r>
       <r>    2.1721    0.0000 </r>
       <r>    4.6771    0.0000 </r>
       <r>    6.0776    0.0000 </r>
       <r>    6.5380    0.0000 </r>
       <r>    6.7516    0.0000 </r>
       <r>    7.3986    0.0000 </r>
       <r>    7.5582    0.0000 </r>
       <r>    8.0759    0.0000 </r>
       <r>    8.3552    0.0000 </r>
       <r>    8.5474    0.0000 </r>
       <r>    9.2291    0.0000 </r>
       <r>    9.4118    0.0000 </r>
       <r>    9.5260    0.0000 </r>
       <r>    9.6858    0.0000 </r>
       <r>   10.2460    0.0000 </r>
       <r>   10.7998    0.0000 </r>
       <r>   10.8126    0.0000 </r>
      </set>
      <set comment="kpoint 9">
       <r>  -18.3587    1.0000 </r>
       <r>  -15.3297    1.0000 </r>
       <r>  -14.9244    1.0000 </r>
       <r>  -12.4374    1.0000 </r>
       <r>  -11.8221    1.0000 </r>
       <r>  -10.3336    1.0000 </r>
       <r>   -8.9537    1.0000 </r>
       <r>   -7.5669    1.0000 </r>
       <r>   -7.0611    1.0000 </r>
       <r>   -5.6745    1.0000 </r>
       <r>   -5.1027    1.0000 </r>
       <r>   -3.8636    1.0000 </r>
       <r>   -3.3655    1.0000 </r>
       <r>   -3.3565    1.0000 </r>
       <r>   -2.9300    1.0000 </r>
       <r>   -1.3035    0.0000 </r>
       <r>    1.2600    0.0000 </r>
       <r>    2.2825    0.0000 </r>
       <r>    2.4279    0.0000 </r>
       <r>    2.8510    0.0000 </r>
       <r>    4.8861    0.0000 </r>
       <r>    6.2808    0.0000 </r>
       <r>    6.5078    0.0000 </r>
       <r>    6.7723    0.0000 </r>
       <r>    7.1502    0.0000 </r>
       <r>    7.2481    0.0000 </r>
       <r>    8.2401    0.0000 </r>
       <r>    8.6339    0.0000 </r>
       <r>    8.6392    0.0000 </r>
       <r>    9.0266    0.0000 </r>
       <r>    9.0745    0.0000 </r>
       <r>    9.1530    0.0000 </r>
       <r>    9.7711    0.0000 </r>
       <r>   10.1428    0.0000 </r>
       <r>   10.4882    0.0000 </r>
       <r>   10.5456    0.0000 </r>
      </set>
      <set comment="kpoint 10">
       <r>  -18.2216    1.0000 </r>
       <r>  -15.7004    1.0000 </r>
       <r>  -15.0616    1.0000 </r>
       <r>  -12.5469    1.0000 </r>
       <r>  -11.4382    1.0000 </r>
       <r>   -9.7295    1.0000 </r>
       <r>   -8.3073    1.0000 </r>
       <r>   -7.9559    1.0000 </r>
       <r>   -6.8281    1.0000 </r>
       <r>   -6.1688    1.0000 </r>
       <r>   -5.0887    1.0000 </r>
       <r>   -4.3446    1.0000 </r>
       <r>   -4.0291    1.0000 </r>
       <r>   -3.4802    1.0000 </r>
       <r>   -3.2435    1.0000 </r>
       <r>   -1.4533    0.0000 </r>
       <r>    1.3910    0.0000 </r>
       <r>    2.5899    0.0000 </r>
       <r>    2.8067    0.0000 </r>
       <r>    3.7951    0.0000 </r>
       <r>    5.2029    0.0000 </r>
       <r>    5.6251    0.0000 </r>
       <r>    6.5571    0.0000 </r>
       <r>    6.7674    0.0000 </r>
       <r>    7.0737    0.0000 </r>
       <r>    7.8279    0.0000 </r>
       <r>    7.9147    0.0000 </r>
       <r>    8.3378    0.0000 </r>
       <r>    8.6659    0.0000 </r>
       <r>    8.6990    0.0000 </r>
       <r>    9.1704    0.0000 </r>
       <r>    9.2839    0.0000 </r>
       <r>    9.7390    0.0000 </r>
       <r>    9.9807    0.0000 </r>
       <r>   10.0715    0.0000 </r>
       <r>   10.8298    0.0000 </r>
      </set>
      <set comment="kpoint 11">
       <r>  -18.0756    1.0000 </r>
       <r>  -16.0252    1.0000 </r>
       <r>  -15.1634    1.0000 </r>
       <r>  -12.6404    1.0000 </r>
       <r>  -11.0116    1.0000 </r>
       <r>   -9.0961    1.0000 </r>
       <r>   -8.3956    1.0000 </r>
       <r>   -7.6307    1.0000 </r>
       <r>   -6.6685    1.0000 </r>
       <r>   -6.5435    1.0000 </r>
       <r>   -5.0399    1.0000 </r>
       <r>   -4.8339    1.0000 </r>
       <r>   -4.7659    1.0000 </r>
       <r>   -3.5742    1.0000 </r>
       <r>   -3.5495    1.0000 </r>
       <r>   -1.5440    0.0000 </r>
       <r>    1.5375    0.0000 </r>
       <r>    2.9983    0.0000 </r>
       <r>    3.1243    0.0000 </r>
       <r>    4.7554    0.0000 </r>
       <r>    4.8227    0.0000 </r>
       <r>    5.6422    0.0000 </r>
       <r>    6.5803    0.0000 </r>
       <r>    6.9203    0.0000 </r>
       <r>    7.0832    0.0000 </r>
       <r>    7.1993    0.0000 </r>
       <r>    8.0687    0.0000 </r>
       <r>    8.1881    0.0000 </r>
       <r>    8.4265    0.0000 </r>
       <r>    8.7179    0.0000 </r>
       <r>    8.8474    0.0000 </r>
       <r>    9.0897    0.0000 </r>
       <r>    9.7103    0.0000 </r>
       <r>   10.2321    0.0000 </r>
       <r>   10.6019    0.0000 </r>
       <r>   11.0090    0.0000 </r>
      </set>
      <set comment="kpoint 12">
       <r>  -17.9725    1.0000 </r>
       <r>  -16.2237    1.0000 </r>
       <r>  -15.2167    1.0000 </r>
       <r>  -12.6918    1.0000 </r>
       <r>  -10.6841    1.0000 </r>
       <r>   -8.8037    1.0000 </r>
       <r>   -8.4393    1.0000 </r>
       <r>   -7.5709    1.0000 </r>
       <r>   -6.4910    1.0000 </r>
       <r>   -6.2836    1.0000 </r>
       <r>   -5.6651    1.0000 </r>
       <r>   -5.2067    1.0000 </r>
       <r>   -4.8631    1.0000 </r>
       <r>   -3.7590    1.0000 </r>
       <r>   -3.6241    1.0000 </r>
       <r>   -1.5880    0.0000 </r>
       <r>    1.6337    0.0000 </r>
       <r>    3.3120    0.0000 </r>
       <r>    3.5072    0.0000 </r>
       <r>    4.1157    0.0000 </r>
       <r>    5.5886    0.0000 </r>
       <r>    6.1336    0.0000 </r>
       <r>    6.4948    0.0000 </r>
       <r>    6.5320    0.0000 </r>
       <r>    7.1185    0.0000 </r>
       <r>    7.2599    0.0000 </r>
       <r>    7.4693    0.0000 </r>
       <r>    7.9843    0.0000 </r>
       <r>    8.3677    0.0000 </r>
       <r>    8.5249    0.0000 </r>
       <r>    8.5648    0.0000 </r>
       <r>    9.4992    0.0000 </r>
       <r>    9.7749    0.0000 </r>
       <r>   10.4077    0.0000 </r>
       <r>   11.1312    0.0000 </r>
       <r>   11.8728    0.0000 </r>
      </set>
      <set comment="kpoint 13">
       <r>  -18.2423    1.0000 </r>
       <r>  -15.5946    1.0000 </r>
       <r>  -15.1334    1.0000 </r>
       <r>  -12.3267    1.0000 </r>
       <r>  -11.7182    1.0000 </r>
       <r>   -9.7514    1.0000 </r>
       <r>   -8.4235    1.0000 </r>
       <r>   -7.9297    1.0000 </r>
       <r>   -6.8657    1.0000 </r>
       <r>   -5.9215    1.0000 </r>
       <r>   -5.2465    1.0000 </r>
       <r>   -4.1761    1.0000 </r>
       <r>   -3.8607    1.0000 </r>
       <r>   -3.6321    1.0000 </r>
       <r>   -3.2639    1.0000 </r>
       <r>   -1.2839    0.0000 </r>
       <r>    1.1312    0.0000 </r>
       <r>    2.5390    0.0000 </r>
       <r>    3.2334    0.0000 </r>
       <r>    3.3406    0.0000 </r>
       <r>    5.1459    0.0000 </r>
       <r>    6.1570    0.0000 </r>
       <r>    6.1840    0.0000 </r>
       <r>    6.5511    0.0000 </r>
       <r>    7.2517    0.0000 </r>
       <r>    7.4875    0.0000 </r>
       <r>    8.1543    0.0000 </r>
       <r>    8.4357    0.0000 </r>
       <r>    8.5197    0.0000 </r>
       <r>    9.2339    0.0000 </r>
       <r>    9.2540    0.0000 </r>
       <r>    9.3888    0.0000 </r>
       <r>    9.6763    0.0000 </r>
       <r>    9.9552    0.0000 </r>
       <r>   10.2174    0.0000 </r>
       <r>   10.2839    0.0000 </r>
      </set>
      <set comment="kpoint 14">
       <r>  -18.1037    1.0000 </r>
       <r>  -15.8717    1.0000 </r>
       <r>  -15.3171    1.0000 </r>
       <r>  -12.2968    1.0000 </r>
       <r>  -11.4379    1.0000 </r>
       <r>   -9.1205    1.0000 </r>
       <r>   -8.3761    1.0000 </r>
       <r>   -7.7953    1.0000 </r>
       <r>   -6.6081    1.0000 </r>
       <r>   -6.2644    1.0000 </r>
       <r>   -5.3186    1.0000 </r>
       <r>   -4.5716    1.0000 </r>
       <r>   -4.4650    1.0000 </r>
       <r>   -3.8735    1.0000 </r>
       <r>   -3.6394    1.0000 </r>
       <r>   -1.1996    0.0000 </r>
       <r>    1.0639    0.0000 </r>
       <r>    2.8970    0.0000 </r>
       <r>    3.6622    0.0000 </r>
       <r>    4.2506    0.0000 </r>
       <r>    5.3268    0.0000 </r>
       <r>    5.5089    0.0000 </r>
       <r>    5.9261    0.0000 </r>
       <r>    6.8987    0.0000 </r>
       <r>    7.4604    0.0000 </r>
       <r>    7.4938    0.0000 </r>
       <r>    7.9953    0.0000 </r>
       <r>    8.0582    0.0000 </r>
       <r>    8.6104    0.0000 </r>
       <r>    8.6818    0.0000 </r>
       <r>    9.3542    0.0000 </r>
       <r>    9.5055    0.0000 </r>
       <r>    9.7054    0.0000 </r>
       <r>    9.8064    0.0000 </r>
       <r>   10.2744    0.0000 </r>
       <r>   10.4720    0.0000 </r>
      </set>
      <set comment="kpoint 15">
       <r>  -17.9801    1.0000 </r>
       <r>  -16.0976    1.0000 </r>
       <r>  -15.4298    1.0000 </r>
       <r>  -12.3214    1.0000 </r>
       <r>  -11.0771    1.0000 </r>
       <r>   -8.9724    1.0000 </r>
       <r>   -8.3329    1.0000 </r>
       <r>   -7.2613    1.0000 </r>
       <r>   -6.5698    1.0000 </r>
       <r>   -6.3281    1.0000 </r>
       <r>   -5.4537    1.0000 </r>
       <r>   -4.9770    1.0000 </r>
       <r>   -4.9741    1.0000 </r>
       <r>   -4.0100    1.0000 </r>
       <r>   -3.9555    1.0000 </r>
       <r>   -1.1306    0.0000 </r>
       <r>    1.0489    0.0000 </r>
       <r>    3.3557    0.0000 </r>
       <r>    3.9513    0.0000 </r>
       <r>    4.5722    0.0000 </r>
       <r>    5.1717    0.0000 </r>
       <r>    5.7779    0.0000 </r>
       <r>    5.9790    0.0000 </r>
       <r>    6.7564    0.0000 </r>
       <r>    7.3143    0.0000 </r>
       <r>    7.4811    0.0000 </r>
       <r>    7.5963    0.0000 </r>
       <r>    8.1315    0.0000 </r>
       <r>    8.3864    0.0000 </r>
       <r>    8.7379    0.0000 </r>
       <r>    9.2083    0.0000 </r>
       <r>    9.4588    0.0000 </r>
       <r>    9.4842    0.0000 </r>
       <r>    9.6928    0.0000 </r>
       <r>   10.9083    0.0000 </r>
       <r>   11.0681    0.0000 </r>
      </set>
      <set comment="kpoint 16">
       <r>  -17.9277    1.0000 </r>
       <r>  -16.1875    1.0000 </r>
       <r>  -15.4670    1.0000 </r>
       <r>  -12.3351    1.0000 </r>
       <r>  -10.8914    1.0000 </r>
       <r>   -9.1568    1.0000 </r>
       <r>   -7.9544    1.0000 </r>
       <r>   -7.3553    1.0000 </r>
       <r>   -6.2381    1.0000 </r>
       <r>   -6.1730    1.0000 </r>
       <r>   -5.9420    1.0000 </r>
       <r>   -5.1767    1.0000 </r>
       <r>   -5.0349    1.0000 </r>
       <r>   -4.0904    1.0000 </r>
       <r>   -4.0533    1.0000 </r>
       <r>   -1.1062    0.0000 </r>
       <r>    1.0502    0.0000 </r>
       <r>    3.9109    0.0000 </r>
       <r>    3.9180    0.0000 </r>
       <r>    4.0594    0.0000 </r>
       <r>    5.7284    0.0000 </r>
       <r>    5.8797    0.0000 </r>
       <r>    6.0777    0.0000 </r>
       <r>    6.5092    0.0000 </r>
       <r>    6.9436    0.0000 </r>
       <r>    7.5530    0.0000 </r>
       <r>    7.7874    0.0000 </r>
       <r>    7.9911    0.0000 </r>
       <r>    8.0021    0.0000 </r>
       <r>    8.8220    0.0000 </r>
       <r>    9.2908    0.0000 </r>
       <r>    9.3644    0.0000 </r>
       <r>    9.6600    0.0000 </r>
       <r>    9.7238    0.0000 </r>
       <r>   10.9364    0.0000 </r>
       <r>   11.7395    0.0000 </r>
      </set>
      <set comment="kpoint 17">
       <r>  -17.9837    1.0000 </r>
       <r>  -15.9999    1.0000 </r>
       <r>  -15.5660    1.0000 </r>
       <r>  -12.0256    1.0000 </r>
       <r>  -11.3863    1.0000 </r>
       <r>   -9.0296    1.0000 </r>
       <r>   -8.2677    1.0000 </r>
       <r>   -7.2565    1.0000 </r>
       <r>   -6.3795    1.0000 </r>
       <r>   -6.3477    1.0000 </r>
       <r>   -5.5925    1.0000 </r>
       <r>   -4.8681    1.0000 </r>
       <r>   -4.7863    1.0000 </r>
       <r>   -4.2577    1.0000 </r>
       <r>   -4.0964    1.0000 </r>
       <r>   -0.8660    0.0000 </r>
       <r>    0.7476    0.0000 </r>
       <r>    3.3053    0.0000 </r>
       <r>    4.4813    0.0000 </r>
       <r>    4.7155    0.0000 </r>
       <r>    5.1173    0.0000 </r>
       <r>    5.1385    0.0000 </r>
       <r>    5.8980    0.0000 </r>
       <r>    6.9762    0.0000 </r>
       <r>    7.3118    0.0000 </r>
       <r>    7.4640    0.0000 </r>
       <r>    7.9765    0.0000 </r>
       <r>    8.1126    0.0000 </r>
       <r>    8.2550    0.0000 </r>
       <r>    8.9047    0.0000 </r>
       <r>    9.0557    0.0000 </r>
       <r>    9.4083    0.0000 </r>
       <r>    9.4570    0.0000 </r>
       <r>   10.2724    0.0000 </r>
       <r>   10.5788    0.0000 </r>
       <r>   10.5887    0.0000 </r>
      </set>
      <set comment="kpoint 18">
       <r>  -17.9035    1.0000 </r>
       <r>  -16.0734    1.0000 </r>
       <r>  -15.7140    1.0000 </r>
       <r>  -11.9033    1.0000 </r>
       <r>  -11.2356    1.0000 </r>
       <r>   -9.3725    1.0000 </r>
       <r>   -7.6539    1.0000 </r>
       <r>   -6.9970    1.0000 </r>
       <r>   -6.4838    1.0000 </r>
       <r>   -6.1271    1.0000 </r>
       <r>   -5.8405    1.0000 </r>
       <r>   -5.0821    1.0000 </r>
       <r>   -4.9870    1.0000 </r>
       <r>   -4.4628    1.0000 </r>
       <r>   -4.4486    1.0000 </r>
       <r>   -0.6039    0.0000 </r>
       <r>    0.5137    0.0000 </r>
       <r>    3.8140    0.0000 </r>
       <r>    4.4221    0.0000 </r>
       <r>    4.7973    0.0000 </r>
       <r>    5.0285    0.0000 </r>
       <r>    5.4990    0.0000 </r>
       <r>    6.2768    0.0000 </r>
       <r>    6.3566    0.0000 </r>
       <r>    7.0694    0.0000 </r>
       <r>    7.5416    0.0000 </r>
       <r>    7.8028    0.0000 </r>
       <r>    8.2056    0.0000 </r>
       <r>    8.3953    0.0000 </r>
       <r>    8.9516    0.0000 </r>
       <r>    9.0224    0.0000 </r>
       <r>    9.2379    0.0000 </r>
       <r>    9.4084    0.0000 </r>
       <r>   10.3522    0.0000 </r>
       <r>   10.7582    0.0000 </r>
       <r>   11.0447    0.0000 </r>
      </set>
      <set comment="kpoint 19">
       <r>  -17.8740    1.0000 </r>
       <r>  -15.9418    1.0000 </r>
       <r>  -15.9417    1.0000 </r>
       <r>  -11.5104    1.0000 </r>
       <r>  -11.5103    1.0000 </r>
       <r>   -9.5490    1.0000 </r>
       <r>   -7.0492    1.0000 </r>
       <r>   -7.0491    1.0000 </r>
       <r>   -6.6880    1.0000 </r>
       <r>   -6.0398    1.0000 </r>
       <r>   -5.9081    1.0000 </r>
       <r>   -4.8955    1.0000 </r>
       <r>   -4.8955    1.0000 </r>
       <r>   -4.8156    1.0000 </r>
       <r>   -4.8156    1.0000 </r>
       <r>   -0.0438    0.0000 </r>
       <r>   -0.0438    0.0000 </r>
       <r>    4.3574    0.0000 </r>
       <r>    4.3796    0.0000 </r>
       <r>    4.3796    0.0000 </r>
       <r>    5.5697    0.0000 </r>
       <r>    5.5697    0.0000 </r>
       <r>    5.7006    0.0000 </r>
       <r>    6.5547    0.0000 </r>
       <r>    7.0876    0.0000 </r>
       <r>    7.0876    0.0000 </r>
       <r>    8.3356    0.0000 </r>
       <r>    8.3356    0.0000 </r>
       <r>    8.4021    0.0000 </r>
       <r>    8.6499    0.0000 </r>
       <r>    9.1394    0.0000 </r>
       <r>    9.2503    0.0000 </r>
       <r>    9.2503    0.0000 </r>
       <r>   10.7508    0.0000 </r>
       <r>   10.7508    0.0000 </r>
       <r>   11.2970    0.0000 </r>
      </set>
     </set>
    </set>
   </array>
  </eigenvalues>
  <separator name="orbital magnetization" >
   <v name="MAGDIPOLOUT">      0.00000000      0.00000000      0.00000000</v>
  </separator>
  <dielectricfunction>
   <imag>
    <array>
     <dimension dim="1">gridpoints</dimension>
     <field>energy</field>
     <field>xx</field>
     <field>yy</field>
     <field>zz</field>
     <field>xy</field>
     <field>yz</field>
     <field>zx</field>
     <set>
      <r>     0.0000     0.0000     0.0000     0.0000     0.0000     0.0000     0.0000 </r>
      <r>     0.0152     0.0037     0.0037     0.0000     0.0000    -0.0000     0.0000 </r>
      <r>     0.0304     0.0073     0.0073     0.0000     0.0000    -0.0000     0.0000 </r>
      <r>     0.0456     0.0110     0.0110     0.0001     0.0000    -0.0000     0.0000 </r>
      <r>     0.0609     0.0147     0.0147     0.0001     0.0000    -0.0000     0.0000 </r>
      <r>     0.0761     0.0184     0.0184     0.0001     0.0000    -0.0000     0.0000 </r>
      <r>     0.0913     0.0221     0.0221     0.0001     0.0000    -0.0000     0.0000 </r>
      <r>     0.1065     0.0259     0.0259     0.0001     0.0000    -0.0000     0.0000 </r>
      <r>     0.1217     0.0296     0.0296     0.0002     0.0000    -0.0000     0.0000 </r>
      <r>     0.1369     0.0334     0.0334     0.0002     0.0000    -0.0000     0.0000 </r>
      <r>     0.1521     0.0372     0.0372     0.0002     0.0000    -0.0000     0.0000 </r>
      <r>     0.1673     0.0411     0.0411     0.0002     0.0000    -0.0000     0.0000 </r>
      <r>     0.1826     0.0450     0.0450     0.0002     0.0000    -0.0000     0.0000 </r>
      <r>     0.1978     0.0489     0.0489     0.0003     0.0000    -0.0000     0.0000 </r>
      <r>     0.2130     0.0528     0.0528     0.0003     0.0000    -0.0000     0.0000 </r>
      <r>     0.2282     0.0568     0.0568     0.0003     0.0000    -0.0000     0.0000 </r>
      <r>     0.2434     0.0609     0.0609     0.0003     0.0000    -0.0000     0.0000 </r>
      <r>     0.2586     0.0650     0.0650     0.0004     0.0000    -0.0000     0.0000 </r>
      <r>     0.2738     0.0692     0.0692     0.0004     0.0000    -0.0000     0.0000 </r>
      <r>     0.2890     0.0734     0.0734     0.0004     0.0000    -0.0000     0.0000 </r>
      <r>     0.3043     0.0777     0.0777     0.0004     0.0000    -0.0000     0.0000 </r>
      <r>     0.3195     0.0820     0.0820     0.0004     0.0000    -0.0000     0.0000 </r>
      <r>     0.3347     0.0865     0.0865     0.0005     0.0000    -0.0000     0.0000 </r>
      <r>     0.3499     0.0910     0.0910     0.0005     0.0000    -0.0000     0.0000 </r>
      <r>     0.3651     0.0956     0.0956     0.0005     0.0000    -0.0000     0.0000 </r>
      <r>     0.3803     0.1003     0.1003     0.0005     0.0000    -0.0000     0.0000 </r>
      <r>     0.3955     0.1051     0.1051     0.0005     0.0000    -0.0000     0.0000 </r>
      <r>     0.4107     0.1100     0.1100     0.0006     0.0000    -0.0000     0.0000 </r>
      <r>     0.4260     0.1150     0.1150     0.0006     0.0000    -0.0000     0.0000 </r>
      <r>     0.4412     0.1201     0.1201     0.0006     0.0000    -0.0000     0.0000 </r>
      <r>     0.4564     0.1253     0.1253     0.0006     0.0000    -0.0000     0.0000 </r>
      <r>     0.4716     0.1307     0.1307     0.0006     0.0000    -0.0000     0.0000 </r>
      <r>     0.4868     0.1362     0.1362     0.0007     0.0000    -0.0000     0.0000 </r>
      <r>     0.5020     0.1418     0.1418     0.0007     0.0000    -0.0000     0.0000 </r>
      <r>     0.5172     0.1476     0.1476     0.0007     0.0000    -0.0000     0.0000 </r>
      <r>     0.5325     0.1536     0.1536     0.0007     0.0000    -0.0000     0.0000 </r>
      <r>     0.5477     0.1597     0.1597     0.0008     0.0000    -0.0000     0.0000 </r>
      <r>     0.5629     0.1660     0.1660     0.0008     0.0000    -0.0000     0.0000 </r>
      <r>     0.5781     0.1725     0.1725     0.0008     0.0000    -0.0000     0.0000 </r>
      <r>     0.5933     0.1792     0.1792     0.0008     0.0000    -0.0000     0.0000 </r>
      <r>     0.6085     0.1861     0.1861     0.0008     0.0000    -0.0000     0.0000 </r>
      <r>     0.6237     0.1932     0.1932     0.0009     0.0000    -0.0000     0.0000 </r>
      <r>     0.6389     0.2006     0.2006     0.0009     0.0000    -0.0000     0.0000 </r>
      <r>     0.6542     0.2082     0.2082     0.0009     0.0000    -0.0000     0.0000 </r>
      <r>     0.6694     0.2161     0.2161     0.0009     0.0000    -0.0000     0.0000 </r>
      <r>     0.6846     0.2243     0.2243     0.0010     0.0000    -0.0000     0.0000 </r>
      <r>     0.6998     0.2328     0.2328     0.0010     0.0000    -0.0000     0.0000 </r>
      <r>     0.7150     0.2416     0.2416     0.0010     0.0000    -0.0000     0.0000 </r>
      <r>     0.7302     0.2507     0.2507     0.0010     0.0000    -0.0000     0.0000 </r>
      <r>     0.7454     0.2602     0.2602     0.0010     0.0000    -0.0000     0.0000 </r>
      <r>     0.7606     0.2702     0.2702     0.0011     0.0000    -0.0000     0.0000 </r>
      <r>     0.7759     0.2805     0.2805     0.0011     0.0000    -0.0000     0.0000 </r>
      <r>     0.7911     0.2912     0.2912     0.0011     0.0000    -0.0000     0.0000 </r>
      <r>     0.8063     0.3025     0.3025     0.0011     0.0000    -0.0000     0.0000 </r>
      <r>     0.8215     0.3142     0.3142     0.0012     0.0000    -0.0000     0.0000 </r>
      <r>     0.8367     0.3265     0.3265     0.0012     0.0000    -0.0000     0.0000 </r>
      <r>     0.8519     0.3394     0.3394     0.0012     0.0000    -0.0000     0.0000 </r>
      <r>     0.8671     0.3529     0.3529     0.0012     0.0000    -0.0000     0.0000 </r>
      <r>     0.8823     0.3670     0.3670     0.0013     0.0000    -0.0000     0.0000 </r>
      <r>     0.8976     0.3819     0.3819     0.0013     0.0000    -0.0000     0.0000 </r>
      <r>     0.9128     0.3976     0.3976     0.0013     0.0000    -0.0000     0.0000 </r>
      <r>     0.9280     0.4140     0.4140     0.0013     0.0000    -0.0000     0.0000 </r>
      <r>     0.9432     0.4314     0.4314     0.0014     0.0000    -0.0000     0.0000 </r>
      <r>     0.9584     0.4498     0.4498     0.0014     0.0000    -0.0000     0.0000 </r>
      <r>     0.9736     0.4692     0.4692     0.0014     0.0000    -0.0000     0.0000 </r>
      <r>     0.9888     0.4898     0.4898     0.0015     0.0000    -0.0000     0.0000 </r>
      <r>     1.0041     0.5116     0.5116     0.0015     0.0000    -0.0000     0.0000 </r>
      <r>     1.0193     0.5347     0.5347     0.0015     0.0000    -0.0000     0.0000 </r>
      <r>     1.0345     0.5594     0.5594     0.0015     0.0000    -0.0000     0.0000 </r>
      <r>     1.0497     0.5857     0.5857     0.0016     0.0000    -0.0000     0.0000 </r>
      <r>     1.0649     0.6137     0.6137     0.0016     0.0000    -0.0000     0.0000 </r>
      <r>     1.0801     0.6437     0.6437     0.0016     0.0000    -0.0000     0.0000 </r>
      <r>     1.0953     0.6758     0.6758     0.0017     0.0000    -0.0000     0.0000 </r>
      <r>     1.1105     0.7104     0.7104     0.0017     0.0000    -0.0000     0.0000 </r>
      <r>     1.1258     0.7475     0.7475     0.0017     0.0000    -0.0000     0.0000 </r>
      <r>     1.1410     0.7876     0.7876     0.0017     0.0000    -0.0000     0.0000 </r>
      <r>     1.1562     0.8309     0.8309     0.0018     0.0000    -0.0000     0.0000 </r>
      <r>     1.1714     0.8778     0.8778     0.0018     0.0000    -0.0000     0.0000 </r>
      <r>     1.1866     0.9288     0.9288     0.0018     0.0000    -0.0000     0.0000 </r>
      <r>     1.2018     0.9843     0.9843     0.0019     0.0000    -0.0000     0.0000 </r>
      <r>     1.2170     1.0450     1.0450     0.0019     0.0000    -0.0000     0.0000 </r>
      <r>     1.2322     1.1116     1.1116     0.0020     0.0000    -0.0000     0.0000 </r>
      <r>     1.2475     1.1847     1.1847     0.0020     0.0000    -0.0000     0.0000 </r>
      <r>     1.2627     1.2655     1.2655     0.0020     0.0000    -0.0000     0.0000 </r>
      <r>     1.2779     1.3550     1.3550     0.0021     0.0000    -0.0000     0.0000 </r>
      <r>     1.2931     1.4545     1.4545     0.0021     0.0000    -0.0000     0.0000 </r>
      <r>     1.3083     1.5657     1.5657     0.0022     0.0000    -0.0000     0.0000 </r>
      <r>     1.3235     1.6904     1.6904     0.0022     0.0000    -0.0000     0.0000 </r>
      <r>     1.3387     1.8311     1.8311     0.0022     0.0000    -0.0000     0.0000 </r>
      <r>     1.3540     1.9904     1.9904     0.0023     0.0000    -0.0000     0.0000 </r>
      <r>     1.3692     2.1719     2.1719     0.0023     0.0000    -0.0000     0.0000 </r>
      <r>     1.3844     2.3799     2.3799     0.0024     0.0000    -0.0000     0.0000 </r>
      <r>     1.3996     2.6194     2.6194     0.0025     0.0000    -0.0000     0.0000 </r>
      <r>     1.4148     2.8970     2.8970     0.0025     0.0000    -0.0000     0.0000 </r>
      <r>     1.4300     3.2205     3.2205     0.0026     0.0000    -0.0000     0.0000 </r>
      <r>     1.4452     3.5996     3.5996     0.0026     0.0000    -0.0000     0.0000 </r>
      <r>     1.4604     4.0458     4.0458     0.0027     0.0000    -0.0000     0.0000 </r>
      <r>     1.4757     4.5727     4.5727     0.0028     0.0000    -0.0000     0.0000 </r>
      <r>     1.4909     5.1951     5.1951     0.0029     0.0000    -0.0000     0.0000 </r>
      <r>     1.5061     5.9277     5.9277     0.0030     0.0000    -0.0000     0.0000 </r>
      <r>     1.5213     6.7814     6.7814     0.0031     0.0000    -0.0000     0.0000 </r>
      <r>     1.5365     7.7570     7.7570     0.0032     0.0000    -0.0000     0.0000 </r>
      <r>     1.5517     8.8352     8.8352     0.0033     0.0000    -0.0000     0.0000 </r>
      <r>     1.5669     9.9663     9.9663     0.0034     0.0000    -0.0000     0.0000 </r>
      <r>     1.5821    11.0657    11.0657     0.0036     0.0000    -0.0000     0.0000 </r>
      <r>     1.5974    12.0252    12.0252     0.0037     0.0000    -0.0000     0.0000 </r>
      <r>     1.6126    12.7440    12.7440     0.0039     0.0000    -0.0000     0.0000 </r>
      <r>     1.6278    13.1664    13.1664     0.0041     0.0000    -0.0000     0.0000 </r>
      <r>     1.6430    13.2983    13.2983     0.0044     0.0000    -0.0000     0.0000 </r>
      <r>     1.6582    13.1891    13.1891     0.0047     0.0000    -0.0000     0.0000 </r>
      <r>     1.6734    12.8954    12.8954     0.0050     0.0000    -0.0000     0.0000 </r>
      <r>     1.6886    12.4610    12.4610     0.0054     0.0000    -0.0000     0.0000 </r>
      <r>     1.7038    11.9260    11.9260     0.0058     0.0000    -0.0000     0.0000 </r>
      <r>     1.7191    11.3437    11.3437     0.0063     0.0000    -0.0000     0.0000 </r>
      <r>     1.7343    10.7809    10.7809     0.0069     0.0000    -0.0000     0.0000 </r>
      <r>     1.7495    10.3002    10.3002     0.0075     0.0000    -0.0000     0.0000 </r>
      <r>     1.7647     9.9398     9.9398     0.0080     0.0000    -0.0000     0.0000 </r>
      <r>     1.7799     9.7048     9.7048     0.0085     0.0000    -0.0000     0.0000 </r>
      <r>     1.7951     9.5701     9.5701     0.0089     0.0000    -0.0000     0.0000 </r>
      <r>     1.8103     9.4932     9.4932     0.0091     0.0000    -0.0000     0.0000 </r>
      <r>     1.8256     9.4357     9.4357     0.0091     0.0000    -0.0000     0.0000 </r>
      <r>     1.8408     9.3846     9.3846     0.0091     0.0000    -0.0000     0.0000 </r>
      <r>     1.8560     9.3612     9.3612     0.0089     0.0000    -0.0000     0.0000 </r>
      <r>     1.8712     9.4117     9.4117     0.0086     0.0000    -0.0000     0.0000 </r>
      <r>     1.8864     9.5895     9.5895     0.0084     0.0000    -0.0000     0.0000 </r>
      <r>     1.9016     9.9423     9.9423     0.0083     0.0000    -0.0000     0.0000 </r>
      <r>     1.9168    10.5066    10.5066     0.0082     0.0000    -0.0000     0.0000 </r>
      <r>     1.9320    11.3059    11.3059     0.0083     0.0000    -0.0000     0.0000 </r>
      <r>     1.9473    12.3465    12.3465     0.0084     0.0000    -0.0000     0.0000 </r>
      <r>     1.9625    13.6056    13.6056     0.0087     0.0000    -0.0000     0.0000 </r>
      <r>     1.9777    15.0125    15.0125     0.0092     0.0000    -0.0000     0.0000 </r>
      <r>     1.9929    16.4287    16.4287     0.0097     0.0000    -0.0000     0.0000 </r>
      <r>     2.0081    17.6461    17.6461     0.0104     0.0000    -0.0000     0.0000 </r>
      <r>     2.0233    18.4263    18.4263     0.0110     0.0000    -0.0000     0.0000 </r>
      <r>     2.0385    18.5831    18.5831     0.0116     0.0000    -0.0000     0.0000 </r>
      <r>     2.0537    18.0662    18.0662     0.0121     0.0000    -0.0000    -0.0000 </r>
      <r>     2.0690    16.9843    16.9843     0.0124     0.0000    -0.0000    -0.0000 </r>
      <r>     2.0842    15.5491    15.5490     0.0125     0.0000    -0.0000    -0.0000 </r>
      <r>     2.0994    13.9842    13.9842     0.0124     0.0000    -0.0000    -0.0000 </r>
      <r>     2.1146    12.4591    12.4591     0.0122     0.0000    -0.0000    -0.0000 </r>
      <r>     2.1298    11.0683    11.0683     0.0120     0.0000    -0.0000    -0.0000 </r>
      <r>     2.1450     9.8440     9.8440     0.0117     0.0000    -0.0000    -0.0000 </r>
      <r>     2.1602     8.7826     8.7826     0.0114     0.0000    -0.0000    -0.0000 </r>
      <r>     2.1754     7.8679     7.8679     0.0110     0.0000    -0.0000    -0.0000 </r>
      <r>     2.1907     7.0850     7.0850     0.0105     0.0000    -0.0000    -0.0000 </r>
      <r>     2.2059     6.4240     6.4240     0.0099     0.0000    -0.0000    -0.0000 </r>
      <r>     2.2211     5.8776     5.8776     0.0094     0.0000    -0.0000    -0.0000 </r>
      <r>     2.2363     5.4388     5.4388     0.0089     0.0000    -0.0000    -0.0000 </r>
      <r>     2.2515     5.0992     5.0992     0.0085     0.0000    -0.0000    -0.0000 </r>
      <r>     2.2667     4.8490     4.8490     0.0082     0.0000    -0.0000    -0.0000 </r>
      <r>     2.2819     4.6762     4.6762     0.0080     0.0000    -0.0000    -0.0000 </r>
      <r>     2.2972     4.5653     4.5653     0.0078     0.0000    -0.0000    -0.0000 </r>
      <r>     2.3124     4.4971     4.4971     0.0077     0.0000    -0.0000    -0.0000 </r>
      <r>     2.3276     4.4496     4.4496     0.0077     0.0000    -0.0000    -0.0000 </r>
      <r>     2.3428     4.4028     4.4028     0.0077     0.0000    -0.0000    -0.0000 </r>
      <r>     2.3580     4.3435     4.3435     0.0079     0.0000    -0.0000    -0.0000 </r>
      <r>     2.3732     4.2676     4.2676     0.0081     0.0000    -0.0000    -0.0000 </r>
      <r>     2.3884     4.1759     4.1759     0.0083     0.0000    -0.0000    -0.0000 </r>
      <r>     2.4036     4.0693     4.0693     0.0087     0.0000    -0.0000    -0.0000 </r>
      <r>     2.4189     3.9470     3.9470     0.0091     0.0000    -0.0000    -0.0000 </r>
      <r>     2.4341     3.8092     3.8092     0.0096     0.0000    -0.0000    -0.0000 </r>
      <r>     2.4493     3.6619     3.6619     0.0103     0.0000    -0.0000    -0.0000 </r>
      <r>     2.4645     3.5170     3.5170     0.0111     0.0000    -0.0000    -0.0000 </r>
      <r>     2.4797     3.3886     3.3886     0.0121     0.0000    -0.0000    -0.0000 </r>
      <r>     2.4949     3.2883     3.2883     0.0132     0.0000    -0.0000    -0.0000 </r>
      <r>     2.5101     3.2204     3.2204     0.0144     0.0000    -0.0000    -0.0000 </r>
      <r>     2.5253     3.1819     3.1819     0.0157     0.0000     0.0000    -0.0000 </r>
      <r>     2.5406     3.1630     3.1630     0.0170     0.0000     0.0000    -0.0000 </r>
      <r>     2.5558     3.1521     3.1521     0.0180     0.0000     0.0000    -0.0000 </r>
      <r>     2.5710     3.1405     3.1405     0.0187     0.0000     0.0000    -0.0000 </r>
      <r>     2.5862     3.1257     3.1257     0.0189     0.0000     0.0000    -0.0000 </r>
      <r>     2.6014     3.1097     3.1097     0.0186     0.0000     0.0000    -0.0000 </r>
      <r>     2.6166     3.0942     3.0942     0.0180     0.0000     0.0000    -0.0000 </r>
      <r>     2.6318     3.0767     3.0767     0.0173     0.0000     0.0000    -0.0000 </r>
      <r>     2.6470     3.0495     3.0495     0.0167     0.0000     0.0000    -0.0000 </r>
      <r>     2.6623     3.0018     3.0018     0.0161     0.0000     0.0000    -0.0000 </r>
      <r>     2.6775     2.9256     2.9256     0.0157     0.0000     0.0000    -0.0000 </r>
      <r>     2.6927     2.8213     2.8213     0.0154     0.0000     0.0000    -0.0000 </r>
      <r>     2.7079     2.6995     2.6995     0.0151     0.0000     0.0000    -0.0000 </r>
      <r>     2.7231     2.5770     2.5770     0.0148     0.0000     0.0000    -0.0000 </r>
      <r>     2.7383     2.4711     2.4711     0.0143     0.0000     0.0000    -0.0000 </r>
      <r>     2.7535     2.3947     2.3947     0.0137     0.0000     0.0000    -0.0000 </r>
      <r>     2.7688     2.3557     2.3557     0.0130     0.0000     0.0000    -0.0000 </r>
      <r>     2.7840     2.3581     2.3581     0.0123     0.0000    -0.0000    -0.0000 </r>
      <r>     2.7992     2.4021     2.4021     0.0117     0.0000    -0.0000    -0.0000 </r>
      <r>     2.8144     2.4842     2.4842     0.0111     0.0000    -0.0000    -0.0000 </r>
      <r>     2.8296     2.5953     2.5953     0.0107     0.0000    -0.0000    -0.0000 </r>
      <r>     2.8448     2.7194     2.7194     0.0103     0.0000    -0.0000    -0.0000 </r>
      <r>     2.8600     2.8330     2.8330     0.0100     0.0000    -0.0000    -0.0000 </r>
      <r>     2.8752     2.9100     2.9100     0.0098     0.0000    -0.0000    -0.0000 </r>
      <r>     2.8905     2.9296     2.9296     0.0097     0.0000    -0.0000    -0.0000 </r>
      <r>     2.9057     2.8836     2.8836     0.0096     0.0000    -0.0000    -0.0000 </r>
      <r>     2.9209     2.7772     2.7772     0.0096     0.0000    -0.0000    -0.0000 </r>
      <r>     2.9361     2.6236     2.6236     0.0097     0.0000    -0.0000    -0.0000 </r>
      <r>     2.9513     2.4379     2.4379     0.0098     0.0000    -0.0000    -0.0000 </r>
      <r>     2.9665     2.2351     2.2351     0.0100     0.0000    -0.0000    -0.0000 </r>
      <r>     2.9817     2.0290     2.0290     0.0102     0.0000    -0.0000    -0.0000 </r>
      <r>     2.9969     1.8315     1.8315     0.0105     0.0000    -0.0000    -0.0000 </r>
      <r>     3.0122     1.6511     1.6511     0.0109     0.0000    -0.0000    -0.0000 </r>
      <r>     3.0274     1.4921     1.4921     0.0113     0.0000    -0.0000    -0.0000 </r>
      <r>     3.0426     1.3555     1.3555     0.0119     0.0000    -0.0000    -0.0000 </r>
      <r>     3.0578     1.2403     1.2403     0.0125     0.0000    -0.0000    -0.0000 </r>
      <r>     3.0730     1.1444     1.1444     0.0133     0.0000    -0.0000    -0.0000 </r>
      <r>     3.0882     1.0654     1.0654     0.0143     0.0000    -0.0000    -0.0000 </r>
      <r>     3.1034     1.0013     1.0013     0.0154     0.0000    -0.0000    -0.0000 </r>
      <r>     3.1186     0.9503     0.9503     0.0167     0.0000    -0.0000    -0.0000 </r>
      <r>     3.1339     0.9111     0.9111     0.0183     0.0000    -0.0000    -0.0000 </r>
      <r>     3.1491     0.8826     0.8826     0.0201     0.0000    -0.0000    -0.0000 </r>
      <r>     3.1643     0.8644     0.8644     0.0222     0.0000    -0.0000    -0.0000 </r>
      <r>     3.1795     0.8560     0.8560     0.0243     0.0000    -0.0000    -0.0000 </r>
      <r>     3.1947     0.8574     0.8574     0.0265     0.0000     0.0000    -0.0000 </r>
      <r>     3.2099     0.8683     0.8683     0.0284     0.0000     0.0000    -0.0000 </r>
      <r>     3.2251     0.8880     0.8880     0.0299     0.0000     0.0000    -0.0000 </r>
      <r>     3.2404     0.9148     0.9148     0.0308     0.0000     0.0000    -0.0000 </r>
      <r>     3.2556     0.9460     0.9460     0.0310     0.0000     0.0000    -0.0000 </r>
      <r>     3.2708     0.9776     0.9776     0.0304     0.0000     0.0000    -0.0000 </r>
      <r>     3.2860     1.0058     1.0058     0.0293     0.0000     0.0000    -0.0000 </r>
      <r>     3.3012     1.0279     1.0279     0.0279     0.0000     0.0000    -0.0000 </r>
      <r>     3.3164     1.0435     1.0435     0.0264     0.0000     0.0000    -0.0000 </r>
      <r>     3.3316     1.0532     1.0532     0.0250    -0.0000     0.0000    -0.0000 </r>
      <r>     3.3468     1.0562     1.0562     0.0238    -0.0000     0.0000    -0.0000 </r>
      <r>     3.3621     1.0503     1.0503     0.0230    -0.0000     0.0000    -0.0000 </r>
      <r>     3.3773     1.0318     1.0318     0.0225    -0.0000     0.0000    -0.0000 </r>
      <r>     3.3925     0.9991     0.9991     0.0223    -0.0000     0.0000    -0.0000 </r>
      <r>     3.4077     0.9537     0.9537     0.0223    -0.0000     0.0000    -0.0000 </r>
      <r>     3.4229     0.9003     0.9003     0.0223    -0.0000     0.0000    -0.0000 </r>
      <r>     3.4381     0.8444     0.8444     0.0224    -0.0000     0.0000    -0.0000 </r>
      <r>     3.4533     0.7908     0.7908     0.0223    -0.0000     0.0000    -0.0000 </r>
      <r>     3.4685     0.7422     0.7422     0.0221    -0.0000     0.0000    -0.0000 </r>
      <r>     3.4838     0.6999     0.6999     0.0217     0.0000     0.0000    -0.0000 </r>
      <r>     3.4990     0.6643     0.6643     0.0213     0.0000     0.0000    -0.0000 </r>
      <r>     3.5142     0.6354     0.6354     0.0209    -0.0000     0.0000    -0.0000 </r>
      <r>     3.5294     0.6132     0.6132     0.0206    -0.0000     0.0000    -0.0000 </r>
      <r>     3.5446     0.5974     0.5974     0.0205    -0.0000     0.0000    -0.0000 </r>
      <r>     3.5598     0.5872     0.5872     0.0204    -0.0000     0.0000    -0.0000 </r>
      <r>     3.5750     0.5813     0.5813     0.0205    -0.0000     0.0000    -0.0000 </r>
      <r>     3.5903     0.5777     0.5777     0.0207    -0.0000     0.0000    -0.0000 </r>
      <r>     3.6055     0.5740     0.5740     0.0211    -0.0000     0.0000    -0.0000 </r>
      <r>     3.6207     0.5685     0.5685     0.0215    -0.0000     0.0000    -0.0000 </r>
      <r>     3.6359     0.5604     0.5604     0.0222    -0.0000     0.0000    -0.0000 </r>
      <r>     3.6511     0.5506     0.5506     0.0229    -0.0000     0.0000    -0.0000 </r>
      <r>     3.6663     0.5409     0.5409     0.0237    -0.0000     0.0000    -0.0000 </r>
      <r>     3.6815     0.5335     0.5335     0.0246    -0.0000     0.0000    -0.0000 </r>
      <r>     3.6967     0.5302     0.5302     0.0254    -0.0000     0.0000    -0.0000 </r>
      <r>     3.7120     0.5322     0.5322     0.0262    -0.0000     0.0000    -0.0000 </r>
      <r>     3.7272     0.5403     0.5403     0.0270    -0.0000     0.0000    -0.0000 </r>
      <r>     3.7424     0.5553     0.5553     0.0280    -0.0000     0.0000    -0.0000 </r>
      <r>     3.7576     0.5772     0.5772     0.0292    -0.0000     0.0000    -0.0000 </r>
      <r>     3.7728     0.6061     0.6061     0.0307    -0.0000     0.0000    -0.0000 </r>
      <r>     3.7880     0.6410     0.6410     0.0325    -0.0000     0.0000    -0.0000 </r>
      <r>     3.8032     0.6795     0.6795     0.0344    -0.0000     0.0000    -0.0000 </r>
      <r>     3.8184     0.7177     0.7177     0.0364    -0.0000     0.0000    -0.0000 </r>
      <r>     3.8337     0.7500     0.7500     0.0383    -0.0000     0.0000    -0.0000 </r>
      <r>     3.8489     0.7710     0.7710     0.0397    -0.0000     0.0000    -0.0000 </r>
      <r>     3.8641     0.7771     0.7771     0.0407    -0.0000     0.0000    -0.0000 </r>
      <r>     3.8793     0.7681     0.7681     0.0413    -0.0000     0.0000    -0.0000 </r>
      <r>     3.8945     0.7471     0.7471     0.0417    -0.0000     0.0000    -0.0000 </r>
      <r>     3.9097     0.7182     0.7182     0.0420    -0.0000     0.0000    -0.0000 </r>
      <r>     3.9249     0.6857     0.6857     0.0424    -0.0000     0.0000    -0.0000 </r>
      <r>     3.9401     0.6529     0.6529     0.0431    -0.0000     0.0000    -0.0000 </r>
      <r>     3.9554     0.6224     0.6224     0.0439    -0.0000     0.0000    -0.0000 </r>
      <r>     3.9706     0.5961     0.5961     0.0451    -0.0000     0.0000    -0.0000 </r>
      <r>     3.9858     0.5754     0.5754     0.0463    -0.0000     0.0000    -0.0000 </r>
      <r>     4.0010     0.5607     0.5607     0.0475    -0.0000     0.0000    -0.0000 </r>
      <r>     4.0162     0.5520     0.5520     0.0486    -0.0000     0.0000    -0.0000 </r>
      <r>     4.0314     0.5487     0.5487     0.0494    -0.0000     0.0000    -0.0000 </r>
      <r>     4.0466     0.5500     0.5500     0.0497    -0.0000     0.0000    -0.0000 </r>
      <r>     4.0619     0.5550     0.5550     0.0496    -0.0000     0.0000    -0.0000 </r>
      <r>     4.0771     0.5632     0.5632     0.0491    -0.0000     0.0000    -0.0000 </r>
      <r>     4.0923     0.5747     0.5747     0.0481    -0.0000     0.0000    -0.0000 </r>
      <r>     4.1075     0.5903     0.5903     0.0470    -0.0000     0.0000    -0.0000 </r>
      <r>     4.1227     0.6111     0.6111     0.0459    -0.0000     0.0000    -0.0000 </r>
      <r>     4.1379     0.6384     0.6384     0.0449    -0.0000     0.0000    -0.0000 </r>
      <r>     4.1531     0.6734     0.6734     0.0441    -0.0000     0.0000    -0.0000 </r>
      <r>     4.1683     0.7169     0.7169     0.0434    -0.0000     0.0000    -0.0000 </r>
      <r>     4.1836     0.7692     0.7692     0.0428    -0.0000     0.0000    -0.0000 </r>
      <r>     4.1988     0.8298     0.8298     0.0421    -0.0000     0.0000    -0.0000 </r>
      <r>     4.2140     0.8970     0.8970     0.0413    -0.0000     0.0000    -0.0000 </r>
      <r>     4.2292     0.9682     0.9682     0.0406    -0.0000     0.0000    -0.0000 </r>
      <r>     4.2444     1.0405     1.0405     0.0401    -0.0000     0.0000    -0.0000 </r>
      <r>     4.2596     1.1120     1.1120     0.0399    -0.0000     0.0000    -0.0000 </r>
      <r>     4.2748     1.1825     1.1825     0.0401    -0.0000     0.0000    -0.0000 </r>
      <r>     4.2900     1.2531     1.2531     0.0408    -0.0000     0.0000    -0.0000 </r>
      <r>     4.3053     1.3241     1.3241     0.0420    -0.0000     0.0000    -0.0000 </r>
      <r>     4.3205     1.3949     1.3949     0.0437    -0.0000     0.0000    -0.0000 </r>
      <r>     4.3357     1.4642     1.4642     0.0459    -0.0000     0.0000    -0.0000 </r>
      <r>     4.3509     1.5320     1.5320     0.0485    -0.0000     0.0000    -0.0000 </r>
      <r>     4.3661     1.5988     1.5988     0.0513    -0.0000     0.0000    -0.0000 </r>
      <r>     4.3813     1.6644     1.6644     0.0540    -0.0000    -0.0000    -0.0000 </r>
      <r>     4.3965     1.7251     1.7251     0.0564    -0.0000    -0.0000    -0.0000 </r>
      <r>     4.4117     1.7746     1.7746     0.0584    -0.0000    -0.0000    -0.0000 </r>
      <r>     4.4270     1.8062     1.8062     0.0598    -0.0000    -0.0000    -0.0000 </r>
      <r>     4.4422     1.8181     1.8181     0.0608    -0.0000    -0.0000    -0.0000 </r>
      <r>     4.4574     1.8156     1.8156     0.0613    -0.0000    -0.0000    -0.0000 </r>
      <r>     4.4726     1.8099     1.8099     0.0614    -0.0000    -0.0000    -0.0000 </r>
[...]
       <r>     8.0664    13.0627    54.0785 </r>
       <r>     8.0804    13.2159    54.2628 </r>
       <r>     8.0943     3.0285    54.3050 </r>
       <r>     8.1083     1.6932    54.3287 </r>
       <r>     8.1222     6.6823    54.4218 </r>
       <r>     8.1362    12.0929    54.5905 </r>
       <r>     8.1501     5.2050    54.6631 </r>
       <r>     8.1641     7.1625    54.7629 </r>
       <r>     8.1780     8.3528    54.8794 </r>
       <r>     8.1920     9.8770    55.0172 </r>
       <r>     8.2059    13.2280    55.2016 </r>
       <r>     8.2198    10.1731    55.3435 </r>
       <r>     8.2338    10.8696    55.4951 </r>
       <r>     8.2477    15.1560    55.7064 </r>
       <r>     8.2617     6.0666    55.7910 </r>
       <r>     8.2756     1.0313    55.8054 </r>
       <r>     8.2896     0.0105    55.8056 </r>
       <r>     8.3035     0.0000    55.8056 </r>
       <r>     8.3175     0.0442    55.8062 </r>
       <r>     8.3314     3.2330    55.8513 </r>
       <r>     8.3453    11.0998    56.0060 </r>
       <r>     8.3593     7.2295    56.1069 </r>
       <r>     8.3732    10.0257    56.2467 </r>
       <r>     8.3872    10.2602    56.3898 </r>
       <r>     8.4011    14.1167    56.5866 </r>
       <r>     8.4151     5.1933    56.6590 </r>
       <r>     8.4290    10.0066    56.7986 </r>
       <r>     8.4430     8.4307    56.9161 </r>
       <r>     8.4569     1.0251    56.9304 </r>
       <r>     8.4709     0.0083    56.9306 </r>
       <r>     8.4848     0.0000    56.9306 </r>
       <r>     8.4987     0.0103    56.9307 </r>
       <r>     8.5127     1.4503    56.9509 </r>
       <r>     8.5266    10.6915    57.1000 </r>
       <r>     8.5406     6.6215    57.1924 </r>
       <r>     8.5545     5.0810    57.2632 </r>
       <r>     8.5685     8.9458    57.3880 </r>
       <r>     8.5824    10.0928    57.5287 </r>
       <r>     8.5964     7.0592    57.6271 </r>
       <r>     8.6103     9.3715    57.7578 </r>
       <r>     8.6243     7.3469    57.8603 </r>
       <r>     8.6382    13.4872    58.0484 </r>
       <r>     8.6521    14.2897    58.2476 </r>
       <r>     8.6661     9.4370    58.3792 </r>
       <r>     8.6800    12.9625    58.5600 </r>
       <r>     8.6940    12.7796    58.7382 </r>
       <r>     8.7079     9.5114    58.8709 </r>
       <r>     8.7219     8.9703    58.9960 </r>
       <r>     8.7358     8.6547    59.1166 </r>
       <r>     8.7498    12.1239    59.2857 </r>
       <r>     8.7637     6.4826    59.3761 </r>
       <r>     8.7776     2.6526    59.4131 </r>
       <r>     8.7916     0.2543    59.4167 </r>
       <r>     8.8055     0.0608    59.4175 </r>
       <r>     8.8195     2.0998    59.4468 </r>
       <r>     8.8334     3.7899    59.4996 </r>
       <r>     8.8474     6.4707    59.5899 </r>
       <r>     8.8613     9.5103    59.7225 </r>
       <r>     8.8753     1.9404    59.7495 </r>
       <r>     8.8892     0.1183    59.7512 </r>
       <r>     8.9032     2.3972    59.7846 </r>
       <r>     8.9171     3.8171    59.8379 </r>
       <r>     8.9310     4.1392    59.8956 </r>
       <r>     8.9450     3.5772    59.9455 </r>
       <r>     8.9589     8.0963    60.0584 </r>
       <r>     8.9729     1.7752    60.0831 </r>
       <r>     8.9868     0.1248    60.0849 </r>
       <r>     9.0008     0.6746    60.0943 </r>
       <r>     9.0147     2.4341    60.1282 </r>
       <r>     9.0287    14.8494    60.3353 </r>
       <r>     9.0426     6.8598    60.4310 </r>
       <r>     9.0566     3.3694    60.4779 </r>
       <r>     9.0705     7.7799    60.5864 </r>
       <r>     9.0844    14.0795    60.7828 </r>
       <r>     9.0984    10.1970    60.9250 </r>
       <r>     9.1123     5.3546    60.9996 </r>
       <r>     9.1263     1.1175    61.0152 </r>
       <r>     9.1402     3.4395    61.0632 </r>
       <r>     9.1542    12.4183    61.2364 </r>
       <r>     9.1681    10.2283    61.3790 </r>
       <r>     9.1821     7.0924    61.4779 </r>
       <r>     9.1960     1.0787    61.4930 </r>
       <r>     9.2099     6.6191    61.5853 </r>
       <r>     9.2239     6.8213    61.6804 </r>
       <r>     9.2378    13.7824    61.8726 </r>
       <r>     9.2518    12.3925    62.0454 </r>
       <r>     9.2657     5.4235    62.1210 </r>
       <r>     9.2797     3.9516    62.1761 </r>
       <r>     9.2936    11.7804    62.3404 </r>
       <r>     9.3076     4.6787    62.4057 </r>
       <r>     9.3215     3.9233    62.4604 </r>
       <r>     9.3355     1.8534    62.4862 </r>
       <r>     9.3494     3.0565    62.5288 </r>
       <r>     9.3633    10.3591    62.6733 </r>
       <r>     9.3773     4.6082    62.7376 </r>
       <r>     9.3912     3.8477    62.7912 </r>
       <r>     9.4052     8.8708    62.9149 </r>
       <r>     9.4191    15.0159    63.1243 </r>
       <r>     9.4331     2.0372    63.1527 </r>
       <r>     9.4470     1.5666    63.1746 </r>
       <r>     9.4610    14.3660    63.3749 </r>
       <r>     9.4749    15.6380    63.5930 </r>
       <r>     9.4889    11.1490    63.7485 </r>
       <r>     9.5028    14.7845    63.9546 </r>
       <r>     9.5167    14.8355    64.1615 </r>
       <r>     9.5307     7.7144    64.2691 </r>
       <r>     9.5446     3.0700    64.3119 </r>
       <r>     9.5586     3.9338    64.3668 </r>
       <r>     9.5725     0.5869    64.3750 </r>
       <r>     9.5865     0.0033    64.3750 </r>
       <r>     9.6004     0.0000    64.3750 </r>
       <r>     9.6144     0.0000    64.3750 </r>
       <r>     9.6283     0.0000    64.3750 </r>
       <r>     9.6422     0.0366    64.3755 </r>
       <r>     9.6562     1.7533    64.4000 </r>
       <r>     9.6701     4.9800    64.4694 </r>
       <r>     9.6841     8.1193    64.5826 </r>
       <r>     9.6980    14.2717    64.7817 </r>
       <r>     9.7120    17.9105    65.0314 </r>
       <r>     9.7259    10.5889    65.1791 </r>
       <r>     9.7399     8.5604    65.2985 </r>
       <r>     9.7538     5.3728    65.3734 </r>
       <r>     9.7678     5.7760    65.4539 </r>
       <r>     9.7817    15.4277    65.6691 </r>
       <r>     9.7956     3.6953    65.7206 </r>
       <r>     9.8096    10.1100    65.8616 </r>
       <r>     9.8235     6.6940    65.9549 </r>
       <r>     9.8375     0.6519    65.9640 </r>
       <r>     9.8514     4.0997    66.0212 </r>
       <r>     9.8654     5.5350    66.0984 </r>
       <r>     9.8793     1.8669    66.1244 </r>
       <r>     9.8933     0.2154    66.1274 </r>
       <r>     9.9072     6.2489    66.2146 </r>
       <r>     9.9212    14.7436    66.4202 </r>
       <r>     9.9351     2.7224    66.4581 </r>
       <r>     9.9490     1.1657    66.4744 </r>
       <r>     9.9630     4.0922    66.5315 </r>
       <r>     9.9769     4.2790    66.5911 </r>
       <r>     9.9909     7.5089    66.6958 </r>
       <r>    10.0048     0.8917    66.7083 </r>
       <r>    10.0188     0.0234    66.7086 </r>
       <r>    10.0327     0.8929    66.7211 </r>
       <r>    10.0467     1.8638    66.7470 </r>
       <r>    10.0606     0.9502    66.7603 </r>
       <r>    10.0746     7.2386    66.8612 </r>
       <r>    10.0885     3.8777    66.9153 </r>
       <r>    10.1024     0.0966    66.9167 </r>
       <r>    10.1164     0.0051    66.9167 </r>
       <r>    10.1303     1.1032    66.9321 </r>
       <r>    10.1443    10.4579    67.0780 </r>
       <r>    10.1582     6.1938    67.1643 </r>
       <r>    10.1722     1.7043    67.1881 </r>
       <r>    10.1861     3.8809    67.2422 </r>
       <r>    10.2001     0.5966    67.2505 </r>
       <r>    10.2140     1.8956    67.2770 </r>
       <r>    10.2279     7.0187    67.3749 </r>
       <r>    10.2419     9.6769    67.5098 </r>
       <r>    10.2558     4.8898    67.5780 </r>
       <r>    10.2698     5.7031    67.6575 </r>
       <r>    10.2837    14.0779    67.8538 </r>
       <r>    10.2977     4.3427    67.9144 </r>
       <r>    10.3116     0.1756    67.9168 </r>
       <r>    10.3256     0.3879    67.9223 </r>
       <r>    10.3395     0.9889    67.9360 </r>
       <r>    10.3535     6.4356    68.0258 </r>
       <r>    10.3674     5.6181    68.1041 </r>
       <r>    10.3813     4.3973    68.1655 </r>
       <r>    10.3953     6.5375    68.2566 </r>
       <r>    10.4092    13.3375    68.4426 </r>
       <r>    10.4232     9.1690    68.5705 </r>
       <r>    10.4371     1.8825    68.5967 </r>
       <r>    10.4511     0.1212    68.5984 </r>
       <r>    10.4650     4.1295    68.6560 </r>
       <r>    10.4790    12.6299    68.8321 </r>
       <r>    10.4929     9.9737    68.9712 </r>
       <r>    10.5069     3.0091    69.0132 </r>
       <r>    10.5208     0.0532    69.0139 </r>
       <r>    10.5347     0.7352    69.0242 </r>
       <r>    10.5487     7.2381    69.1251 </r>
       <r>    10.5626     4.6199    69.1895 </r>
       <r>    10.5766     8.6359    69.3100 </r>
       <r>    10.5905    12.2735    69.4811 </r>
       <r>    10.6045     9.9392    69.6197 </r>
       <r>    10.6184     4.2455    69.6789 </r>
       <r>    10.6324     0.3424    69.6837 </r>
       <r>    10.6463     3.2261    69.7287 </r>
       <r>    10.6602     2.4344    69.7626 </r>
       <r>    10.6742     0.2698    69.7664 </r>
       <r>    10.6881     1.2886    69.7844 </r>
       <r>    10.7021     0.5137    69.7915 </r>
       <r>    10.7160     0.0091    69.7917 </r>
       <r>    10.7300     0.0069    69.7918 </r>
       <r>    10.7439     0.9097    69.8044 </r>
       <r>    10.7579     8.1564    69.9182 </r>
       <r>    10.7718     6.5277    70.0092 </r>
       <r>    10.7858     0.4735    70.0158 </r>
       <r>    10.7997     3.0097    70.0578 </r>
       <r>    10.8136     6.1577    70.1437 </r>
       <r>    10.8276     7.0822    70.2424 </r>
       <r>    10.8415     6.9424    70.3392 </r>
       <r>    10.8555     0.5706    70.3472 </r>
       <r>    10.8694     0.0016    70.3472 </r>
       <r>    10.8834     0.0025    70.3473 </r>
       <r>    10.8973     0.7083    70.3571 </r>
       <r>    10.9113     7.1803    70.4573 </r>
       <r>    10.9252     4.2954    70.5172 </r>
       <r>    10.9392     3.6515    70.5681 </r>
       <r>    10.9531     2.0345    70.5965 </r>
       <r>    10.9670     0.0548    70.5972 </r>
       <r>    10.9810     0.0005    70.5972 </r>
       <r>    10.9949     0.2808    70.6011 </r>
       <r>    11.0089     5.6301    70.6797 </r>
       <r>    11.0228     5.7522    70.7599 </r>
       <r>    11.0368     1.8449    70.7856 </r>
       <r>    11.0507     8.1058    70.8986 </r>
       <r>    11.0647     5.9972    70.9823 </r>
       <r>    11.0786     7.7321    71.0901 </r>
       <r>    11.0925     3.0707    71.1329 </r>
       <r>    11.1065     4.1147    71.1903 </r>
       <r>    11.1204     2.9912    71.2320 </r>
       <r>    11.1344     7.3662    71.3347 </r>
       <r>    11.1483     3.7923    71.3876 </r>
       <r>    11.1623     0.0911    71.3889 </r>
       <r>    11.1762     0.0001    71.3889 </r>
       <r>    11.1902     0.0000    71.3889 </r>
       <r>    11.2041     0.0002    71.3889 </r>
       <r>    11.2181     0.1182    71.3905 </r>
       <r>    11.2320     2.6658    71.4277 </r>
       <r>    11.2459     3.0147    71.4698 </r>
       <r>    11.2599     0.1766    71.4722 </r>
       <r>    11.2738     0.0044    71.4723 </r>
       <r>    11.2878     0.8352    71.4839 </r>
       <r>    11.3017     7.2066    71.5844 </r>
       <r>    11.3157     6.1021    71.6695 </r>
       <r>    11.3296     4.6487    71.7343 </r>
       <r>    11.3436     1.1100    71.7498 </r>
       <r>    11.3575     0.0126    71.7500 </r>
       <r>    11.3715     0.0000    71.7500 </r>
       <r>    11.3854     0.0000    71.7500 </r>
       <r>    11.3993     0.0000    71.7500 </r>
       <r>    11.4133     0.0000    71.7500 </r>
       <r>    11.4272     0.0000    71.7500 </r>
       <r>    11.4412     0.0000    71.7500 </r>
       <r>    11.4551     0.0000    71.7500 </r>
       <r>    11.4691     0.0000    71.7500 </r>
       <r>    11.4830     0.0000    71.7500 </r>
       <r>    11.4970     0.0000    71.7500 </r>
       <r>    11.5109     0.0000    71.7500 </r>
       <r>    11.5248     0.0000    71.7500 </r>
       <r>    11.5388     0.0000    71.7500 </r>
       <r>    11.5527     0.0000    71.7500 </r>
       <r>    11.5667     0.0000    71.7500 </r>
       <r>    11.5806     0.0000    71.7500 </r>
       <r>    11.5946     0.0000    71.7500 </r>
       <r>    11.6085     0.0000    71.7500 </r>
       <r>    11.6225     0.0000    71.7500 </r>
       <r>    11.6364     0.0000    71.7500 </r>
       <r>    11.6504     0.0000    71.7500 </r>
       <r>    11.6643     0.0000    71.7500 </r>
       <r>    11.6782     0.0000    71.7500 </r>
       <r>    11.6922     0.0000    71.7500 </r>
       <r>    11.7061     0.0000    71.7500 </r>
       <r>    11.7201     0.0176    71.7502 </r>
       <r>    11.7340     1.2816    71.7681 </r>
       <r>    11.7480     3.9786    71.8236 </r>
       <r>    11.7619     0.6932    71.8333 </r>
       <r>    11.7759     0.0047    71.8333 </r>
       <r>    11.7898     0.0000    71.8333 </r>
       <r>    11.8038     0.0000    71.8333 </r>
       <r>    11.8177     0.0000    71.8333 </r>
       <r>    11.8316     0.0000    71.8333 </r>
       <r>    11.8456     0.0007    71.8333 </r>
       <r>    11.8595     0.3565    71.8383 </r>
       <r>    11.8735     6.0455    71.9226 </r>
       <r>    11.8874     5.3145    71.9967 </r>
       <r>    11.9014     0.2341    72.0000 </r>
       <r>    11.9153     0.0003    72.0000 </r>
       <r>    11.9293     0.0000    72.0000 </r>
       <r>    11.9432     0.0000    72.0000 </r>
       <r>    11.9571     0.0000    72.0000 </r>
       <r>    11.9711     0.0000    72.0000 </r>
       <r>    11.9850     0.0000    72.0000 </r>
       <r>    11.9990     0.0000    72.0000 </r>
       <r>    12.0129     0.0000    72.0000 </r>
       <r>    12.0269     0.0000    72.0000 </r>
       <r>    12.0408     0.0000    72.0000 </r>
       <r>    12.0548     0.0000    72.0000 </r>
       <r>    12.0687     0.0000    72.0000 </r>
       <r>    12.0827     0.0000    72.0000 </r>
       <r>    12.0966     0.0000    72.0000 </r>
       <r>    12.1105     0.0000    72.0000 </r>
       <r>    12.1245     0.0000    72.0000 </r>
       <r>    12.1384     0.0000    72.0000 </r>
       <r>    12.1524     0.0000    72.0000 </r>
       <r>    12.1663     0.0000    72.0000 </r>
       <r>    12.1803     0.0000    72.0000 </r>
       <r>    12.1942     0.0000    72.0000 </r>
       <r>    12.2082     0.0000    72.0000 </r>
       <r>    12.2221     0.0000    72.0000 </r>
       <r>    12.2361     0.0000    72.0000 </r>
       <r>    12.2500     0.0000    72.0000 </r>
       <r>    12.2639     0.0000    72.0000 </r>
       <r>    12.2779     0.0000    72.0000 </r>
       <r>    12.2918     0.0000    72.0000 </r>
       <r>    12.3058     0.0000    72.0000 </r>
       <r>    12.3197     0.0000    72.0000 </r>
       <r>    12.3337     0.0000    72.0000 </r>
       <r>    12.3476     0.0000    72.0000 </r>
       <r>    12.3616     0.0000    72.0000 </r>
       <r>    12.3755     0.0000    72.0000 </r>
       <r>    12.3895     0.0000    72.0000 </r>
       <r>    12.4034     0.0000    72.0000 </r>
       <r>    12.4173     0.0000    72.0000 </r>
       <r>    12.4313     0.0000    72.0000 </r>
       <r>    12.4452     0.0000    72.0000 </r>
       <r>    12.4592     0.0000    72.0000 </r>
       <r>    12.4731     0.0000    72.0000 </r>
       <r>    12.4871     0.0000    72.0000 </r>
       <r>    12.5010     0.0000    72.0000 </r>
       <r>    12.5150     0.0000    72.0000 </r>
       <r>    12.5289     0.0000    72.0000 </r>
       <r>    12.5428     0.0000    72.0000 </r>
       <r>    12.5568     0.0000    72.0000 </r>
       <r>    12.5707     0.0000    72.0000 </r>
       <r>    12.5847     0.0000    72.0000 </r>
       <r>    12.5986     0.0000    72.0000 </r>
       <r>    12.6126     0.0000    72.0000 </r>
       <r>    12.6265     0.0000    72.0000 </r>
       <r>    12.6405     0.0000    72.0000 </r>
       <r>    12.6544     0.0000    72.0000 </r>
       <r>    12.6684     0.0000    72.0000 </r>
       <r>    12.6823     0.0000    72.0000 </r>
       <r>    12.6962     0.0000    72.0000 </r>
       <r>    12.7102     0.0000    72.0000 </r>
       <r>    12.7241     0.0000    72.0000 </r>
       <r>    12.7381     0.0000    72.0000 </r>
       <r>    12.7520     0.0000    72.0000 </r>
       <r>    12.7660     0.0000    72.0000 </r>
       <r>    12.7799     0.0000    72.0000 </r>
       <r>    12.7939     0.0000    72.0000 </r>
       <r>    12.8078     0.0000    72.0000 </r>
       <r>    12.8218     0.0000    72.0000 </r>
       <r>    12.8357     0.0000    72.0000 </r>
       <r>    12.8496     0.0000    72.0000 </r>
       <r>    12.8636     0.0000    72.0000 </r>
       <r>    12.8775     0.0000    72.0000 </r>
       <r>    12.8915     0.0000    72.0000 </r>
       <r>    12.9054     0.0000    72.0000 </r>
       <r>    12.9194     0.0000    72.0000 </r>
       <r>    12.9333     0.0000    72.0000 </r>
       <r>    12.9473     0.0000    72.0000 </r>
       <r>    12.9612     0.0000    72.0000 </r>
       <r>    12.9751     0.0000    72.0000 </r>
       <r>    12.9891     0.0000    72.0000 </r>
       <r>    13.0030     0.0000    72.0000 </r>
       <r>    13.0170     0.0000    72.0000 </r>
       <r>    13.0309     0.0000    72.0000 </r>
       <r>    13.0449     0.0000    72.0000 </r>
       <r>    13.0588     0.0000    72.0000 </r>
       <r>    13.0728     0.0000    72.0000 </r>
       <r>    13.0867     0.0000    72.0000 </r>
       <r>    13.1007     0.0000    72.0000 </r>
       <r>    13.1146     0.0000    72.0000 </r>
       <r>    13.1285     0.0000    72.0000 </r>
       <r>    13.1425     0.0000    72.0000 </r>
       <r>    13.1564     0.0000    72.0000 </r>
       <r>    13.1704     0.0000    72.0000 </r>
       <r>    13.1843     0.0000    72.0000 </r>
       <r>    13.1983     0.0000    72.0000 </r>
       <r>    13.2122     0.0000    72.0000 </r>
       <r>    13.2262     0.0000    72.0000 </r>
       <r>    13.2401     0.0000    72.0000 </r>
       <r>    13.2541     0.0000    72.0000 </r>
       <r>    13.2680     0.0000    72.0000 </r>
       <r>    13.2819     0.0000    72.0000 </r>
       <r>    13.2959     0.0000    72.0000 </r>
       <r>    13.3098     0.0000    72.0000 </r>
       <r>    13.3238     0.0000    72.0000 </r>
       <r>    13.3377     0.0000    72.0000 </r>
       <r>    13.3517     0.0000    72.0000 </r>
       <r>    13.3656     0.0000    72.0000 </r>
       <r>    13.3796     0.0000    72.0000 </r>
       <r>    13.3935     0.0000    72.0000 </r>
      </set>
     </set>
    </array>
   </total>
  </dos>
 </calculation>
 <structure name="finalpos" >
  <crystal>
   <varray name="basis" >
    <v>       4.48084843       2.58701885       0.00000000 </v>
    <v>      -4.48084843       2.58701885       0.00000000 </v>
    <v>       0.00000000       0.00000000       8.52022140 </v>
   </varray>
   <i name="volume">    197.53348383 </i>
   <varray name="rec_basis" >
    <v>       0.11158601       0.19327265       0.00000000 </v>
    <v>      -0.11158601       0.19327265       0.00000000 </v>
    <v>       0.00000000       0.00000000       0.11736784 </v>
   </varray>
  </crystal>
  <varray name="positions" >
   <v>       0.33333300       0.66666600       0.25000000 </v>
   <v>       0.66666600       0.33333300       0.25000000 </v>
   <v>       0.15869124       0.31738348       0.25000000 </v>
   <v>       0.31738348       0.15869124       0.25000000 </v>
   <v>       0.15869124       0.84130776       0.25000000 </v>
   <v>       0.84130776       0.15869124       0.25000000 </v>
   <v>       0.68261552       0.84130776       0.25000000 </v>
   <v>       0.84130776       0.68261552       0.25000000 </v>
  </varray>
 </structure>
</modeling>
