Automatically generated mesh
      56
Reciprocal lattice
    0.00000000000000    0.00000000000000    0.00000000000000             1
    0.09090909090909    0.00000000000000    0.00000000000000             8
    0.18181818181818    0.00000000000000    0.00000000000000             8
    0.27272727272727    0.00000000000000    0.00000000000000             8
    0.36363636363636    0.00000000000000    0.00000000000000             8
    0.45454545454546    0.00000000000000    0.00000000000000             8
    0.09090909090909    0.09090909090909    0.00000000000000             6
    0.18181818181818    0.09090909090909    0.00000000000000            24
    0.27272727272727    0.09090909090909    0.00000000000000            24
    0.36363636363636    0.09090909090909    0.00000000000000            24
    0.45454545454545    0.09090909090909    0.00000000000000            24
   -0.45454545454546    0.09090909090909    0.00000000000000            24
   -0.36363636363636    0.09090909090909    0.00000000000000            24
   -0.27272727272727    0.09090909090909    0.00000000000000            24
   -0.18181818181818    0.09090909090909    0.00000000000000            24
   -0.09090909090909    0.09090909090909    0.00000000000000            12
    0.18181818181818    0.18181818181818    0.00000000000000             6
    0.27272727272727    0.18181818181818    0.00000000000000            24
    0.36363636363636    0.18181818181818    0.00000000000000            24
    0.45454545454545    0.18181818181818    0.00000000000000            24
   -0.45454545454546    0.18181818181818    0.00000000000000            24
   -0.36363636363636    0.18181818181818    0.00000000000000            24
   -0.27272727272727    0.18181818181818    0.00000000000000            24
   -0.18181818181818    0.18181818181818    0.00000000000000            12
    0.27272727272727    0.27272727272727    0.00000000000000             6
    0.36363636363636    0.27272727272727    0.00000000000000            24
    0.45454545454546    0.27272727272727    0.00000000000000            24
   -0.45454545454546    0.27272727272727    0.00000000000000            24
   -0.36363636363636    0.27272727272727    0.00000000000000            24
   -0.27272727272727    0.27272727272727    0.00000000000000            12
    0.36363636363636    0.36363636363636    0.00000000000000             6
    0.45454545454546    0.36363636363636    0.00000000000000            24
   -0.45454545454545    0.36363636363636    0.00000000000000            24
   -0.36363636363636    0.36363636363636    0.00000000000000            12
    0.45454545454546    0.45454545454546    0.00000000000000             6
   -0.45454545454545    0.45454545454545    0.00000000000000            12
    0.27272727272727    0.18181818181818    0.09090909090909            24
    0.36363636363636    0.18181818181818    0.09090909090909            48
    0.45454545454545    0.18181818181818    0.09090909090909            48
   -0.45454545454545    0.18181818181818    0.09090909090909            48
    0.36363636363636    0.27272727272727    0.09090909090909            24
    0.45454545454545    0.27272727272727    0.09090909090909            48
   -0.45454545454546    0.27272727272727    0.09090909090909            48
   -0.36363636363636    0.27272727272727    0.09090909090909            48
   -0.27272727272727    0.27272727272727    0.09090909090909            48
   -0.18181818181818    0.27272727272727    0.09090909090909            24
    0.45454545454546    0.36363636363636    0.09090909090909            24
   -0.45454545454546    0.36363636363636    0.09090909090909            48
   -0.36363636363636    0.36363636363636    0.09090909090909            48
   -0.27272727272727    0.36363636363636    0.09090909090909            24
   -0.45454545454545    0.45454545454546    0.09090909090909            24
   -0.36363636363636    0.45454545454545    0.09090909090909            24
   -0.45454545454546    0.36363636363636    0.18181818181818            24
   -0.36363636363636    0.36363636363636    0.18181818181818            48
   -0.36363636363636    0.45454545454546    0.18181818181818            24
   -0.27272727272727    0.45454545454545    0.18181818181818            24
Tetrahedra
       201    0.00012521913348
        24         1         2         2         7
        48         2         7         8        16
        48         2         3         8        16
        24         2         2         7        16
        48         3         8         9        15
        48         3         4         9        15
        48         3         8        15        16
        48         4         9        10        14
        48         4         5        10        14
        48         4         9        14        15
        48         5        10        11        13
        48         5         6        11        13
        48         5        10        13        14
        48         6        11        12        12
        24         6         6        12        12
        48         6        11        12        13
        24         7         8         8        17
        24         7         8         8        16
        48         8        17        18        37
        48         8         9        18        37
        48         8         9        15        37
        24         8         8        17        37
        24         8         8        16        37
        48         8        15        16        37
        48         9        18        19        38
        48         9        10        19        38
        48         9        10        14        38
        48         9        18        37        38
        48         9        15        37        38
        48         9        14        15        38
        48        10        19        20        39
        48        10        11        20        39
        48        10        11        13        39
        48        10        19        38        39
        48        10        14        38        39
        48        10        13        14        39
        48        11        20        21        40
        48        11        12        21        40
        48        11        12        12        40
        48        11        20        39        40
        48        11        13        39        40
        48        11        12        13        40
        48        12        21        22        40
        48        12        13        22        40
        48        12        21        40        40
        24        12        12        40        40
        48        13        22        23        39
        48        13        14        23        39
        48        13        22        39        40
        48        14        23        24        38
        48        14        15        24        38
        48        14        23        38        39
        24        15        15        24        37
        24        15        15        16        37
        48        15        24        37        38
        24        17        18        18        25
        24        17        18        18        37
        48        18        25        26        41
        48        18        19        26        41
        48        18        19        38        41
        24        18        18        25        41
        24        18        18        37        41
        48        18        37        38        41
        48        19        26        27        42
        48        19        20        27        42
        48        19        20        39        42
        48        19        26        41        42
        48        19        38        41        42
        48        19        38        39        42
        48        20        27        28        43
        48        20        21        28        43
        48        20        21        40        43
        48        20        27        42        43
        48        20        39        42        43
        48        20        39        40        43
        48        21        28        29        44
        48        21        22        29        44
        48        21        22        40        44
        48        21        28        43        44
        48        21        40        43        44
        48        21        40        40        44
        48        22        29        30        45
        48        22        23        30        45
        48        22        23        39        45
        48        22        29        44        45
        48        22        40        44        45
        48        22        39        40        45
        24        23        23        30        46
        24        23        23        24        46
        48        23        24        38        46
        48        23        30        45        46
        48        23        39        45        46
        48        23        38        39        46
        24        24        38        38        46
        24        24        37        38        38
        24        25        26        26        31
        24        25        26        26        41
        48        26        31        32        47
        48        26        27        32        47
        48        26        27        42        47
        24        26        26        31        47
        24        26        26        41        47
        48        26        41        42        47
        48        27        32        33        48
        48        27        28        33        48
        48        27        28        43        48
        48        27        32        47        48
        48        27        42        47        48
        48        27        42        43        48
        48        28        33        34        49
        48        28        29        34        49
        48        28        29        44        49
        48        28        33        48        49
        48        28        43        48        49
        48        28        43        44        49
        24        29        29        34        50
        24        29        29        30        50
        48        29        30        45        50
        48        29        34        49        50
        48        29        44        49        50
        48        29        44        45        50
        24        30        45        45        50
        24        30        45        45        46
        24        31        32        32        35
        24        31        32        32        47
        48        32        35        36        51
        48        32        33        36        51
        48        32        33        48        51
        24        32        32        35        51
        24        32        32        47        51
        48        32        47        48        51
        24        33        33        36        52
        24        33        33        34        52
        48        33        34        49        52
        48        33        36        51        52
        48        33        48        51        52
        48        33        48        49        52
        24        34        49        49        52
        24        34        49        49        50
        12        35        35        36        36
        24        35        36        36        51
        12        36        36        51        51
        24        36        51        51        52
        24        37        38        38        41
        48        38        41        42        46
        48        38        39        42        46
        24        38        38        41        46
        48        39        42        43        45
        48        39        40        43        45
        48        39        42        45        46
        48        40        43        44        44
        24        40        40        44        44
        48        40        43        44        45
        24        41        42        42        47
        24        41        42        42        46
        48        42        47        48        53
        48        42        43        48        53
        48        42        43        45        53
        24        42        42        47        53
        24        42        42        46        53
        48        42        45        46        53
        48        43        48        49        54
        48        43        44        49        54
        48        43        44        44        54
        48        43        48        53        54
        48        43        45        53        54
        48        43        44        45        54
        48        44        49        50        54
        48        44        45        50        54
        48        44        49        54        54
        24        44        44        54        54
        24        45        45        50        53
        24        45        45        46        53
        48        45        50        53        54
        24        47        48        48        51
        24        47        48        48        53
        48        48        51        52        55
        48        48        49        52        55
        48        48        49        54        55
        24        48        48        51        55
        24        48        48        53        55
        48        48        53        54        55
        24        49        49        52        56
        24        49        49        50        56
        48        49        50        54        56
        48        49        52        55        56
        48        49        54        55        56
        48        49        54        54        56
        24        50        54        54        56
        24        50        53        54        54
        12        51        51        52        52
        24        51        52        52        55
        12        52        52        55        55
        24        52        55        55        56
        24        53        54        54        55
        48        54        55        56        56
        24        54        54        56        56
        24        54        54        55        56
        12        55        55        56        56
        24        55        56        56        56
         6        56        56        56        56
