cd Si                                   
           1
     0.000000    2.750000    2.750000
     2.750000    0.000000    2.750000
     2.750000    2.750000    0.000000
   Si
   2
Direct configuration=     1
   0.87500000  0.87500000  0.87500000
   0.12500000  0.12500000  0.12500000
cd Si                                   
           1
     0.000000    2.721706    2.721706
     2.721706    0.000000    2.721706
     2.721706    2.721706    0.000000
   Si
   2
Direct configuration=     2
   0.87500000  0.87500000  0.87500000
   0.12500000  0.12500000  0.12500000
cd Si                                   
           1
     0.000000    2.732443    2.732443
     2.732443    0.000000    2.732443
     2.732443    2.732443    0.000000
   Si
   2
Direct configuration=     3
   0.87500000  0.87500000  0.87500000
   0.12500000  0.12500000  0.12500000
cd Si                                   
           1
     0.000000    2.732523    2.732523
     2.732523    0.000000    2.732523
     2.732523    2.732523    0.000000
   Si
   2
Direct configuration=     4
   0.87500000  0.87500000  0.87500000
   0.12500000  0.12500000  0.12500000
cd Si                                   
           1
     0.000000    2.732542    2.732542
     2.732542    0.000000    2.732542
     2.732542    2.732542    0.000000
   Si
   2
Direct configuration=     5
   0.87500000  0.87500000  0.87500000
   0.12500000  0.12500000  0.12500000
cd Si                                   
           1
     0.000000    2.732527    2.732527
     2.732527    0.000000    2.732527
     2.732527    2.732527    0.000000
   Si
   2
Direct configuration=     6
   0.87500000  0.87500000  0.87500000
   0.12500000  0.12500000  0.12500000
cd Si                                   
           1
     0.000000    2.732524    2.732524
     2.732524    0.000000    2.732524
     2.732524    2.732524    0.000000
   Si
   2
Direct configuration=     7
   0.87500000  0.87500000  0.87500000
   0.12500000  0.12500000  0.12500000
cd Si                                   
           1
     0.000000    2.732523    2.732523
     2.732523    0.000000    2.732523
     2.732523    2.732523    0.000000
   Si
   2
Direct configuration=     8
   0.87500000  0.87500000  0.87500000
   0.12500000  0.12500000  0.12500000
cd Si                                   
           1
     0.000000    2.732523    2.732523
     2.732523    0.000000    2.732523
     2.732523    2.732523    0.000000
   Si
   2
Direct configuration=     9
   0.87500000  0.87500000  0.87500000
   0.12500000  0.12500000  0.12500000
cd Si                                   
           1
     0.000000    2.732523    2.732523
     2.732523    0.000000    2.732523
     2.732523    2.732523    0.000000
   Si
   2
Direct configuration=    10
   0.87500000  0.87500000  0.87500000
   0.12500000  0.12500000  0.12500000
cd Si                                   
           1
     0.000000    2.732523    2.732523
     2.732523    0.000000    2.732523
     2.732523    2.732523    0.000000
   Si
   2
Direct configuration=    11
   0.87500000  0.87500000  0.87500000
   0.12500000  0.12500000  0.12500000
cd Si                                   
           1
     0.000000    2.732523    2.732523
     2.732523    0.000000    2.732523
     2.732523    2.732523    0.000000
   Si
   2
Direct configuration=    12
   0.87500000  0.87500000  0.87500000
   0.12500000  0.12500000  0.12500000
cd Si                                   
           1
     0.000000    2.732523    2.732523
     2.732523    0.000000    2.732523
     2.732523    2.732523    0.000000
   Si
   2
Direct configuration=    13
   0.87500000  0.87500000  0.87500000
   0.12500000  0.12500000  0.12500000
