fcc Si DOS                              
   5.00000000000000     
     0.500000    0.500000    0.000000
     0.000000    0.500000    0.500000
     0.500000    0.000000    0.500000
   Si
     1
Direct
  0.000000  0.000000  0.000000
 
   36   36   36
 -.50128833475E+01 -.41589789500E+01 -.17951201574E+01 0.15426910214E+01 0.51327216281E+01
 0.82627928777E+01 0.10406267065E+02 0.11329395096E+02 0.11107867807E+02 0.10059746775E+02
 0.86240789233E+01 0.71936331936E+01 0.59195619063E+01 0.48544767030E+01 0.40158870418E+01
 0.33966396093E+01 0.29771205206E+01 0.27359286872E+01 0.26574179301E+01 0.27359286872E+01
 0.29771205206E+01 0.33966396093E+01 0.40158870418E+01 0.48544767030E+01 0.59195619063E+01
 0.71936331936E+01 0.86240789233E+01 0.10059746775E+02 0.11107867807E+02 0.11329395096E+02
 0.10406267065E+02 0.82627928777E+01 0.51327216281E+01 0.15426910214E+01 -.17951201574E+01
 -.41589789500E+01 -.41589789500E+01 -.25510950571E+01 0.29237487655E+00 0.37345327072E+01
 0.70517977751E+01 0.96230561749E+01 0.11072855406E+02 0.11332497410E+02 0.10612081990E+02
 0.93027468329E+01 0.78406392267E+01 0.64883149438E+01 0.53234890721E+01 0.43791481949E+01
 0.36584412210E+01 0.31463655203E+01 0.28213453460E+01 0.26642789459E+01 0.26642788446E+01
 0.28213450906E+01 0.31463652038E+01 0.36584409408E+01 0.43791479630E+01 0.53234888238E+01
 0.64883145544E+01 0.78406386371E+01 0.93027461119E+01 0.10612081415E+02 0.11332497369E+02
 0.11072856318E+02 0.96230582465E+01 0.70518009067E+01 0.37345364339E+01 0.29237840860E+00
 -.25510924826E+01 -.41589780061E+01 -.17951201574E+01 0.29237487655E+00 0.32231899192E+01
 0.63418700439E+01 0.90056708693E+01 0.10746367267E+02 0.11367994023E+02 0.10959785896E+02
 0.98310952378E+01 0.83960530690E+01 0.69995238938E+01 0.57618223452E+01 0.47304296380E+01
 0.39199043453E+01 0.33219449926E+01 0.29169699662E+01 0.26841324526E+01 0.26083336886E+01
 0.26841320873E+01 0.29169694058E+01 0.33219444705E+01 0.39199040130E+01 0.47304294539E+01
 0.57618220948E+01 0.69995233114E+01 0.83960520605E+01 0.98310940142E+01 0.10959785021E+02
 0.11367994234E+02 0.10746369220E+02 0.90056747576E+01 0.63418754601E+01 0.32231958411E+01
 0.29237992838E+00 -.17951172449E+01 -.25510924826E+01 0.15426910214E+01 0.37345327072E+01
 0.63418700439E+01 0.87725517477E+01 0.10528551058E+02 0.11326027261E+02 0.11143774641E+02
 0.10194026136E+02 0.88329091244E+01 0.74261152132E+01 0.61455661959E+01 0.50508522347E+01
 0.41674988356E+01 0.34950518931E+01 0.30177520024E+01 0.27148337525E+01 0.25684129593E+01
 0.25684127087E+01 0.27148331334E+01 0.30177513364E+01 0.34950514962E+01 0.41674988229E+01
 0.50508524257E+01 0.61455662016E+01 0.74261146526E+01 0.88329079030E+01 0.10194024590E+02
 0.11143773525E+02 0.11326027445E+02 0.10528553186E+02 0.87725558691E+01 0.63418754833E+01
 0.37345382063E+01 0.15426951066E+01 0.29237992838E+00 0.29237840860E+00 0.51327216281E+01
 0.70517977751E+01 0.90056708693E+01 0.10528551058E+02 0.11299999026E+02 0.11217628780E+02
 0.10400692902E+02 0.91305384246E+01 0.77462813258E+01 0.64534537406E+01 0.53221932136E+01
 0.43871662803E+01 0.36558260068E+01 0.31174390691E+01 0.27529686043E+01 0.25433383120E+01
 0.24750654750E+01 0.25433379084E+01 0.27529680350E+01 0.31174386742E+01 0.36558260247E+01
 0.43871666945E+01 0.53221937227E+01 0.64534539036E+01 0.77462807827E+01 0.91305371313E+01
 0.10400691212E+02 0.11217627366E+02 0.11299998611E+02 0.10528552071E+02 0.90056732648E+01
 0.70518009203E+01 0.51327245560E+01 0.37345382063E+01 0.32231958411E+01 0.37345364339E+01
 0.82627928777E+01 0.96230561749E+01 0.10746367267E+02 0.11326027261E+02 0.11217628780E+02
 0.10467119355E+02 0.92800743868E+01 0.79444760878E+01 0.66684974952E+01 0.55285152240E+01
 0.45655937396E+01 0.37941860358E+01 0.32090527298E+01 0.27941322922E+01 0.25306724928E+01
 0.24032149546E+01 0.24032148694E+01 0.25306723031E+01 0.27941321293E+01 0.32090527440E+01
 0.37941862719E+01 0.45655941239E+01 0.55285155359E+01 0.66684974926E+01 0.79444755694E+01
 0.92800733231E+01 0.10467117878E+02 0.11217627169E+02 0.11326025833E+02 0.10746366218E+02
 0.96230556094E+01 0.82627926972E+01 0.70518009203E+01 0.63418754833E+01 0.63418754601E+01
 0.70518009067E+01 0.10406267065E+02 0.11072855406E+02 0.11367994023E+02 0.11143774641E+02
 0.10400692902E+02 0.92800743868E+01 0.80115427502E+01 0.67789896904E+01 0.56574953968E+01
 0.46914682951E+01 0.39008012854E+01 0.32855477436E+01 0.28333680321E+01 0.25270858092E+01
 0.23506745844E+01 0.22931597465E+01 0.23506747752E+01 0.25270860841E+01 0.28333682335E+01
 0.32855477551E+01 0.39008010856E+01 0.46914679810E+01 0.56574950996E+01 0.67789894993E+01
 0.80115426029E+01 0.92800740656E+01 0.10400692103E+02 0.11143773062E+02 0.11367991633E+02
 0.11072852368E+02 0.10406263896E+02 0.96230556094E+01 0.90056732648E+01 0.87725558691E+01
 0.90056747576E+01 0.96230582465E+01 0.11329395096E+02 0.11332497410E+02 0.10959785896E+02
 0.10194026136E+02 0.91305384246E+01 0.79444760878E+01 0.67789896904E+01 0.57013714027E+01
 0.47565680907E+01 0.39680892838E+01 0.33406015456E+01 0.28657567305E+01 0.25288455866E+01
 0.23144863229E+01 0.22105786886E+01 0.22105789372E+01 0.23144868951E+01 0.25288461121E+01
 0.28657567901E+01 0.33406009676E+01 0.39680881976E+01 0.47565669452E+01 0.57013706842E+01
 0.67789897085E+01 0.79444767248E+01 0.91305391440E+01 0.10194026221E+02 0.10959784666E+02
 0.11332494713E+02 0.11329391326E+02 0.11072852368E+02 0.10746366218E+02 0.10528552071E+02
 0.10528553186E+02 0.10746369220E+02 0.11072856318E+02 0.11107867807E+02 0.10612081990E+02
 0.98310952378E+01 0.88329091244E+01 0.77462813258E+01 0.66684974952E+01 0.56574953968E+01
 0.47565680907E+01 0.39910934434E+01 0.33694224819E+01 0.28870948380E+01 0.25323939010E+01
 0.22915063429E+01 0.21523441003E+01 0.21068860510E+01 0.21523445979E+01 0.22915069913E+01
 0.25323941925E+01 0.28870943867E+01 0.33694212523E+01 0.39910918145E+01 0.47565666907E+01
 0.56574948342E+01 0.66684980073E+01 0.77462827083E+01 0.88329106314E+01 0.98310961231E+01
 0.10612081566E+02 0.11107865996E+02 0.11332494713E+02 0.11367991633E+02 0.11326025833E+02
 0.11299998611E+02 0.11326027445E+02 0.11367994234E+02 0.11332497369E+02 0.10059746775E+02
 0.93027468329E+01 0.83960530690E+01 0.74261152132E+01 0.64534537406E+01 0.55285152240E+01
 0.46914682951E+01 0.39680892838E+01 0.33694224819E+01 0.28945423645E+01 0.25349369665E+01
 0.22789783626E+01 0.21154709139E+01 0.20359575611E+01 0.20359577582E+01 0.21154713687E+01
 0.22789787385E+01 0.25349368999E+01 0.28945416653E+01 0.33694212481E+01 0.39680879070E+01
 0.46914672746E+01 0.55285150090E+01 0.64534544393E+01 0.74261166946E+01 0.83960548099E+01
 0.93027483224E+01 0.10059747695E+02 0.10612081566E+02 0.10959784666E+02 0.11143773062E+02
 0.11217627169E+02 0.11217627366E+02 0.11143773525E+02 0.10959785021E+02 0.10612081415E+02
 0.86240789233E+01 0.78406392267E+01 0.69995238938E+01 0.61455661959E+01 0.53221932136E+01
 0.45655937396E+01 0.39008012854E+01 0.33406015456E+01 0.28870948380E+01 0.25349369665E+01
 0.22750242666E+01 0.20976572125E+01 0.19947388467E+01 0.19610322704E+01 0.19947390085E+01
 0.20976574494E+01 0.22750244396E+01 0.25349369369E+01 0.28870945320E+01 0.33406009766E+01
 0.39008005952E+01 0.45655931253E+01 0.53221929502E+01 0.61455664546E+01 0.69995248072E+01
 0.78406408086E+01 0.86240809140E+01 0.93027483224E+01 0.98310961231E+01 0.10194026221E+02
 0.10400692103E+02 0.10467117878E+02 0.10400691212E+02 0.10194024590E+02 0.98310940142E+01
 0.93027461119E+01 0.71936331936E+01 0.64883149438E+01 0.57618223452E+01 0.50508522347E+01
 0.43871662803E+01 0.37941860358E+01 0.32855477436E+01 0.28657567305E+01 0.25323939010E+01
 0.22789783626E+01 0.20976572125E+01 0.19812301163E+01 0.19243997870E+01 0.19243997971E+01
 0.19812301724E+01 0.20976573794E+01 0.22789786693E+01 0.25323942956E+01 0.28657570658E+01
 0.32855478241E+01 0.37941857341E+01 0.43871656055E+01 0.50508514410E+01 0.57618218309E+01
 0.64883151033E+01 0.71936343734E+01 0.78406408086E+01 0.83960548099E+01 0.88329106314E+01
 0.91305391440E+01 0.92800740656E+01 0.92800733231E+01 0.91305371313E+01 0.88329079030E+01
 0.83960520605E+01 0.78406386371E+01 0.59195619063E+01 0.53234890721E+01 0.47304296380E+01
 0.41674988356E+01 0.36558260068E+01 0.32090527298E+01 0.28333680321E+01 0.25288455866E+01
 0.22915063429E+01 0.21154709139E+01 0.19947388467E+01 0.19243997870E+01 0.19013113529E+01
 0.19243997578E+01 0.19947388914E+01 0.21154711651E+01 0.22915068586E+01 0.25288462615E+01
 0.28333686233E+01 0.32090529228E+01 0.36558256115E+01 0.41674978479E+01 0.47304283536E+01
 0.53234879900E+01 0.59195614922E+01 0.64883151033E+01 0.69995248072E+01 0.74261166946E+01
 0.77462827083E+01 0.79444767248E+01 0.80115426029E+01 0.79444755694E+01 0.77462807827E+01
 0.74261146526E+01 0.69995233114E+01 0.64883145544E+01 0.48544767030E+01 0.43791481949E+01
 0.39199043453E+01 0.34950518931E+01 0.31174390691E+01 0.27941322922E+01 0.25270858092E+01
 0.23144863229E+01 0.21523441003E+01 0.20359575611E+01 0.19610322704E+01 0.19243997971E+01
 0.19243997578E+01 0.19610322029E+01 0.20359575734E+01 0.21523442922E+01 0.23144867062E+01
 0.25270862630E+01 0.27941326030E+01 0.31174389923E+01 0.34950513073E+01 0.39199032870E+01
 0.43791468685E+01 0.48544754676E+01 0.53234879900E+01 0.57618218309E+01 0.61455664546E+01
 0.64534544393E+01 0.66684980073E+01 0.67789897085E+01 0.67789894993E+01 0.66684974926E+01
 0.64534539036E+01 0.61455662016E+01 0.57618220948E+01 0.53234888238E+01 0.40158870418E+01
 0.36584412210E+01 0.33219449926E+01 0.30177520024E+01 0.27529686043E+01 0.25306724928E+01
 0.23506745844E+01 0.22105786886E+01 0.21068860510E+01 0.20359577582E+01 0.19947390085E+01
 0.19812301724E+01 0.19947388914E+01 0.20359575734E+01 0.21068858757E+01 0.22105785804E+01
 0.23506745641E+01 0.25306725083E+01 0.27529685758E+01 0.30177518030E+01 0.33219445437E+01
 0.36584405054E+01 0.40158860859E+01 0.43791468685E+01 0.47304283536E+01 0.50508514410E+01
 0.53221929502E+01 0.55285150090E+01 0.56574948342E+01 0.57013706842E+01 0.56574950996E+01
 0.55285155359E+01 0.53221937227E+01 0.50508524257E+01 0.47304294539E+01 0.43791479630E+01
 0.33966396093E+01 0.31463655203E+01 0.29169699662E+01 0.27148337525E+01 0.25433383120E+01
 0.24032149546E+01 0.22931597465E+01 0.22105789372E+01 0.21523445979E+01 0.21154713687E+01
 0.20976574494E+01 0.20976573794E+01 0.21154711651E+01 0.21523442922E+01 0.22105785804E+01
 0.22931594005E+01 0.24032146839E+01 0.25433381469E+01 0.27148337044E+01 0.29169699799E+01
 0.31463654871E+01 0.33966394278E+01 0.36584405054E+01 0.39199032870E+01 0.41674978479E+01
 0.43871656055E+01 0.45655931253E+01 0.46914672746E+01 0.47565666907E+01 0.47565669452E+01
 0.46914679810E+01 0.45655941239E+01 0.43871666945E+01 0.41674988229E+01 0.39199040130E+01
 0.36584409408E+01 0.29771205206E+01 0.28213453460E+01 0.26841324526E+01 0.25684129593E+01
 0.24750654750E+01 0.24032148694E+01 0.23506747752E+01 0.23144868951E+01 0.22915069913E+01
 0.22789787385E+01 0.22750244396E+01 0.22789786693E+01 0.22915068586E+01 0.23144867062E+01
 0.23506745641E+01 0.24032146839E+01 0.24750653919E+01 0.25684130188E+01 0.26841326776E+01
 0.28213457015E+01 0.29771209009E+01 0.31463654871E+01 0.33219445437E+01 0.34950513073E+01
 0.36558256115E+01 0.37941857341E+01 0.39008005952E+01 0.39680879070E+01 0.39910918145E+01
 0.39680881976E+01 0.39008010856E+01 0.37941862719E+01 0.36558260247E+01 0.34950514962E+01
 0.33219444705E+01 0.31463652038E+01 0.27359286872E+01 0.26642789459E+01 0.26083336886E+01
 0.25684127087E+01 0.25433379084E+01 0.25306723031E+01 0.25270860841E+01 0.25288461121E+01
 0.25323941925E+01 0.25349368999E+01 0.25349369369E+01 0.25323942956E+01 0.25288462615E+01
 0.25270862630E+01 0.25306725083E+01 0.25433381469E+01 0.25684130188E+01 0.26083340937E+01
 0.26642794466E+01 0.27359292728E+01 0.28213457015E+01 0.29169699799E+01 0.30177518030E+01
 0.31174389923E+01 0.32090529228E+01 0.32855478241E+01 0.33406009766E+01 0.33694212481E+01
 0.33694212523E+01 0.33406009676E+01 0.32855477551E+01 0.32090527440E+01 0.31174386742E+01
 0.30177513364E+01 0.29169694058E+01 0.28213450906E+01 0.26574179301E+01 0.26642788446E+01
 0.26841320873E+01 0.27148331334E+01 0.27529680350E+01 0.27941321293E+01 0.28333682335E+01
 0.28657567901E+01 0.28870943867E+01 0.28945416653E+01 0.28870945320E+01 0.28657570658E+01
 0.28333686233E+01 0.27941326030E+01 0.27529685758E+01 0.27148337044E+01 0.26841326776E+01
 0.26642794466E+01 0.26574185323E+01 0.26642794466E+01 0.26841326776E+01 0.27148337044E+01
 0.27529685758E+01 0.27941326030E+01 0.28333686233E+01 0.28657570658E+01 0.28870945320E+01
 0.28945416653E+01 0.28870943867E+01 0.28657567901E+01 0.28333682335E+01 0.27941321293E+01
 0.27529680350E+01 0.27148331334E+01 0.26841320873E+01 0.26642788446E+01 0.27359286872E+01
 0.28213450906E+01 0.29169694058E+01 0.30177513364E+01 0.31174386742E+01 0.32090527440E+01
 0.32855477551E+01 0.33406009676E+01 0.33694212523E+01 0.33694212481E+01 0.33406009766E+01
 0.32855478241E+01 0.32090529228E+01 0.31174389923E+01 0.30177518030E+01 0.29169699799E+01
 0.28213457015E+01 0.27359292728E+01 0.26642794466E+01 0.26083340937E+01 0.25684130188E+01
 0.25433381469E+01 0.25306725083E+01 0.25270862630E+01 0.25288462615E+01 0.25323942956E+01
 0.25349369369E+01 0.25349368999E+01 0.25323941925E+01 0.25288461121E+01 0.25270860841E+01
 0.25306723031E+01 0.25433379084E+01 0.25684127087E+01 0.26083336886E+01 0.26642789459E+01
 0.29771205206E+01 0.31463652038E+01 0.33219444705E+01 0.34950514962E+01 0.36558260247E+01
 0.37941862719E+01 0.39008010856E+01 0.39680881976E+01 0.39910918145E+01 0.39680879070E+01
 0.39008005952E+01 0.37941857341E+01 0.36558256115E+01 0.34950513073E+01 0.33219445437E+01
 0.31463654871E+01 0.29771209009E+01 0.28213457015E+01 0.26841326776E+01 0.25684130188E+01
 0.24750653919E+01 0.24032146839E+01 0.23506745641E+01 0.23144867062E+01 0.22915068586E+01
 0.22789786693E+01 0.22750244396E+01 0.22789787385E+01 0.22915069913E+01 0.23144868951E+01
 0.23506747752E+01 0.24032148694E+01 0.24750654750E+01 0.25684129593E+01 0.26841324526E+01
 0.28213453460E+01 0.33966396093E+01 0.36584409408E+01 0.39199040130E+01 0.41674988229E+01
 0.43871666945E+01 0.45655941239E+01 0.46914679810E+01 0.47565669452E+01 0.47565666907E+01
 0.46914672746E+01 0.45655931253E+01 0.43871656055E+01 0.41674978479E+01 0.39199032870E+01
 0.36584405054E+01 0.33966394278E+01 0.31463654871E+01 0.29169699799E+01 0.27148337044E+01
 0.25433381469E+01 0.24032146839E+01 0.22931594005E+01 0.22105785804E+01 0.21523442922E+01
 0.21154711651E+01 0.20976573794E+01 0.20976574494E+01 0.21154713687E+01 0.21523445979E+01
 0.22105789372E+01 0.22931597465E+01 0.24032149546E+01 0.25433383120E+01 0.27148337525E+01
 0.29169699662E+01 0.31463655203E+01 0.40158870418E+01 0.43791479630E+01 0.47304294539E+01
 0.50508524257E+01 0.53221937227E+01 0.55285155359E+01 0.56574950996E+01 0.57013706842E+01
 0.56574948342E+01 0.55285150090E+01 0.53221929502E+01 0.50508514410E+01 0.47304283536E+01
 0.43791468685E+01 0.40158860859E+01 0.36584405054E+01 0.33219445437E+01 0.30177518030E+01
 0.27529685758E+01 0.25306725083E+01 0.23506745641E+01 0.22105785804E+01 0.21068858757E+01
 0.20359575734E+01 0.19947388914E+01 0.19812301724E+01 0.19947390085E+01 0.20359577582E+01
 0.21068860510E+01 0.22105786886E+01 0.23506745844E+01 0.25306724928E+01 0.27529686043E+01
 0.30177520024E+01 0.33219449926E+01 0.36584412210E+01 0.48544767030E+01 0.53234888238E+01
 0.57618220948E+01 0.61455662016E+01 0.64534539036E+01 0.66684974926E+01 0.67789894993E+01
 0.67789897085E+01 0.66684980073E+01 0.64534544393E+01 0.61455664546E+01 0.57618218309E+01
 0.53234879900E+01 0.48544754676E+01 0.43791468685E+01 0.39199032870E+01 0.34950513073E+01
 0.31174389923E+01 0.27941326030E+01 0.25270862630E+01 0.23144867062E+01 0.21523442922E+01
 0.20359575734E+01 0.19610322029E+01 0.19243997578E+01 0.19243997971E+01 0.19610322704E+01
 0.20359575611E+01 0.21523441003E+01 0.23144863229E+01 0.25270858092E+01 0.27941322922E+01
 0.31174390691E+01 0.34950518931E+01 0.39199043453E+01 0.43791481949E+01 0.59195619063E+01
 0.64883145544E+01 0.69995233114E+01 0.74261146526E+01 0.77462807827E+01 0.79444755694E+01
 0.80115426029E+01 0.79444767248E+01 0.77462827083E+01 0.74261166946E+01 0.69995248072E+01
 0.64883151033E+01 0.59195614922E+01 0.53234879900E+01 0.47304283536E+01 0.41674978479E+01
 0.36558256115E+01 0.32090529228E+01 0.28333686233E+01 0.25288462615E+01 0.22915068586E+01
 0.21154711651E+01 0.19947388914E+01 0.19243997578E+01 0.19013113529E+01 0.19243997870E+01
 0.19947388467E+01 0.21154709139E+01 0.22915063429E+01 0.25288455866E+01 0.28333680321E+01
 0.32090527298E+01 0.36558260068E+01 0.41674988356E+01 0.47304296380E+01 0.53234890721E+01
 0.71936331936E+01 0.78406386371E+01 0.83960520605E+01 0.88329079030E+01 0.91305371313E+01
 0.92800733231E+01 0.92800740656E+01 0.91305391440E+01 0.88329106314E+01 0.83960548099E+01
 0.78406408086E+01 0.71936343734E+01 0.64883151033E+01 0.57618218309E+01 0.50508514410E+01
 0.43871656055E+01 0.37941857341E+01 0.32855478241E+01 0.28657570658E+01 0.25323942956E+01
 0.22789786693E+01 0.20976573794E+01 0.19812301724E+01 0.19243997971E+01 0.19243997870E+01
 0.19812301163E+01 0.20976572125E+01 0.22789783626E+01 0.25323939010E+01 0.28657567305E+01
 0.32855477436E+01 0.37941860358E+01 0.43871662803E+01 0.50508522347E+01 0.57618223452E+01
 0.64883149438E+01 0.86240789233E+01 0.93027461119E+01 0.98310940142E+01 0.10194024590E+02
 0.10400691212E+02 0.10467117878E+02 0.10400692103E+02 0.10194026221E+02 0.98310961231E+01
 0.93027483224E+01 0.86240809140E+01 0.78406408086E+01 0.69995248072E+01 0.61455664546E+01
 0.53221929502E+01 0.45655931253E+01 0.39008005952E+01 0.33406009766E+01 0.28870945320E+01
 0.25349369369E+01 0.22750244396E+01 0.20976574494E+01 0.19947390085E+01 0.19610322704E+01
 0.19947388467E+01 0.20976572125E+01 0.22750242666E+01 0.25349369665E+01 0.28870948380E+01
 0.33406015456E+01 0.39008012854E+01 0.45655937396E+01 0.53221932136E+01 0.61455661959E+01
 0.69995238938E+01 0.78406392267E+01 0.10059746775E+02 0.10612081415E+02 0.10959785021E+02
 0.11143773525E+02 0.11217627366E+02 0.11217627169E+02 0.11143773062E+02 0.10959784666E+02
 0.10612081566E+02 0.10059747695E+02 0.93027483224E+01 0.83960548099E+01 0.74261166946E+01
 0.64534544393E+01 0.55285150090E+01 0.46914672746E+01 0.39680879070E+01 0.33694212481E+01
 0.28945416653E+01 0.25349368999E+01 0.22789787385E+01 0.21154713687E+01 0.20359577582E+01
 0.20359575611E+01 0.21154709139E+01 0.22789783626E+01 0.25349369665E+01 0.28945423645E+01
 0.33694224819E+01 0.39680892838E+01 0.46914682951E+01 0.55285152240E+01 0.64534537406E+01
 0.74261152132E+01 0.83960530690E+01 0.93027468329E+01 0.11107867807E+02 0.11332497369E+02
 0.11367994234E+02 0.11326027445E+02 0.11299998611E+02 0.11326025833E+02 0.11367991633E+02
 0.11332494713E+02 0.11107865996E+02 0.10612081566E+02 0.98310961231E+01 0.88329106314E+01
 0.77462827083E+01 0.66684980073E+01 0.56574948342E+01 0.47565666907E+01 0.39910918145E+01
 0.33694212523E+01 0.28870943867E+01 0.25323941925E+01 0.22915069913E+01 0.21523445979E+01
 0.21068860510E+01 0.21523441003E+01 0.22915063429E+01 0.25323939010E+01 0.28870948380E+01
 0.33694224819E+01 0.39910934434E+01 0.47565680907E+01 0.56574953968E+01 0.66684974952E+01
 0.77462813258E+01 0.88329091244E+01 0.98310952378E+01 0.10612081990E+02 0.11329395096E+02
 0.11072856318E+02 0.10746369220E+02 0.10528553186E+02 0.10528552071E+02 0.10746366218E+02
 0.11072852368E+02 0.11329391326E+02 0.11332494713E+02 0.10959784666E+02 0.10194026221E+02
 0.91305391440E+01 0.79444767248E+01 0.67789897085E+01 0.57013706842E+01 0.47565669452E+01
 0.39680881976E+01 0.33406009676E+01 0.28657567901E+01 0.25288461121E+01 0.23144868951E+01
 0.22105789372E+01 0.22105786886E+01 0.23144863229E+01 0.25288455866E+01 0.28657567305E+01
 0.33406015456E+01 0.39680892838E+01 0.47565680907E+01 0.57013714027E+01 0.67789896904E+01
 0.79444760878E+01 0.91305384246E+01 0.10194026136E+02 0.10959785896E+02 0.11332497410E+02
 0.10406267065E+02 0.96230582465E+01 0.90056747576E+01 0.87725558691E+01 0.90056732648E+01
 0.96230556094E+01 0.10406263896E+02 0.11072852368E+02 0.11367991633E+02 0.11143773062E+02
 0.10400692103E+02 0.92800740656E+01 0.80115426029E+01 0.67789894993E+01 0.56574950996E+01
 0.46914679810E+01 0.39008010856E+01 0.32855477551E+01 0.28333682335E+01 0.25270860841E+01
 0.23506747752E+01 0.22931597465E+01 0.23506745844E+01 0.25270858092E+01 0.28333680321E+01
 0.32855477436E+01 0.39008012854E+01 0.46914682951E+01 0.56574953968E+01 0.67789896904E+01
 0.80115427502E+01 0.92800743868E+01 0.10400692902E+02 0.11143774641E+02 0.11367994023E+02
 0.11072855406E+02 0.82627928777E+01 0.70518009067E+01 0.63418754601E+01 0.63418754833E+01
 0.70518009203E+01 0.82627926972E+01 0.96230556094E+01 0.10746366218E+02 0.11326025833E+02
 0.11217627169E+02 0.10467117878E+02 0.92800733231E+01 0.79444755694E+01 0.66684974926E+01
 0.55285155359E+01 0.45655941239E+01 0.37941862719E+01 0.32090527440E+01 0.27941321293E+01
 0.25306723031E+01 0.24032148694E+01 0.24032149546E+01 0.25306724928E+01 0.27941322922E+01
 0.32090527298E+01 0.37941860358E+01 0.45655937396E+01 0.55285152240E+01 0.66684974952E+01
 0.79444760878E+01 0.92800743868E+01 0.10467119355E+02 0.11217628780E+02 0.11326027261E+02
 0.10746367267E+02 0.96230561749E+01 0.51327216281E+01 0.37345364339E+01 0.32231958411E+01
 0.37345382063E+01 0.51327245560E+01 0.70518009203E+01 0.90056732648E+01 0.10528552071E+02
 0.11299998611E+02 0.11217627366E+02 0.10400691212E+02 0.91305371313E+01 0.77462807827E+01
 0.64534539036E+01 0.53221937227E+01 0.43871666945E+01 0.36558260247E+01 0.31174386742E+01
 0.27529680350E+01 0.25433379084E+01 0.24750654750E+01 0.25433383120E+01 0.27529686043E+01
 0.31174390691E+01 0.36558260068E+01 0.43871662803E+01 0.53221932136E+01 0.64534537406E+01
 0.77462813258E+01 0.91305384246E+01 0.10400692902E+02 0.11217628780E+02 0.11299999026E+02
 0.10528551058E+02 0.90056708693E+01 0.70517977751E+01 0.15426910214E+01 0.29237840860E+00
 0.29237992838E+00 0.15426951066E+01 0.37345382063E+01 0.63418754833E+01 0.87725558691E+01
 0.10528553186E+02 0.11326027445E+02 0.11143773525E+02 0.10194024590E+02 0.88329079030E+01
 0.74261146526E+01 0.61455662016E+01 0.50508524257E+01 0.41674988229E+01 0.34950514962E+01
 0.30177513364E+01 0.27148331334E+01 0.25684127087E+01 0.25684129593E+01 0.27148337525E+01
 0.30177520024E+01 0.34950518931E+01 0.41674988356E+01 0.50508522347E+01 0.61455661959E+01
 0.74261152132E+01 0.88329091244E+01 0.10194026136E+02 0.11143774641E+02 0.11326027261E+02
 0.10528551058E+02 0.87725517477E+01 0.63418700439E+01 0.37345327072E+01 -.17951201574E+01
 -.25510924826E+01 -.17951172449E+01 0.29237992838E+00 0.32231958411E+01 0.63418754601E+01
 0.90056747576E+01 0.10746369220E+02 0.11367994234E+02 0.10959785021E+02 0.98310940142E+01
 0.83960520605E+01 0.69995233114E+01 0.57618220948E+01 0.47304294539E+01 0.39199040130E+01
 0.33219444705E+01 0.29169694058E+01 0.26841320873E+01 0.26083336886E+01 0.26841324526E+01
 0.29169699662E+01 0.33219449926E+01 0.39199043453E+01 0.47304296380E+01 0.57618223452E+01
 0.69995238938E+01 0.83960530690E+01 0.98310952378E+01 0.10959785896E+02 0.11367994023E+02
 0.10746367267E+02 0.90056708693E+01 0.63418700439E+01 0.32231899192E+01 0.29237487655E+00
 -.41589789500E+01 -.41589780061E+01 -.25510924826E+01 0.29237840860E+00 0.37345364339E+01
 0.70518009067E+01 0.96230582465E+01 0.11072856318E+02 0.11332497369E+02 0.10612081415E+02
 0.93027461119E+01 0.78406386371E+01 0.64883145544E+01 0.53234888238E+01 0.43791479630E+01
 0.36584409408E+01 0.31463652038E+01 0.28213450906E+01 0.26642788446E+01 0.26642789459E+01
 0.28213453460E+01 0.31463655203E+01 0.36584412210E+01 0.43791481949E+01 0.53234890721E+01
 0.64883149438E+01 0.78406392267E+01 0.93027468329E+01 0.10612081990E+02 0.11332497410E+02
 0.11072855406E+02 0.96230561749E+01 0.70517977751E+01 0.37345327072E+01 0.29237487655E+00
 -.25510950571E+01 -.41589789500E+01 -.25510950571E+01 0.29237487655E+00 0.37345327072E+01
 0.70517977751E+01 0.96230561749E+01 0.11072855406E+02 0.11332497410E+02 0.10612081990E+02
 0.93027468329E+01 0.78406392267E+01 0.64883149438E+01 0.53234890721E+01 0.43791481949E+01
 0.36584412210E+01 0.31463655203E+01 0.28213453460E+01 0.26642789459E+01 0.26642788446E+01
 0.28213450906E+01 0.31463652038E+01 0.36584409408E+01 0.43791479630E+01 0.53234888238E+01
 0.64883145544E+01 0.78406386371E+01 0.93027461119E+01 0.10612081415E+02 0.11332497369E+02
 0.11072856318E+02 0.96230582465E+01 0.70518009067E+01 0.37345364339E+01 0.29237840860E+00
 -.25510924826E+01 -.41589780061E+01 -.25510950571E+01 -.37348695883E+00 0.26898414023E+01
 0.59616429116E+01 0.87764358888E+01 0.10646983638E+02 0.11365154800E+02 0.11015985174E+02
 0.99118825858E+01 0.84752790284E+01 0.70672106438E+01 0.58172912966E+01 0.47746497802E+01
 0.39547827202E+01 0.33497438305E+01 0.29399301795E+01 0.27043106430E+01 0.26276080604E+01
 0.27043102659E+01 0.29399295933E+01 0.33497432629E+01 0.39547823129E+01 0.47746494808E+01
 0.58172908858E+01 0.70672098696E+01 0.84752778278E+01 0.99118812300E+01 0.11015984320E+02
 0.11365155244E+02 0.10646986073E+02 0.87764404677E+01 0.59616491655E+01 0.26898481440E+01
 -.37348124404E+00 -.25510917665E+01 -.33390226043E+01 0.29237487655E+00 0.26898414023E+01
 0.55599026966E+01 0.82684517761E+01 0.10278396095E+02 0.11277111230E+02 0.11228845013E+02
 0.10345788849E+02 0.89957841083E+01 0.75687278483E+01 0.62640467336E+01 0.51460575455E+01
 0.42425962269E+01 0.35542916957E+01 0.30655777893E+01 0.27554036267E+01 0.26054855799E+01
 0.26054852903E+01 0.27554029044E+01 0.30655769850E+01 0.35542911501E+01 0.42425960516E+01
 0.51460575306E+01 0.62640464539E+01 0.75687269265E+01 0.89957825219E+01 0.10345787091E+02
 0.11228844032E+02 0.11277112080E+02 0.10278399512E+02 0.82684577090E+01 0.55599101979E+01
 0.26898488283E+01 0.29238030607E+00 -.10709428119E+01 -.10709447984E+01 0.37345327072E+01
 0.59616429116E+01 0.82684517761E+01 0.10134446755E+02 0.11193913107E+02 0.11316378025E+02
 0.10612951357E+02 0.93748468833E+01 0.79671413984E+01 0.66393141443E+01 0.54728633619E+01
 0.45063363023E+01 0.37492734927E+01 0.31915922061E+01 0.28140134080E+01 0.25968700322E+01
 0.25261594697E+01 0.25968694331E+01 0.28140125411E+01 0.31915915432E+01 0.37492733607E+01
 0.45063366741E+01 0.54728638281E+01 0.66393141240E+01 0.79671404660E+01 0.93748451035E+01
 0.10612949346E+02 0.11316376837E+02 0.11193913756E+02 0.10134449814E+02 0.82684569495E+01
 0.59616490744E+01 0.37345382323E+01 0.21258719009E+01 0.15397275889E+01 0.21258686382E+01
 0.70517977751E+01 0.87764358888E+01 0.10278396095E+02 0.11193913107E+02 0.11337734360E+02
 0.10737227467E+02 0.96018561894E+01 0.82431436071E+01 0.69226245896E+01 0.57363319867E+01
 0.47306812819E+01 0.39233136693E+01 0.33102714707E+01 0.28754517076E+01 0.25994064630E+01
 0.24658971719E+01 0.24658969183E+01 0.25994058564E+01 0.28754511190E+01 0.33102712821E+01
 0.39233140387E+01 0.47306820291E+01 0.57363326430E+01 0.69226246264E+01 0.82431427020E+01
 0.96018544607E+01 0.10737225451E+02 0.11337732871E+02 0.11193912835E+02 0.10278397354E+02
 0.87764383924E+01 0.70518006867E+01 0.55526719237E+01 0.46835318540E+01 0.46835309732E+01
 0.55526695955E+01 0.96230561749E+01 0.10646983638E+02 0.11277111230E+02 0.11316378025E+02
 0.10737227467E+02 0.96770596893E+01 0.83841908369E+01 0.70987881416E+01 0.59210842117E+01
 0.49019386423E+01 0.40654214639E+01 0.34135511942E+01 0.29342674356E+01 0.26097042885E+01
 0.24228511908E+01 0.23619525347E+01 0.24228510379E+01 0.26097040902E+01 0.29342673453E+01
 0.34135513318E+01 0.40654218290E+01 0.49019391044E+01 0.59210845269E+01 0.70987880750E+01
 0.83841902135E+01 0.96770585240E+01 0.10737225885E+02 0.11316376321E+02 0.11277109663E+02
 0.10646982398E+02 0.96230553455E+01 0.85212805993E+01 0.76836105589E+01 0.73717826512E+01
 0.76836107562E+01 0.85212810574E+01 0.11072855406E+02 0.11365154800E+02 0.11228845013E+02
 0.10612951357E+02 0.96018561894E+01 0.83841908369E+01 0.71585434090E+01 0.60162617774E+01
 0.50093108203E+01 0.41660823510E+01 0.34938118173E+01 0.29847997510E+01 0.26237540485E+01
 0.23941966190E+01 0.22829920446E+01 0.22829921595E+01 0.23941968886E+01 0.26237543130E+01
 0.29847998344E+01 0.34938116557E+01 0.41660820096E+01 0.50093104908E+01 0.60162616234E+01
 0.71585435001E+01 0.83841909971E+01 0.96018560998E+01 0.10612950600E+02 0.11228843298E+02
 0.11365152172E+02 0.11072852195E+02 0.10525176930E+02 0.99624919386E+01 0.96124132253E+01
 0.96124140462E+01 0.99624942078E+01 0.10525180047E+02 0.11332497410E+02 0.11015985174E+02
 0.10345788849E+02 0.93748468833E+01 0.82431436071E+01 0.70987881416E+01 0.60162617774E+01
 0.50458930809E+01 0.42182770689E+01 0.35447577498E+01 0.30218655232E+01 0.26374726626E+01
 0.23766563480E+01 0.22261257381E+01 0.21769836747E+01 0.22261261782E+01 0.23766569308E+01
 0.26374729642E+01 0.30218652228E+01 0.35447568444E+01 0.42182758842E+01 0.50458921693E+01
 0.60162615850E+01 0.70987888203E+01 0.82431448093E+01 0.93748479232E+01 0.10345788968E+02
 0.11015983826E+02 0.11332494687E+02 0.11343572784E+02 0.11177150187E+02 0.10991064024E+02
 0.10912813307E+02 0.10991065964E+02 0.11177153430E+02 0.11343576270E+02 0.10612081990E+02
 0.99118825858E+01 0.89957841083E+01 0.79671413984E+01 0.69226245896E+01 0.59210842117E+01
 0.50093108203E+01 0.42182770689E+01 0.35622254851E+01 0.30414825067E+01 0.26473208215E+01
 0.23670739688E+01 0.21882785280E+01 0.21014164230E+01 0.21014166661E+01 0.21882791059E+01
 0.23670744442E+01 0.26473207756E+01 0.30414817162E+01 0.35622241436E+01 0.42182756588E+01
 0.50093099888E+01 0.59210843811E+01 0.69226258070E+01 0.79671432392E+01 0.89957857909E+01
 0.99118834606E+01 0.10612081579E+02 0.11056784448E+02 0.11275749740E+02 0.11346034574E+02
 0.11353535609E+02 0.11353536268E+02 0.11346036276E+02 0.11275751782E+02 0.11056786002E+02
 0.93027468329E+01 0.84752790284E+01 0.75687278483E+01 0.66393141443E+01 0.57363319867E+01
 0.49019386423E+01 0.41660823510E+01 0.35447577498E+01 0.30414825067E+01 0.26508886409E+01