   1   1   1   0
  0.3125000E+02  0.3535534E-09  0.3535534E-09  0.3535534E-09  0.5000000E-15
  1.000000000000000E-004
  CAR 
 fcc Si DOS                              
     26.75592053     -8.13392960  301      2.54964533      1.00000000
     -8.134  0.0000E+00  0.0000E+00
     -8.018  0.0000E+00  0.0000E+00
     -7.901  0.0000E+00  0.0000E+00
     -7.785  0.0000E+00  0.0000E+00
     -7.669  0.0000E+00  0.0000E+00
     -7.552  0.0000E+00  0.0000E+00
     -7.436  0.0000E+00  0.0000E+00
     -7.320  0.0000E+00  0.0000E+00
     -7.204  0.0000E+00  0.0000E+00
     -7.087  0.0000E+00  0.0000E+00
     -6.971  0.0000E+00  0.0000E+00
     -6.855  0.0000E+00  0.0000E+00
     -6.738  0.0000E+00  0.0000E+00
     -6.622  0.0000E+00  0.0000E+00
     -6.506  0.4704E-01  0.9983E-03
     -6.389  0.1003E+00  0.9971E-02
     -6.273  0.1370E+00  0.2406E-01
     -6.157  0.1687E+00  0.4178E-01
     -6.041  0.1908E+00  0.6260E-01
     -5.924  0.2154E+00  0.8632E-01
     -5.808  0.2357E+00  0.1125E+00
     -5.692  0.2579E+00  0.1412E+00
     -5.575  0.2759E+00  0.1722E+00
     -5.459  0.2964E+00  0.2055E+00
     -5.343  0.3153E+00  0.2411E+00
     -5.226  0.3344E+00  0.2789E+00
     -5.110  0.3549E+00  0.3190E+00
     -4.994  0.3744E+00  0.3614E+00
     -4.878  0.3951E+00  0.4061E+00
     -4.761  0.4173E+00  0.4533E+00
     -4.645  0.4405E+00  0.5032E+00
     -4.529  0.4659E+00  0.5559E+00
     -4.412  0.4937E+00  0.6117E+00
     -4.296  0.5258E+00  0.6709E+00
     -4.180  0.5642E+00  0.7342E+00
     -4.063  0.6116E+00  0.8025E+00
     -3.947  0.6765E+00  0.8770E+00
     -3.831  0.8286E+00  0.9624E+00
     -3.715  0.8603E+00  0.1064E+01
     -3.598  0.8322E+00  0.1162E+01
     -3.482  0.8280E+00  0.1259E+01
     -3.366  0.8122E+00  0.1355E+01
     -3.249  0.8071E+00  0.1448E+01
     -3.133  0.7989E+00  0.1542E+01
     -3.017  0.8029E+00  0.1635E+01
     -2.900  0.8311E+00  0.1730E+01
     -2.784  0.9194E+00  0.1830E+01
     -2.668  0.8997E+00  0.1951E+01
     -2.552  0.0000E+00  0.2000E+01
     -2.435  0.0000E+00  0.2000E+01
     -2.319  0.0000E+00  0.2000E+01
     -2.203  0.0000E+00  0.2000E+01
     -2.086  0.0000E+00  0.2000E+01
     -1.970  0.0000E+00  0.2000E+01
     -1.854  0.0000E+00  0.2000E+01
     -1.737  0.0000E+00  0.2000E+01
     -1.621  0.0000E+00  0.2000E+01
     -1.505  0.0000E+00  0.2000E+01
     -1.389  0.0000E+00  0.2000E+01
     -1.272  0.0000E+00  0.2000E+01
     -1.156  0.0000E+00  0.2000E+01
     -1.040  0.0000E+00  0.2000E+01
     -0.923  0.0000E+00  0.2000E+01
     -0.807  0.0000E+00  0.2000E+01
     -0.691  0.0000E+00  0.2000E+01
     -0.574  0.0000E+00  0.2000E+01
     -0.458  0.0000E+00  0.2000E+01
     -0.342  0.1495E+00  0.2009E+01
     -0.226  0.2048E+00  0.2030E+01
     -0.109  0.2781E+00  0.2058E+01
      0.007  0.3168E+00  0.2092E+01
      0.123  0.3700E+00  0.2132E+01
      0.240  0.4176E+00  0.2178E+01
      0.356  0.5633E+00  0.2236E+01
      0.472  0.6805E+00  0.2308E+01
      0.589  0.8080E+00  0.2395E+01
      0.705  0.9791E+00  0.2498E+01
      0.821  0.1327E+01  0.2633E+01
      0.937  0.1249E+01  0.2778E+01
      1.054  0.1170E+01  0.2918E+01
      1.170  0.1078E+01  0.3052E+01
      1.286  0.7228E+00  0.3158E+01
      1.403  0.5193E+00  0.3227E+01
      1.519  0.5359E+00  0.3288E+01
      1.635  0.5939E+00  0.3353E+01
      1.752  0.6930E+00  0.3433E+01
      1.868  0.7011E+00  0.3515E+01
      1.984  0.7019E+00  0.3596E+01
      2.100  0.7120E+00  0.3678E+01
      2.217  0.7195E+00  0.3761E+01
      2.333  0.7194E+00  0.3845E+01
      2.449  0.7115E+00  0.3929E+01
      2.566  0.7114E+00  0.4011E+01
      2.682  0.7061E+00  0.4094E+01
      2.798  0.7077E+00  0.4176E+01
      2.915  0.7396E+00  0.4259E+01
      3.031  0.7581E+00  0.4347E+01
      3.147  0.7840E+00  0.4437E+01
      3.263  0.8087E+00  0.4530E+01
      3.380  0.8358E+00  0.4625E+01
      3.496  0.8504E+00  0.4724E+01
      3.612  0.8828E+00  0.4825E+01
      3.729  0.9229E+00  0.4931E+01
      3.845  0.9512E+00  0.5039E+01
      3.961  0.1030E+01  0.5154E+01
      4.078  0.1114E+01  0.5278E+01
      4.194  0.1233E+01  0.5415E+01
      4.310  0.1203E+01  0.5557E+01
      4.426  0.1183E+01  0.5697E+01
      4.543  0.1163E+01  0.5833E+01
      4.659  0.1139E+01  0.5967E+01
      4.775  0.1136E+01  0.6099E+01
      4.892  0.1116E+01  0.6231E+01
      5.008  0.1092E+01  0.6359E+01
      5.124  0.1087E+01  0.6486E+01
      5.241  0.1067E+01  0.6611E+01
      5.357  0.1059E+01  0.6735E+01
      5.473  0.1054E+01  0.6857E+01
      5.589  0.1038E+01  0.6979E+01
      5.706  0.1032E+01  0.7099E+01
      5.822  0.1022E+01  0.7219E+01
      5.938  0.1020E+01  0.7337E+01
      6.055  0.1020E+01  0.7456E+01
      6.171  0.8343E+00  0.7567E+01
      6.287  0.6983E+00  0.7655E+01
      6.404  0.6033E+00  0.7731E+01
      6.520  0.5310E+00  0.7797E+01
      6.636  0.4704E+00  0.7855E+01
      6.752  0.3975E+00  0.7905E+01
      6.869  0.3421E+00  0.7948E+01
      6.985  0.2611E+00  0.7985E+01
      7.101  0.0000E+00  0.8000E+01
      7.218  0.0000E+00  0.8000E+01
      7.334  0.0000E+00  0.8000E+01
      7.450  0.5325E-02  0.8000E+01
      7.567  0.4112E-01  0.8003E+01
      7.683  0.7458E-01  0.8010E+01
      7.799  0.1190E+00  0.8021E+01
      7.915  0.1624E+00  0.8037E+01
      8.032  0.2259E+00  0.8060E+01
      8.148  0.2754E+00  0.8089E+01
      8.264  0.3007E+00  0.8123E+01
      8.381  0.3316E+00  0.8159E+01
      8.497  0.3731E+00  0.8200E+01
      8.613  0.4163E+00  0.8246E+01
      8.729  0.4440E+00  0.8296E+01
      8.846  0.4761E+00  0.8350E+01
      8.962  0.5072E+00  0.8407E+01
      9.078  0.5415E+00  0.8468E+01
      9.195  0.5688E+00  0.8533E+01
      9.311  0.6043E+00  0.8601E+01
      9.427  0.6373E+00  0.8673E+01
      9.544  0.6786E+00  0.8749E+01
      9.660  0.7225E+00  0.8831E+01
      9.776  0.7646E+00  0.8917E+01
      9.892  0.8094E+00  0.9009E+01
     10.009  0.8690E+00  0.9106E+01
     10.125  0.9460E+00  0.9211E+01
     10.241  0.1139E+01  0.9331E+01
     10.358  0.1395E+01  0.9477E+01
     10.474  0.1536E+01  0.9648E+01
     10.590  0.1393E+01  0.9827E+01
     10.707  0.1034E+01  0.9966E+01
     10.823  0.8531E+00  0.1007E+02
     10.939  0.7548E+00  0.1017E+02
     11.055  0.7145E+00  0.1025E+02
     11.172  0.9341E+00  0.1034E+02
     11.288  0.1101E+01  0.1047E+02
     11.404  0.1096E+01  0.1059E+02
     11.521  0.1121E+01  0.1072E+02
     11.637  0.1374E+01  0.1087E+02
     11.753  0.1386E+01  0.1103E+02
     11.870  0.1239E+01  0.1119E+02
     11.986  0.1106E+01  0.1133E+02
     12.102  0.1046E+01  0.1146E+02
     12.218  0.1027E+01  0.1158E+02
     12.335  0.1015E+01  0.1169E+02
     12.451  0.1082E+01  0.1182E+02
     12.567  0.1277E+01  0.1195E+02
     12.684  0.9242E+00  0.1208E+02
     12.800  0.9401E+00  0.1218E+02
     12.916  0.1183E+01  0.1230E+02
     13.033  0.1284E+01  0.1246E+02
     13.149  0.1090E+01  0.1260E+02
     13.265  0.9912E+00  0.1272E+02
     13.381  0.1112E+01  0.1284E+02
     13.498  0.1092E+01  0.1297E+02
     13.614  0.1105E+01  0.1310E+02
     13.730  0.1044E+01  0.1323E+02
     13.847  0.9431E+00  0.1334E+02
     13.963  0.9124E+00  0.1345E+02
     14.079  0.9033E+00  0.1355E+02
     14.196  0.9392E+00  0.1366E+02
     14.312  0.8719E+00  0.1377E+02
     14.428  0.8091E+00  0.1386E+02
     14.544  0.8151E+00  0.1396E+02
     14.661  0.8601E+00  0.1406E+02
     14.777  0.1119E+01  0.1417E+02
     14.893  0.1361E+01  0.1431E+02
     15.010  0.1554E+01  0.1448E+02
     15.126  0.1657E+01  0.1466E+02
     15.242  0.1611E+01  0.1486E+02
     15.359  0.1324E+01  0.1503E+02
     15.475  0.1222E+01  0.1518E+02
     15.591  0.1202E+01  0.1532E+02
     15.707  0.1186E+01  0.1546E+02
     15.824  0.1106E+01  0.1559E+02
     15.940  0.1052E+01  0.1572E+02
     16.056  0.9997E+00  0.1584E+02
     16.173  0.9237E+00  0.1595E+02
     16.289  0.8535E+00  0.1605E+02
     16.405  0.8860E+00  0.1615E+02
     16.522  0.8354E+00  0.1625E+02
     16.638  0.8257E+00  0.1634E+02
     16.754  0.8222E+00  0.1644E+02
     16.870  0.8670E+00  0.1654E+02
     16.987  0.9257E+00  0.1664E+02
     17.103  0.9231E+00  0.1675E+02
     17.219  0.9645E+00  0.1686E+02
     17.336  0.1016E+01  0.1697E+02
     17.452  0.1083E+01  0.1710E+02
     17.568  0.1147E+01  0.1723E+02
     17.685  0.1241E+01  0.1736E+02
     17.801  0.1170E+01  0.1750E+02
     17.917  0.1139E+01  0.1764E+02
     18.033  0.1190E+01  0.1777E+02
     18.150  0.1203E+01  0.1791E+02
     18.266  0.1150E+01  0.1805E+02
     18.382  0.1171E+01  0.1818E+02
     18.499  0.1181E+01  0.1832E+02
     18.615  0.1184E+01  0.1845E+02
     18.731  0.1073E+01  0.1859E+02
     18.848  0.1008E+01  0.1871E+02
     18.964  0.9723E+00  0.1882E+02
     19.080  0.9600E+00  0.1894E+02
     19.196  0.9915E+00  0.1905E+02
     19.313  0.1112E+01  0.1918E+02
     19.429  0.9978E+00  0.1930E+02
     19.545  0.9449E+00  0.1941E+02
     19.662  0.9302E+00  0.1952E+02
     19.778  0.8783E+00  0.1964E+02
     19.894  0.7544E+00  0.1973E+02
     20.011  0.6974E+00  0.1981E+02
     20.127  0.6745E+00  0.1989E+02
     20.243  0.6589E+00  0.1997E+02
     20.359  0.6695E+00  0.2005E+02
     20.476  0.6594E+00  0.2012E+02
     20.592  0.6537E+00  0.2020E+02
     20.708  0.6587E+00  0.2028E+02
     20.825  0.6754E+00  0.2035E+02
     20.941  0.7275E+00  0.2043E+02
     21.057  0.8574E+00  0.2053E+02
     21.174  0.9747E+00  0.2063E+02
     21.290  0.1084E+01  0.2076E+02
     21.406  0.1088E+01  0.2088E+02
     21.522  0.1076E+01  0.2101E+02
     21.639  0.1037E+01  0.2113E+02
     21.755  0.9850E+00  0.2125E+02
     21.871  0.9404E+00  0.2136E+02
     21.988  0.9359E+00  0.2147E+02
     22.104  0.9092E+00  0.2158E+02
     22.220  0.8892E+00  0.2168E+02
     22.337  0.8485E+00  0.2179E+02
     22.453  0.9238E+00  0.2189E+02
     22.569  0.1097E+01  0.2201E+02
     22.685  0.1369E+01  0.2215E+02
     22.802  0.1364E+01  0.2231E+02
     22.918  0.1355E+01  0.2247E+02
     23.034  0.1281E+01  0.2262E+02
     23.151  0.1244E+01  0.2277E+02
     23.267  0.1133E+01  0.2291E+02
     23.383  0.1119E+01  0.2304E+02
     23.500  0.1201E+01  0.2317E+02
     23.616  0.1117E+01  0.2330E+02
     23.732  0.1062E+01  0.2343E+02
     23.848  0.8987E+00  0.2354E+02
     23.965  0.9075E+00  0.2364E+02
     24.081  0.6527E+00  0.2373E+02
     24.197  0.5419E+00  0.2380E+02
     24.314  0.3465E+00  0.2385E+02
     24.430  0.3020E+00  0.2389E+02
     24.546  0.2729E+00  0.2392E+02
     24.663  0.2271E+00  0.2395E+02
     24.779  0.1522E+00  0.2397E+02
     24.895  0.9415E-01  0.2399E+02
     25.011  0.4749E-01  0.2400E+02
     25.128  0.1055E-01  0.2400E+02
     25.244  0.0000E+00  0.2400E+02
     25.360  0.0000E+00  0.2400E+02
     25.477  0.0000E+00  0.2400E+02
     25.593  0.0000E+00  0.2400E+02
     25.709  0.0000E+00  0.2400E+02
     25.826  0.0000E+00  0.2400E+02
     25.942  0.0000E+00  0.2400E+02
     26.058  0.0000E+00  0.2400E+02
     26.174  0.0000E+00  0.2400E+02
     26.291  0.0000E+00  0.2400E+02
     26.407  0.0000E+00  0.2400E+02
     26.523  0.0000E+00  0.2400E+02
     26.640  0.0000E+00  0.2400E+02
     26.756  0.0000E+00  0.2400E+02
     26.75592053     -8.13392960  301      2.54964533      1.00000000
     -8.134  0.0000E+00  0.0000E+00  0.0000E+00  0.0000E+00  0.0000E+00  0.0000E+00  0.0000E+00  0.0000E+00  0.0000E+00
     -8.018  0.0000E+00  0.0000E+00  0.0000E+00  0.0000E+00  0.0000E+00  0.0000E+00  0.0000E+00  0.0000E+00  0.0000E+00
     -7.901  0.0000E+00  0.0000E+00  0.0000E+00  0.0000E+00  0.0000E+00  0.0000E+00  0.0000E+00  0.0000E+00  0.0000E+00
     -7.785  0.0000E+00  0.0000E+00  0.0000E+00  0.0000E+00  0.0000E+00  0.0000E+00  0.0000E+00  0.0000E+00  0.0000E+00
     -7.669  0.0000E+00  0.0000E+00  0.0000E+00  0.0000E+00  0.0000E+00  0.0000E+00  0.0000E+00  0.0000E+00  0.0000E+00
     -7.552  0.0000E+00  0.0000E+00  0.0000E+00  0.0000E+00  0.0000E+00  0.0000E+00  0.0000E+00  0.0000E+00  0.0000E+00
     -7.436  0.0000E+00  0.0000E+00  0.0000E+00  0.0000E+00  0.0000E+00  0.0000E+00  0.0000E+00  0.0000E+00  0.0000E+00
     -7.320  0.0000E+00  0.0000E+00  0.0000E+00  0.0000E+00  0.0000E+00  0.0000E+00  0.0000E+00  0.0000E+00  0.0000E+00
     -7.204  0.0000E+00  0.0000E+00  0.0000E+00  0.0000E+00  0.0000E+00  0.0000E+00  0.0000E+00  0.0000E+00  0.0000E+00
     -7.087  0.0000E+00  0.0000E+00  0.0000E+00  0.0000E+00  0.0000E+00  0.0000E+00  0.0000E+00  0.0000E+00  0.0000E+00
     -6.971  0.0000E+00  0.0000E+00  0.0000E+00  0.0000E+00  0.0000E+00  0.0000E+00  0.0000E+00  0.0000E+00  0.0000E+00
     -6.855  0.0000E+00  0.0000E+00  0.0000E+00  0.0000E+00  0.0000E+00  0.0000E+00  0.0000E+00  0.0000E+00  0.0000E+00
     -6.738  0.0000E+00  0.0000E+00  0.0000E+00  0.0000E+00  0.0000E+00  0.0000E+00  0.0000E+00  0.0000E+00  0.0000E+00
     -6.622  0.0000E+00  0.0000E+00  0.0000E+00  0.0000E+00  0.0000E+00  0.0000E+00  0.0000E+00  0.0000E+00  0.0000E+00
     -6.506  0.1634E-01  0.1165E-04  0.9055E-05  0.9055E-05  0.0000E+00  0.0000E+00  0.0000E+00  0.0000E+00  0.0000E+00
     -6.389  0.3491E-01  0.1115E-03  0.4371E-04  0.5193E-04  0.0000E+00  0.0000E+00  0.0000E+00  0.0000E+00  0.0000E+00
     -6.273  0.4783E-01  0.2712E-03  0.8163E-04  0.1126E-03  0.0000E+00  0.0000E+00  0.0000E+00  0.0000E+00  0.0000E+00
     -6.157  0.5905E-01  0.4669E-03  0.1263E-03  0.1759E-03  0.0000E+00  0.0000E+00  0.0000E+00  0.0000E+00  0.0000E+00
     -6.041  0.6708E-01  0.6520E-03  0.2203E-03  0.2731E-03  0.0000E+00  0.0000E+00  0.0000E+00  0.0000E+00  0.0000E+00
     -5.924  0.7602E-01  0.8642E-03  0.3215E-03  0.3537E-03  0.0000E+00  0.0000E+00  0.0000E+00  0.0000E+00  0.0000E+00
     -5.808  0.8358E-01  0.1097E-02  0.4265E-03  0.4588E-03  0.0000E+00  0.0000E+00  0.0000E+00  0.0000E+00  0.0000E+00
     -5.692  0.9186E-01  0.1373E-02  0.5002E-03  0.5571E-03  0.0000E+00  0.0000E+00  0.0000E+00  0.0000E+00  0.0000E+00
     -5.575  0.9889E-01  0.1617E-02  0.6513E-03  0.6688E-03  0.0000E+00  0.0000E+00  0.0000E+00  0.0000E+00  0.0000E+00
     -5.459  0.1068E+00  0.1947E-02  0.7034E-03  0.7786E-03  0.0000E+00  0.0000E+00  0.0000E+00  0.0000E+00  0.0000E+00
     -5.343  0.1145E+00  0.2253E-02  0.8103E-03  0.8949E-03  0.0000E+00  0.0000E+00  0.0000E+00  0.0000E+00  0.0000E+00
     -5.226  0.1223E+00  0.2491E-02  0.9979E-03  0.1003E-02  0.0000E+00  0.0000E+00  0.0000E+00  0.0000E+00  0.0000E+00
     -5.110  0.1307E+00  0.2830E-02  0.1071E-02  0.1109E-02  0.0000E+00  0.0000E+00  0.0000E+00  0.0000E+00  0.0000E+00
     -4.994  0.1392E+00  0.3120E-02  0.1213E-02  0.1228E-02  0.0000E+00  0.0000E+00  0.0000E+00  0.0000E+00  0.0000E+00
     -4.878  0.1483E+00  0.3371E-02  0.1397E-02  0.1327E-02  0.0000E+00  0.0000E+00  0.0000E+00  0.0000E+00  0.0000E+00
     -4.761  0.1581E+00  0.3709E-02  0.1480E-02  0.1419E-02  0.0000E+00  0.0000E+00  0.0000E+00  0.0000E+00  0.0000E+00
     -4.645  0.1689E+00  0.4049E-02  0.1558E-02  0.1525E-02  0.0000E+00  0.0000E+00  0.0000E+00  0.0000E+00  0.0000E+00
     -4.529  0.1809E+00  0.4308E-02  0.1713E-02  0.1608E-02  0.0000E+00  0.0000E+00  0.0000E+00  0.0000E+00  0.0000E+00
     -4.412  0.1942E+00  0.4610E-02  0.1808E-02  0.1671E-02  0.0000E+00  0.0000E+00  0.0000E+00  0.0000E+00  0.0000E+00
     -4.296  0.2098E+00  0.4962E-02  0.1830E-02  0.1734E-02  0.0000E+00  0.0000E+00  0.0000E+00  0.0000E+00  0.0000E+00
     -4.180  0.2290E+00  0.5208E-02  0.1934E-02  0.1783E-02  0.0000E+00  0.0000E+00  0.0000E+00  0.0000E+00  0.0000E+00
     -4.063  0.2526E+00  0.5416E-02  0.2047E-02  0.1793E-02  0.0000E+00  0.0000E+00  0.0000E+00  0.0000E+00  0.0000E+00
     -3.947  0.2849E+00  0.5690E-02  0.2054E-02  0.1785E-02  0.0000E+00  0.0000E+00  0.0000E+00  0.0000E+00  0.0000E+00
     -3.831  0.3589E+00  0.5934E-02  0.2092E-02  0.1750E-02  0.0000E+00  0.0000E+00  0.0000E+00  0.0000E+00  0.0000E+00
     -3.715  0.3791E+00  0.5976E-02  0.2176E-02  0.1590E-02  0.0000E+00  0.0000E+00  0.0000E+00  0.0000E+00  0.0000E+00
     -3.598  0.3712E+00  0.6037E-02  0.2079E-02  0.1424E-02  0.0000E+00  0.0000E+00  0.0000E+00  0.0000E+00  0.0000E+00
     -3.482  0.3765E+00  0.5962E-02  0.2003E-02  0.1241E-02  0.0000E+00  0.0000E+00  0.0000E+00  0.0000E+00  0.0000E+00
     -3.366  0.3752E+00  0.5755E-02  0.1915E-02  0.1070E-02  0.0000E+00  0.0000E+00  0.0000E+00  0.0000E+00  0.0000E+00
     -3.249  0.3801E+00  0.5515E-02  0.1727E-02  0.8892E-03  0.0000E+00  0.0000E+00  0.0000E+00  0.0000E+00  0.0000E+00
     -3.133  0.3841E+00  0.5079E-02  0.1534E-02  0.7132E-03  0.0000E+00  0.0000E+00  0.0000E+00  0.0000E+00  0.0000E+00
     -3.017  0.3941E+00  0.4540E-02  0.1313E-02  0.5415E-03  0.0000E+00  0.0000E+00  0.0000E+00  0.0000E+00  0.0000E+00
     -2.900  0.4182E+00  0.3813E-02  0.1025E-02  0.3683E-03  0.0000E+00  0.0000E+00  0.0000E+00  0.0000E+00  0.0000E+00
     -2.784  0.4746E+00  0.2868E-02  0.7205E-03  0.2057E-03  0.0000E+00  0.0000E+00  0.0000E+00  0.0000E+00  0.0000E+00
     -2.668  0.4767E+00  0.1205E-02  0.3821E-03  0.6675E-04  0.0000E+00  0.0000E+00  0.0000E+00  0.0000E+00  0.0000E+00
     -2.552  0.0000E+00  0.0000E+00  0.0000E+00  0.0000E+00  0.0000E+00  0.0000E+00  0.0000E+00  0.0000E+00  0.0000E+00
     -2.435  0.0000E+00  0.0000E+00  0.0000E+00  0.0000E+00  0.0000E+00  0.0000E+00  0.0000E+00  0.0000E+00  0.0000E+00
     -2.319  0.0000E+00  0.0000E+00  0.0000E+00  0.0000E+00  0.0000E+00  0.0000E+00  0.0000E+00  0.0000E+00  0.0000E+00
     -2.203  0.0000E+00  0.0000E+00  0.0000E+00  0.0000E+00  0.0000E+00  0.0000E+00  0.0000E+00  0.0000E+00  0.0000E+00
     -2.086  0.0000E+00  0.0000E+00  0.0000E+00  0.0000E+00  0.0000E+00  0.0000E+00  0.0000E+00  0.0000E+00  0.0000E+00
     -1.970  0.0000E+00  0.0000E+00  0.0000E+00  0.0000E+00  0.0000E+00  0.0000E+00  0.0000E+00  0.0000E+00  0.0000E+00
     -1.854  0.0000E+00  0.0000E+00  0.0000E+00  0.0000E+00  0.0000E+00  0.0000E+00  0.0000E+00  0.0000E+00  0.0000E+00
     -1.737  0.0000E+00  0.0000E+00  0.0000E+00  0.0000E+00  0.0000E+00  0.0000E+00  0.0000E+00  0.0000E+00  0.0000E+00
     -1.621  0.0000E+00  0.0000E+00  0.0000E+00  0.0000E+00  0.0000E+00  0.0000E+00  0.0000E+00  0.0000E+00  0.0000E+00
     -1.505  0.0000E+00  0.0000E+00  0.0000E+00  0.0000E+00  0.0000E+00  0.0000E+00  0.0000E+00  0.0000E+00  0.0000E+00
     -1.389  0.0000E+00  0.0000E+00  0.0000E+00  0.0000E+00  0.0000E+00  0.0000E+00  0.0000E+00  0.0000E+00  0.0000E+00
     -1.272  0.0000E+00  0.0000E+00  0.0000E+00  0.0000E+00  0.0000E+00  0.0000E+00  0.0000E+00  0.0000E+00  0.0000E+00
     -1.156  0.0000E+00  0.0000E+00  0.0000E+00  0.0000E+00  0.0000E+00  0.0000E+00  0.0000E+00  0.0000E+00  0.0000E+00
     -1.040  0.0000E+00  0.0000E+00  0.0000E+00  0.0000E+00  0.0000E+00  0.0000E+00  0.0000E+00  0.0000E+00  0.0000E+00
     -0.923  0.0000E+00  0.0000E+00  0.0000E+00  0.0000E+00  0.0000E+00  0.0000E+00  0.0000E+00  0.0000E+00  0.0000E+00
     -0.807  0.0000E+00  0.0000E+00  0.0000E+00  0.0000E+00  0.0000E+00  0.0000E+00  0.0000E+00  0.0000E+00  0.0000E+00
     -0.691  0.0000E+00  0.0000E+00  0.0000E+00  0.0000E+00  0.0000E+00  0.0000E+00  0.0000E+00  0.0000E+00  0.0000E+00
     -0.574  0.0000E+00  0.0000E+00  0.0000E+00  0.0000E+00  0.0000E+00  0.0000E+00  0.0000E+00  0.0000E+00  0.0000E+00
     -0.458  0.0000E+00  0.0000E+00  0.0000E+00  0.0000E+00  0.0000E+00  0.0000E+00  0.0000E+00  0.0000E+00  0.0000E+00
     -0.342  0.7924E-03  0.1097E-01  0.1092E-01  0.1087E-01  0.0000E+00  0.0000E+00  0.0000E+00  0.0000E+00  0.0000E+00
     -0.226  0.1864E-02  0.1521E-01  0.1498E-01  0.1479E-01  0.0000E+00  0.0000E+00  0.0000E+00  0.0000E+00  0.0000E+00
     -0.109  0.3105E-02  0.2091E-01  0.2038E-01  0.1996E-01  0.0000E+00  0.0000E+00  0.0000E+00  0.0000E+00  0.0000E+00
      0.007  0.4675E-02  0.2420E-01  0.2321E-01  0.2257E-01  0.0000E+00  0.0000E+00  0.0000E+00  0.0000E+00  0.0000E+00
      0.123  0.6264E-02  0.2868E-01  0.2712E-01  0.2619E-01  0.0000E+00  0.0000E+00  0.0000E+00  0.0000E+00  0.0000E+00
      0.240  0.8299E-02  0.3317E-01  0.3059E-01  0.2922E-01  0.0000E+00  0.0000E+00  0.0000E+00  0.0000E+00  0.0000E+00
      0.356  0.1142E-01  0.6206E-01  0.3374E-01  0.3210E-01  0.0000E+00  0.0000E+00  0.0000E+00  0.0000E+00  0.0000E+00
      0.472  0.1510E-01  0.8277E-01  0.3766E-01  0.3552E-01  0.0000E+00  0.0000E+00  0.0000E+00  0.0000E+00  0.0000E+00
      0.589  0.2035E-01  0.1060E+00  0.4166E-01  0.3899E-01  0.0000E+00  0.0000E+00  0.0000E+00  0.0000E+00  0.0000E+00
      0.705  0.2696E-01  0.1381E+00  0.4650E-01  0.4341E-01  0.0000E+00  0.0000E+00  0.0000E+00  0.0000E+00  0.0000E+00
      0.821  0.3873E-01  0.2049E+00  0.5509E-01  0.5217E-01  0.0000E+00  0.0000E+00  0.0000E+00  0.0000E+00  0.0000E+00
      0.937  0.4413E-01  0.1861E+00  0.5508E-01  0.5244E-01  0.0000E+00  0.0000E+00  0.0000E+00  0.0000E+00  0.0000E+00
      1.054  0.4981E-01  0.1594E+00  0.5944E-01  0.5555E-01  0.0000E+00  0.0000E+00  0.0000E+00  0.0000E+00  0.0000E+00
      1.170  0.5525E-01  0.1295E+00  0.6584E-01  0.5655E-01  0.0000E+00  0.0000E+00  0.0000E+00  0.0000E+00  0.0000E+00
      1.286  0.4671E-01  0.9061E-01  0.4096E-01  0.3767E-01  0.0000E+00  0.0000E+00  0.0000E+00  0.0000E+00  0.0000E+00
      1.403  0.4381E-01  0.5927E-01  0.2997E-01  0.3130E-01  0.0000E+00  0.0000E+00  0.0000E+00  0.0000E+00  0.0000E+00
      1.519  0.4150E-01  0.6159E-01  0.3229E-01  0.3234E-01  0.0000E+00  0.0000E+00  0.0000E+00  0.0000E+00  0.0000E+00
      1.635  0.4021E-01  0.6796E-01  0.3956E-01  0.3476E-01  0.0000E+00  0.0000E+00  0.0000E+00  0.0000E+00  0.0000E+00
      1.752  0.4016E-01  0.7468E-01  0.5834E-01  0.3616E-01  0.0000E+00  0.0000E+00  0.0000E+00  0.0000E+00  0.0000E+00
      1.868  0.3855E-01  0.7756E-01  0.6029E-01  0.3549E-01  0.0000E+00  0.0000E+00  0.0000E+00  0.0000E+00  0.0000E+00
      1.984  0.3662E-01  0.7861E-01  0.6260E-01  0.3458E-01  0.0000E+00  0.0000E+00  0.0000E+00  0.0000E+00  0.0000E+00
      2.100  0.3650E-01  0.7917E-01  0.6572E-01  0.3518E-01  0.0000E+00  0.0000E+00  0.0000E+00  0.0000E+00  0.0000E+00
      2.217  0.3594E-01  0.7898E-01  0.6940E-01  0.3543E-01  0.0000E+00  0.0000E+00  0.0000E+00  0.0000E+00  0.0000E+00
      2.333  0.3395E-01  0.8025E-01  0.7168E-01  0.3446E-01  0.0000E+00  0.0000E+00  0.0000E+00  0.0000E+00  0.0000E+00
      2.449  0.3297E-01  0.8019E-01  0.7249E-01  0.3387E-01  0.0000E+00  0.0000E+00  0.0000E+00  0.0000E+00  0.0000E+00
      2.566  0.3275E-01  0.8027E-01  0.7423E-01  0.3402E-01  0.0000E+00  0.0000E+00  0.0000E+00  0.0000E+00  0.0000E+00
      2.682  0.3206E-01  0.7965E-01  0.7562E-01  0.3394E-01  0.0000E+00  0.0000E+00  0.0000E+00  0.0000E+00  0.0000E+00
      2.798  0.3113E-01  0.8119E-01  0.7696E-01  0.3370E-01  0.0000E+00  0.0000E+00  0.0000E+00  0.0000E+00  0.0000E+00
      2.915  0.2926E-01  0.8031E-01  0.8092E-01  0.4149E-01  0.0000E+00  0.0000E+00  0.0000E+00  0.0000E+00  0.0000E+00
      3.031  0.2893E-01  0.7940E-01  0.8272E-01  0.4785E-01  0.0000E+00  0.0000E+00  0.0000E+00  0.0000E+00  0.0000E+00
      3.147  0.2851E-01  0.7902E-01  0.8494E-01  0.5538E-01  0.0000E+00  0.0000E+00  0.0000E+00  0.0000E+00  0.0000E+00
      3.263  0.2777E-01  0.8038E-01  0.8715E-01  0.6138E-01  0.0000E+00  0.0000E+00  0.0000E+00  0.0000E+00  0.0000E+00
      3.380  0.2649E-01  0.8043E-01  0.9122E-01  0.6820E-01  0.0000E+00  0.0000E+00  0.0000E+00  0.0000E+00  0.0000E+00
      3.496  0.2530E-01  0.8050E-01  0.9568E-01  0.7219E-01  0.0000E+00  0.0000E+00  0.0000E+00  0.0000E+00  0.0000E+00
      3.612  0.2482E-01  0.8066E-01  0.1003E+00  0.8066E-01  0.0000E+00  0.0000E+00  0.0000E+00  0.0000E+00  0.0000E+00
      3.729  0.2425E-01  0.8302E-01  0.1043E+00  0.9119E-01  0.0000E+00  0.0000E+00  0.0000E+00  0.0000E+00  0.0000E+00
      3.845  0.2345E-01  0.8305E-01  0.1108E+00  0.9825E-01  0.0000E+00  0.0000E+00  0.0000E+00  0.0000E+00  0.0000E+00
      3.961  0.2232E-01  0.8185E-01  0.1257E+00  0.1161E+00  0.0000E+00  0.0000E+00  0.0000E+00  0.0000E+00  0.0000E+00
      4.078  0.2098E-01  0.8025E-01  0.1368E+00  0.1421E+00  0.0000E+00  0.0000E+00  0.0000E+00  0.0000E+00  0.0000E+00
      4.194  0.2034E-01  0.8148E-01  0.1571E+00  0.1694E+00  0.0000E+00  0.0000E+00  0.0000E+00  0.0000E+00  0.0000E+00
      4.310  0.1950E-01  0.8200E-01  0.1584E+00  0.1631E+00  0.0000E+00  0.0000E+00  0.0000E+00  0.0000E+00  0.0000E+00
      4.426  0.1857E-01  0.8183E-01  0.1558E+00  0.1650E+00  0.0000E+00  0.0000E+00  0.0000E+00  0.0000E+00  0.0000E+00
      4.543  0.1748E-01  0.8163E-01  0.1555E+00  0.1644E+00  0.0000E+00  0.0000E+00  0.0000E+00  0.0000E+00  0.0000E+00
      4.659  0.1605E-01  0.8219E-01  0.1519E+00  0.1650E+00  0.0000E+00  0.0000E+00  0.0000E+00  0.0000E+00  0.0000E+00
      4.775  0.1534E-01  0.8415E-01  0.1527E+00  0.1689E+00  0.0000E+00  0.0000E+00  0.0000E+00  0.0000E+00  0.0000E+00
      4.892  0.1455E-01  0.8519E-01  0.1506E+00  0.1686E+00  0.0000E+00  0.0000E+00  0.0000E+00  0.0000E+00  0.0000E+00
      5.008  0.1380E-01  0.8495E-01  0.1485E+00  0.1688E+00  0.0000E+00  0.0000E+00  0.0000E+00  0.0000E+00  0.0000E+00
      5.124  0.1289E-01  0.8453E-01  0.1488E+00  0.1751E+00  0.0000E+00  0.0000E+00  0.0000E+00  0.0000E+00  0.0000E+00
      5.241  0.1181E-01  0.8491E-01  0.1476E+00  0.1755E+00  0.0000E+00  0.0000E+00  0.0000E+00  0.0000E+00  0.0000E+00
      5.357  0.1058E-01  0.8426E-01  0.1499E+00  0.1784E+00  0.0000E+00  0.0000E+00  0.0000E+00  0.0000E+00  0.0000E+00
      5.473  0.9788E-02  0.8524E-01  0.1495E+00  0.1842E+00  0.0000E+00  0.0000E+00  0.0000E+00  0.0000E+00  0.0000E+00
      5.589  0.8938E-02  0.8445E-01  0.1477E+00  0.1887E+00  0.0000E+00  0.0000E+00  0.0000E+00  0.0000E+00  0.0000E+00
      5.706  0.8158E-02  0.8203E-01  0.1517E+00  0.1927E+00  0.0000E+00  0.0000E+00  0.0000E+00  0.0000E+00  0.0000E+00
      5.822  0.7247E-02  0.8379E-01  0.1503E+00  0.1976E+00  0.0000E+00  0.0000E+00  0.0000E+00  0.0000E+00  0.0000E+00
      5.938  0.6352E-02  0.8970E-01  0.1509E+00  0.1997E+00  0.0000E+00  0.0000E+00  0.0000E+00  0.0000E+00  0.0000E+00
      6.055  0.5676E-02  0.9042E-01  0.1548E+00  0.2045E+00  0.0000E+00  0.0000E+00  0.0000E+00  0.0000E+00  0.0000E+00
      6.171  0.5147E-02  0.8565E-01  0.1217E+00  0.1656E+00  0.0000E+00  0.0000E+00  0.0000E+00  0.0000E+00  0.0000E+00
      6.287  0.4522E-02  0.7611E-01  0.1013E+00  0.1390E+00  0.0000E+00  0.0000E+00  0.0000E+00  0.0000E+00  0.0000E+00
      6.404  0.3759E-02  0.6775E-01  0.8759E-01  0.1225E+00  0.0000E+00  0.0000E+00  0.0000E+00  0.0000E+00  0.0000E+00
      6.520  0.2893E-02  0.5899E-01  0.7995E-01  0.1105E+00  0.0000E+00  0.0000E+00  0.0000E+00  0.0000E+00  0.0000E+00
      6.636  0.2317E-02  0.5700E-01  0.6914E-01  0.9877E-01  0.0000E+00  0.0000E+00  0.0000E+00  0.0000E+00  0.0000E+00
      6.752  0.1738E-02  0.5030E-01  0.5833E-01  0.8455E-01  0.0000E+00  0.0000E+00  0.0000E+00  0.0000E+00  0.0000E+00
      6.869  0.1106E-02  0.4421E-01  0.5150E-01  0.7377E-01  0.0000E+00  0.0000E+00  0.0000E+00  0.0000E+00  0.0000E+00
      6.985  0.5162E-03  0.3240E-01  0.4157E-01  0.5800E-01  0.0000E+00  0.0000E+00  0.0000E+00  0.0000E+00  0.0000E+00
      7.101  0.0000E+00  0.0000E+00  0.0000E+00  0.0000E+00  0.0000E+00  0.0000E+00  0.0000E+00  0.0000E+00  0.0000E+00
      7.218  0.0000E+00  0.0000E+00  0.0000E+00  0.0000E+00  0.0000E+00  0.0000E+00  0.0000E+00  0.0000E+00  0.0000E+00
      7.334  0.0000E+00  0.0000E+00  0.0000E+00  0.0000E+00  0.0000E+00  0.0000E+00  0.0000E+00  0.0000E+00  0.0000E+00
      7.450  0.3628E-03  0.3171E-07  0.1058E-04  0.1567E-04  0.0000E+00  0.0000E+00  0.0000E+00  0.0000E+00  0.0000E+00
      7.567  0.2682E-02  0.6889E-06  0.8178E-04  0.3555E-03  0.0000E+00  0.0000E+00  0.0000E+00  0.0000E+00  0.0000E+00
      7.683  0.4405E-02  0.2159E-05  0.1568E-03  0.1055E-02  0.0000E+00  0.0000E+00  0.0000E+00  0.0000E+00  0.0000E+00
      7.799  0.6438E-02  0.4997E-05  0.2367E-03  0.1881E-02  0.0000E+00  0.0000E+00  0.0000E+00  0.0000E+00  0.0000E+00
      7.915  0.7459E-02  0.8079E-05  0.3719E-03  0.2925E-02  0.0000E+00  0.0000E+00  0.0000E+00  0.0000E+00  0.0000E+00
      8.032  0.8464E-02  0.1324E-04  0.7680E-03  0.4033E-02  0.0000E+00  0.0000E+00  0.0000E+00  0.0000E+00  0.0000E+00
      8.148  0.9773E-02  0.2010E-04  0.1252E-02  0.5214E-02  0.0000E+00  0.0000E+00  0.0000E+00  0.0000E+00  0.0000E+00
      8.264  0.9899E-02  0.2811E-04  0.1757E-02  0.6465E-02  0.0000E+00  0.0000E+00  0.0000E+00  0.0000E+00  0.0000E+00
      8.381  0.1035E-01  0.3379E-04  0.2309E-02  0.7638E-02  0.0000E+00  0.0000E+00  0.0000E+00  0.0000E+00  0.0000E+00
      8.497  0.1116E-01  0.4560E-04  0.2958E-02  0.9123E-02  0.0000E+00  0.0000E+00  0.0000E+00  0.0000E+00  0.0000E+00
      8.613  0.1186E-01  0.6942E-04  0.3775E-02  0.1093E-01  0.0000E+00  0.0000E+00  0.0000E+00  0.0000E+00  0.0000E+00
      8.729  0.1206E-01  0.8879E-04  0.4531E-02  0.1240E-01  0.0000E+00  0.0000E+00  0.0000E+00  0.0000E+00  0.0000E+00
      8.846  0.1261E-01  0.1092E-03  0.5414E-02  0.1421E-01  0.0000E+00  0.0000E+00  0.0000E+00  0.0000E+00  0.0000E+00
      8.962  0.1290E-01  0.1435E-03  0.6242E-02  0.1618E-01  0.0000E+00  0.0000E+00  0.0000E+00  0.0000E+00  0.0000E+00
      9.078  0.1330E-01  0.1866E-03  0.7021E-02  0.1824E-01  0.0000E+00  0.0000E+00  0.0000E+00  0.0000E+00  0.0000E+00
      9.195  0.1361E-01  0.2308E-03  0.7981E-02  0.2032E-01  0.0000E+00  0.0000E+00  0.0000E+00  0.0000E+00  0.0000E+00
      9.311  0.1392E-01  0.2773E-03  0.9084E-02  0.2253E-01  0.0000E+00  0.0000E+00  0.0000E+00  0.0000E+00  0.0000E+00
      9.427  0.1395E-01  0.3480E-03  0.1013E-01  0.2496E-01  0.0000E+00  0.0000E+00  0.0000E+00  0.0000E+00  0.0000E+00
      9.544  0.1417E-01  0.4338E-03  0.1132E-01  0.2794E-01  0.0000E+00  0.0000E+00  0.0000E+00  0.0000E+00  0.0000E+00
      9.660  0.1444E-01  0.5401E-03  0.1273E-01  0.3145E-01  0.0000E+00  0.0000E+00  0.0000E+00  0.0000E+00  0.0000E+00
      9.776  0.1467E-01  0.6634E-03  0.1414E-01  0.3537E-01  0.0000E+00  0.0000E+00  0.0000E+00  0.0000E+00  0.0000E+00
      9.892  0.1475E-01  0.8312E-03  0.1535E-01  0.3976E-01  0.0000E+00  0.0000E+00  0.0000E+00  0.0000E+00  0.0000E+00
     10.009  0.1506E-01  0.1103E-02  0.1673E-01  0.4558E-01  0.0000E+00  0.0000E+00  0.0000E+00  0.0000E+00  0.0000E+00