PROCAR lm decomposed
# of k-points:  286         # of bands:   12         # of ions:    1

 k-point     1 :    0.00000000 0.00000000 0.00000000     weight = 0.00010798

band     1 # energy   -6.54802732 # occ.  2.00000000
 
ion      s     py     pz     px    dxy    dyz    dz2    dxz  x2-y2    tot
    1  0.347  0.000  0.000  0.000  0.000  0.000  0.000  0.000  0.000  0.347
 
band     2 # energy    7.09384684 # occ.  0.00000000
 
ion      s     py     pz     px    dxy    dyz    dz2    dxz  x2-y2    tot
    1  0.000  0.172  0.172  0.172  0.000  0.000  0.000  0.000  0.000  0.516
 
band     3 # energy    7.09384924 # occ.  0.00000000
 
ion      s     py     pz     px    dxy    dyz    dz2    dxz  x2-y2    tot
    1  0.000  0.313  0.113  0.090  0.000  0.000  0.000  0.000  0.000  0.516
 
band     4 # energy    7.09384924 # occ.  0.00000000
 
ion      s     py     pz     px    dxy    dyz    dz2    dxz  x2-y2    tot
    1  0.000  0.031  0.230  0.254  0.000  0.000  0.000  0.000  0.000  0.516
 
band     5 # energy   12.09625423 # occ.  0.00000000
 
ion      s     py     pz     px    dxy    dyz    dz2    dxz  x2-y2    tot
    1  0.000  0.000  0.000  0.000  0.000  0.000  0.000  0.000  0.000  0.000
 
band     6 # energy   12.09625438 # occ.  0.00000000
 
ion      s     py     pz     px    dxy    dyz    dz2    dxz  x2-y2    tot
    1  0.000  0.000  0.000  0.000  0.000  0.000  0.000  0.000  0.000  0.000
 
band     7 # energy   12.09625438 # occ.  0.00000000
 
ion      s     py     pz     px    dxy    dyz    dz2    dxz  x2-y2    tot
    1  0.000  0.000  0.000  0.000  0.000  0.000  0.000  0.000  0.000  0.000
 
band     8 # energy   12.92734136 # occ.  0.00000000
 
ion      s     py     pz     px    dxy    dyz    dz2    dxz  x2-y2    tot
    1  0.387  0.000  0.000  0.000  0.000  0.000  0.000  0.000  0.000  0.387
 
band     9 # energy   15.82536505 # occ.  0.00000000
 
ion      s     py     pz     px    dxy    dyz    dz2    dxz  x2-y2    tot
    1  0.000  0.000  0.000  0.000  0.000  0.000  0.000  0.000  0.000  0.000
 
band    10 # energy   15.84729552 # occ.  0.00000000
 
ion      s     py     pz     px    dxy    dyz    dz2    dxz  x2-y2    tot
    1  0.000  0.000  0.000  0.000  0.000  0.000  0.000  0.000  0.000  0.000
 
band    11 # energy   15.84729552 # occ.  0.00000000
 
ion      s     py     pz     px    dxy    dyz    dz2    dxz  x2-y2    tot
    1  0.000  0.000  0.000  0.000  0.000  0.000  0.000  0.000  0.000  0.000
 
band    12 # energy   20.08516847 # occ.  0.00000000
 
ion      s     py     pz     px    dxy    dyz    dz2    dxz  x2-y2    tot
    1  0.000  0.026  0.001  0.007  0.000  0.000  0.000  0.000  0.000  0.033
 

 k-point     2 :    0.04761905 0.00000000 0.00000000     weight = 0.00086384

band     1 # energy   -6.51274179 # occ.  2.00000000
 
ion      s     py     pz     px    dxy    dyz    dz2    dxz  x2-y2    tot
    1  0.347  0.000  0.000  0.000  0.000  0.000  0.000  0.000  0.000  0.348
 
band     2 # energy    6.83732843 # occ.  0.00000000
 
ion      s     py     pz     px    dxy    dyz    dz2    dxz  x2-y2    tot
    1  0.013  0.161  0.161  0.161  0.000  0.000  0.000  0.000  0.000  0.497
 
band     3 # energy    7.06110636 # occ.  0.00000000
 
ion      s     py     pz     px    dxy    dyz    dz2    dxz  x2-y2    tot
    1  0.000  0.085  0.341  0.085  0.000  0.000  0.000  0.000  0.000  0.512
 
band     4 # energy    7.06110848 # occ.  0.00000000
 
ion      s     py     pz     px    dxy    dyz    dz2    dxz  x2-y2    tot
    1  0.000  0.256  0.000  0.256  0.000  0.000  0.000  0.000  0.000  0.512
 
band     5 # energy   12.00643111 # occ.  0.00000000
 
ion      s     py     pz     px    dxy    dyz    dz2    dxz  x2-y2    tot
    1  0.008  0.003  0.003  0.003  0.000  0.000  0.000  0.000  0.000  0.017
 
band     6 # energy   12.16221667 # occ.  0.00000000
 
ion      s     py     pz     px    dxy    dyz    dz2    dxz  x2-y2    tot
    1  0.000  0.001  0.002  0.001  0.000  0.000  0.000  0.000  0.000  0.004
 
band     7 # energy   12.16221683 # occ.  0.00000000
 
ion      s     py     pz     px    dxy    dyz    dz2    dxz  x2-y2    tot
    1  0.000  0.002  0.000  0.002  0.000  0.000  0.000  0.000  0.000  0.004
 
band     8 # energy   13.08639977 # occ.  0.00000000
 
ion      s     py     pz     px    dxy    dyz    dz2    dxz  x2-y2    tot
    1  0.364  0.008  0.008  0.008  0.000  0.000  0.000  0.000  0.000  0.386
 
band     9 # energy   15.66991114 # occ.  0.00000000
 
ion      s     py     pz     px    dxy    dyz    dz2    dxz  x2-y2    tot
    1  0.000  0.000  0.000  0.000  0.000  0.000  0.000  0.000  0.000  0.000
 
band    10 # energy   15.66991114 # occ.  0.00000000
 
ion      s     py     pz     px    dxy    dyz    dz2    dxz  x2-y2    tot
    1  0.000  0.000  0.000  0.000  0.000  0.000  0.000  0.000  0.000  0.000
 
band    11 # energy   16.10433301 # occ.  0.00000000
 
ion      s     py     pz     px    dxy    dyz    dz2    dxz  x2-y2    tot
    1  0.000  0.000  0.000  0.000  0.000  0.000  0.000  0.000  0.000  0.000
 
band    12 # energy   19.75616784 # occ.  0.00000000
 
ion      s     py     pz     px    dxy    dyz    dz2    dxz  x2-y2    tot
    1  0.011  0.008  0.008  0.008  0.000  0.000  0.000  0.000  0.000  0.035
 

 k-point     3 :    0.09523810 0.00000000 0.00000000     weight = 0.00086384

band     1 # energy   -6.40688918 # occ.  2.00000000
 
ion      s     py     pz     px    dxy    dyz    dz2    dxz  x2-y2    tot
    1  0.348  0.001  0.001  0.001  0.000  0.000  0.000  0.000  0.000  0.350
 
band     2 # energy    6.17419392 # occ.  0.00000000
 
ion      s     py     pz     px    dxy    dyz    dz2    dxz  x2-y2    tot
    1  0.037  0.140  0.140  0.140  0.000  0.000  0.000  0.000  0.000  0.458
 
band     3 # energy    6.97162019 # occ.  0.00000000
 
ion      s     py     pz     px    dxy    dyz    dz2    dxz  x2-y2    tot
    1  0.000  0.084  0.335  0.084  0.000  0.000  0.000  0.000  0.000  0.503
 
band     4 # energy    6.97162226 # occ.  0.00000000
 
ion      s     py     pz     px    dxy    dyz    dz2    dxz  x2-y2    tot
    1  0.000  0.252  0.000  0.252  0.000  0.000  0.000  0.000  0.000  0.503
 
band     5 # energy   11.74903460 # occ.  0.00000000
 
ion      s     py     pz     px    dxy    dyz    dz2    dxz  x2-y2    tot
    1  0.038  0.006  0.006  0.006  0.000  0.000  0.000  0.000  0.000  0.054
 
band     6 # energy   12.34708476 # occ.  0.00000000
 
ion      s     py     pz     px    dxy    dyz    dz2    dxz  x2-y2    tot
    1  0.000  0.002  0.009  0.002  0.000  0.000  0.000  0.000  0.000  0.013
 
band     7 # energy   12.34708499 # occ.  0.00000000
 
ion      s     py     pz     px    dxy    dyz    dz2    dxz  x2-y2    tot
    1  0.000  0.006  0.000  0.006  0.000  0.000  0.000  0.000  0.000  0.013
 
band     8 # energy   13.55485990 # occ.  0.00000000
 
ion      s     py     pz     px    dxy    dyz    dz2    dxz  x2-y2    tot
    1  0.300  0.027  0.027  0.027  0.000  0.000  0.000  0.000  0.000  0.381
 
band     9 # energy   15.32611853 # occ.  0.00000000
 
ion      s     py     pz     px    dxy    dyz    dz2    dxz  x2-y2    tot
    1  0.000  0.000  0.000  0.000  0.000  0.000  0.000  0.000  0.000  0.000
 
band    10 # energy   15.32611854 # occ.  0.00000000
 
ion      s     py     pz     px    dxy    dyz    dz2    dxz  x2-y2    tot
    1  0.000  0.000  0.000  0.000  0.000  0.000  0.000  0.000  0.000  0.000
 
band    11 # energy   16.79724198 # occ.  0.00000000
 
ion      s     py     pz     px    dxy    dyz    dz2    dxz  x2-y2    tot
    1  0.000  0.001  0.001  0.001  0.000  0.000  0.000  0.000  0.000  0.004
 
band    12 # energy   19.17687916 # occ.  0.00000000
 
ion      s     py     pz     px    dxy    dyz    dz2    dxz  x2-y2    tot
    1  0.026  0.003  0.003  0.003  0.000  0.000  0.000  0.000  0.000  0.037
 

 k-point     4 :    0.14285714 0.00000000 0.00000000     weight = 0.00086384

band     1 # energy   -6.23179015 # occ.  2.00000000
 
ion      s     py     pz     px    dxy    dyz    dz2    dxz  x2-y2    tot
    1  0.350  0.001  0.001  0.001  0.000  0.000  0.000  0.000  0.000  0.353
 
band     2 # energy    5.28789797 # occ.  0.00000000
 
ion      s     py     pz     px    dxy    dyz    dz2    dxz  x2-y2    tot
    1  0.059  0.120  0.120  0.120  0.000  0.000  0.000  0.000  0.000  0.420
 
band     3 # energy    6.84418785 # occ.  0.00000000
 
ion      s     py     pz     px    dxy    dyz    dz2    dxz  x2-y2    tot
    1  0.000  0.082  0.329  0.082  0.000  0.000  0.000  0.000  0.000  0.493
 
band     4 # energy    6.84418986 # occ.  0.00000000
 
ion      s     py     pz     px    dxy    dyz    dz2    dxz  x2-y2    tot
    1  0.000  0.246  0.000  0.246  0.000  0.000  0.000  0.000  0.000  0.493
 
band     5 # energy   11.42140462 # occ.  0.00000000
 
ion      s     py     pz     px    dxy    dyz    dz2    dxz  x2-y2    tot
    1  0.066  0.006  0.006  0.006  0.000  0.000  0.000  0.000  0.000  0.084
 
band     6 # energy   12.56756579 # occ.  0.00000000
 
ion      s     py     pz     px    dxy    dyz    dz2    dxz  x2-y2    tot
    1  0.000  0.004  0.015  0.004  0.000  0.000  0.000  0.000  0.000  0.023
 
band     7 # energy   12.56756609 # occ.  0.00000000
 
ion      s     py     pz     px    dxy    dyz    dz2    dxz  x2-y2    tot
    1  0.000  0.011  0.000  0.011  0.000  0.000  0.000  0.000  0.000  0.023
 
band     8 # energy   14.19783455 # occ.  0.00000000
 
ion      s     py     pz     px    dxy    dyz    dz2    dxz  x2-y2    tot
    1  0.233  0.047  0.047  0.047  0.000  0.000  0.000  0.000  0.000  0.375
 
band     9 # energy   15.00254938 # occ.  0.00000000
 
ion      s     py     pz     px    dxy    dyz    dz2    dxz  x2-y2    tot
    1  0.000  0.000  0.000  0.000  0.000  0.000  0.000  0.000  0.000  0.000
 
band    10 # energy   15.00254939 # occ.  0.00000000
 
ion      s     py     pz     px    dxy    dyz    dz2    dxz  x2-y2    tot
    1  0.000  0.000  0.000  0.000  0.000  0.000  0.000  0.000  0.000  0.000
 
band    11 # energy   17.41559517 # occ.  0.00000000
 
ion      s     py     pz     px    dxy    dyz    dz2    dxz  x2-y2    tot
    1  0.009  0.003  0.003  0.003  0.000  0.000  0.000  0.000  0.000  0.017
 
band    12 # energy   18.99279194 # occ.  0.00000000
 
ion      s     py     pz     px    dxy    dyz    dz2    dxz  x2-y2    tot
    1  0.035  0.000  0.000  0.000  0.000  0.000  0.000  0.000  0.000  0.035
 

 k-point     5 :    0.19047619 0.00000000 0.00000000     weight = 0.00086384

band     1 # energy   -5.98958691 # occ.  2.00000000
 
ion      s     py     pz     px    dxy    dyz    dz2    dxz  x2-y2    tot
    1  0.352  0.002  0.002  0.002  0.000  0.000  0.000  0.000  0.000  0.359
 
band     2 # energy    4.30771788 # occ.  0.00000000
 
ion      s     py     pz     px    dxy    dyz    dz2    dxz  x2-y2    tot
    1  0.073  0.104  0.104  0.104  0.000  0.000  0.000  0.000  0.000  0.385
 
band     3 # energy    6.70015725 # occ.  0.00000000
 
ion      s     py     pz     px    dxy    dyz    dz2    dxz  x2-y2    tot
    1  0.000  0.081  0.323  0.081  0.000  0.000  0.000  0.000  0.000  0.484
 
band     4 # energy    6.70015920 # occ.  0.00000000
 
ion      s     py     pz     px    dxy    dyz    dz2    dxz  x2-y2    tot
    1  0.000  0.242  0.000  0.242  0.000  0.000  0.000  0.000  0.000  0.484
 
band     5 # energy   11.10215739 # occ.  0.00000000
 
ion      s     py     pz     px    dxy    dyz    dz2    dxz  x2-y2    tot
    1  0.089  0.006  0.006  0.006  0.000  0.000  0.000  0.000  0.000  0.106
 
band     6 # energy   12.67405199 # occ.  0.00000000
 
ion      s     py     pz     px    dxy    dyz    dz2    dxz  x2-y2    tot
    1  0.000  0.004  0.018  0.004  0.000  0.000  0.000  0.000  0.000  0.027
 
band     7 # energy   12.67405233 # occ.  0.00000000
 
ion      s     py     pz     px    dxy    dyz    dz2    dxz  x2-y2    tot
    1  0.000  0.013  0.000  0.013  0.000  0.000  0.000  0.000  0.000  0.027
 
band     8 # energy   14.87337940 # occ.  0.00000000
 
ion      s     py     pz     px    dxy    dyz    dz2    dxz  x2-y2    tot
    1  0.165  0.064  0.064  0.064  0.000  0.000  0.000  0.000  0.000  0.357
 
band     9 # energy   14.91897330 # occ.  0.00000000
 
ion      s     py     pz     px    dxy    dyz    dz2    dxz  x2-y2    tot
    1  0.000  0.001  0.003  0.001  0.000  0.000  0.000  0.000  0.000  0.004
 
band    10 # energy   14.91897333 # occ.  0.00000000
 
ion      s     py     pz     px    dxy    dyz    dz2    dxz  x2-y2    tot
    1  0.000  0.002  0.000  0.002  0.000  0.000  0.000  0.000  0.000  0.004
 
band    11 # energy   17.29716611 # occ.  0.00000000
 
ion      s     py     pz     px    dxy    dyz    dz2    dxz  x2-y2    tot
    1  0.043  0.000  0.000  0.000  0.000  0.000  0.000  0.000  0.000  0.043
 
band    12 # energy   19.88832674 # occ.  0.00000000
 
ion      s     py     pz     px    dxy    dyz    dz2    dxz  x2-y2    tot
    1  0.025  0.003  0.003  0.003  0.000  0.000  0.000  0.000  0.000  0.034
 

 k-point     6 :    0.23809524 0.00000000 0.00000000     weight = 0.00086384

band     1 # energy   -5.68436527 # occ.  2.00000000
 
ion      s     py     pz     px    dxy    dyz    dz2    dxz  x2-y2    tot
    1  0.357  0.003  0.003  0.003  0.000  0.000  0.000  0.000  0.000  0.366
 
band     2 # energy    3.30970499 # occ. -0.05433157
 
ion      s     py     pz     px    dxy    dyz    dz2    dxz  x2-y2    tot
    1  0.080  0.092  0.092  0.092  0.000  0.000  0.000  0.000  0.000  0.356
 
band     3 # energy    6.55720688 # occ.  0.00000000
 
ion      s     py     pz     px    dxy    dyz    dz2    dxz  x2-y2    tot
    1  0.000  0.079  0.318  0.079  0.000  0.000  0.000  0.000  0.000  0.477
 
band     4 # energy    6.55720879 # occ.  0.00000000
 
ion      s     py     pz     px    dxy    dyz    dz2    dxz  x2-y2    tot
    1  0.000  0.238  0.000  0.238  0.000  0.000  0.000  0.000  0.000  0.477
 
band     5 # energy   10.82026082 # occ.  0.00000000
 
ion      s     py     pz     px    dxy    dyz    dz2    dxz  x2-y2    tot
    1  0.108  0.005  0.005  0.005  0.000  0.000  0.000  0.000  0.000  0.122
 
band     6 # energy   12.55799023 # occ.  0.00000000
 
ion      s     py     pz     px    dxy    dyz    dz2    dxz  x2-y2    tot
    1  0.000  0.004  0.014  0.004  0.000  0.000  0.000  0.000  0.000  0.022
 
band     7 # energy   12.55799053 # occ.  0.00000000
 
ion      s     py     pz     px    dxy    dyz    dz2    dxz  x2-y2    tot
    1  0.000  0.011  0.000  0.011  0.000  0.000  0.000  0.000  0.000  0.022
 
band     8 # energy   15.20370181 # occ.  0.00000000
 
ion      s     py     pz     px    dxy    dyz    dz2    dxz  x2-y2    tot
    1  0.000  0.002  0.009  0.002  0.000  0.000  0.000  0.000  0.000  0.013
 
band     9 # energy   15.20370193 # occ.  0.00000000
 
ion      s     py     pz     px    dxy    dyz    dz2    dxz  x2-y2    tot
    1  0.000  0.006  0.000  0.006  0.000  0.000  0.000  0.000  0.000  0.013
 
band    10 # energy   15.38927478 # occ.  0.00000000
 
ion      s     py     pz     px    dxy    dyz    dz2    dxz  x2-y2    tot
    1  0.080  0.067  0.067  0.067  0.000  0.000  0.000  0.000  0.000  0.282
 
band    11 # energy   17.10565885 # occ.  0.00000000
 
ion      s     py     pz     px    dxy    dyz    dz2    dxz  x2-y2    tot
    1  0.093  0.007  0.007  0.007  0.000  0.000  0.000  0.000  0.000  0.115
 
band    12 # energy   21.29403215 # occ.  0.00000000
 
ion      s     py     pz     px    dxy    dyz    dz2    dxz  x2-y2    tot
    1  0.021  0.006  0.006  0.006  0.000  0.000  0.000  0.000  0.000  0.041
 

 k-point     7 :    0.28571429 0.00000000 0.00000000     weight = 0.00086384

band     1 # energy   -5.32268770 # occ.  2.00000000
 
ion      s     py     pz     px    dxy    dyz    dz2    dxz  x2-y2    tot
    1  0.365  0.004  0.004  0.004  0.000  0.000  0.000  0.000  0.000  0.377
 
band     2 # energy    2.33929737 # occ.  1.54721804
 
ion      s     py     pz     px    dxy    dyz    dz2    dxz  x2-y2    tot
    1  0.081  0.083  0.083  0.083  0.000  0.000  0.000  0.000  0.000  0.330
 
band     3 # energy    6.42776424 # occ.  0.00000000
 
ion      s     py     pz     px    dxy    dyz    dz2    dxz  x2-y2    tot
    1  0.000  0.079  0.315  0.079  0.000  0.000  0.000  0.000  0.000  0.472
 
band     4 # energy    6.42776612 # occ.  0.00000000
 
ion      s     py     pz     px    dxy    dyz    dz2    dxz  x2-y2    tot
    1  0.000  0.236  0.000  0.236  0.000  0.000  0.000  0.000  0.000  0.472
 
band     5 # energy   10.59341756 # occ.  0.00000000
 
ion      s     py     pz     px    dxy    dyz    dz2    dxz  x2-y2    tot
    1  0.123  0.003  0.003  0.003  0.000  0.000  0.000  0.000  0.000  0.133
 
band     6 # energy   12.30246156 # occ.  0.00000000
 
ion      s     py     pz     px    dxy    dyz    dz2    dxz  x2-y2    tot
    1  0.000  0.002  0.010  0.002  0.000  0.000  0.000  0.000  0.000  0.015
 
band     7 # energy   12.30246182 # occ.  0.00000000
 
ion      s     py     pz     px    dxy    dyz    dz2    dxz  x2-y2    tot
    1  0.000  0.007  0.000  0.007  0.000  0.000  0.000  0.000  0.000  0.015
 
band     8 # energy   15.45941584 # occ.  0.00000000
 
ion      s     py     pz     px    dxy    dyz    dz2    dxz  x2-y2    tot
    1  0.015  0.045  0.045  0.045  0.000  0.000  0.000  0.000  0.000  0.151
 
band     9 # energy   15.79183826 # occ.  0.00000000
 
ion      s     py     pz     px    dxy    dyz    dz2    dxz  x2-y2    tot
    1  0.000  0.003  0.013  0.003  0.000  0.000  0.000  0.000  0.000  0.020
 
band    10 # energy   15.79183850 # occ.  0.00000000
 
ion      s     py     pz     px    dxy    dyz    dz2    dxz  x2-y2    tot
    1  0.000  0.010  0.000  0.010  0.000  0.000  0.000  0.000  0.000  0.020
 
band    11 # energy   17.41173830 # occ.  0.00000000
 
ion      s     py     pz     px    dxy    dyz    dz2    dxz  x2-y2    tot
    1  0.123  0.040  0.040  0.040  0.000  0.000  0.000  0.000  0.000  0.243
 
band    12 # energy   22.89120977 # occ.  0.00000000
 
ion      s     py     pz     px    dxy    dyz    dz2    dxz  x2-y2    tot
    1  0.020  0.009  0.009  0.009  0.000  0.000  0.000  0.000  0.000  0.047
 

 k-point     8 :    0.33333333 0.00000000 0.00000000     weight = 0.00086384

band     1 # energy   -4.91736369 # occ.  2.00000000
 
ion      s     py     pz     px    dxy    dyz    dz2    dxz  x2-y2    tot
    1  0.378  0.004  0.004  0.004  0.000  0.000  0.000  0.000  0.000  0.392
 
band     2 # energy    1.43033880 # occ.  2.00000000
 
ion      s     py     pz     px    dxy    dyz    dz2    dxz  x2-y2    tot
    1  0.075  0.077  0.077  0.077  0.000  0.000  0.000  0.000  0.000  0.305
 
band     3 # energy    6.31945357 # occ.  0.00000000
 
ion      s     py     pz     px    dxy    dyz    dz2    dxz  x2-y2    tot
    1  0.000  0.078  0.314  0.078  0.000  0.000  0.000  0.000  0.000  0.470
 
band     4 # energy    6.31945542 # occ.  0.00000000
 
ion      s     py     pz     px    dxy    dyz    dz2    dxz  x2-y2    tot
    1  0.000  0.235  0.000  0.235  0.000  0.000  0.000  0.000  0.000  0.470
 
band     5 # energy   10.41324845 # occ.  0.00000000
 
ion      s     py     pz     px    dxy    dyz    dz2    dxz  x2-y2    tot
    1  0.136  0.002  0.002  0.002  0.000  0.000  0.000  0.000  0.000  0.142
 
band     6 # energy   12.02802433 # occ.  0.00000000
 
ion      s     py     pz     px    dxy    dyz    dz2    dxz  x2-y2    tot
    1  0.000  0.002  0.006  0.002  0.000  0.000  0.000  0.000  0.000  0.009
 
band     7 # energy   12.02802455 # occ.  0.00000000
 
ion      s     py     pz     px    dxy    dyz    dz2    dxz  x2-y2    tot
    1  0.000  0.005  0.000  0.005  0.000  0.000  0.000  0.000  0.000  0.009
 
band     8 # energy   15.23111265 # occ.  0.00000000
 
ion      s     py     pz     px    dxy    dyz    dz2    dxz  x2-y2    tot
    1  0.002  0.028  0.028  0.028  0.000  0.000  0.000  0.000  0.000  0.087
 
band     9 # energy   16.56164988 # occ.  0.00000000
 
ion      s     py     pz     px    dxy    dyz    dz2    dxz  x2-y2    tot
    1  0.000  0.004  0.015  0.004  0.000  0.000  0.000  0.000  0.000  0.023
 
band    10 # energy   16.56165024 # occ.  0.00000000
 
ion      s     py     pz     px    dxy    dyz    dz2    dxz  x2-y2    tot
    1  0.000  0.012  0.000  0.012  0.000  0.000  0.000  0.000  0.000  0.023
 
band    11 # energy   18.10226616 # occ.  0.00000000
 
ion      s     py     pz     px    dxy    dyz    dz2    dxz  x2-y2    tot
    1  0.102  0.068  0.068  0.068  0.000  0.000  0.000  0.000  0.000  0.306
 
band    12 # energy   24.56604041 # occ.  0.00000000
 
ion      s     py     pz     px    dxy    dyz    dz2    dxz  x2-y2    tot
    1  0.020  0.009  0.009  0.009  0.000  0.000  0.000  0.000  0.000  0.048
 

 k-point     9 :    0.38095238 0.00000000 0.00000000     weight = 0.00086384

band     1 # energy   -4.49375586 # occ.  2.00000000
 
ion      s     py     pz     px    dxy    dyz    dz2    dxz  x2-y2    tot
    1  0.398  0.004  0.004  0.004  0.000  0.000  0.000  0.000  0.000  0.411
 
band     2 # energy    0.62022920 # occ.  2.00000000
 
ion      s     py     pz     px    dxy    dyz    dz2    dxz  x2-y2    tot
    1  0.059  0.073  0.073  0.073  0.000  0.000  0.000  0.000  0.000  0.277
 
band     3 # energy    6.23568941 # occ.  0.00000000
 
ion      s     py     pz     px    dxy    dyz    dz2    dxz  x2-y2    tot
    1  0.000  0.078  0.312  0.078  0.000  0.000  0.000  0.000  0.000  0.468
 
band     4 # energy    6.23569125 # occ.  0.00000000
 
ion      s     py     pz     px    dxy    dyz    dz2    dxz  x2-y2    tot
    1  0.000  0.234  0.000  0.234  0.000  0.000  0.000  0.000  0.000  0.468
 
band     5 # energy   10.27737205 # occ.  0.00000000
 
ion      s     py     pz     px    dxy    dyz    dz2    dxz  x2-y2    tot
    1  0.145  0.001  0.001  0.001  0.000  0.000  0.000  0.000  0.000  0.148
 
band     6 # energy   11.78265891 # occ.  0.00000000
 
ion      s     py     pz     px    dxy    dyz    dz2    dxz  x2-y2    tot
    1  0.000  0.001  0.003  0.001  0.000  0.000  0.000  0.000  0.000  0.005
 
band     7 # energy   11.78265910 # occ.  0.00000000
 
ion      s     py     pz     px    dxy    dyz    dz2    dxz  x2-y2    tot
    1  0.000  0.002  0.000  0.002  0.000  0.000  0.000  0.000  0.000  0.005
 
band     8 # energy   14.97534253 # occ.  0.00000000
 
ion      s     py     pz     px    dxy    dyz    dz2    dxz  x2-y2    tot
    1  0.000  0.021  0.021  0.021  0.000  0.000  0.000  0.000  0.000  0.062
 
band     9 # energy   17.36447722 # occ.  0.00000000
 
ion      s     py     pz     px    dxy    dyz    dz2    dxz  x2-y2    tot
    1  0.000  0.004  0.014  0.004  0.000  0.000  0.000  0.000  0.000  0.021
 
band    10 # energy   17.36447768 # occ.  0.00000000
 
ion      s     py     pz     px    dxy    dyz    dz2    dxz  x2-y2    tot
    1  0.000  0.011  0.000  0.011  0.000  0.000  0.000  0.000  0.000  0.021
 
band    11 # energy   18.88292241 # occ.  0.00000000
 
ion      s     py     pz     px    dxy    dyz    dz2    dxz  x2-y2    tot
    1  0.068  0.088  0.088  0.088  0.000  0.000  0.000  0.000  0.000  0.333
 
band    12 # energy   24.94217153 # occ.  0.00000000
 
ion      s     py     pz     px    dxy    dyz    dz2    dxz  x2-y2    tot
    1  0.000  0.019  0.003  0.032  0.000  0.000  0.000  0.000  0.000  0.055
 

 k-point    10 :    0.42857143 0.00000000 0.00000000     weight = 0.00086384

band     1 # energy   -4.10353745 # occ.  2.00000000
 
ion      s     py     pz     px    dxy    dyz    dz2    dxz  x2-y2    tot
    1  0.428  0.003  0.003  0.003  0.000  0.000  0.000  0.000  0.000  0.436
 
band     2 # energy   -0.03094858 # occ.  2.00000000
 
ion      s     py     pz     px    dxy    dyz    dz2    dxz  x2-y2    tot
    1  0.032  0.072  0.072  0.072  0.000  0.000  0.000  0.000  0.000  0.248
 
band     3 # energy    6.17981344 # occ.  0.00000000
 
ion      s     py     pz     px    dxy    dyz    dz2    dxz  x2-y2    tot
    1  0.000  0.078  0.312  0.078  0.000  0.000  0.000  0.000  0.000  0.468
 
band     4 # energy    6.17981527 # occ.  0.00000000
 
ion      s     py     pz     px    dxy    dyz    dz2    dxz  x2-y2    tot
    1  0.000  0.234  0.000  0.234  0.000  0.000  0.000  0.000  0.000  0.468
 
band     5 # energy   10.19136272 # occ.  0.00000000
 
ion      s     py     pz     px    dxy    dyz    dz2    dxz  x2-y2    tot
    1  0.151  0.000  0.000  0.000  0.000  0.000  0.000  0.000  0.000  0.153
 
band     6 # energy   11.61364921 # occ.  0.00000000
 
ion      s     py     pz     px    dxy    dyz    dz2    dxz  x2-y2    tot
    1  0.000  0.000  0.001  0.000  0.000  0.000  0.000  0.000  0.000  0.002
 
band     7 # energy   11.61364939 # occ.  0.00000000
 
ion      s     py     pz     px    dxy    dyz    dz2    dxz  x2-y2    tot
    1  0.000  0.001  0.000  0.001  0.000  0.000  0.000  0.000  0.000  0.002
 
band     8 # energy   14.78315042 # occ.  0.00000000
 
ion      s     py     pz     px    dxy    dyz    dz2    dxz  x2-y2    tot
    1  0.000  0.017  0.017  0.017  0.000  0.000  0.000  0.000  0.000  0.051
 
band     9 # energy   18.14766738 # occ.  0.00000000
 
ion      s     py     pz     px    dxy    dyz    dz2    dxz  x2-y2    tot
    1  0.000  0.002  0.008  0.002  0.000  0.000  0.000  0.000  0.000  0.013
 
band    10 # energy   18.14766795 # occ.  0.00000000
 
ion      s     py     pz     px    dxy    dyz    dz2    dxz  x2-y2    tot
    1  0.000  0.006  0.000  0.006  0.000  0.000  0.000  0.000  0.000  0.013
 
band    11 # energy   19.59153293 # occ.  0.00000000
 
ion      s     py     pz     px    dxy    dyz    dz2    dxz  x2-y2    tot
    1  0.032  0.106  0.106  0.106  0.000  0.000  0.000  0.000  0.000  0.351
 
band    12 # energy   23.87948397 # occ.  0.00000000
 
ion      s     py     pz     px    dxy    dyz    dz2    dxz  x2-y2    tot
    1  0.000  0.004  0.034  0.036  0.000  0.000  0.000  0.000  0.000  0.074
 

 k-point    11 :    0.47619048 0.00000000 0.00000000     weight = 0.00086384

band     1 # energy   -3.84767656 # occ.  2.00000000
 
ion      s     py     pz     px    dxy    dyz    dz2    dxz  x2-y2    tot
    1  0.457  0.000  0.000  0.000  0.000  0.000  0.000  0.000  0.000  0.458
 
band     2 # energy   -0.41807359 # occ.  2.00000000
 
ion      s     py     pz     px    dxy    dyz    dz2    dxz  x2-y2    tot
    1  0.005  0.073  0.073  0.073  0.000  0.000  0.000  0.000  0.000  0.223
 
band     3 # energy    6.15180110 # occ.  0.00000000
 
ion      s     py     pz     px    dxy    dyz    dz2    dxz  x2-y2    tot
    1  0.000  0.078  0.312  0.078  0.000  0.000  0.000  0.000  0.000  0.468
 
band     4 # energy    6.15180293 # occ.  0.00000000
 
ion      s     py     pz     px    dxy    dyz    dz2    dxz  x2-y2    tot
    1  0.000  0.234  0.000  0.234  0.000  0.000  0.000  0.000  0.000  0.468
 
band     5 # energy   10.15060695 # occ.  0.00000000
 
ion      s     py     pz     px    dxy    dyz    dz2    dxz  x2-y2    tot
    1  0.154  0.000  0.000  0.000  0.000  0.000  0.000  0.000  0.000  0.154
 
band     6 # energy   11.52640696 # occ.  0.00000000
 
ion      s     py     pz     px    dxy    dyz    dz2    dxz  x2-y2    tot
    1  0.000  0.000  0.000  0.000  0.000  0.000  0.000  0.000  0.000  0.000
 
band     7 # energy   11.52640713 # occ.  0.00000000
 
ion      s     py     pz     px    dxy    dyz    dz2    dxz  x2-y2    tot
    1  0.000  0.000  0.000  0.000  0.000  0.000  0.000  0.000  0.000  0.000
 
band     8 # energy   14.68236012 # occ.  0.00000000
 
ion      s     py     pz     px    dxy    dyz    dz2    dxz  x2-y2    tot
    1  0.000  0.016  0.016  0.016  0.000  0.000  0.000  0.000  0.000  0.047
 
band     9 # energy   18.70045463 # occ.  0.00000000
 
ion      s     py     pz     px    dxy    dyz    dz2    dxz  x2-y2    tot
    1  0.000  0.000  0.001  0.000  0.000  0.000  0.000  0.000  0.000  0.002
 
band    10 # energy   18.70045530 # occ.  0.00000000
 
ion      s     py     pz     px    dxy    dyz    dz2    dxz  x2-y2    tot
    1  0.000  0.001  0.000  0.001  0.000  0.000  0.000  0.000  0.000  0.002
 
band    11 # energy   20.04475659 # occ.  0.00000000
 
ion      s     py     pz     px    dxy    dyz    dz2    dxz  x2-y2    tot
    1  0.004  0.120  0.120  0.120  0.000  0.000  0.000  0.000  0.000  0.365
 
band    12 # energy   23.18390644 # occ.  0.00000000
 
ion      s     py     pz     px    dxy    dyz    dz2    dxz  x2-y2    tot
    1  0.000  0.048  0.032  0.009  0.000  0.000  0.000  0.000  0.000  0.089
 

 k-point    12 :    0.04761905 0.04761905 0.00000000     weight = 0.00064788

band     1 # energy   -6.50090262 # occ.  2.00000000
 
ion      s     py     pz     px    dxy    dyz    dz2    dxz  x2-y2    tot
    1  0.347  0.001  0.000  0.000  0.000  0.000  0.000  0.000  0.000  0.348
 
band     2 # energy    6.91343637 # occ.  0.00000000
 
ion      s     py     pz     px    dxy    dyz    dz2    dxz  x2-y2    tot
    1  0.018  0.492  0.000  0.000  0.000  0.000  0.000  0.000  0.000  0.510
 
band     3 # energy    6.96951951 # occ.  0.00000000
 
ion      s     py     pz     px    dxy    dyz    dz2    dxz  x2-y2    tot
    1  0.000  0.000  0.251  0.251  0.000  0.000  0.000  0.000  0.000  0.501
 
band     4 # energy    6.96952106 # occ.  0.00000000
 
ion      s     py     pz     px    dxy    dyz    dz2    dxz  x2-y2    tot
    1  0.000  0.000  0.251  0.251  0.000  0.000  0.000  0.000  0.000  0.501
 
band     5 # energy   11.83589112 # occ.  0.00000000
 
ion      s     py     pz     px    dxy    dyz    dz2    dxz  x2-y2    tot
    1  0.000  0.000  0.000  0.000  0.000  0.000  0.000  0.000  0.000  0.000
 
band     6 # energy   12.27408542 # occ.  0.00000000
 
ion      s     py     pz     px    dxy    dyz    dz2    dxz  x2-y2    tot
    1  0.000  0.000  0.007  0.007  0.000  0.000  0.000  0.000  0.000  0.014
 
band     7 # energy   12.27408557 # occ.  0.00000000
 
ion      s     py     pz     px    dxy    dyz    dz2    dxz  x2-y2    tot
    1  0.000  0.000  0.007  0.007  0.000  0.000  0.000  0.000  0.000  0.014
 
band     8 # energy   13.11223758 # occ.  0.00000000
 
ion      s     py     pz     px    dxy    dyz    dz2    dxz  x2-y2    tot