<?xml version="1.0" encoding="ISO-8859-1"?>
<modeling>
 <generator>
  <i name="program" type="string">vasp </i>
  <i name="version" type="string">5.4.4.18Apr17-6-g9f103f2a35  </i>
  <i name="subversion" type="string">(build Mar 30 2023 15:39:25) complex            parallel </i>
  <i name="platform" type="string">LinuxIFC </i>
  <i name="date" type="string">2023 04 28 </i>
  <i name="time" type="string">16:59:52 </i>
 </generator>
 <incar>
  <i type="string" name="SYSTEM"> fcc Si DOS</i>
  <i type="int" name="ISTART">     0</i>
  <i type="string" name="PREC">accurate</i>
  <i type="int" name="ICHARG">     2</i>
  <i name="EDIFF">      0.00000100</i>
  <i name="EDIFFG">     -0.00000100</i>
  <i name="ENCUT">    240.00000000</i>
  <i type="int" name="ISMEAR">    -5</i>
  <i name="SIGMA">      0.10000000</i>
  <i type="int" name="LORBIT">    11</i>
  <v type="int" name="KPOINT_BSE">    -1     0     0     0</v>
 </incar>
 <structure name="primitive_cell" >
  <crystal>
   <varray name="basis" >
    <v>       2.50000000       2.50000000       0.00000000 </v>
    <v>       0.00000000       2.50000000       2.50000000 </v>
    <v>       2.50000000       0.00000000       2.50000000 </v>
   </varray>
   <i name="volume">     31.25000000 </i>
   <varray name="rec_basis" >
    <v>       0.20000000       0.20000000      -0.20000000 </v>
    <v>      -0.20000000       0.20000000       0.20000000 </v>
    <v>       0.20000000      -0.20000000       0.20000000 </v>
   </varray>
  </crystal>
  <varray name="positions" >
   <v>       0.00000000       0.00000000       0.00000000 </v>
  </varray>
 </structure>
 <varray name="primitive_index" >
  <v type="int" >        1 </v>
 </varray>
 <kpoints>
  <generation param="Monkhorst-Pack">
   <v type="int" name="divisions">      21       21       21 </v>
   <v name="usershift">      0.00000000       0.00000000       0.00000000 </v>
   <v name="genvec1">      0.04761905       0.00000000       0.00000000 </v>
   <v name="genvec2">      0.00000000       0.04761905       0.00000000 </v>
   <v name="genvec3">      0.00000000       0.00000000       0.04761905 </v>
   <v name="shift">      0.00000000       0.00000000       0.00000000 </v>
  </generation>
  <varray name="kpointlist" >
   <v>       0.00000000       0.00000000       0.00000000 </v>
   <v>       0.04761905       0.00000000       0.00000000 </v>
   <v>       0.09523810       0.00000000       0.00000000 </v>
   <v>       0.14285714       0.00000000       0.00000000 </v>
   <v>       0.19047619       0.00000000       0.00000000 </v>
   <v>       0.23809524       0.00000000       0.00000000 </v>
   <v>       0.28571429       0.00000000       0.00000000 </v>
   <v>       0.33333333       0.00000000       0.00000000 </v>
   <v>       0.38095238       0.00000000       0.00000000 </v>
   <v>       0.42857143       0.00000000       0.00000000 </v>
   <v>       0.47619048       0.00000000       0.00000000 </v>
   <v>       0.04761905       0.04761905       0.00000000 </v>
   <v>       0.09523810       0.04761905       0.00000000 </v>
   <v>       0.14285714       0.04761905       0.00000000 </v>
   <v>       0.19047619       0.04761905       0.00000000 </v>
   <v>       0.23809524       0.04761905       0.00000000 </v>
   <v>       0.28571429       0.04761905       0.00000000 </v>
   <v>       0.33333333       0.04761905       0.00000000 </v>
   <v>       0.38095238       0.04761905       0.00000000 </v>
   <v>       0.42857143       0.04761905       0.00000000 </v>
   <v>       0.47619048       0.04761905       0.00000000 </v>
   <v>      -0.47619048       0.04761905       0.00000000 </v>
   <v>      -0.42857143       0.04761905       0.00000000 </v>
   <v>      -0.38095238       0.04761905       0.00000000 </v>
   <v>      -0.33333333       0.04761905       0.00000000 </v>
   <v>      -0.28571429       0.04761905       0.00000000 </v>
   <v>      -0.23809524       0.04761905       0.00000000 </v>
   <v>      -0.19047619       0.04761905       0.00000000 </v>
   <v>      -0.14285714       0.04761905       0.00000000 </v>
   <v>      -0.09523810       0.04761905       0.00000000 </v>
   <v>      -0.04761905       0.04761905       0.00000000 </v>
   <v>       0.09523810       0.09523810       0.00000000 </v>
   <v>       0.14285714       0.09523810       0.00000000 </v>
   <v>       0.19047619       0.09523810       0.00000000 </v>
   <v>       0.23809524       0.09523810       0.00000000 </v>
   <v>       0.28571429       0.09523810       0.00000000 </v>
   <v>       0.33333333       0.09523810       0.00000000 </v>
   <v>       0.38095238       0.09523810       0.00000000 </v>
   <v>       0.42857143       0.09523810       0.00000000 </v>
   <v>       0.47619048       0.09523810       0.00000000 </v>
   <v>      -0.47619048       0.09523810       0.00000000 </v>
   <v>      -0.42857143       0.09523810       0.00000000 </v>
   <v>      -0.38095238       0.09523810       0.00000000 </v>
   <v>      -0.33333333       0.09523810       0.00000000 </v>
   <v>      -0.28571429       0.09523810       0.00000000 </v>
   <v>      -0.23809524       0.09523810       0.00000000 </v>
   <v>      -0.19047619       0.09523810       0.00000000 </v>
   <v>      -0.14285714       0.09523810       0.00000000 </v>
   <v>      -0.09523810       0.09523810       0.00000000 </v>
   <v>       0.14285714       0.14285714       0.00000000 </v>
   <v>       0.19047619       0.14285714       0.00000000 </v>
   <v>       0.23809524       0.14285714       0.00000000 </v>
   <v>       0.28571429       0.14285714       0.00000000 </v>
   <v>       0.33333333       0.14285714       0.00000000 </v>
   <v>       0.38095238       0.14285714       0.00000000 </v>
   <v>       0.42857143       0.14285714       0.00000000 </v>
   <v>       0.47619048       0.14285714       0.00000000 </v>
   <v>      -0.47619048       0.14285714       0.00000000 </v>
   <v>      -0.42857143       0.14285714       0.00000000 </v>
   <v>      -0.38095238       0.14285714       0.00000000 </v>
   <v>      -0.33333333       0.14285714       0.00000000 </v>
   <v>      -0.28571429       0.14285714       0.00000000 </v>
   <v>      -0.23809524       0.14285714       0.00000000 </v>
   <v>      -0.19047619       0.14285714       0.00000000 </v>
   <v>      -0.14285714       0.14285714       0.00000000 </v>
   <v>       0.19047619       0.19047619       0.00000000 </v>
   <v>       0.23809524       0.19047619       0.00000000 </v>
   <v>       0.28571429       0.19047619       0.00000000 </v>
   <v>       0.33333333       0.19047619       0.00000000 </v>
   <v>       0.38095238       0.19047619       0.00000000 </v>
   <v>       0.42857143       0.19047619       0.00000000 </v>
   <v>       0.47619048       0.19047619       0.00000000 </v>
   <v>      -0.47619048       0.19047619       0.00000000 </v>
   <v>      -0.42857143       0.19047619       0.00000000 </v>
   <v>      -0.38095238       0.19047619       0.00000000 </v>
   <v>      -0.33333333       0.19047619       0.00000000 </v>
   <v>      -0.28571429       0.19047619       0.00000000 </v>
   <v>      -0.23809524       0.19047619       0.00000000 </v>
   <v>      -0.19047619       0.19047619       0.00000000 </v>
   <v>       0.23809524       0.23809524       0.00000000 </v>
   <v>       0.28571429       0.23809524       0.00000000 </v>
   <v>       0.33333333       0.23809524       0.00000000 </v>
   <v>       0.38095238       0.23809524       0.00000000 </v>
   <v>       0.42857143       0.23809524       0.00000000 </v>
   <v>       0.47619048       0.23809524       0.00000000 </v>
   <v>      -0.47619048       0.23809524       0.00000000 </v>
   <v>      -0.42857143       0.23809524       0.00000000 </v>
   <v>      -0.38095238       0.23809524       0.00000000 </v>
   <v>      -0.33333333       0.23809524       0.00000000 </v>
   <v>      -0.28571429       0.23809524       0.00000000 </v>
   <v>      -0.23809524       0.23809524       0.00000000 </v>
   <v>       0.28571429       0.28571429       0.00000000 </v>
   <v>       0.33333333       0.28571429       0.00000000 </v>
   <v>       0.38095238       0.28571429       0.00000000 </v>
   <v>       0.42857143       0.28571429       0.00000000 </v>
   <v>       0.47619048       0.28571429       0.00000000 </v>
   <v>      -0.47619048       0.28571429       0.00000000 </v>
   <v>      -0.42857143       0.28571429       0.00000000 </v>
   <v>      -0.38095238       0.28571429       0.00000000 </v>
   <v>      -0.33333333       0.28571429       0.00000000 </v>
   <v>      -0.28571429       0.28571429       0.00000000 </v>
   <v>       0.33333333       0.33333333       0.00000000 </v>
   <v>       0.38095238       0.33333333       0.00000000 </v>
   <v>       0.42857143       0.33333333       0.00000000 </v>
   <v>       0.47619048       0.33333333       0.00000000 </v>
   <v>      -0.47619048       0.33333333       0.00000000 </v>
   <v>      -0.42857143       0.33333333       0.00000000 </v>
   <v>      -0.38095238       0.33333333       0.00000000 </v>
   <v>      -0.33333333       0.33333333       0.00000000 </v>
   <v>       0.38095238       0.38095238       0.00000000 </v>
   <v>       0.42857143       0.38095238       0.00000000 </v>
   <v>       0.47619048       0.38095238       0.00000000 </v>
   <v>      -0.47619048       0.38095238       0.00000000 </v>
   <v>      -0.42857143       0.38095238       0.00000000 </v>
   <v>      -0.38095238       0.38095238       0.00000000 </v>
   <v>       0.42857143       0.42857143       0.00000000 </v>
   <v>       0.47619048       0.42857143       0.00000000 </v>
   <v>      -0.47619048       0.42857143       0.00000000 </v>
   <v>      -0.42857143       0.42857143       0.00000000 </v>
   <v>       0.47619048       0.47619048       0.00000000 </v>
   <v>      -0.47619048       0.47619048       0.00000000 </v>
   <v>       0.14285714       0.09523810       0.04761905 </v>
   <v>       0.19047619       0.09523810       0.04761905 </v>
   <v>       0.23809524       0.09523810       0.04761905 </v>
   <v>       0.28571429       0.09523810       0.04761905 </v>
   <v>       0.33333333       0.09523810       0.04761905 </v>
   <v>       0.38095238       0.09523810       0.04761905 </v>
   <v>       0.42857143       0.09523810       0.04761905 </v>
   <v>       0.47619048       0.09523810       0.04761905 </v>
   <v>      -0.47619048       0.09523810       0.04761905 </v>
   <v>       0.19047619       0.14285714       0.04761905 </v>
   <v>       0.23809524       0.14285714       0.04761905 </v>
   <v>       0.28571429       0.14285714       0.04761905 </v>
   <v>       0.33333333       0.14285714       0.04761905 </v>
   <v>       0.38095238       0.14285714       0.04761905 </v>
   <v>       0.42857143       0.14285714       0.04761905 </v>
   <v>       0.47619048       0.14285714       0.04761905 </v>
   <v>      -0.47619048       0.14285714       0.04761905 </v>
   <v>      -0.42857143       0.14285714       0.04761905 </v>
   <v>      -0.38095238       0.14285714       0.04761905 </v>
   <v>      -0.33333333       0.14285714       0.04761905 </v>
   <v>      -0.28571429       0.14285714       0.04761905 </v>
   <v>      -0.23809524       0.14285714       0.04761905 </v>
   <v>      -0.19047619       0.14285714       0.04761905 </v>
   <v>      -0.14285714       0.14285714       0.04761905 </v>
   <v>      -0.09523810       0.14285714       0.04761905 </v>
   <v>       0.23809524       0.19047619       0.04761905 </v>
   <v>       0.28571429       0.19047619       0.04761905 </v>
   <v>       0.33333333       0.19047619       0.04761905 </v>
   <v>       0.38095238       0.19047619       0.04761905 </v>
   <v>       0.42857143       0.19047619       0.04761905 </v>
   <v>       0.47619048       0.19047619       0.04761905 </v>
   <v>      -0.47619048       0.19047619       0.04761905 </v>
   <v>      -0.42857143       0.19047619       0.04761905 </v>
   <v>      -0.38095238       0.19047619       0.04761905 </v>
   <v>      -0.33333333       0.19047619       0.04761905 </v>
   <v>      -0.28571429       0.19047619       0.04761905 </v>
   <v>      -0.23809524       0.19047619       0.04761905 </v>
   <v>      -0.19047619       0.19047619       0.04761905 </v>
   <v>      -0.14285714       0.19047619       0.04761905 </v>
   <v>       0.28571429       0.23809524       0.04761905 </v>
   <v>       0.33333333       0.23809524       0.04761905 </v>
   <v>       0.38095238       0.23809524       0.04761905 </v>
   <v>       0.42857143       0.23809524       0.04761905 </v>
   <v>       0.47619048       0.23809524       0.04761905 </v>
   <v>      -0.47619048       0.23809524       0.04761905 </v>
   <v>      -0.42857143       0.23809524       0.04761905 </v>
   <v>      -0.38095238       0.23809524       0.04761905 </v>
   <v>      -0.33333333       0.23809524       0.04761905 </v>
   <v>      -0.28571429       0.23809524       0.04761905 </v>
   <v>      -0.23809524       0.23809524       0.04761905 </v>
   <v>      -0.19047619       0.23809524       0.04761905 </v>
   <v>       0.33333333       0.28571429       0.04761905 </v>
   <v>       0.38095238       0.28571429       0.04761905 </v>
   <v>       0.42857143       0.28571429       0.04761905 </v>
   <v>       0.47619048       0.28571429       0.04761905 </v>
   <v>      -0.47619048       0.28571429       0.04761905 </v>
   <v>      -0.42857143       0.28571429       0.04761905 </v>
   <v>      -0.38095238       0.28571429       0.04761905 </v>
   <v>      -0.33333333       0.28571429       0.04761905 </v>
   <v>      -0.28571429       0.28571429       0.04761905 </v>
   <v>      -0.23809524       0.28571429       0.04761905 </v>
   <v>       0.38095238       0.33333333       0.04761905 </v>
   <v>       0.42857143       0.33333333       0.04761905 </v>
   <v>       0.47619048       0.33333333       0.04761905 </v>
   <v>      -0.47619048       0.33333333       0.04761905 </v>
   <v>      -0.42857143       0.33333333       0.04761905 </v>
   <v>      -0.38095238       0.33333333       0.04761905 </v>
   <v>      -0.33333333       0.33333333       0.04761905 </v>
   <v>      -0.28571429       0.33333333       0.04761905 </v>
   <v>       0.42857143       0.38095238       0.04761905 </v>
   <v>       0.47619048       0.38095238       0.04761905 </v>
   <v>      -0.47619048       0.38095238       0.04761905 </v>
   <v>      -0.42857143       0.38095238       0.04761905 </v>
   <v>      -0.38095238       0.38095238       0.04761905 </v>
   <v>      -0.33333333       0.38095238       0.04761905 </v>
   <v>       0.47619048       0.42857143       0.04761905 </v>
   <v>      -0.47619048       0.42857143       0.04761905 </v>
   <v>      -0.42857143       0.42857143       0.04761905 </v>
   <v>      -0.38095238       0.42857143       0.04761905 </v>
   <v>      -0.47619048       0.47619048       0.04761905 </v>
   <v>      -0.42857143       0.47619048       0.04761905 </v>
   <v>       0.28571429       0.19047619       0.09523810 </v>
   <v>       0.33333333       0.19047619       0.09523810 </v>
   <v>       0.38095238       0.19047619       0.09523810 </v>
   <v>       0.42857143       0.19047619       0.09523810 </v>
   <v>       0.47619048       0.19047619       0.09523810 </v>
   <v>      -0.47619048       0.19047619       0.09523810 </v>
   <v>      -0.42857143       0.19047619       0.09523810 </v>
   <v>       0.33333333       0.23809524       0.09523810 </v>
   <v>       0.38095238       0.23809524       0.09523810 </v>
   <v>       0.42857143       0.23809524       0.09523810 </v>
   <v>       0.47619048       0.23809524       0.09523810 </v>
   <v>      -0.47619048       0.23809524       0.09523810 </v>
   <v>      -0.42857143       0.23809524       0.09523810 </v>
   <v>      -0.38095238       0.23809524       0.09523810 </v>
   <v>      -0.33333333       0.23809524       0.09523810 </v>
   <v>      -0.28571429       0.23809524       0.09523810 </v>
   <v>      -0.23809524       0.23809524       0.09523810 </v>
   <v>      -0.19047619       0.23809524       0.09523810 </v>
   <v>      -0.14285714       0.23809524       0.09523810 </v>
   <v>       0.38095238       0.28571429       0.09523810 </v>
   <v>       0.42857143       0.28571429       0.09523810 </v>
   <v>       0.47619048       0.28571429       0.09523810 </v>
   <v>      -0.47619048       0.28571429       0.09523810 </v>
   <v>      -0.42857143       0.28571429       0.09523810 </v>
   <v>      -0.38095238       0.28571429       0.09523810 </v>
   <v>      -0.33333333       0.28571429       0.09523810 </v>
   <v>      -0.28571429       0.28571429       0.09523810 </v>
   <v>      -0.23809524       0.28571429       0.09523810 </v>
   <v>      -0.19047619       0.28571429       0.09523810 </v>
   <v>       0.42857143       0.33333333       0.09523810 </v>
   <v>       0.47619048       0.33333333       0.09523810 </v>
   <v>      -0.47619048       0.33333333       0.09523810 </v>
   <v>      -0.42857143       0.33333333       0.09523810 </v>
   <v>      -0.38095238       0.33333333       0.09523810 </v>
   <v>      -0.33333333       0.33333333       0.09523810 </v>
   <v>      -0.28571429       0.33333333       0.09523810 </v>
   <v>      -0.23809524       0.33333333       0.09523810 </v>
   <v>       0.47619048       0.38095238       0.09523810 </v>
   <v>      -0.47619048       0.38095238       0.09523810 </v>
   <v>      -0.42857143       0.38095238       0.09523810 </v>
   <v>      -0.38095238       0.38095238       0.09523810 </v>
   <v>      -0.33333333       0.38095238       0.09523810 </v>
   <v>      -0.28571429       0.38095238       0.09523810 </v>
   <v>      -0.47619048       0.42857143       0.09523810 </v>
   <v>      -0.42857143       0.42857143       0.09523810 </v>
   <v>      -0.38095238       0.42857143       0.09523810 </v>
   <v>      -0.33333333       0.42857143       0.09523810 </v>
   <v>      -0.42857143       0.47619048       0.09523810 </v>
   <v>      -0.38095238       0.47619048       0.09523810 </v>
   <v>       0.42857143       0.28571429       0.14285714 </v>
   <v>       0.47619048       0.28571429       0.14285714 </v>
   <v>      -0.47619048       0.28571429       0.14285714 </v>
   <v>      -0.42857143       0.28571429       0.14285714 </v>
   <v>      -0.38095238       0.28571429       0.14285714 </v>
   <v>       0.47619048       0.33333333       0.14285714 </v>
   <v>      -0.47619048       0.33333333       0.14285714 </v>
   <v>      -0.42857143       0.33333333       0.14285714 </v>
   <v>      -0.38095238       0.33333333       0.14285714 </v>
   <v>      -0.33333333       0.33333333       0.14285714 </v>
   <v>      -0.28571429       0.33333333       0.14285714 </v>
   <v>      -0.23809524       0.33333333       0.14285714 </v>
   <v>      -0.19047619       0.33333333       0.14285714 </v>
   <v>      -0.47619048       0.38095238       0.14285714 </v>
   <v>      -0.42857143       0.38095238       0.14285714 </v>
   <v>      -0.38095238       0.38095238       0.14285714 </v>
   <v>      -0.33333333       0.38095238       0.14285714 </v>
   <v>      -0.28571429       0.38095238       0.14285714 </v>
   <v>      -0.23809524       0.38095238       0.14285714 </v>
   <v>      -0.42857143       0.42857143       0.14285714 </v>
   <v>      -0.38095238       0.42857143       0.14285714 </v>
   <v>      -0.33333333       0.42857143       0.14285714 </v>
   <v>      -0.28571429       0.42857143       0.14285714 </v>
   <v>      -0.38095238       0.47619048       0.14285714 </v>
   <v>      -0.33333333       0.47619048       0.14285714 </v>
   <v>      -0.42857143       0.38095238       0.19047619 </v>
   <v>      -0.38095238       0.38095238       0.19047619 </v>
   <v>      -0.33333333       0.38095238       0.19047619 </v>
   <v>      -0.38095238       0.42857143       0.19047619 </v>
   <v>      -0.33333333       0.42857143       0.19047619 </v>
   <v>      -0.28571429       0.42857143       0.19047619 </v>
   <v>      -0.23809524       0.42857143       0.19047619 </v>
   <v>      -0.33333333       0.47619048       0.19047619 </v>
   <v>      -0.28571429       0.47619048       0.19047619 </v>
   <v>      -0.28571429       0.47619048       0.23809524 </v>
  </varray>
  <varray name="weights" >
   <v>       0.00010798 </v>
   <v>       0.00086384 </v>
   <v>       0.00086384 </v>
   <v>       0.00086384 </v>
   <v>       0.00086384 </v>
   <v>       0.00086384 </v>
   <v>       0.00086384 </v>
   <v>       0.00086384 </v>
   <v>       0.00086384 </v>
   <v>       0.00086384 </v>
   <v>       0.00086384 </v>
   <v>       0.00064788 </v>
   <v>       0.00259151 </v>
   <v>       0.00259151 </v>
   <v>       0.00259151 </v>
   <v>       0.00259151 </v>
   <v>       0.00259151 </v>
   <v>       0.00259151 </v>
   <v>       0.00259151 </v>
   <v>       0.00259151 </v>
   <v>       0.00259151 </v>
   <v>       0.00259151 </v>
   <v>       0.00259151 </v>
   <v>       0.00259151 </v>
   <v>       0.00259151 </v>
   <v>       0.00259151 </v>
   <v>       0.00259151 </v>
   <v>       0.00259151 </v>
   <v>       0.00259151 </v>
   <v>       0.00259151 </v>
   <v>       0.00129576 </v>
   <v>       0.00064788 </v>
   <v>       0.00259151 </v>
   <v>       0.00259151 </v>
   <v>       0.00259151 </v>
   <v>       0.00259151 </v>
   <v>       0.00259151 </v>
   <v>       0.00259151 </v>
   <v>       0.00259151 </v>
   <v>       0.00259151 </v>
   <v>       0.00259151 </v>
   <v>       0.00259151 </v>
   <v>       0.00259151 </v>
   <v>       0.00259151 </v>
   <v>       0.00259151 </v>
   <v>       0.00259151 </v>
   <v>       0.00259151 </v>
   <v>       0.00259151 </v>
   <v>       0.00129576 </v>
   <v>       0.00064788 </v>
   <v>       0.00259151 </v>
   <v>       0.00259151 </v>
   <v>       0.00259151 </v>
   <v>       0.00259151 </v>
   <v>       0.00259151 </v>
   <v>       0.00259151 </v>
   <v>       0.00259151 </v>
   <v>       0.00259151 </v>
   <v>       0.00259151 </v>
   <v>       0.00259151 </v>
   <v>       0.00259151 </v>
   <v>       0.00259151 </v>
   <v>       0.00259151 </v>
   <v>       0.00259151 </v>
   <v>       0.00129576 </v>
   <v>       0.00064788 </v>
   <v>       0.00259151 </v>
   <v>       0.00259151 </v>
   <v>       0.00259151 </v>
   <v>       0.00259151 </v>
   <v>       0.00259151 </v>
   <v>       0.00259151 </v>
   <v>       0.00259151 </v>
   <v>       0.00259151 </v>
   <v>       0.00259151 </v>
   <v>       0.00259151 </v>
   <v>       0.00259151 </v>
   <v>       0.00259151 </v>
   <v>       0.00129576 </v>
   <v>       0.00064788 </v>
   <v>       0.00259151 </v>
   <v>       0.00259151 </v>
   <v>       0.00259151 </v>
   <v>       0.00259151 </v>
   <v>       0.00259151 </v>
   <v>       0.00259151 </v>
   <v>       0.00259151 </v>
   <v>       0.00259151 </v>
   <v>       0.00259151 </v>
   <v>       0.00259151 </v>
   <v>       0.00129576 </v>
   <v>       0.00064788 </v>
   <v>       0.00259151 </v>
   <v>       0.00259151 </v>
   <v>       0.00259151 </v>
   <v>       0.00259151 </v>
   <v>       0.00259151 </v>
   <v>       0.00259151 </v>
   <v>       0.00259151 </v>
   <v>       0.00259151 </v>
   <v>       0.00129576 </v>
   <v>       0.00064788 </v>
   <v>       0.00259151 </v>
   <v>       0.00259151 </v>
   <v>       0.00259151 </v>
   <v>       0.00259151 </v>
   <v>       0.00259151 </v>
   <v>       0.00259151 </v>
   <v>       0.00129576 </v>
   <v>       0.00064788 </v>
   <v>       0.00259151 </v>
   <v>       0.00259151 </v>
   <v>       0.00259151 </v>
   <v>       0.00259151 </v>
   <v>       0.00129576 </v>
   <v>       0.00064788 </v>
   <v>       0.00259151 </v>
   <v>       0.00259151 </v>
   <v>       0.00129576 </v>
   <v>       0.00064788 </v>
   <v>       0.00129576 </v>
   <v>       0.00259151 </v>
   <v>       0.00518303 </v>
   <v>       0.00518303 </v>
   <v>       0.00518303 </v>
   <v>       0.00518303 </v>
   <v>       0.00518303 </v>
   <v>       0.00518303 </v>
   <v>       0.00518303 </v>
   <v>       0.00518303 </v>
   <v>       0.00259151 </v>
   <v>       0.00518303 </v>
   <v>       0.00518303 </v>
   <v>       0.00518303 </v>
   <v>       0.00518303 </v>
   <v>       0.00518303 </v>
   <v>       0.00518303 </v>
   <v>       0.00518303 </v>
   <v>       0.00518303 </v>
   <v>       0.00518303 </v>
   <v>       0.00518303 </v>
   <v>       0.00518303 </v>
   <v>       0.00518303 </v>
   <v>       0.00518303 </v>
   <v>       0.00518303 </v>
   <v>       0.00259151 </v>
   <v>       0.00259151 </v>
   <v>       0.00518303 </v>
   <v>       0.00518303 </v>
   <v>       0.00518303 </v>
   <v>       0.00518303 </v>
   <v>       0.00518303 </v>
   <v>       0.00518303 </v>
   <v>       0.00518303 </v>
   <v>       0.00518303 </v>
   <v>       0.00518303 </v>
   <v>       0.00518303 </v>
   <v>       0.00518303 </v>
   <v>       0.00518303 </v>
   <v>       0.00259151 </v>
   <v>       0.00259151 </v>
   <v>       0.00518303 </v>
   <v>       0.00518303 </v>
   <v>       0.00518303 </v>
   <v>       0.00518303 </v>
   <v>       0.00518303 </v>
   <v>       0.00518303 </v>
   <v>       0.00518303 </v>
   <v>       0.00518303 </v>
   <v>       0.00518303 </v>
   <v>       0.00518303 </v>
   <v>       0.00259151 </v>
   <v>       0.00259151 </v>
   <v>       0.00518303 </v>
   <v>       0.00518303 </v>
   <v>       0.00518303 </v>
   <v>       0.00518303 </v>
   <v>       0.00518303 </v>
   <v>       0.00518303 </v>
   <v>       0.00518303 </v>
   <v>       0.00518303 </v>
   <v>       0.00259151 </v>
   <v>       0.00259151 </v>
   <v>       0.00518303 </v>
   <v>       0.00518303 </v>
   <v>       0.00518303 </v>
   <v>       0.00518303 </v>
   <v>       0.00518303 </v>
   <v>       0.00518303 </v>
   <v>       0.00259151 </v>
   <v>       0.00259151 </v>
   <v>       0.00518303 </v>
   <v>       0.00518303 </v>
   <v>       0.00518303 </v>
   <v>       0.00518303 </v>
   <v>       0.00259151 </v>
   <v>       0.00259151 </v>
   <v>       0.00518303 </v>
   <v>       0.00518303 </v>
   <v>       0.00259151 </v>
   <v>       0.00259151 </v>
   <v>       0.00259151 </v>
   <v>       0.00259151 </v>
   <v>       0.00518303 </v>
   <v>       0.00518303 </v>
   <v>       0.00518303 </v>
   <v>       0.00518303 </v>
   <v>       0.00518303 </v>
   <v>       0.00518303 </v>
   <v>       0.00259151 </v>
   <v>       0.00518303 </v>
   <v>       0.00518303 </v>
   <v>       0.00518303 </v>
   <v>       0.00518303 </v>
   <v>       0.00518303 </v>
   <v>       0.00518303 </v>
   <v>       0.00518303 </v>
   <v>       0.00518303 </v>
   <v>       0.00518303 </v>
   <v>       0.00518303 </v>
   <v>       0.00259151 </v>
   <v>       0.00259151 </v>
   <v>       0.00518303 </v>
   <v>       0.00518303 </v>
   <v>       0.00518303 </v>
   <v>       0.00518303 </v>
   <v>       0.00518303 </v>
   <v>       0.00518303 </v>
   <v>       0.00518303 </v>
   <v>       0.00518303 </v>
   <v>       0.00259151 </v>
   <v>       0.00259151 </v>
   <v>       0.00518303 </v>
   <v>       0.00518303 </v>
   <v>       0.00518303 </v>
   <v>       0.00518303 </v>
   <v>       0.00518303 </v>
   <v>       0.00518303 </v>
   <v>       0.00259151 </v>
   <v>       0.00259151 </v>
   <v>       0.00518303 </v>
   <v>       0.00518303 </v>
   <v>       0.00518303 </v>
   <v>       0.00518303 </v>
   <v>       0.00259151 </v>
   <v>       0.00259151 </v>
   <v>       0.00518303 </v>
   <v>       0.00518303 </v>
   <v>       0.00259151 </v>
   <v>       0.00259151 </v>
   <v>       0.00259151 </v>
   <v>       0.00259151 </v>
   <v>       0.00518303 </v>
   <v>       0.00518303 </v>
   <v>       0.00518303 </v>
   <v>       0.00518303 </v>
   <v>       0.00259151 </v>
   <v>       0.00518303 </v>
   <v>       0.00518303 </v>
   <v>       0.00518303 </v>
   <v>       0.00518303 </v>
   <v>       0.00518303 </v>
   <v>       0.00518303 </v>
   <v>       0.00259151 </v>
   <v>       0.00259151 </v>
   <v>       0.00518303 </v>
   <v>       0.00518303 </v>
   <v>       0.00518303 </v>
   <v>       0.00518303 </v>
   <v>       0.00259151 </v>
   <v>       0.00259151 </v>
   <v>       0.00518303 </v>
   <v>       0.00518303 </v>
   <v>       0.00259151 </v>
   <v>       0.00259151 </v>
   <v>       0.00259151 </v>
   <v>       0.00259151 </v>
   <v>       0.00518303 </v>
   <v>       0.00518303 </v>
   <v>       0.00259151 </v>
   <v>       0.00518303 </v>
   <v>       0.00518303 </v>
   <v>       0.00259151 </v>
   <v>       0.00259151 </v>
   <v>       0.00259151 </v>
   <v>       0.00259151 </v>
  </varray>
  <varray name="tetrahedronlist"  type="int" >
   <v type="int" >       24        1        2        2       12 </v>
   <v type="int" >       48        2       12       13       31 </v>
   <v type="int" >       48        2        3       13       31 </v>
   <v type="int" >       24        2        2       12       31 </v>
   <v type="int" >       48        3       13       14       30 </v>
   <v type="int" >       48        3        4       14       30 </v>
   <v type="int" >       48        3       13       30       31 </v>
   <v type="int" >       48        4       14       15       29 </v>
   <v type="int" >       48        4        5       15       29 </v>
   <v type="int" >       48        4       14       29       30 </v>
   <v type="int" >       48        5       15       16       28 </v>
   <v type="int" >       48        5        6       16       28 </v>
   <v type="int" >       48        5       15       28       29 </v>
   <v type="int" >       48        6       16       17       27 </v>
   <v type="int" >       48        6        7       17       27 </v>
   <v type="int" >       48        6       16       27       28 </v>
   <v type="int" >       48        7       17       18       26 </v>
   <v type="int" >       48        7        8       18       26 </v>
   <v type="int" >       48        7       17       26       27 </v>
   <v type="int" >       48        8       18       19       25 </v>
   <v type="int" >       48        8        9       19       25 </v>
   <v type="int" >       48        8       18       25       26 </v>
   <v type="int" >       48        9       19       20       24 </v>
   <v type="int" >       48        9       10       20       24 </v>
   <v type="int" >       48        9       19       24       25 </v>
   <v type="int" >       48       10       20       21       23 </v>
   <v type="int" >       48       10       11       21       23 </v>
   <v type="int" >       48       10       20       23       24 </v>
   <v type="int" >       48       11       21       22       22 </v>
   <v type="int" >       24       11       11       22       22 </v>
   <v type="int" >       48       11       21       22       23 </v>
   <v type="int" >       24       12       13       13       32 </v>
   <v type="int" >       24       12       13       13       31 </v>
   <v type="int" >       48       13       32       33      122 </v>
   <v type="int" >       48       13       14       33      122 </v>
   <v type="int" >       48       13       14       30      122 </v>
   <v type="int" >       24       13       13       32      122 </v>
   <v type="int" >       24       13       13       31      122 </v>
   <v type="int" >       48       13       30       31      122 </v>
   <v type="int" >       48       14       33       34      123 </v>
   <v type="int" >       48       14       15       34      123 </v>
   <v type="int" >       48       14       15       29      123 </v>
   <v type="int" >       48       14       33      122      123 </v>
   <v type="int" >       48       14       30      122      123 </v>
   <v type="int" >       48       14       29       30      123 </v>
   <v type="int" >       48       15       34       35      124 </v>
   <v type="int" >       48       15       16       35      124 </v>
   <v type="int" >       48       15       16       28      124 </v>
   <v type="int" >       48       15       34      123      124 </v>
   <v type="int" >       48       15       29      123      124 </v>
   <v type="int" >       48       15       28       29      124 </v>
   <v type="int" >       48       16       35       36      125 </v>
   <v type="int" >       48       16       17       36      125 </v>
   <v type="int" >       48       16       17       27      125 </v>
   <v type="int" >       48       16       35      124      125 </v>
   <v type="int" >       48       16       28      124      125 </v>
   <v type="int" >       48       16       27       28      125 </v>
   <v type="int" >       48       17       36       37      126 </v>
   <v type="int" >       48       17       18       37      126 </v>
   <v type="int" >       48       17       18       26      126 </v>
   <v type="int" >       48       17       36      125      126 </v>
   <v type="int" >       48       17       27      125      126 </v>
   <v type="int" >       48       17       26       27      126 </v>
   <v type="int" >       48       18       37       38      127 </v>
   <v type="int" >       48       18       19       38      127 </v>
   <v type="int" >       48       18       19       25      127 </v>
   <v type="int" >       48       18       37      126      127 </v>
   <v type="int" >       48       18       26      126      127 </v>
   <v type="int" >       48       18       25       26      127 </v>
   <v type="int" >       48       19       38       39      128 </v>
   <v type="int" >       48       19       20       39      128 </v>
   <v type="int" >       48       19       20       24      128 </v>
   <v type="int" >       48       19       38      127      128 </v>
   <v type="int" >       48       19       25      127      128 </v>
   <v type="int" >       48       19       24       25      128 </v>
   <v type="int" >       48       20       39       40      129 </v>
   <v type="int" >       48       20       21       40      129 </v>
   <v type="int" >       48       20       21       23      129 </v>
   <v type="int" >       48       20       39      128      129 </v>
   <v type="int" >       48       20       24      128      129 </v>
   <v type="int" >       48       20       23       24      129 </v>
   <v type="int" >       48       21       40       41      130 </v>
   <v type="int" >       48       21       22       41      130 </v>
   <v type="int" >       48       21       22       22      130 </v>
   <v type="int" >       48       21       40      129      130 </v>
   <v type="int" >       48       21       23      129      130 </v>
   <v type="int" >       48       21       22       23      130 </v>
   <v type="int" >       48       22       41       42      130 </v>
   <v type="int" >       48       22       23       42      130 </v>
   <v type="int" >       48       22       41      130      130 </v>
   <v type="int" >       24       22       22      130      130 </v>
   <v type="int" >       48       23       42       43      129 </v>
   <v type="int" >       48       23       24       43      129 </v>
   <v type="int" >       48       23       42      129      130 </v>
   <v type="int" >       48       24       43       44      128 </v>
   <v type="int" >       48       24       25       44      128 </v>
   <v type="int" >       48       24       43      128      129 </v>
   <v type="int" >       48       25       44       45      127 </v>
   <v type="int" >       48       25       26       45      127 </v>
   <v type="int" >       48       25       44      127      128 </v>
   <v type="int" >       48       26       45       46      126 </v>
   <v type="int" >       48       26       27       46      126 </v>
   <v type="int" >       48       26       45      126      127 </v>
   <v type="int" >       48       27       46       47      125 </v>
   <v type="int" >       48       27       28       47      125 </v>
   <v type="int" >       48       27       46      125      126 </v>
   <v type="int" >       48       28       47       48      124 </v>
   <v type="int" >       48       28       29       48      124 </v>
   <v type="int" >       48       28       47      124      125 </v>
   <v type="int" >       48       29       48       49      123 </v>
   <v type="int" >       48       29       30       49      123 </v>
   <v type="int" >       48       29       48      123      124 </v>
   <v type="int" >       24       30       30       49      122 </v>
   <v type="int" >       24       30       30       31      122 </v>
   <v type="int" >       48       30       49      122      123 </v>
   <v type="int" >       24       32       33       33       50 </v>
   <v type="int" >       24       32       33       33      122 </v>
   <v type="int" >       48       33       50       51      131 </v>
   <v type="int" >       48       33       34       51      131 </v>
   <v type="int" >       48       33       34      123      131 </v>
   <v type="int" >       24       33       33       50      131 </v>
   <v type="int" >       24       33       33      122      131 </v>
   <v type="int" >       48       33      122      123      131 </v>
   <v type="int" >       48       34       51       52      132 </v>
   <v type="int" >       48       34       35       52      132 </v>
   <v type="int" >       48       34       35      124      132 </v>
   <v type="int" >       48       34       51      131      132 </v>
   <v type="int" >       48       34      123      131      132 </v>
   <v type="int" >       48       34      123      124      132 </v>
   <v type="int" >       48       35       52       53      133 </v>
   <v type="int" >       48       35       36       53      133 </v>
   <v type="int" >       48       35       36      125      133 </v>
   <v type="int" >       48       35       52      132      133 </v>
   <v type="int" >       48       35      124      132      133 </v>
   <v type="int" >       48       35      124      125      133 </v>
   <v type="int" >       48       36       53       54      134 </v>
   <v type="int" >       48       36       37       54      134 </v>
   <v type="int" >       48       36       37      126      134 </v>
   <v type="int" >       48       36       53      133      134 </v>
   <v type="int" >       48       36      125      133      134 </v>
   <v type="int" >       48       36      125      126      134 </v>
   <v type="int" >       48       37       54       55      135 </v>
   <v type="int" >       48       37       38       55      135 </v>
   <v type="int" >       48       37       38      127      135 </v>
   <v type="int" >       48       37       54      134      135 </v>
   <v type="int" >       48       37      126      134      135 </v>
   <v type="int" >       48       37      126      127      135 </v>
   <v type="int" >       48       38       55       56      136 </v>
   <v type="int" >       48       38       39       56      136 </v>
   <v type="int" >       48       38       39      128      136 </v>
   <v type="int" >       48       38       55      135      136 </v>
   <v type="int" >       48       38      127      135      136 </v>
   <v type="int" >       48       38      127      128      136 </v>
   <v type="int" >       48       39       56       57      137 </v>
   <v type="int" >       48       39       40       57      137 </v>
   <v type="int" >       48       39       40      129      137 </v>
   <v type="int" >       48       39       56      136      137 </v>
   <v type="int" >       48       39      128      136      137 </v>
   <v type="int" >       48       39      128      129      137 </v>
   <v type="int" >       48       40       57       58      138 </v>
   <v type="int" >       48       40       41       58      138 </v>
   <v type="int" >       48       40       41      130      138 </v>
   <v type="int" >       48       40       57      137      138 </v>
   <v type="int" >       48       40      129      137      138 </v>
   <v type="int" >       48       40      129      130      138 </v>
   <v type="int" >       48       41       58       59      139 </v>
   <v type="int" >       48       41       42       59      139 </v>
   <v type="int" >       48       41       42      130      139 </v>
   <v type="int" >       48       41       58      138      139 </v>
   <v type="int" >       48       41      130      138      139 </v>
   <v type="int" >       48       41      130      130      139 </v>
   <v type="int" >       48       42       59       60      140 </v>
   <v type="int" >       48       42       43       60      140 </v>
   <v type="int" >       48       42       43      129      140 </v>
   <v type="int" >       48       42       59      139      140 </v>
   <v type="int" >       48       42      130      139      140 </v>
   <v type="int" >       48       42      129      130      140 </v>
   <v type="int" >       48       43       60       61      141 </v>
   <v type="int" >       48       43       44       61      141 </v>
   <v type="int" >       48       43       44      128      141 </v>
   <v type="int" >       48       43       60      140      141 </v>
   <v type="int" >       48       43      129      140      141 </v>
   <v type="int" >       48       43      128      129      141 </v>
   <v type="int" >       48       44       61       62      142 </v>
   <v type="int" >       48       44       45       62      142 </v>
   <v type="int" >       48       44       45      127      142 </v>
   <v type="int" >       48       44       61      141      142 </v>
   <v type="int" >       48       44      128      141      142 </v>
   <v type="int" >       48       44      127      128      142 </v>
   <v type="int" >       48       45       62       63      143 </v>
   <v type="int" >       48       45       46       63      143 </v>
   <v type="int" >       48       45       46      126      143 </v>
   <v type="int" >       48       45       62      142      143 </v>
   <v type="int" >       48       45      127      142      143 </v>
   <v type="int" >       48       45      126      127      143 </v>
   <v type="int" >       48       46       63       64      144 </v>
   <v type="int" >       48       46       47       64      144 </v>
   <v type="int" >       48       46       47      125      144 </v>
   <v type="int" >       48       46       63      143      144 </v>
   <v type="int" >       48       46      126      143      144 </v>
   <v type="int" >       48       46      125      126      144 </v>
   <v type="int" >       48       47       64       65      145 </v>
   <v type="int" >       48       47       48       65      145 </v>
   <v type="int" >       48       47       48      124      145 </v>
   <v type="int" >       48       47       64      144      145 </v>
   <v type="int" >       48       47      125      144      145 </v>
   <v type="int" >       48       47      124      125      145 </v>
   <v type="int" >       24       48       48       65      146 </v>
   <v type="int" >       24       48       48       49      146 </v>
   <v type="int" >       48       48       49      123      146 </v>
   <v type="int" >       48       48       65      145      146 </v>
   <v type="int" >       48       48      124      145      146 </v>
   <v type="int" >       48       48      123      124      146 </v>
   <v type="int" >       24       49      123      123      146 </v>
   <v type="int" >       24       49      122      123      123 </v>
   <v type="int" >       24       50       51       51       66 </v>
   <v type="int" >       24       50       51       51      131 </v>
   <v type="int" >       48       51       66       67      147 </v>
   <v type="int" >       48       51       52       67      147 </v>
   <v type="int" >       48       51       52      132      147 </v>
   <v type="int" >       24       51       51       66      147 </v>
   <v type="int" >       24       51       51      131      147 </v>
   <v type="int" >       48       51      131      132      147 </v>
   <v type="int" >       48       52       67       68      148 </v>
   <v type="int" >       48       52       53       68      148 </v>
   <v type="int" >       48       52       53      133      148 </v>
   <v type="int" >       48       52       67      147      148 </v>
   <v type="int" >       48       52      132      147      148 </v>
   <v type="int" >       48       52      132      133      148 </v>
   <v type="int" >       48       53       68       69      149 </v>
   <v type="int" >       48       53       54       69      149 </v>
   <v type="int" >       48       53       54      134      149 </v>
   <v type="int" >       48       53       68      148      149 </v>
   <v type="int" >       48       53      133      148      149 </v>
   <v type="int" >       48       53      133      134      149 </v>
   <v type="int" >       48       54       69       70      150 </v>
   <v type="int" >       48       54       55       70      150 </v>
   <v type="int" >       48       54       55      135      150 </v>
   <v type="int" >       48       54       69      149      150 </v>
   <v type="int" >       48       54      134      149      150 </v>
   <v type="int" >       48       54      134      135      150 </v>
   <v type="int" >       48       55       70       71      151 </v>
   <v type="int" >       48       55       56       71      151 </v>
   <v type="int" >       48       55       56      136      151 </v>
   <v type="int" >       48       55       70      150      151 </v>
   <v type="int" >       48       55      135      150      151 </v>
   <v type="int" >       48       55      135      136      151 </v>
   <v type="int" >       48       56       71       72      152 </v>
   <v type="int" >       48       56       57       72      152 </v>
   <v type="int" >       48       56       57      137      152 </v>
   <v type="int" >       48       56       71      151      152 </v>
   <v type="int" >       48       56      136      151      152 </v>
   <v type="int" >       48       56      136      137      152 </v>
   <v type="int" >       48       57       72       73      153 </v>
   <v type="int" >       48       57       58       73      153 </v>
   <v type="int" >       48       57       58      138      153 </v>
   <v type="int" >       48       57       72      152      153 </v>
   <v type="int" >       48       57      137      152      153 </v>
   <v type="int" >       48       57      137      138      153 </v>
   <v type="int" >       48       58       73       74      154 </v>
   <v type="int" >       48       58       59       74      154 </v>
   <v type="int" >       48       58       59      139      154 </v>
   <v type="int" >       48       58       73      153      154 </v>
   <v type="int" >       48       58      138      153      154 </v>
   <v type="int" >       48       58      138      139      154 </v>
   <v type="int" >       48       59       74       75      155 </v>
   <v type="int" >       48       59       60       75      155 </v>
   <v type="int" >       48       59       60      140      155 </v>
   <v type="int" >       48       59       74      154      155 </v>
   <v type="int" >       48       59      139      154      155 </v>
   <v type="int" >       48       59      139      140      155 </v>
   <v type="int" >       48       60       75       76      156 </v>
   <v type="int" >       48       60       61       76      156 </v>
   <v type="int" >       48       60       61      141      156 </v>
   <v type="int" >       48       60       75      155      156 </v>
   <v type="int" >       48       60      140      155      156 </v>
   <v type="int" >       48       60      140      141      156 </v>
   <v type="int" >       48       61       76       77      157 </v>
   <v type="int" >       48       61       62       77      157 </v>
   <v type="int" >       48       61       62      142      157 </v>
   <v type="int" >       48       61       76      156      157 </v>
   <v type="int" >       48       61      141      156      157 </v>
   <v type="int" >       48       61      141      142      157 </v>
   <v type="int" >       48       62       77       78      158 </v>
   <v type="int" >       48       62       63       78      158 </v>
   <v type="int" >       48       62       63      143      158 </v>
   <v type="int" >       48       62       77      157      158 </v>
   <v type="int" >       48       62      142      157      158 </v>
   <v type="int" >       48       62      142      143      158 </v>
   <v type="int" >       48       63       78       79      159 </v>
   <v type="int" >       48       63       64       79      159 </v>
   <v type="int" >       48       63       64      144      159 </v>
   <v type="int" >       48       63       78      158      159 </v>
   <v type="int" >       48       63      143      158      159 </v>
   <v type="int" >       48       63      143      144      159 </v>
   <v type="int" >       24       64       64       79      160 </v>
   <v type="int" >       24       64       64       65      160 </v>
   <v type="int" >       48       64       65      145      160 </v>
   <v type="int" >       48       64       79      159      160 </v>
   <v type="int" >       48       64      144      159      160 </v>
   <v type="int" >       48       64      144      145      160 </v>
   <v type="int" >       24       65      145      145      160 </v>
   <v type="int" >       24       65      145      145      146 </v>
   <v type="int" >       24       66       67       67       80 </v>
   <v type="int" >       24       66       67       67      147 </v>
   <v type="int" >       48       67       80       81      161 </v>
   <v type="int" >       48       67       68       81      161 </v>
   <v type="int" >       48       67       68      148      161 </v>
   <v type="int" >       24       67       67       80      161 </v>
   <v type="int" >       24       67       67      147      161 </v>
   <v type="int" >       48       67      147      148      161 </v>
   <v type="int" >       48       68       81       82      162 </v>
   <v type="int" >       48       68       69       82      162 </v>
   <v type="int" >       48       68       69      149      162 </v>
   <v type="int" >       48       68       81      161      162 </v>
   <v type="int" >       48       68      148      161      162 </v>
   <v type="int" >       48       68      148      149      162 </v>
   <v type="int" >       48       69       82       83      163 </v>
   <v type="int" >       48       69       70       83      163 </v>
   <v type="int" >       48       69       70      150      163 </v>
   <v type="int" >       48       69       82      162      163 </v>
   <v type="int" >       48       69      149      162      163 </v>
   <v type="int" >       48       69      149      150      163 </v>
   <v type="int" >       48       70       83       84      164 </v>
   <v type="int" >       48       70       71       84      164 </v>
   <v type="int" >       48       70       71      151      164 </v>
   <v type="int" >       48       70       83      163      164 </v>
   <v type="int" >       48       70      150      163      164 </v>
   <v type="int" >       48       70      150      151      164 </v>
   <v type="int" >       48       71       84       85      165 </v>
   <v type="int" >       48       71       72       85      165 </v>
   <v type="int" >       48       71       72      152      165 </v>
   <v type="int" >       48       71       84      164      165 </v>
   <v type="int" >       48       71      151      164      165 </v>
   <v type="int" >       48       71      151      152      165 </v>
   <v type="int" >       48       72       85       86      166 </v>
   <v type="int" >       48       72       73       86      166 </v>
   <v type="int" >       48       72       73      153      166 </v>
   <v type="int" >       48       72       85      165      166 </v>
   <v type="int" >       48       72      152      165      166 </v>
   <v type="int" >       48       72      152      153      166 </v>
   <v type="int" >       48       73       86       87      167 </v>
   <v type="int" >       48       73       74       87      167 </v>
   <v type="int" >       48       73       74      154      167 </v>
   <v type="int" >       48       73       86      166      167 </v>
   <v type="int" >       48       73      153      166      167 </v>
   <v type="int" >       48       73      153      154      167 </v>
   <v type="int" >       48       74       87       88      168 </v>
   <v type="int" >       48       74       75       88      168 </v>
   <v type="int" >       48       74       75      155      168 </v>
   <v type="int" >       48       74       87      167      168 </v>
   <v type="int" >       48       74      154      167      168 </v>
   <v type="int" >       48       74      154      155      168 </v>
   <v type="int" >       48       75       88       89      169 </v>
   <v type="int" >       48       75       76       89      169 </v>
   <v type="int" >       48       75       76      156      169 </v>
   <v type="int" >       48       75       88      168      169 </v>
   <v type="int" >       48       75      155      168      169 </v>
   <v type="int" >       48       75      155      156      169 </v>
   <v type="int" >       48       76       89       90      170 </v>
   <v type="int" >       48       76       77       90      170 </v>
   <v type="int" >       48       76       77      157      170 </v>
   <v type="int" >       48       76       89      169      170 </v>
   <v type="int" >       48       76      156      169      170 </v>
   <v type="int" >       48       76      156      157      170 </v>
   <v type="int" >       48       77       90       91      171 </v>
   <v type="int" >       48       77       78       91      171 </v>
   <v type="int" >       48       77       78      158      171 </v>
   <v type="int" >       48       77       90      170      171 </v>
   <v type="int" >       48       77      157      170      171 </v>
   <v type="int" >       48       77      157      158      171 </v>
   <v type="int" >       24       78       78       91      172 </v>
   <v type="int" >       24       78       78       79      172 </v>
   <v type="int" >       48       78       79      159      172 </v>
   <v type="int" >       48       78       91      171      172 </v>
   <v type="int" >       48       78      158      171      172 </v>
   <v type="int" >       48       78      158      159      172 </v>
   <v type="int" >       24       79      159      159      172 </v>
   <v type="int" >       24       79      159      159      160 </v>
   <v type="int" >       24       80       81       81       92 </v>
   <v type="int" >       24       80       81       81      161 </v>
   <v type="int" >       48       81       92       93      173 </v>
   <v type="int" >       48       81       82       93      173 </v>
   <v type="int" >       48       81       82      162      173 </v>
   <v type="int" >       24       81       81       92      173 </v>
   <v type="int" >       24       81       81      161      173 </v>
   <v type="int" >       48       81      161      162      173 </v>
   <v type="int" >       48       82       93       94      174 </v>
   <v type="int" >       48       82       83       94      174 </v>
   <v type="int" >       48       82       83      163      174 </v>
   <v type="int" >       48       82       93      173      174 </v>
   <v type="int" >       48       82      162      173      174 </v>
   <v type="int" >       48       82      162      163      174 </v>
   <v type="int" >       48       83       94       95      175 </v>
   <v type="int" >       48       83       84       95      175 </v>
   <v type="int" >       48       83       84      164      175 </v>
   <v type="int" >       48       83       94      174      175 </v>
   <v type="int" >       48       83      163      174      175 </v>
   <v type="int" >       48       83      163      164      175 </v>
   <v type="int" >       48       84       95       96      176 </v>
   <v type="int" >       48       84       85       96      176 </v>
   <v type="int" >       48       84       85      165      176 </v>
   <v type="int" >       48       84       95      175      176 </v>
   <v type="int" >       48       84      164      175      176 </v>
   <v type="int" >       48       84      164      165      176 </v>
   <v type="int" >       48       85       96       97      177 </v>
   <v type="int" >       48       85       86       97      177 </v>
   <v type="int" >       48       85       86      166      177 </v>
   <v type="int" >       48       85       96      176      177 </v>
   <v type="int" >       48       85      165      176      177 </v>
   <v type="int" >       48       85      165      166      177 </v>
   <v type="int" >       48       86       97       98      178 </v>
   <v type="int" >       48       86       87       98      178 </v>
   <v type="int" >       48       86       87      167      178 </v>
   <v type="int" >       48       86       97      177      178 </v>
   <v type="int" >       48       86      166      177      178 </v>
   <v type="int" >       48       86      166      167      178 </v>
   <v type="int" >       48       87       98       99      179 </v>
   <v type="int" >       48       87       88       99      179 </v>
   <v type="int" >       48       87       88      168      179 </v>
   <v type="int" >       48       87       98      178      179 </v>
   <v type="int" >       48       87      167      178      179 </v>
   <v type="int" >       48       87      167      168      179 </v>
   <v type="int" >       48       88       99      100      180 </v>
   <v type="int" >       48       88       89      100      180 </v>
   <v type="int" >       48       88       89      169      180 </v>
   <v type="int" >       48       88       99      179      180 </v>
   <v type="int" >       48       88      168      179      180 </v>
   <v type="int" >       48       88      168      169      180 </v>
   <v type="int" >       48       89      100      101      181 </v>
   <v type="int" >       48       89       90      101      181 </v>
   <v type="int" >       48       89       90      170      181 </v>
   <v type="int" >       48       89      100      180      181 </v>
   <v type="int" >       48       89      169      180      181 </v>
   <v type="int" >       48       89      169      170      181 </v>
   <v type="int" >       24       90       90      101      182 </v>
   <v type="int" >       24       90       90       91      182 </v>
   <v type="int" >       48       90       91      171      182 </v>
   <v type="int" >       48       90      101      181      182 </v>
   <v type="int" >       48       90      170      181      182 </v>
   <v type="int" >       48       90      170      171      182 </v>
   <v type="int" >       24       91      171      171      182 </v>
   <v type="int" >       24       91      171      171      172 </v>
   <v type="int" >       24       92       93       93      102 </v>
   <v type="int" >       24       92       93       93      173 </v>
   <v type="int" >       48       93      102      103      183 </v>
   <v type="int" >       48       93       94      103      183 </v>
   <v type="int" >       48       93       94      174      183 </v>
   <v type="int" >       24       93       93      102      183 </v>
   <v type="int" >       24       93       93      173      183 </v>
   <v type="int" >       48       93      173      174      183 </v>
   <v type="int" >       48       94      103      104      184 </v>
   <v type="int" >       48       94       95      104      184 </v>
   <v type="int" >       48       94       95      175      184 </v>
   <v type="int" >       48       94      103      183      184 </v>
   <v type="int" >       48       94      174      183      184 </v>
   <v type="int" >       48       94      174      175      184 </v>
   <v type="int" >       48       95      104      105      185 </v>
   <v type="int" >       48       95       96      105      185 </v>
   <v type="int" >       48       95       96      176      185 </v>
   <v type="int" >       48       95      104      184      185 </v>
   <v type="int" >       48       95      175      184      185 </v>
   <v type="int" >       48       95      175      176      185 </v>
   <v type="int" >       48       96      105      106      186 </v>
   <v type="int" >       48       96       97      106      186 </v>
   <v type="int" >       48       96       97      177      186 </v>
   <v type="int" >       48       96      105      185      186 </v>
   <v type="int" >       48       96      176      185      186 </v>
   <v type="int" >       48       96      176      177      186 </v>
   <v type="int" >       48       97      106      107      187 </v>
   <v type="int" >       48       97       98      107      187 </v>
   <v type="int" >       48       97       98      178      187 </v>
   <v type="int" >       48       97      106      186      187 </v>
   <v type="int" >       48       97      177      186      187 </v>
   <v type="int" >       48       97      177      178      187 </v>
   <v type="int" >       48       98      107      108      188 </v>
   <v type="int" >       48       98       99      108      188 </v>
   <v type="int" >       48       98       99      179      188 </v>
   <v type="int" >       48       98      107      187      188 </v>
   <v type="int" >       48       98      178      187      188 </v>
   <v type="int" >       48       98      178      179      188 </v>
   <v type="int" >       48       99      108      109      189 </v>
   <v type="int" >       48       99      100      109      189 </v>
   <v type="int" >       48       99      100      180      189 </v>
   <v type="int" >       48       99      108      188      189 </v>
   <v type="int" >       48       99      179      188      189 </v>
   <v type="int" >       48       99      179      180      189 </v>
   <v type="int" >       24      100      100      109      190 </v>
   <v type="int" >       24      100      100      101      190 </v>
   <v type="int" >       48      100      101      181      190 </v>
   <v type="int" >       48      100      109      189      190 </v>
   <v type="int" >       48      100      180      189      190 </v>
   <v type="int" >       48      100      180      181      190 </v>
   <v type="int" >       24      101      181      181      190 </v>
   <v type="int" >       24      101      181      181      182 </v>
   <v type="int" >       24      102      103      103      110 </v>
   <v type="int" >       24      102      103      103      183 </v>
   <v type="int" >       48      103      110      111      191 </v>
   <v type="int" >       48      103      104      111      191 </v>
   <v type="int" >       48      103      104      184      191 </v>
   <v type="int" >       24      103      103      110      191 </v>
   <v type="int" >       24      103      103      183      191 </v>
   <v type="int" >       48      103      183      184      191 </v>
   <v type="int" >       48      104      111      112      192 </v>
   <v type="int" >       48      104      105      112      192 </v>
   <v type="int" >       48      104      105      185      192 </v>
   <v type="int" >       48      104      111      191      192 </v>
   <v type="int" >       48      104      184      191      192 </v>
   <v type="int" >       48      104      184      185      192 </v>
   <v type="int" >       48      105      112      113      193 </v>
   <v type="int" >       48      105      106      113      193 </v>
   <v type="int" >       48      105      106      186      193 </v>
   <v type="int" >       48      105      112      192      193 </v>
   <v type="int" >       48      105      185      192      193 </v>
   <v type="int" >       48      105      185      186      193 </v>
   <v type="int" >       48      106      113      114      194 </v>
   <v type="int" >       48      106      107      114      194 </v>
   <v type="int" >       48      106      107      187      194 </v>
   <v type="int" >       48      106      113      193      194 </v>
   <v type="int" >       48      106      186      193      194 </v>
   <v type="int" >       48      106      186      187      194 </v>
   <v type="int" >       48      107      114      115      195 </v>
   <v type="int" >       48      107      108      115      195 </v>
   <v type="int" >       48      107      108      188      195 </v>
   <v type="int" >       48      107      114      194      195 </v>
   <v type="int" >       48      107      187      194      195 </v>
   <v type="int" >       48      107      187      188      195 </v>
   <v type="int" >       24      108      108      115      196 </v>
   <v type="int" >       24      108      108      109      196 </v>
   <v type="int" >       48      108      109      189      196 </v>
   <v type="int" >       48      108      115      195      196 </v>
   <v type="int" >       48      108      188      195      196 </v>
   <v type="int" >       48      108      188      189      196 </v>
   <v type="int" >       24      109      189      189      196 </v>
   <v type="int" >       24      109      189      189      190 </v>
   <v type="int" >       24      110      111      111      116 </v>
   <v type="int" >       24      110      111      111      191 </v>
   <v type="int" >       48      111      116      117      197 </v>
   <v type="int" >       48      111      112      117      197 </v>
   <v type="int" >       48      111      112      192      197 </v>
   <v type="int" >       24      111      111      116      197 </v>
   <v type="int" >       24      111      111      191      197 </v>
   <v type="int" >       48      111      191      192      197 </v>
   <v type="int" >       48      112      117      118      198 </v>
   <v type="int" >       48      112      113      118      198 </v>
   <v type="int" >       48      112      113      193      198 </v>
   <v type="int" >       48      112      117      197      198 </v>
   <v type="int" >       48      112      192      197      198 </v>
   <v type="int" >       48      112      192      193      198 </v>
   <v type="int" >       48      113      118      119      199 </v>
   <v type="int" >       48      113      114      119      199 </v>
   <v type="int" >       48      113      114      194      199 </v>
   <v type="int" >       48      113      118      198      199 </v>
   <v type="int" >       48      113      193      198      199 </v>
   <v type="int" >       48      113      193      194      199 </v>
   <v type="int" >       24      114      114      119      200 </v>
   <v type="int" >       24      114      114      115      200 </v>
   <v type="int" >       48      114      115      195      200 </v>
   <v type="int" >       48      114      119      199      200 </v>
   <v type="int" >       48      114      194      199      200 </v>
   <v type="int" >       48      114      194      195      200 </v>
   <v type="int" >       24      115      195      195      200 </v>
   <v type="int" >       24      115      195      195      196 </v>
   <v type="int" >       24      116      117      117      120 </v>
   <v type="int" >       24      116      117      117      197 </v>
   <v type="int" >       48      117      120      121      201 </v>
   <v type="int" >       48      117      118      121      201 </v>
   <v type="int" >       48      117      118      198      201 </v>
   <v type="int" >       24      117      117      120      201 </v>
   <v type="int" >       24      117      117      197      201 </v>
   <v type="int" >       48      117      197      198      201 </v>
   <v type="int" >       24      118      118      121      202 </v>
   <v type="int" >       24      118      118      119      202 </v>
   <v type="int" >       48      118      119      199      202 </v>
   <v type="int" >       48      118      121      201      202 </v>
   <v type="int" >       48      118      198      201      202 </v>
   <v type="int" >       48      118      198      199      202 </v>
   <v type="int" >       24      119      199      199      202 </v>
   <v type="int" >       24      119      199      199      200 </v>
   <v type="int" >       12      120      120      121      121 </v>
   <v type="int" >       24      120      121      121      201 </v>
   <v type="int" >       12      121      121      201      201 </v>
   <v type="int" >       24      121      201      201      202 </v>
   <v type="int" >       24      122      123      123      131 </v>
   <v type="int" >       48      123      131      132      146 </v>
   <v type="int" >       48      123      124      132      146 </v>
   <v type="int" >       24      123      123      131      146 </v>
   <v type="int" >       48      124      132      133      145 </v>
   <v type="int" >       48      124      125      133      145 </v>
   <v type="int" >       48      124      132      145      146 </v>
   <v type="int" >       48      125      133      134      144 </v>
   <v type="int" >       48      125      126      134      144 </v>
   <v type="int" >       48      125      133      144      145 </v>
   <v type="int" >       48      126      134      135      143 </v>
   <v type="int" >       48      126      127      135      143 </v>
   <v type="int" >       48      126      134      143      144 </v>
   <v type="int" >       48      127      135      136      142 </v>
   <v type="int" >       48      127      128      136      142 </v>
   <v type="int" >       48      127      135      142      143 </v>
   <v type="int" >       48      128      136      137      141 </v>
   <v type="int" >       48      128      129      137      141 </v>
   <v type="int" >       48      128      136      141      142 </v>
   <v type="int" >       48      129      137      138      140 </v>
   <v type="int" >       48      129      130      138      140 </v>
   <v type="int" >       48      129      137      140      141 </v>
   <v type="int" >       48      130      138      139      139 </v>
   <v type="int" >       24      130      130      139      139 </v>
   <v type="int" >       48      130      138      139      140 </v>
   <v type="int" >       24      131      132      132      147 </v>
   <v type="int" >       24      131      132      132      146 </v>
   <v type="int" >       48      132      147      148      203 </v>
   <v type="int" >       48      132      133      148      203 </v>
   <v type="int" >       48      132      133      145      203 </v>
   <v type="int" >       24      132      132      147      203 </v>
   <v type="int" >       24      132      132      146      203 </v>
   <v type="int" >       48      132      145      146      203 </v>
   <v type="int" >       48      133      148      149      204 </v>
   <v type="int" >       48      133      134      149      204 </v>
   <v type="int" >       48      133      134      144      204 </v>
   <v type="int" >       48      133      148      203      204 </v>
   <v type="int" >       48      133      145      203      204 </v>
   <v type="int" >       48      133      144      145      204 </v>
   <v type="int" >       48      134      149      150      205 </v>
   <v type="int" >       48      134      135      150      205 </v>
   <v type="int" >       48      134      135      143      205 </v>
   <v type="int" >       48      134      149      204      205 </v>
   <v type="int" >       48      134      144      204      205 </v>
   <v type="int" >       48      134      143      144      205 </v>
   <v type="int" >       48      135      150      151      206 </v>
   <v type="int" >       48      135      136      151      206 </v>
   <v type="int" >       48      135      136      142      206 </v>
   <v type="int" >       48      135      150      205      206 </v>
   <v type="int" >       48      135      143      205      206 </v>
   <v type="int" >       48      135      142      143      206 </v>
   <v type="int" >       48      136      151      152      207 </v>
   <v type="int" >       48      136      137      152      207 </v>
   <v type="int" >       48      136      137      141      207 </v>
   <v type="int" >       48      136      151      206      207 </v>
   <v type="int" >       48      136      142      206      207 </v>
   <v type="int" >       48      136      141      142      207 </v>
   <v type="int" >       48      137      152      153      208 </v>
   <v type="int" >       48      137      138      153      208 </v>
   <v type="int" >       48      137      138      140      208 </v>
   <v type="int" >       48      137      152      207      208 </v>
   <v type="int" >       48      137      141      207      208 </v>
   <v type="int" >       48      137      140      141      208 </v>
   <v type="int" >       48      138      153      154      209 </v>
   <v type="int" >       48      138      139      154      209 </v>
   <v type="int" >       48      138      139      139      209 </v>
   <v type="int" >       48      138      153      208      209 </v>
   <v type="int" >       48      138      140      208      209 </v>
   <v type="int" >       48      138      139      140      209 </v>
   <v type="int" >       48      139      154      155      209 </v>
   <v type="int" >       48      139      140      155      209 </v>
   <v type="int" >       48      139      154      209      209 </v>
   <v type="int" >       24      139      139      209      209 </v>
   <v type="int" >       48      140      155      156      208 </v>
   <v type="int" >       48      140      141      156      208 </v>
   <v type="int" >       48      140      155      208      209 </v>
   <v type="int" >       48      141      156      157      207 </v>
   <v type="int" >       48      141      142      157      207 </v>
   <v type="int" >       48      141      156      207      208 </v>
   <v type="int" >       48      142      157      158      206 </v>
   <v type="int" >       48      142      143      158      206 </v>
   <v type="int" >       48      142      157      206      207 </v>
   <v type="int" >       48      143      158      159      205 </v>
   <v type="int" >       48      143      144      159      205 </v>
   <v type="int" >       48      143      158      205      206 </v>
   <v type="int" >       48      144      159      160      204 </v>
   <v type="int" >       48      144      145      160      204 </v>
   <v type="int" >       48      144      159      204      205 </v>
   <v type="int" >       24      145      145      160      203 </v>
   <v type="int" >       24      145      145      146      203 </v>
   <v type="int" >       48      145      160      203      204 </v>
   <v type="int" >       24      147      148      148      161 </v>
   <v type="int" >       24      147      148      148      203 </v>
   <v type="int" >       48      148      161      162      210 </v>
   <v type="int" >       48      148      149      162      210 </v>
   <v type="int" >       48      148      149      204      210 </v>
   <v type="int" >       24      148      148      161      210 </v>
   <v type="int" >       24      148      148      203      210 </v>
   <v type="int" >       48      148      203      204      210 </v>
   <v type="int" >       48      149      162      163      211 </v>
   <v type="int" >       48      149      150      163      211 </v>
   <v type="int" >       48      149      150      205      211 </v>
   <v type="int" >       48      149      162      210      211 </v>
   <v type="int" >       48      149      204      210      211 </v>
   <v type="int" >       48      149      204      205      211 </v>
   <v type="int" >       48      150      163      164      212 </v>
   <v type="int" >       48      150      151      164      212 </v>
   <v type="int" >       48      150      151      206      212 </v>
   <v type="int" >       48      150      163      211      212 </v>
   <v type="int" >       48      150      205      211      212 </v>
   <v type="int" >       48      150      205      206      212 </v>
   <v type="int" >       48      151      164      165      213 </v>
   <v type="int" >       48      151      152      165      213 </v>
   <v type="int" >       48      151      152      207      213 </v>
   <v type="int" >       48      151      164      212      213 </v>
   <v type="int" >       48      151      206      212      213 </v>
   <v type="int" >       48      151      206      207      213 </v>
   <v type="int" >       48      152      165      166      214 </v>
   <v type="int" >       48      152      153      166      214 </v>
   <v type="int" >       48      152      153      208      214 </v>
   <v type="int" >       48      152      165      213      214 </v>
   <v type="int" >       48      152      207      213      214 </v>
   <v type="int" >       48      152      207      208      214 </v>
   <v type="int" >       48      153      166      167      215 </v>
   <v type="int" >       48      153      154      167      215 </v>
   <v type="int" >       48      153      154      209      215 </v>
   <v type="int" >       48      153      166      214      215 </v>
   <v type="int" >       48      153      208      214      215 </v>
   <v type="int" >       48      153      208      209      215 </v>
   <v type="int" >       48      154      167      168      216 </v>
   <v type="int" >       48      154      155      168      216 </v>
   <v type="int" >       48      154      155      209      216 </v>
   <v type="int" >       48      154      167      215      216 </v>
   <v type="int" >       48      154      209      215      216 </v>
   <v type="int" >       48      154      209      209      216 </v>
   <v type="int" >       48      155      168      169      217 </v>
   <v type="int" >       48      155      156      169      217 </v>
   <v type="int" >       48      155      156      208      217 </v>
   <v type="int" >       48      155      168      216      217 </v>
   <v type="int" >       48      155      209      216      217 </v>
   <v type="int" >       48      155      208      209      217 </v>
   <v type="int" >       48      156      169      170      218 </v>
   <v type="int" >       48      156      157      170      218 </v>
   <v type="int" >       48      156      157      207      218 </v>
   <v type="int" >       48      156      169      217      218 </v>
   <v type="int" >       48      156      208      217      218 </v>
   <v type="int" >       48      156      207      208      218 </v>
   <v type="int" >       48      157      170      171      219 </v>
   <v type="int" >       48      157      158      171      219 </v>
   <v type="int" >       48      157      158      206      219 </v>
   <v type="int" >       48      157      170      218      219 </v>
   <v type="int" >       48      157      207      218      219 </v>
   <v type="int" >       48      157      206      207      219 </v>
   <v type="int" >       48      158      171      172      220 </v>
   <v type="int" >       48      158      159      172      220 </v>
   <v type="int" >       48      158      159      205      220 </v>
   <v type="int" >       48      158      171      219      220 </v>
   <v type="int" >       48      158      206      219      220 </v>
   <v type="int" >       48      158      205      206      220 </v>
   <v type="int" >       24      159      159      172      221 </v>
   <v type="int" >       24      159      159      160      221 </v>
[...]
       </set>
       <set comment="band 5">
        <r>  0.0371  0.0000  0.0000  0.1340  0.0000  0.0000  0.0000  0.0000  0.0000 </r>
       </set>
       <set comment="band 6">
        <r>  0.0000  0.0000  0.0863  0.0000  0.0000  0.0000  0.0000  0.0000  0.0000 </r>
       </set>
       <set comment="band 7">
        <r>  0.0148  0.0575  0.0000  0.0351  0.0000  0.0000  0.0000  0.0000  0.0000 </r>
       </set>
       <set comment="band 8">
        <r>  0.0064  0.0727  0.0000  0.0316  0.0000  0.0000  0.0000  0.0000  0.0000 </r>
       </set>
       <set comment="band 9">
        <r>  0.0000  0.0000  0.0135  0.0000  0.0000  0.0000  0.0000  0.0000  0.0000 </r>
       </set>
       <set comment="band 10">
        <r>  0.0000  0.0000  0.2448  0.0000  0.0000  0.0000  0.0000  0.0000  0.0000 </r>
       </set>
       <set comment="band 11">
        <r>  0.0338  0.1471  0.0000  0.0203  0.0000  0.0000  0.0000  0.0000  0.0000 </r>
       </set>
       <set comment="band 12">
        <r>  0.0152  0.1266  0.0000  0.0322  0.0000  0.0000  0.0000  0.0000  0.0000 </r>
       </set>
      </set>
      <set comment="kpoint 276">
       <set comment="band 1">
        <r>  0.5412  0.0000  0.0001  0.0001  0.0000  0.0000  0.0000  0.0000  0.0000 </r>
       </set>
       <set comment="band 2">
        <r>  0.0000  0.2492  0.0000  0.0000  0.0000  0.0000  0.0000  0.0000  0.0000 </r>
       </set>
       <set comment="band 3">
        <r>  0.0000  0.0000  0.2174  0.0470  0.0000  0.0000  0.0000  0.0000  0.0000 </r>
       </set>
       <set comment="band 4">
        <r>  0.0039  0.0000  0.0602  0.2118  0.0000  0.0000  0.0000  0.0000  0.0000 </r>
       </set>
       <set comment="band 5">
        <r>  0.0267  0.0000  0.0100  0.1283  0.0000  0.0000  0.0000  0.0000  0.0000 </r>
       </set>
       <set comment="band 6">
        <r>  0.0023  0.0000  0.0849  0.0303  0.0000  0.0000  0.0000  0.0000  0.0000 </r>
       </set>
       <set comment="band 7">
        <r>  0.0000  0.1292  0.0000  0.0000  0.0000  0.0000  0.0000  0.0000  0.0000 </r>
       </set>
       <set comment="band 8">
        <r>  0.0285  0.0000  0.0013  0.0581  0.0000  0.0000  0.0000  0.0000  0.0000 </r>
       </set>
       <set comment="band 9">
        <r>  0.0000  0.0096  0.0000  0.0000  0.0000  0.0000  0.0000  0.0000  0.0000 </r>
       </set>
       <set comment="band 10">
        <r>  0.0232  0.0000  0.1838  0.0080  0.0000  0.0000  0.0000  0.0000  0.0000 </r>
       </set>
       <set comment="band 11">
        <r>  0.0000  0.2639  0.0000  0.0000  0.0000  0.0000  0.0000  0.0000  0.0000 </r>
       </set>
       <set comment="band 12">
        <r>  0.0271  0.0000  0.0730  0.0239  0.0000  0.0000  0.0000  0.0000  0.0000 </r>
       </set>
      </set>
      <set comment="kpoint 277">
       <set comment="band 1">
        <r>  0.4571  0.0127  0.0000  0.0017  0.0000  0.0000  0.0000  0.0000  0.0000 </r>
       </set>
       <set comment="band 2">
        <r>  0.0795  0.1760  0.0000  0.0562  0.0000  0.0000  0.0000  0.0000  0.0000 </r>
       </set>
       <set comment="band 3">
        <r>  0.0000  0.0000  0.2731  0.0000  0.0000  0.0000  0.0000  0.0000  0.0000 </r>
       </set>
       <set comment="band 4">
        <r>  0.0019  0.0835  0.0000  0.2129  0.0000  0.0000  0.0000  0.0000  0.0000 </r>
       </set>
       <set comment="band 5">
        <r>  0.0076  0.0037  0.0000  0.1762  0.0000  0.0000  0.0000  0.0000  0.0000 </r>
       </set>
       <set comment="band 6">
        <r>  0.0000  0.0000  0.1087  0.0000  0.0000  0.0000  0.0000  0.0000  0.0000 </r>
       </set>
       <set comment="band 7">
        <r>  0.0494  0.0303  0.0000  0.0027  0.0000  0.0000  0.0000  0.0000  0.0000 </r>
       </set>
       <set comment="band 8">
        <r>  0.0002  0.1232  0.0000  0.0214  0.0000  0.0000  0.0000  0.0000  0.0000 </r>
       </set>
       <set comment="band 9">
        <r>  0.0000  0.0000  0.0765  0.0000  0.0000  0.0000  0.0000  0.0000  0.0000 </r>
       </set>
       <set comment="band 10">
        <r>  0.0558  0.0591  0.0000  0.0035  0.0000  0.0000  0.0000  0.0000  0.0000 </r>
       </set>
       <set comment="band 11">
        <r>  0.0389  0.0017  0.0000  0.0091  0.0000  0.0000  0.0000  0.0000  0.0000 </r>
       </set>
       <set comment="band 12">
        <r>  0.0000  0.0000  0.0761  0.0000  0.0000  0.0000  0.0000  0.0000  0.0000 </r>
       </set>
      </set>
      <set comment="kpoint 278">
       <set comment="band 1">
        <r>  0.4900  0.0083  0.0000  0.0009  0.0000  0.0000  0.0000  0.0000  0.0000 </r>
       </set>
       <set comment="band 2">
        <r>  0.0417  0.1594  0.0213  0.0534  0.0000  0.0000  0.0000  0.0000  0.0000 </r>
       </set>
       <set comment="band 3">
        <r>  0.0091  0.0275  0.2387  0.0001  0.0000  0.0000  0.0000  0.0000  0.0000 </r>
       </set>
       <set comment="band 4">
        <r>  0.0011  0.0719  0.0068  0.2056  0.0000  0.0000  0.0000  0.0000  0.0000 </r>
       </set>
       <set comment="band 5">
        <r>  0.0025  0.0053  0.0041  0.1845  0.0000  0.0000  0.0000  0.0000  0.0000 </r>
       </set>
       <set comment="band 6">
        <r>  0.0046  0.0048  0.0993  0.0102  0.0000  0.0000  0.0000  0.0000  0.0000 </r>
       </set>
       <set comment="band 7">
        <r>  0.0423  0.0317  0.0110  0.0025  0.0000  0.0000  0.0000  0.0000  0.0000 </r>
       </set>
       <set comment="band 8">
        <r>  0.0032  0.1005  0.0017  0.0206  0.0000  0.0000  0.0000  0.0000  0.0000 </r>
       </set>
       <set comment="band 9">
        <r>  0.0038  0.0007  0.0594  0.0003  0.0000  0.0000  0.0000  0.0000  0.0000 </r>
       </set>
       <set comment="band 10">
        <r>  0.0520  0.0867  0.0059  0.0009  0.0000  0.0000  0.0000  0.0000  0.0000 </r>
       </set>
       <set comment="band 11">
        <r>  0.0350  0.0021  0.0082  0.0037  0.0000  0.0000  0.0000  0.0000  0.0000 </r>
       </set>
       <set comment="band 12">
        <r>  0.0009  0.0336  0.1356  0.0019  0.0000  0.0000  0.0000  0.0000  0.0000 </r>
       </set>
      </set>
      <set comment="kpoint 279">
       <set comment="band 1">
        <r>  0.5159  0.0036  0.0008  0.0001  0.0000  0.0000  0.0000  0.0000  0.0000 </r>
       </set>
       <set comment="band 2">
        <r>  0.0055  0.1174  0.0690  0.0516  0.0000  0.0000  0.0000  0.0000  0.0000 </r>
       </set>
       <set comment="band 3">
        <r>  0.0220  0.0935  0.1693  0.0000  0.0000  0.0000  0.0000  0.0000  0.0000 </r>
       </set>
       <set comment="band 4">
        <r>  0.0001  0.0502  0.0255  0.2034  0.0000  0.0000  0.0000  0.0000  0.0000 </r>
       </set>
       <set comment="band 5">
        <r>  0.0003  0.0061  0.0062  0.1852  0.0000  0.0000  0.0000  0.0000  0.0000 </r>
       </set>
       <set comment="band 6">
        <r>  0.0257  0.0246  0.0528  0.0022  0.0000  0.0000  0.0000  0.0000  0.0000 </r>
       </set>
       <set comment="band 7">
        <r>  0.0092  0.0341  0.0536  0.0311  0.0000  0.0000  0.0000  0.0000  0.0000 </r>
       </set>
       <set comment="band 8">
        <r>  0.0161  0.0668  0.0103  0.0074  0.0000  0.0000  0.0000  0.0000  0.0000 </r>
       </set>
       <set comment="band 9">
        <r>  0.0115  0.0117  0.0343  0.0001  0.0000  0.0000  0.0000  0.0000  0.0000 </r>
       </set>
       <set comment="band 10">
        <r>  0.0177  0.0882  0.0280  0.0001  0.0000  0.0000  0.0000  0.0000  0.0000 </r>
       </set>
       <set comment="band 11">
        <r>  0.0619  0.0062  0.0296  0.0008  0.0000  0.0000  0.0000  0.0000  0.0000 </r>
       </set>
       <set comment="band 12">
        <r>  0.0010  0.0515  0.0917  0.0003  0.0000  0.0000  0.0000  0.0000  0.0000 </r>
       </set>
      </set>
      <set comment="kpoint 280">
       <set comment="band 1">
        <r>  0.5017  0.0074  0.0000  0.0005  0.0000  0.0000  0.0000  0.0000  0.0000 </r>
       </set>
       <set comment="band 2">
        <r>  0.0423  0.2122  0.0000  0.0276  0.0000  0.0000  0.0000  0.0000  0.0000 </r>
       </set>
       <set comment="band 3">
        <r>  0.0000  0.0000  0.2707  0.0000  0.0000  0.0000  0.0000  0.0000  0.0000 </r>
       </set>
       <set comment="band 4">
        <r>  0.0000  0.0388  0.0000  0.2290  0.0000  0.0000  0.0000  0.0000  0.0000 </r>
       </set>
       <set comment="band 5">
        <r>  0.0148  0.0015  0.0000  0.1840  0.0000  0.0000  0.0000  0.0000  0.0000 </r>
       </set>
       <set comment="band 6">
        <r>  0.0000  0.0000  0.1050  0.0000  0.0000  0.0000  0.0000  0.0000  0.0000 </r>
       </set>
       <set comment="band 7">
        <r>  0.0355  0.0476  0.0000  0.0098  0.0000  0.0000  0.0000  0.0000  0.0000 </r>
       </set>
       <set comment="band 8">
        <r>  0.0053  0.0880  0.0000  0.0257  0.0000  0.0000  0.0000  0.0000  0.0000 </r>
       </set>
       <set comment="band 9">
        <r>  0.0000  0.0000  0.0553  0.0000  0.0000  0.0000  0.0000  0.0000  0.0000 </r>
       </set>
       <set comment="band 10">
        <r>  0.0569  0.1302  0.0000  0.0030  0.0000  0.0000  0.0000  0.0000  0.0000 </r>
       </set>
       <set comment="band 11">
        <r>  0.0180  0.0018  0.0000  0.0097  0.0000  0.0000  0.0000  0.0000  0.0000 </r>
       </set>
       <set comment="band 12">
        <r>  0.0000  0.0000  0.1949  0.0000  0.0000  0.0000  0.0000  0.0000  0.0000 </r>
       </set>
      </set>
      <set comment="kpoint 281">
       <set comment="band 1">
        <r>  0.5286  0.0029  0.0002  0.0001  0.0000  0.0000  0.0000  0.0000  0.0000 </r>
       </set>
       <set comment="band 2">
        <r>  0.0137  0.2081  0.0127  0.0245  0.0000  0.0000  0.0000  0.0000  0.0000 </r>
       </set>
       <set comment="band 3">
        <r>  0.0038  0.0225  0.2332  0.0065  0.0000  0.0000  0.0000  0.0000  0.0000 </r>
       </set>
       <set comment="band 4">
        <r>  0.0002  0.0234  0.0193  0.2185  0.0000  0.0000  0.0000  0.0000  0.0000 </r>
       </set>
       <set comment="band 5">
        <r>  0.0077  0.0014  0.0059  0.1922  0.0000  0.0000  0.0000  0.0000  0.0000 </r>
       </set>
       <set comment="band 6">
        <r>  0.0004  0.0012  0.1019  0.0196  0.0000  0.0000  0.0000  0.0000  0.0000 </r>
       </set>
       <set comment="band 7">
        <r>  0.0283  0.0648  0.0028  0.0005  0.0000  0.0000  0.0000  0.0000  0.0000 </r>
       </set>
       <set comment="band 8">
        <r>  0.0193  0.0608  0.0015  0.0193  0.0000  0.0000  0.0000  0.0000  0.0000 </r>
       </set>
       <set comment="band 9">
        <r>  0.0024  0.0062  0.0312  0.0001  0.0000  0.0000  0.0000  0.0000  0.0000 </r>
       </set>
       <set comment="band 10">
        <r>  0.0340  0.1576  0.0081  0.0003  0.0000  0.0000  0.0000  0.0000  0.0000 </r>
       </set>
       <set comment="band 11">
        <r>  0.0275  0.0004  0.1216  0.0029  0.0000  0.0000  0.0000  0.0000  0.0000 </r>
       </set>
       <set comment="band 12">
        <r>  0.0016  0.0059  0.0745  0.0016  0.0000  0.0000  0.0000  0.0000  0.0000 </r>
       </set>
      </set>
      <set comment="kpoint 282">
       <set comment="band 1">
        <r>  0.5356  0.0005  0.0014  0.0000  0.0000  0.0000  0.0000  0.0000  0.0000 </r>
       </set>
       <set comment="band 2">
        <r>  0.0003  0.1325  0.0836  0.0312  0.0000  0.0000  0.0000  0.0000  0.0000 </r>
       </set>
       <set comment="band 3">
        <r>  0.0099  0.1180  0.1282  0.0100  0.0000  0.0000  0.0000  0.0000  0.0000 </r>
       </set>
       <set comment="band 4">
        <r>  0.0008  0.0064  0.0505  0.2064  0.0000  0.0000  0.0000  0.0000  0.0000 </r>
       </set>
       <set comment="band 5">
        <r>  0.0029  0.0007  0.0095  0.1965  0.0000  0.0000  0.0000  0.0000  0.0000 </r>
       </set>
       <set comment="band 6">
        <r>  0.0114  0.0113  0.0746  0.0280  0.0000  0.0000  0.0000  0.0000  0.0000 </r>
       </set>
       <set comment="band 7">
        <r>  0.0019  0.0983  0.0147  0.0091  0.0000  0.0000  0.0000  0.0000  0.0000 </r>
       </set>
       <set comment="band 8">
        <r>  0.0390  0.0121  0.0201  0.0012  0.0000  0.0000  0.0000  0.0000  0.0000 </r>
       </set>
       <set comment="band 9">
        <r>  0.0025  0.0280  0.0079  0.0000  0.0000  0.0000  0.0000  0.0000  0.0000 </r>
       </set>
       <set comment="band 10">
        <r>  0.0367  0.0045  0.1408  0.0006  0.0000  0.0000  0.0000  0.0000  0.0000 </r>
       </set>
       <set comment="band 11">
        <r>  0.0242  0.1443  0.0006  0.0001  0.0000  0.0000  0.0000  0.0000  0.0000 </r>
       </set>
       <set comment="band 12">
        <r>  0.0015  0.0523  0.0250  0.0006  0.0000  0.0000  0.0000  0.0000  0.0000 </r>
       </set>
      </set>
      <set comment="kpoint 283">
       <set comment="band 1">
        <r>  0.5190  0.0000  0.0044  0.0004  0.0000  0.0000  0.0000  0.0000  0.0000 </r>
       </set>
       <set comment="band 2">
        <r>  0.0248  0.0000  0.1907  0.0488  0.0000  0.0000  0.0000  0.0000  0.0000 </r>
       </set>
       <set comment="band 3">
        <r>  0.0000  0.2603  0.0000  0.0000  0.0000  0.0000  0.0000  0.0000  0.0000 </r>
       </set>
       <set comment="band 4">
        <r>  0.0013  0.0000  0.0691  0.2017  0.0000  0.0000  0.0000  0.0000  0.0000 </r>
       </set>
       <set comment="band 5">
        <r>  0.0001  0.0000  0.0090  0.2032  0.0000  0.0000  0.0000  0.0000  0.0000 </r>
       </set>
       <set comment="band 6">
        <r>  0.0000  0.1185  0.0000  0.0000  0.0000  0.0000  0.0000  0.0000  0.0000 </r>
       </set>
       <set comment="band 7">
        <r>  0.0345  0.0000  0.0512  0.0179  0.0000  0.0000  0.0000  0.0000  0.0000 </r>
       </set>
       <set comment="band 8">
        <r>  0.0195  0.0000  0.0684  0.0098  0.0000  0.0000  0.0000  0.0000  0.0000 </r>
       </set>
       <set comment="band 9">
        <r>  0.0000  0.0504  0.0000  0.0000  0.0000  0.0000  0.0000  0.0000  0.0000 </r>
       </set>
       <set comment="band 10">
        <r>  0.0546  0.0000  0.1212  0.0000  0.0000  0.0000  0.0000  0.0000  0.0000 </r>
       </set>
       <set comment="band 11">
        <r>  0.0238  0.0000  0.0022  0.0020  0.0000  0.0000  0.0000  0.0000  0.0000 </r>
       </set>
       <set comment="band 12">
        <r>  0.0000  0.2041  0.0000  0.0000  0.0000  0.0000  0.0000  0.0000  0.0000 </r>
       </set>
      </set>
      <set comment="kpoint 284">
       <set comment="band 1">
        <r>  0.5388  0.0011  0.0000  0.0001  0.0000  0.0000  0.0000  0.0000  0.0000 </r>
       </set>
       <set comment="band 2">
        <r>  0.0061  0.2455  0.0000  0.0038  0.0000  0.0000  0.0000  0.0000  0.0000 </r>
       </set>
       <set comment="band 3">
        <r>  0.0000  0.0000  0.2692  0.0000  0.0000  0.0000  0.0000  0.0000  0.0000 </r>
       </set>
       <set comment="band 4">
        <r>  0.0016  0.0051  0.0000  0.2468  0.0000  0.0000  0.0000  0.0000  0.0000 </r>
       </set>
       <set comment="band 5">
        <r>  0.0187  0.0002  0.0000  0.1870  0.0000  0.0000  0.0000  0.0000  0.0000 </r>
       </set>
       <set comment="band 6">
        <r>  0.0000  0.0000  0.1042  0.0000  0.0000  0.0000  0.0000  0.0000  0.0000 </r>
       </set>
       <set comment="band 7">
        <r>  0.0185  0.0771  0.0000  0.0120  0.0000  0.0000  0.0000  0.0000  0.0000 </r>
       </set>
       <set comment="band 8">
        <r>  0.0208  0.0502  0.0000  0.0303  0.0000  0.0000  0.0000  0.0000  0.0000 </r>
       </set>
       <set comment="band 9">
        <r>  0.0000  0.0000  0.0126  0.0000  0.0000  0.0000  0.0000  0.0000  0.0000 </r>
       </set>
       <set comment="band 10">
        <r>  0.0000  0.0000  0.2473  0.0000  0.0000  0.0000  0.0000  0.0000  0.0000 </r>
       </set>
       <set comment="band 11">
        <r>  0.0252  0.2140  0.0000  0.0023  0.0000  0.0000  0.0000  0.0000  0.0000 </r>
       </set>
       <set comment="band 12">
        <r>  0.0296  0.0296  0.0000  0.0151  0.0000  0.0000  0.0000  0.0000  0.0000 </r>
       </set>
      </set>
      <set comment="kpoint 285">
       <set comment="band 1">
        <r>  0.5454  0.0000  0.0002  0.0000  0.0000  0.0000  0.0000  0.0000  0.0000 </r>
       </set>
       <set comment="band 2">
        <r>  0.0000  0.2532  0.0000  0.0000  0.0000  0.0000  0.0000  0.0000  0.0000 </r>
       </set>
       <set comment="band 3">
        <r>  0.0009  0.0000  0.2346  0.0230  0.0000  0.0000  0.0000  0.0000  0.0000 </r>
       </set>
       <set comment="band 4">
        <r>  0.0013  0.0000  0.0302  0.2232  0.0000  0.0000  0.0000  0.0000  0.0000 </r>
       </set>
       <set comment="band 5">
        <r>  0.0099  0.0000  0.0064  0.1933  0.0000  0.0000  0.0000  0.0000  0.0000 </r>
       </set>
       <set comment="band 6">
        <r>  0.0001  0.0000  0.1016  0.0222  0.0000  0.0000  0.0000  0.0000  0.0000 </r>
       </set>
       <set comment="band 7">
        <r>  0.0000  0.1242  0.0000  0.0000  0.0000  0.0000  0.0000  0.0000  0.0000 </r>
       </set>
       <set comment="band 8">
        <r>  0.0478  0.0000  0.0026  0.0207  0.0000  0.0000  0.0000  0.0000  0.0000 </r>
       </set>
       <set comment="band 9">
        <r>  0.0000  0.0104  0.0000  0.0000  0.0000  0.0000  0.0000  0.0000  0.0000 </r>
       </set>
       <set comment="band 10">
        <r>  0.0226  0.0000  0.1951  0.0017  0.0000  0.0000  0.0000  0.0000  0.0000 </r>
       </set>
       <set comment="band 11">
        <r>  0.0000  0.2578  0.0000  0.0000  0.0000  0.0000  0.0000  0.0000  0.0000 </r>
       </set>
       <set comment="band 12">
        <r>  0.0134  0.0000  0.0541  0.0058  0.0000  0.0000  0.0000  0.0000  0.0000 </r>
       </set>
      </set>
      <set comment="kpoint 286">
       <set comment="band 1">
        <r>  0.5446  0.0006  0.0000  0.0000  0.0000  0.0000  0.0000  0.0000  0.0000 </r>
       </set>
       <set comment="band 2">
        <r>  0.0033  0.2432  0.0000  0.0098  0.0000  0.0000  0.0000  0.0000  0.0000 </r>
       </set>
       <set comment="band 3">
        <r>  0.0000  0.0000  0.2594  0.0000  0.0000  0.0000  0.0000  0.0000  0.0000 </r>
       </set>
       <set comment="band 4">
        <r>  0.0000  0.0130  0.0000  0.2337  0.0000  0.0000  0.0000  0.0000  0.0000 </r>
       </set>
       <set comment="band 5">
        <r>  0.0009  0.0013  0.0000  0.2338  0.0000  0.0000  0.0000  0.0000  0.0000 </r>
       </set>
       <set comment="band 6">
        <r>  0.0000  0.0000  0.1157  0.0000  0.0000  0.0000  0.0000  0.0000  0.0000 </r>
       </set>
       <set comment="band 7">
        <r>  0.0090  0.1027  0.0000  0.0017  0.0000  0.0000  0.0000  0.0000  0.0000 </r>
       </set>
       <set comment="band 8">
        <r>  0.0479  0.0165  0.0000  0.0041  0.0000  0.0000  0.0000  0.0000  0.0000 </r>
       </set>
       <set comment="band 9">
        <r>  0.0000  0.0000  0.0114  0.0000  0.0000  0.0000  0.0000  0.0000  0.0000 </r>
       </set>
       <set comment="band 10">
        <r>  0.0219  0.2111  0.0000  0.0000  0.0000  0.0000  0.0000  0.0000  0.0000 </r>
       </set>
       <set comment="band 11">
        <r>  0.0000  0.0000  0.2520  0.0000  0.0000  0.0000  0.0000  0.0000  0.0000 </r>
       </set>
       <set comment="band 12">
        <r>  0.0240  0.0002  0.0000  0.0035  0.0000  0.0000  0.0000  0.0000  0.0000 </r>
       </set>
      </set>
     </set>
    </set>
   </array>
  </projected>
 </calculation>
 <structure name="finalpos" >
  <crystal>
   <varray name="basis" >
    <v>       2.50000000       2.50000000       0.00000000 </v>
    <v>       0.00000000       2.50000000       2.50000000 </v>
    <v>       2.50000000       0.00000000       2.50000000 </v>
   </varray>
   <i name="volume">     31.25000000 </i>
   <varray name="rec_basis" >
    <v>       0.20000000       0.20000000      -0.20000000 </v>
    <v>      -0.20000000       0.20000000       0.20000000 </v>
    <v>       0.20000000      -0.20000000       0.20000000 </v>
   </varray>
  </crystal>
  <varray name="positions" >
   <v>       0.00000000       0.00000000       0.00000000 </v>
  </varray>
 </structure>
</modeling>
