       N       E                     dE             d eps       ncg     rms          rms(c)
DAV:   1     0.214815364194E+04    0.21482E+04   -0.92238E+04  2736   0.999E+02
DAV:   2    -0.229163775167E+03   -0.23773E+04   -0.22692E+04  3684   0.251E+02
DAV:   3    -0.632876398312E+03   -0.40371E+03   -0.39821E+03  3024   0.109E+02
DAV:   4    -0.649528316306E+03   -0.16652E+02   -0.16540E+02  3180   0.272E+01
DAV:   5    -0.650102197343E+03   -0.57388E+00   -0.57283E+00  3480   0.428E+00    0.386E+01
DAV:   6    -0.612948231817E+03    0.37154E+02   -0.32295E+01  2844   0.103E+01    0.222E+01
DAV:   7    -0.597162164325E+03    0.15786E+02   -0.46402E+01  2808   0.121E+01    0.512E+00
DAV:   8    -0.596846517965E+03    0.31565E+00   -0.14600E+00  2928   0.251E+00    0.754E-01
DAV:   9    -0.596753797954E+03    0.92720E-01   -0.14650E-01  2988   0.672E-01    0.542E-01
DAV:  10    -0.596684494248E+03    0.69304E-01   -0.53401E-02  2724   0.379E-01    0.322E-01
DAV:  11    -0.596665785064E+03    0.18709E-01   -0.63848E-02  2676   0.383E-01    0.211E-01
DAV:  12    -0.596660986007E+03    0.47991E-02   -0.92024E-03  2604   0.151E-01    0.117E-01
DAV:  13    -0.596676958197E+03   -0.15972E-01   -0.36349E-03  2700   0.112E-01    0.755E-02
DAV:  14    -0.596699873390E+03   -0.22915E-01   -0.43853E-03  2688   0.796E-02    0.452E-02
DAV:  15    -0.596707507040E+03   -0.76337E-02   -0.99889E-04  2844   0.366E-02    0.236E-02
DAV:  16    -0.596710667883E+03   -0.31608E-02   -0.24457E-04  2604   0.210E-02    0.997E-03
DAV:  17    -0.596711256653E+03   -0.58877E-03   -0.36345E-05  2520   0.887E-03    0.451E-03
DAV:  18    -0.596711402176E+03   -0.14552E-03   -0.43210E-06  2220   0.327E-03    0.124E-03
DAV:  19    -0.596711414785E+03   -0.12610E-04   -0.32827E-07  1920   0.133E-03    0.337E-04
DAV:  20    -0.596711422745E+03   -0.79595E-05   -0.21909E-07  1632   0.804E-04    0.192E-04
DAV:  21    -0.596711424329E+03   -0.15838E-05   -0.46603E-08  1692   0.450E-04    0.964E-05
DAV:  22    -0.596711424494E+03   -0.16573E-06    0.90601E-09  1800   0.269E-04
   1 F= -.59671142E+03 E0= -.59671061E+03  d E =-.161947E-02
 Linear response reoptimize wavefunctions
DAV:   1    -0.596711424542E+03   -0.47574E-07    0.14197E-08  2016   0.153E-04
DAV:   2    -0.596711424542E+03    0.16007E-09    0.25834E-08  1920   0.476E-05
DAV:   3    -0.596711424542E+03    0.65484E-10    0.26528E-08  1896   0.262E-05
 Linear response DOF=           9
 Linear response progress:
  Degree of freedom:   1/  9
       N       E                     dE             d eps       ncg     rms          rms(c)
RMM:   1    -0.722119582984E-01   -0.72212E-01   -0.55575E-02  7058   0.593E-01
RMM:   2    -0.522137199028E-01    0.19998E-01   -0.69472E-03  4120   0.171E-01    0.269E-01
RMM:   3    -0.499961328515E-01    0.22176E-02   -0.60316E-03  3855   0.118E-01    0.121E-01
RMM:   4    -0.496946114226E-01    0.30152E-03   -0.21892E-04  3911   0.267E-02    0.649E-02
RMM:   5    -0.493643508567E-01    0.33026E-03   -0.18003E-04  3844   0.222E-02    0.937E-03
RMM:   6    -0.493577587643E-01    0.65921E-05   -0.24561E-05  4428   0.393E-03    0.420E-03
RMM:   7    -0.493635038682E-01   -0.57451E-05   -0.16451E-05  4558   0.254E-03    0.100E-03
RMM:   8    -0.493624396246E-01    0.10642E-05   -0.10560E-05  5300   0.102E-03    0.528E-04
RMM:   9    -0.493630703540E-01   -0.63073E-06   -0.13559E-05  5286   0.932E-04    0.226E-04
RMM:  10    -0.493623780372E-01    0.69232E-06   -0.11629E-05  5650   0.823E-04    0.151E-04
RMM:  11    -0.493623857045E-01   -0.76673E-08   -0.16390E-05  5522   0.841E-04    0.693E-05
RMM:  12    -0.493621644893E-01    0.22122E-06   -0.13866E-05  5830   0.769E-04    0.393E-05
 Linear response progress:
  Degree of freedom:   2/  9
       N       E                     dE             d eps       ncg     rms          rms(c)
RMM:   1    -0.723922969935E-01   -0.72392E-01   -0.56665E-02 10103   0.595E-01
RMM:   2    -0.522050611080E-01    0.20187E-01   -0.69796E-03  5887   0.173E-01    0.269E-01
RMM:   3    -0.500185548517E-01    0.21865E-02   -0.59850E-03  5496   0.119E-01    0.122E-01
RMM:   4    -0.497199188532E-01    0.29864E-03   -0.21557E-04  5618   0.269E-02    0.650E-02
RMM:   5    -0.493713748166E-01    0.34854E-03   -0.17040E-04  5474   0.223E-02    0.937E-03
RMM:   6    -0.493768648070E-01   -0.54900E-05   -0.51313E-05  6438   0.395E-03    0.421E-03
RMM:   7    -0.493884380404E-01   -0.11573E-04   -0.61304E-05  6695   0.253E-03    0.998E-04
RMM:   8    -0.493899928632E-01   -0.15548E-05   -0.84336E-05  8027   0.990E-04    0.526E-04
RMM:   9    -0.493901792358E-01   -0.18637E-06   -0.79623E-05  8042   0.905E-04    0.224E-04
