 vasp.5.4.4.18Apr17-6-g9f103f2a35 (build Mar 30 2023 15:39:25) complex          
  
 executed on             LinuxIFC date 2023.06.30  16:13:52
 running on   12 total cores
 distrk:  each k-point on   12 cores,    1 groups
 distr:  one band on NCORES_PER_BAND=   1 cores,   12 groups


--------------------------------------------------------------------------------------------------------


 INCAR:
 POTCAR:    PAW_PBE B 06Sep2000                   
 POTCAR:    PAW_PBE C 08Apr2002                   

 ----------------------------------------------------------------------------- 
|                                                                             |
|           W    W    AA    RRRRR   N    N  II  N    N   GGGG   !!!           |
|           W    W   A  A   R    R  NN   N  II  NN   N  G    G  !!!           |
|           W    W  A    A  R    R  N N  N  II  N N  N  G       !!!           |
|           W WW W  AAAAAA  RRRRR   N  N N  II  N  N N  G  GGG   !            |
|           WW  WW  A    A  R   R   N   NN  II  N   NN  G    G                |
|           W    W  A    A  R    R  N    N  II  N    N   GGGG   !!!           |
|                                                                             |
|      For optimal performance we recommend to set                            |
|        NCORE= 4 - approx SQRT( number of cores)                             |
|      NCORE specifies how many cores store one orbital (NPAR=cpu/NCORE).     |
|      This setting can  greatly improve the performance of VASP for DFT.     |
|      The default,   NCORE=1            might be grossly inefficient         |
|      on modern multi-core architectures or massively parallel machines.     |
|      Do your own testing !!!!                                               |
|      Unfortunately you need to use the default for GW and RPA calculations. |
|      (for HF NCORE is supported but not extensively tested yet)             |
|                                                                             |
 ----------------------------------------------------------------------------- 

 POTCAR:    PAW_PBE B 06Sep2000                   
   SHA256 =  a32ced30f5ae56fd4d10b4325ff17eb3e4e38ee0f4288bc219fb012fddfa6e97 B/
   COPYR  = (c) Copyright 06Sep2000 Georg Kresse                                
   COPYR  = This file is part of the software VASP. Any use, copying, and all ot
   COPYR  = If you do not have a valid VASP license, you may not use, copy or di
   VRHFIN =B: s2p1                                                              
   LEXCH  = PE                                                                  
   EATOM  =    71.1703 eV,    5.2309 Ry                                         
                                                                                
   TITEL  = PAW_PBE B 06Sep2000                                                 
   LULTRA =        F    use ultrasoft PP ?                                      
   IUNSCR =        1    unscreen: 0-lin 1-nonlin 2-no                           
   RPACOR =    1.200    partial core radius                                     
   POMASS =   10.811; ZVAL   =    3.000    mass and valenz                      
   RCORE  =    1.700    outmost cutoff radius                                   
   RWIGS  =    1.710; RWIGS  =    0.905    wigner-seitz radius (au A)           
   ENMAX  =  318.614; ENMIN  =  238.960 eV                                      
   ICORE  =        2    local potential                                         
   LCOR   =        T    correct aug charges                                     
   LPAW   =        T    paw PP                                                  
   EAUG   =  535.514                                                            
   DEXC   =    0.000                                                            
   RMAX   =    1.732    core radius for proj-oper                               
   RAUG   =    1.300    factor for augmentation sphere                          
   RDEP   =    1.757    radius for radial grids                                 
   RDEPT  =    1.436    core radius for aug-charge                              
                                                                                
   Atomic configuration                                                         
    4 entries                                                                   
     n  l   j            E        occ.                                          
     1  0  0.50      -180.5896   2.0000                                         
     2  0  0.50        -9.4431   2.0000                                         
     2  1  0.50        -3.6068   1.0000                                         
     3  2  1.50        -4.0817   0.0000                                         
   Description                                                                  
     l       E           TYP  RCUT    TYP  RCUT                                 
     0     -9.4430752     23  1.500                                             
     0      0.8675899     23  1.500                                             
     1     -3.6067955     23  1.700                                             
     1      6.1086146     23  1.700                                             
     2     -4.0817478      7  1.700                                             
  local pseudopotential read in
  partial core-charges read in
  partial kinetic energy density read in
  atomic valenz-charges read in
  non local Contribution for L=           0  read in
    real space projection operators read in
  non local Contribution for L=           0  read in
    real space projection operators read in
  non local Contribution for L=           1  read in
    real space projection operators read in
  non local Contribution for L=           1  read in
    real space projection operators read in
    PAW grid and wavefunctions read in
 
   number of l-projection  operators is LMAX  =           4
   number of lm-projection operators is LMMAX =           8
 
 POTCAR:    PAW_PBE C 08Apr2002                   
   SHA256 =  253f7b50bb8d59471dbedb8285d89021f4a42ed1a2c5d38a03a736e69125dd95 C/
   COPYR  = (c) Copyright 08Apr2002 Georg Kresse                                
   COPYR  = This file is part of the software VASP. Any use, copying, and all ot
   COPYR  = If you do not have a valid VASP license, you may not use, copy or di
   VRHFIN =C: s2p2                                                              
   LEXCH  = PE                                                                  
   EATOM  =   147.1560 eV,   10.8157 Ry                                         
                                                                                
   TITEL  = PAW_PBE C 08Apr2002                                                 
   LULTRA =        F    use ultrasoft PP ?                                      
   IUNSCR =        1    unscreen: 0-lin 1-nonlin 2-no                           
   RPACOR =    1.200    partial core radius                                     
   POMASS =   12.011; ZVAL   =    4.000    mass and valenz                      
   RCORE  =    1.500    outmost cutoff radius                                   
   RWIGS  =    1.630; RWIGS  =    0.863    wigner-seitz radius (au A)           
   ENMAX  =  400.000; ENMIN  =  300.000 eV                                      
   ICORE  =        2    local potential                                         
   LCOR   =        T    correct aug charges                                     
   LPAW   =        T    paw PP                                                  
   EAUG   =  644.873                                                            
   DEXC   =    0.000                                                            
   RMAX   =    1.529    core radius for proj-oper                               
   RAUG   =    1.300    factor for augmentation sphere                          
   RDEP   =    1.501    radius for radial grids                                 
   RDEPT  =    1.300    core radius for aug-charge                              
                                                                                
   Atomic configuration                                                         
    4 entries                                                                   
     n  l   j            E        occ.                                          
     1  0  0.50      -273.3789   2.0000                                         
     2  0  0.50       -13.7508   2.0000                                         
     2  1  0.50        -5.2854   2.0000                                         
     3  2  1.50        -5.4423   0.0000                                         
   Description                                                                  
     l       E           TYP  RCUT    TYP  RCUT                                 
     0    -13.7508458     23  1.200                                             
     0     -8.2022199     23  1.200                                             
     1     -5.2854383     23  1.500                                             
     1     34.0145650     23  1.500                                             
     2     -5.4423304      7  1.500                                             
  local pseudopotential read in
  partial core-charges read in
  partial kinetic energy density read in
  atomic valenz-charges read in
  non local Contribution for L=           0  read in
    real space projection operators read in
  non local Contribution for L=           0  read in
    real space projection operators read in
  non local Contribution for L=           1  read in
    real space projection operators read in
  non local Contribution for L=           1  read in
    real space projection operators read in
    PAW grid and wavefunctions read in
 
   number of l-projection  operators is LMAX  =           4
   number of lm-projection operators is LMMAX =           8
 

 ----------------------------------------------------------------------------- 
|                                                                             |
|  ADVICE TO THIS USER RUNNING 'VASP/VAMP'   (HEAR YOUR MASTER'S VOICE ...):  |
|                                                                             |
|      You have a (more or less) 'large supercell' and for larger cells       |
|      it might be more efficient to use real space projection opertators     |
|      So try LREAL= Auto  in the INCAR   file.                               |
|      Mind:          For very  accurate calculation you might also keep the  |
|      reciprocal projection scheme          (i.e. LREAL=.FALSE.)             |
|                                                                             |
 ----------------------------------------------------------------------------- 

  PAW_PBE B 06Sep2000                   :
 energy of atom  1       EATOM=  -71.1703
 kinetic energy error for atom=    0.0015 (will be added to EATOM!!)
  PAW_PBE C 08Apr2002                   :
 energy of atom  2       EATOM= -147.1560
 kinetic energy error for atom=    0.0116 (will be added to EATOM!!)
 
 
 POSCAR: generated by phonopy                    
  positions in direct lattice
  No initial velocities read in
 exchange correlation table for  LEXCH =        8
   RHO(1)=    0.500       N(1)  =     2000
   RHO(2)=  100.500       N(2)  =     4000
 


--------------------------------------------------------------------------------------------------------


 ion  position               nearest neighbor table
   1  0.111  0.222  0.250-  55 1.49  19 1.49  37 1.49
   2  0.444  0.222  0.250-  56 1.49  20 1.49  38 1.49
   3  0.778  0.222  0.250-  21 1.49  57 1.49  39 1.49
   4  0.111  0.556  0.250-  22 1.49  58 1.49  40 1.49
   5  0.444  0.556  0.250-  23 1.49  59 1.49  41 1.49
   6  0.778  0.556  0.250-  24 1.49  60 1.49  42 1.49
   7  0.111  0.889  0.250-  25 1.49  61 1.49  43 1.49
   8  0.444  0.889  0.250-  62 1.49  26 1.49  44 1.49
   9  0.778  0.889  0.250-  27 1.49  63 1.49  45 1.49
  10  0.222  0.111  0.250-  64 1.49  28 1.49  46 1.49
  11  0.556  0.111  0.250-  29 1.49  65 1.49  47 1.49
  12  0.889  0.111  0.250-  30 1.49  66 1.49  48 1.49
  13  0.222  0.444  0.250-  67 1.49  31 1.49  49 1.49
  14  0.556  0.444  0.250-  32 1.49  68 1.49  50 1.49
  15  0.889  0.444  0.250-  69 1.49  33 1.49  51 1.49
  16  0.222  0.778  0.250-  34 1.49  70 1.49  52 1.49
  17  0.556  0.778  0.250-  35 1.49  71 1.49  53 1.49
  18  0.889  0.778  0.250-  36 1.49  72 1.49  54 1.49
  19  0.056  0.111  0.250-  48 1.49   1 1.49  28 1.49
  20  0.389  0.111  0.250-   2 1.49  46 1.49  29 1.49
  21  0.722  0.111  0.250-   3 1.49  47 1.49  30 1.49
  22  0.056  0.444  0.250-   4 1.49  51 1.49  31 1.49
  23  0.389  0.444  0.250-   5 1.49  49 1.49  32 1.49
  24  0.722  0.444  0.250-   6 1.49  50 1.49  33 1.49
  25  0.056  0.778  0.250-  54 1.49   7 1.49  34 1.49
  26  0.389  0.778  0.250-  52 1.49   8 1.49  35 1.49
  27  0.722  0.778  0.250-   9 1.49  53 1.49  36 1.49
  28  0.111  0.056  0.250-  43 1.49  10 1.49  19 1.49
  29  0.444  0.056  0.250-  11 1.49  44 1.49  20 1.49
  30  0.778  0.056  0.250-  45 1.49  12 1.49  21 1.49
  31  0.111  0.389  0.250-  13 1.49  37 1.49  22 1.49
  32  0.444  0.389  0.250-  14 1.49  38 1.49  23 1.49
  33  0.778  0.389  0.250-  39 1.49  15 1.49  24 1.49
  34  0.111  0.722  0.250-  16 1.49  40 1.49  25 1.49
  35  0.444  0.722  0.250-  17 1.49  41 1.49  26 1.49
  36  0.778  0.722  0.250-  18 1.49  42 1.49  27 1.49
  37  0.056  0.278  0.250-  66 1.49  31 1.49   1 1.49
  38  0.389  0.278  0.250-  64 1.49  32 1.49   2 1.49
  39  0.722  0.278  0.250-  33 1.49  65 1.49   3 1.49
  40  0.056  0.611  0.250-  69 1.49  34 1.49   4 1.49
  41  0.389  0.611  0.250-  35 1.49  67 1.49   5 1.49
  42  0.722  0.611  0.250-  36 1.49  68 1.49   6 1.49
  43  0.056  0.944  0.250-  28 1.49  72 1.49   7 1.49
  44  0.389  0.944  0.250-  29 1.49  70 1.49   8 1.49
  45  0.722  0.944  0.250-  30 1.49  71 1.49   9 1.49
  46  0.278  0.056  0.250-  61 1.49  20 1.49  10 1.49
  47  0.611  0.056  0.250-  62 1.49  21 1.49  11 1.49
  48  0.944  0.056  0.250-  19 1.49  63 1.49  12 1.49
  49  0.278  0.389  0.250-  55 1.49  23 1.49  13 1.49
  50  0.611  0.389  0.250-  24 1.49  56 1.49  14 1.49
  51  0.944  0.389  0.250-  22 1.49  57 1.49  15 1.49
  52  0.278  0.722  0.250-  26 1.49  58 1.49  16 1.49
  53  0.611  0.722  0.250-  27 1.49  59 1.49  17 1.49
  54  0.944  0.722  0.250-  25 1.49  60 1.49  18 1.49
  55  0.222  0.278  0.250-   1 1.49  49 1.49  64 1.49
  56  0.556  0.278  0.250-   2 1.49  50 1.49  65 1.49
  57  0.889  0.278  0.250-   3 1.49  51 1.49  66 1.49
  58  0.222  0.611  0.250-  52 1.49   4 1.49  67 1.49
  59  0.556  0.611  0.250-   5 1.49  53 1.49  68 1.49
  60  0.889  0.611  0.250-   6 1.49  54 1.49  69 1.49
  61  0.222  0.944  0.250-  46 1.49   7 1.49  70 1.49
  62  0.556  0.944  0.250-   8 1.49  47 1.49  71 1.49
  63  0.889  0.944  0.250-  48 1.49   9 1.49  72 1.49
  64  0.278  0.222  0.250-  10 1.49  38 1.49  55 1.49
  65  0.611  0.222  0.250-  39 1.49  11 1.49  56 1.49
  66  0.944  0.222  0.250-  37 1.49  12 1.49  57 1.49
  67  0.278  0.556  0.250-  13 1.49  41 1.49  58 1.49
  68  0.611  0.556  0.250-  14 1.49  42 1.49  59 1.49
  69  0.944  0.556  0.250-  15 1.49  40 1.49  60 1.49
  70  0.278  0.889  0.250-  16 1.49  44 1.49  61 1.49
  71  0.611  0.889  0.250-  17 1.49  45 1.49  62 1.49
  72  0.944  0.889  0.250-  43 1.49  18 1.49  63 1.49
 
  LATTYP: Found a base centered orthorhombic cell.
 ALAT       =    15.4920000000
 B/A-ratio  =     1.7323780015
 C/A-ratio  =     0.9682416731
  
  Lattice vectors:
  
 A1 = (  13.4190000000,   7.7460000000,   0.0000000000)
 A2 = ( -13.4190000000,   7.7460000000,   0.0000000000)
 A3 = (   0.0000000000,   0.0000000000,  15.0000000000)


Analysis of symmetry for initial positions (statically):
=====================================================================
 Subroutine PRICEL returns following result:
 
  LATTYP: Found a base centered orthorhombic cell.
 ALAT       =     5.1640000000
 B/A-ratio  =     1.7323780015
 C/A-ratio  =     2.9047250194
  
  Lattice vectors:
  
 A1 = (   4.4730000000,   2.5820000000,   0.0000000000)
 A2 = (  -4.4730000000,   2.5820000000,   0.0000000000)
 A3 = (   0.0000000000,   0.0000000000,  15.0000000000)
 
   9 primitive cells build up your supercell.
 

 Routine SETGRP: Setting up the symmetry group for a 
 base centered orthorhombic supercell.


 Subroutine GETGRP returns: Found  8 space group operations
 (whereof  4 operations were pure point group operations)
 out of a pool of  8 trial point group operations.


The static configuration has the point symmetry C_2v.
 The point group associated with its full space group is D_2h.


Analysis of symmetry for dynamics (positions and initial velocities):
=====================================================================
 Subroutine PRICEL returns following result:
 
  LATTYP: Found a base centered orthorhombic cell.
 ALAT       =     5.1640000000
 B/A-ratio  =     1.7323780015
 C/A-ratio  =     2.9047250194
  
  Lattice vectors:
  
 A1 = (   4.4730000000,   2.5820000000,   0.0000000000)
 A2 = (  -4.4730000000,   2.5820000000,   0.0000000000)
 A3 = (   0.0000000000,   0.0000000000,  15.0000000000)
 
   9 primitive cells build up your supercell.
 

 Routine SETGRP: Setting up the symmetry group for a 
 base centered orthorhombic supercell.


 Subroutine GETGRP returns: Found  8 space group operations
 (whereof  4 operations were pure point group operations)
 out of a pool of  8 trial point group operations.


The dynamic configuration has the point symmetry C_2v.
 The point group associated with its full space group is D_2h.


 Subroutine INISYM returns: Found  8 space group operations
 (whereof  4 operations are pure point group operations),
 and found     9 'primitive' translations

 
 
 KPOINTS: K-points for BC3                        

Automatic generation of k-mesh.
Space group operators:
 irot       det(A)        alpha          n_x          n_y          n_z        tau_x        tau_y        tau_z
    1     1.000000     0.000000     1.000000     0.000000     0.000000     0.000000     0.000000     0.000000
    2     1.000000   180.000000     0.000000     0.000000     1.000000     0.000000     0.000000     0.000000
    3    -1.000000   180.000000     1.000000     0.000000     0.000000     0.000000     0.000000     0.000000
    4    -1.000000   179.999999     0.000000     1.000000     0.000000     0.000000     0.000000     0.000000
    5    -1.000000     0.000000     1.000000     0.000000     0.000000     0.000000     0.000000     0.500000
    6    -1.000000   180.000000     0.000000     0.000000     1.000000     0.000000     0.000000     0.500000
    7     1.000000   180.000000     1.000000     0.000000     0.000000     0.000000     0.000000     0.500000
    8     1.000000   179.999999     0.000000     1.000000     0.000000     0.000000     0.000000     0.500000
 
 Subroutine IBZKPT returns following result:
 ===========================================
 
 Found      7 irreducible k-points:
 
 Following reciprocal coordinates:
            Coordinates               Weight
  0.000000  0.000000  0.000000      1.000000
  0.250000  0.000000  0.000000      4.000000
  0.500000  0.000000  0.000000      2.000000
  0.250000  0.250000  0.000000      2.000000
  0.500000  0.250000  0.000000      4.000000
 -0.250000  0.250000  0.000000      2.000000
  0.500000  0.500000  0.000000      1.000000
 
 Following cartesian coordinates:
            Coordinates               Weight
  0.000000  0.000000  0.000000      1.000000
  0.009315  0.016137  0.000000      4.000000
  0.018630  0.032275  0.000000      2.000000
  0.000000  0.032275  0.000000      2.000000
  0.009315  0.048412  0.000000      4.000000
 -0.018630  0.000000  0.000000      2.000000
  0.000000  0.064549  0.000000      1.000000
 
 
 Subroutine IBZKPT_HF returns following result:
 ==============================================
 
 Found     16 k-points in 1st BZ
 the following     16 k-points will be used (e.g. in the exchange kernel)
 Following reciprocal coordinates:   # in IRBZ
  0.000000  0.000000  0.000000    0.06250000   1 t-inv F
  0.250000  0.000000  0.000000    0.06250000   2 t-inv F
  0.500000  0.000000  0.000000    0.06250000   3 t-inv F
  0.250000  0.250000  0.000000    0.06250000   4 t-inv F
  0.500000  0.250000  0.000000    0.06250000   5 t-inv F
 -0.250000  0.250000  0.000000    0.06250000   6 t-inv F
  0.500000  0.500000  0.000000    0.06250000   7 t-inv F
 -0.250000  0.000000  0.000000    0.06250000   2 t-inv F
  0.000000  0.250000  0.000000    0.06250000   2 t-inv F
  0.000000 -0.250000  0.000000    0.06250000   2 t-inv F
  0.000000  0.500000  0.000000    0.06250000   3 t-inv F
 -0.250000 -0.250000  0.000000    0.06250000   4 t-inv F
 -0.500000 -0.250000  0.000000    0.06250000   5 t-inv F
  0.250000  0.500000  0.000000    0.06250000   5 t-inv F
 -0.250000 -0.500000  0.000000    0.06250000   5 t-inv F
  0.250000 -0.250000  0.000000    0.06250000   6 t-inv F


--------------------------------------------------------------------------------------------------------




 Dimension of arrays:
   k-points           NKPTS =      7   k-points in BZ     NKDIM =      7   number of bands    NBANDS=    180
   number of dos      NEDOS =    301   number of ions     NIONS =     72
   non local maximal  LDIM  =      4   non local SUM 2l+1 LMDIM =      8
   total plane-waves  NPLWV = ******
   max r-space proj   IRMAX =      1   max aug-charges    IRDMAX=   6498
   dimension x,y,z NGX =   108 NGY =  108 NGZ =  108
   dimension x,y,z NGXF=   216 NGYF=  216 NGZF=  216
   support grid    NGXF=   216 NGYF=  216 NGZF=  216
   ions per type =              18  54
   NGX,Y,Z   is equivalent  to a cutoff of  11.59, 11.59, 11.97 a.u.
   NGXF,Y,Z  is equivalent  to a cutoff of  23.18, 23.18, 23.94 a.u.

 SYSTEM =  BC3                                     
 POSCAR =  generated by phonopy                    

 Startparameter for this run:
   NWRITE =      2    write-flag & timer
   PREC   = accura    normal or accurate (medium, high low for compatibility)
   ISTART =      0    job   : 0-new  1-cont  2-samecut
   ICHARG =      2    charge: 1-file 2-atom 10-const
   ISPIN  =      1    spin polarized calculation?
   LNONCOLLINEAR =      F non collinear calculations
   LSORBIT =      F    spin-orbit coupling
   INIWAV =      1    electr: 0-lowe 1-rand  2-diag
   LASPH  =      F    aspherical Exc in radial PAW
   METAGGA=      F    non-selfconsistent MetaGGA calc.

 Electronic Relaxation 1
   ENCUT  =  450.0 eV  33.07 Ry    5.75 a.u.  26.80 26.80 25.95*2*pi/ulx,y,z
   ENINI  =  450.0     initial cutoff
   ENAUG  =  644.9 eV  augmentation charge cutoff
   NELM   =    200;   NELMIN=  2; NELMDL= -5     # of ELM steps 
   EDIFF  = 0.1E-05   stopping-criterion for ELM
   LREAL  =      F    real-space projection
   NLSPLINE    = F    spline interpolate recip. space projectors
   LCOMPAT=      F    compatible to vasp.4.4
   GGA_COMPAT  = T    GGA compatible to vasp.4.4-vasp.4.6
   LMAXPAW     = -100 max onsite density
   LMAXMIX     =    2 max onsite mixed and CHGCAR
   VOSKOWN=      0    Vosko Wilk Nusair interpolation
   ROPT   =    0.00000   0.00000
 Ionic relaxation
   EDIFFG = -.1E-02   stopping-criterion for IOM
   NSW    =      1    number of steps for IOM
   NBLOCK =      1;   KBLOCK =      1    inner block; outer block 
   IBRION =      8    ionic relax: 0-MD 1-quasi-New 2-CG
   NFREE  =      0    steps in history (QN), initial steepest desc. (CG)
   ISIF   =      2    stress and relaxation
   IWAVPR =     11    prediction:  0-non 1-charg 2-wave 3-comb
   ISYM   =      2    0-nonsym 1-usesym 2-fastsym
   LCORR  =      T    Harris-Foulkes like correction to forces

   POTIM  = 0.5000    time-step for ionic-motion
   TEIN   =    0.0    initial temperature
   TEBEG  =    0.0;   TEEND  =   0.0 temperature during run
   SMASS  =  -3.00    Nose mass-parameter (am)
   estimated Nose-frequenzy (Omega)   =  0.10E-29 period in steps =****** mass=  -0.549E-26a.u.
   SCALEE = 1.0000    scale energy and forces
   NPACO  =    256;   APACO  = 16.0  distance and # of slots for P.C.
   PSTRESS=    0.0 pullay stress

  Mass of Ions in am
   POMASS =  10.81 12.01
  Ionic Valenz
   ZVAL   =   3.00  4.00
  Atomic Wigner-Seitz radii
   RWIGS  =  -1.00 -1.00
  virtual crystal weights 
   VCA    =   1.00  1.00
   NELECT =     270.0000    total number of electrons
   NUPDOWN=      -1.0000    fix difference up-down

 DOS related values:
   EMIN   =  10.00;   EMAX   =-10.00  energy-range for DOS
   EFERMI =   0.00
   ISMEAR =     0;   SIGMA  =   0.10  broadening in eV -4-tet -1-fermi 0-gaus

 Electronic relaxation 2 (details)
   IALGO  =     38    algorithm
   LDIAG  =      T    sub-space diagonalisation (order eigenvalues)
   LSUBROT=      F    optimize rotation matrix (better conditioning)
   TURBO    =      0    0=normal 1=particle mesh
   IRESTART =      0    0=no restart 2=restart with 2 vectors
   NREBOOT  =      0    no. of reboots
   NMIN     =      0    reboot dimension
   EREF     =   0.00    reference energy to select bands
   IMIX   =      4    mixing-type and parameters
     AMIX     =   0.40;   BMIX     =  1.00
     AMIX_MAG =   1.60;   BMIX_MAG =  1.00
     AMIN     =   0.10
     WC   =   100.;   INIMIX=   1;  MIXPRE=   1;  MAXMIX= -45

 Intra band minimization:
   WEIMIN = 0.0010     energy-eigenvalue tresh-hold
   EBREAK =  0.14E-08  absolut break condition
   DEPER  =   0.30     relativ break condition  

   TIME   =   0.40     timestep for ELM

  volume/ion in A,a.u.               =      43.31       292.27
  Fermi-wavevector in a.u.,A,eV,Ry     =   0.724252  1.368638  7.136816  0.524541
  Thomas-Fermi vector in A             =   1.814675
 
 Write flags
   LWAVE        =      T    write WAVECAR
   LDOWNSAMPLE  =      F    k-point downsampling of WAVECAR
   LCHARG       =      T    write CHGCAR
   LVTOT        =      F    write LOCPOT, total local potential
   LVHAR        =      F    write LOCPOT, Hartree potential only
   LELF         =      F    write electronic localiz. function (ELF)
   LORBIT       =      0    0 simple, 1 ext, 2 COOP (PROOUT), +10 PAW based schemes


 Dipole corrections
   LMONO  =      F    monopole corrections only (constant potential shift)
   LDIPOL =      F    correct potential (dipole corrections)
   IDIPOL =      0    1-x, 2-y, 3-z, 4-all directions 
   EPSILON=  1.0000000 bulk dielectric constant

 Exchange correlation treatment:
   GGA     =    --    GGA type
   LEXCH   =     8    internal setting for exchange type
   VOSKOWN=      0    Vosko Wilk Nusair interpolation
   LHFCALC =     F    Hartree Fock is set to
   LHFONE  =     F    Hartree Fock one center treatment
   AEXX    =    0.0000 exact exchange contribution

 Linear response parameters
   LEPSILON=     F    determine dielectric tensor
   LRPA    =     F    only Hartree local field effects (RPA)
   LNABLA  =     F    use nabla operator in PAW spheres
   LVEL    =     F    velocity operator in full k-point grid
   LINTERFAST=   F  fast interpolation
   KINTER  =     0    interpolate to denser k-point grid
   CSHIFT  =0.1000    complex shift for real part using Kramers Kronig
   OMEGAMAX=  -1.0    maximum frequency
   DEG_THRESHOLD= 0.2000000E-02 threshold for treating states as degnerate
   RTIME   =   -0.100 relaxation time in fs
  (WPLASMAI=    0.000 imaginary part of plasma frequency in eV, 0.658/RTIME)
   DFIELD  = 0.0000000 0.0000000 0.0000000 field for delta impulse in time
 
 Orbital magnetization related:
   ORBITALMAG=     F  switch on orbital magnetization
   LCHIMAG   =     F  perturbation theory with respect to B field
   DQ        =  0.001000  dq finite difference perturbation B field
   LLRAUG    =     F  two centre corrections for induced B field



--------------------------------------------------------------------------------------------------------


 linear response using symmetry
 charge density and potential will be updated during run
 non-spin polarized calculation
 Variant of blocked Davidson
 Davidson routine will perform the subspace rotation
 perform sub-space diagonalisation
    after iterative eigenvector-optimisation
 modified Broyden-mixing scheme, WC =      100.0
 initial mixing is a Kerker type mixing with AMIX =  0.4000 and BMIX =      1.0000
 Hartree-type preconditioning will be used
 using additional bands           45
 reciprocal scheme for non local part
 use partial core corrections
 calculate Harris-corrections to forces 
   (improved forces if not selfconsistent)
 use gradient corrections 
 use of overlap-Matrix (Vanderbilt PP)
 Gauss-broadening in eV      SIGMA  =   0.10


--------------------------------------------------------------------------------------------------------


  energy-cutoff  :      450.00
  volume of cell :     3118.31
      direct lattice vectors                 reciprocal lattice vectors
    13.419000000  7.746000000  0.000000000     0.037260601  0.064549445  0.000000000
   -13.419000000  7.746000000  0.000000000    -0.037260601  0.064549445  0.000000000
     0.000000000  0.000000000 15.000000000     0.000000000  0.000000000  0.066666667

  length of vectors
    15.494194945 15.494194945 15.000000000     0.074531760  0.074531760  0.066666667


 
 k-points in units of 2pi/SCALE and weight: K-points for BC3                        
   0.00000000  0.00000000  0.00000000       0.062
   0.00931515  0.01613736  0.00000000       0.250
   0.01863030  0.03227472  0.00000000       0.125
   0.00000000  0.03227472  0.00000000       0.125
   0.00931515  0.04841208  0.00000000       0.250
  -0.01863030  0.00000000  0.00000000       0.125
   0.00000000  0.06454944  0.00000000       0.062
 
 k-points in reciprocal lattice and weights: K-points for BC3                        
   0.00000000  0.00000000  0.00000000       0.062
   0.25000000  0.00000000  0.00000000       0.250
   0.50000000  0.00000000  0.00000000       0.125
   0.25000000  0.25000000  0.00000000       0.125
   0.50000000  0.25000000  0.00000000       0.250
  -0.25000000  0.25000000  0.00000000       0.125
   0.50000000  0.50000000  0.00000000       0.062
 
 position of ions in fractional coordinates (direct lattice) 
   0.11111100  0.22222200  0.25000000
   0.44444433  0.22222200  0.25000000
   0.77777767  0.22222200  0.25000000
   0.11111100  0.55555533  0.25000000
   0.44444433  0.55555533  0.25000000
   0.77777767  0.55555533  0.25000000
   0.11111100  0.88888867  0.25000000
   0.44444433  0.88888867  0.25000000
   0.77777767  0.88888867  0.25000000
   0.22222200  0.11111100  0.25000000
   0.55555533  0.11111100  0.25000000
   0.88888867  0.11111100  0.25000000
   0.22222200  0.44444433  0.25000000
   0.55555533  0.44444433  0.25000000
   0.88888867  0.44444433  0.25000000
   0.22222200  0.77777767  0.25000000
   0.55555533  0.77777767  0.25000000
   0.88888867  0.77777767  0.25000000
   0.05555533  0.11111100  0.25000000
   0.38888867  0.11111100  0.25000000
   0.72222200  0.11111100  0.25000000
   0.05555533  0.44444433  0.25000000
   0.38888867  0.44444433  0.25000000
   0.72222200  0.44444433  0.25000000
   0.05555533  0.77777767  0.25000000
   0.38888867  0.77777767  0.25000000
   0.72222200  0.77777767  0.25000000
   0.11111100  0.05555533  0.25000000
   0.44444433  0.05555533  0.25000000
   0.77777767  0.05555533  0.25000000
   0.11111100  0.38888867  0.25000000
   0.44444433  0.38888867  0.25000000
   0.77777767  0.38888867  0.25000000
   0.11111100  0.72222200  0.25000000
   0.44444433  0.72222200  0.25000000
   0.77777767  0.72222200  0.25000000
   0.05555533  0.27777767  0.25000000
   0.38888867  0.27777767  0.25000000
   0.72222200  0.27777767  0.25000000
   0.05555533  0.61111100  0.25000000
   0.38888867  0.61111100  0.25000000
   0.72222200  0.61111100  0.25000000
   0.05555533  0.94444433  0.25000000
   0.38888867  0.94444433  0.25000000
   0.72222200  0.94444433  0.25000000
   0.27777767  0.05555533  0.25000000
   0.61111100  0.05555533  0.25000000
   0.94444433  0.05555533  0.25000000
   0.27777767  0.38888867  0.25000000
   0.61111100  0.38888867  0.25000000
   0.94444433  0.38888867  0.25000000
   0.27777767  0.72222200  0.25000000
   0.61111100  0.72222200  0.25000000
   0.94444433  0.72222200  0.25000000
   0.22222200  0.27777767  0.25000000
   0.55555533  0.27777767  0.25000000
   0.88888867  0.27777767  0.25000000
   0.22222200  0.61111100  0.25000000
   0.55555533  0.61111100  0.25000000
   0.88888867  0.61111100  0.25000000
   0.22222200  0.94444433  0.25000000
   0.55555533  0.94444433  0.25000000
   0.88888867  0.94444433  0.25000000
   0.27777767  0.22222200  0.25000000
   0.61111100  0.22222200  0.25000000
   0.94444433  0.22222200  0.25000000
   0.27777767  0.55555533  0.25000000
   0.61111100  0.55555533  0.25000000
   0.94444433  0.55555533  0.25000000
   0.27777767  0.88888867  0.25000000
   0.61111100  0.88888867  0.25000000
   0.94444433  0.88888867  0.25000000
 
 position of ions in cartesian coordinates  (Angst):
  -1.49099851  2.58199742  3.75000000
   2.98200149  5.16399742  3.75000000
   7.45500149  7.74599742  3.75000000
  -5.96399851  5.16399742  3.75000000
  -1.49099851  7.74599742  3.75000000
   2.98200149 10.32799742  3.75000000
 -10.43699851  7.74599742  3.75000000
  -5.96399851 10.32799742  3.75000000
  -1.49099851 12.90999742  3.75000000
   1.49099851  2.58199742  3.75000000
   5.96399851  5.16399742  3.75000000
  10.43699851  7.74599742  3.75000000
  -2.98200149  5.16399742  3.75000000
   1.49099851  7.74599742  3.75000000
   5.96399851 10.32799742  3.75000000
  -7.45500149  7.74599742  3.75000000
  -2.98200149 10.32799742  3.75000000
   1.49099851 12.90999742  3.75000000
  -0.74550149  1.29099742  3.75000000
   3.72749851  3.87299742  3.75000000
   8.20049851  6.45499742  3.75000000
  -5.21850149  3.87299742  3.75000000
  -0.74550149  6.45499742  3.75000000
   3.72749851  9.03699742  3.75000000
  -9.69150149  6.45499742  3.75000000
  -5.21850149  9.03699742  3.75000000
  -0.74550149 11.61899742  3.75000000
   0.74550149  1.29099742  3.75000000
   5.21850149  3.87299742  3.75000000
   9.69150149  6.45499742  3.75000000
  -3.72749851  3.87299742  3.75000000
   0.74550149  6.45499742  3.75000000
   5.21850149  9.03699742  3.75000000
  -8.20049851  6.45499742  3.75000000
  -3.72749851  9.03699742  3.75000000
   0.74550149 11.61899742  3.75000000
  -2.98200149  2.58199742  3.75000000
   1.49099851  5.16399742  3.75000000
   5.96399851  7.74599742  3.75000000
  -7.45500149  5.16399742  3.75000000
  -2.98200149  7.74599742  3.75000000
   1.49099851 10.32799742  3.75000000
 -11.92800149  7.74599742  3.75000000
  -7.45500149 10.32799742  3.75000000
  -2.98200149 12.90999742  3.75000000
   2.98200149  2.58199742  3.75000000
   7.45500149  5.16399742  3.75000000
  11.92800149  7.74599742  3.75000000
  -1.49099851  5.16399742  3.75000000
   2.98200149  7.74599742  3.75000000
   7.45500149 10.32799742  3.75000000
  -5.96399851  7.74599742  3.75000000
  -1.49099851 10.32799742  3.75000000
   2.98200149 12.90999742  3.75000000
  -0.74550149  3.87299742  3.75000000
   3.72749851  6.45499742  3.75000000
   8.20049851  9.03699742  3.75000000
  -5.21850149  6.45499742  3.75000000
  -0.74550149  9.03699742  3.75000000
   3.72749851 11.61899742  3.75000000
  -9.69150149  9.03699742  3.75000000
  -5.21850149 11.61899742  3.75000000
  -0.74550149 14.20099742  3.75000000
   0.74550149  3.87299742  3.75000000
   5.21850149  6.45499742  3.75000000
   9.69150149  9.03699742  3.75000000
  -3.72749851  6.45499742  3.75000000
   0.74550149  9.03699742  3.75000000
   5.21850149 11.61899742  3.75000000
  -8.20049851  9.03699742  3.75000000
  -3.72749851 11.61899742  3.75000000
   0.74550149 14.20099742  3.75000000
 


--------------------------------------------------------------------------------------------------------


 k-point  1 :   0.0000 0.0000 0.0000  plane waves:   67719
 k-point  2 :   0.2500 0.0000 0.0000  plane waves:   67548
 k-point  3 :   0.5000 0.0000 0.0000  plane waves:   67604
 k-point  4 :   0.2500 0.2500 0.0000  plane waves:   67555
 k-point  5 :   0.5000 0.2500 0.0000  plane waves:   67559
 k-point  6 :  -0.2500 0.2500 0.0000  plane waves:   67556
 k-point  7 :   0.5000 0.5000 0.0000  plane waves:   67604

 maximum and minimum number of plane-waves per node :     67719    67548

 maximum number of plane-waves:     67719
 maximum index in each direction: 
   IXMAX=   27   IYMAX=   26   IZMAX=   25
   IXMIN=  -27   IYMIN=  -27   IZMIN=  -25


 serial   3D FFT for wavefunctions
 parallel 3D FFT for charge:
    minimum data exchange during FFTs selected (reduces bandwidth)


 total amount of memory used by VASP MPI-rank0   415125. kBytes
=======================================================================

   base      :      30000. kBytes
   nonl-proj :     138706. kBytes
   fftplans  :      33533. kBytes
   grid      :      97915. kBytes
   one-center:        221. kBytes
   wavefun   :     114750. kBytes
 
     INWAV:  cpu time    0.0001: real time    0.0000
 Broyden mixing: mesh for mixing (old mesh)
   NGX = 53   NGY = 53   NGZ = 51
  (NGX  =216   NGY  =216   NGZ  =216)
  gives a total of 143259 points

 initial charge density was supplied:
 charge density of overlapping atoms calculated
 number of electron     270.0000000 magnetization 
 keeping initial charge density in first step


--------------------------------------------------------------------------------------------------------


 Maximum index for augmentation-charges          409 (set IRDMAX)


--------------------------------------------------------------------------------------------------------


 First call to EWALD:  gamma=   0.121
 Maximum number of real-space cells 3x 3x 3
 Maximum number of reciprocal cells 3x 3x 3

    FEWALD:  cpu time    0.0044: real time    0.0048


--------------------------------------- Iteration      1(   1)  ---------------------------------------


    POTLOK:  cpu time    0.8322: real time    0.8553
    SETDIJ:  cpu time    0.0116: real time    0.0116
     EDDAV:  cpu time  123.7719: real time  123.8064
       DOS:  cpu time    0.0007: real time    0.0007
    --------------------------------------------
      LOOP:  cpu time  124.6163: real time  124.6739

 eigenvalue-minimisations  :  2736
 total energy-change (2. order) : 0.2148154E+04  (-0.9223766E+04)
 number of electron     270.0000000 magnetization 
 augmentation part      270.0000000 magnetization 

 Free energy of the ion-electron system (eV)
  ---------------------------------------------------
  alpha Z        PSCENC =       131.76150006
  Ewald energy   TEWEN  =     23338.49153585
  -Hartree energ DENC   =    -30188.82465703
  -exchange      EXHF   =         0.00000000
  -V(xc)+E(xc)   XCENC  =       818.22858527
  PAW double counting   =      6643.18808362    -6658.54023824
  entropy T*S    EENTRO =        -0.13548683
  eigenvalues    EBANDS =     -1162.85077653
  atomic energy  EATOM  =      9226.83509577
  Solvation  Ediel_sol  =         0.00000000
  ---------------------------------------------------
  free energy    TOTEN  =      2148.15364194 eV

  energy without entropy =     2148.28912877  energy(sigma->0) =     2148.22138536


--------------------------------------------------------------------------------------------------------




--------------------------------------- Iteration      1(   2)  ---------------------------------------


     EDDAV:  cpu time  156.9197: real time  156.9326
       DOS:  cpu time    0.0006: real time    0.0006
    --------------------------------------------
      LOOP:  cpu time  156.9203: real time  156.9331

 eigenvalue-minimisations  :  3684
 total energy-change (2. order) :-0.2377317E+04  (-0.2269190E+04)
 number of electron     270.0000000 magnetization 
 augmentation part      270.0000000 magnetization 

 Free energy of the ion-electron system (eV)
  ---------------------------------------------------
  alpha Z        PSCENC =       131.76150006
  Ewald energy   TEWEN  =     23338.49153585
  -Hartree energ DENC   =    -30188.82465703
  -exchange      EXHF   =         0.00000000
  -V(xc)+E(xc)   XCENC  =       818.22858527
  PAW double counting   =      6643.18808362    -6658.54023824
  entropy T*S    EENTRO =        -0.04544160
  eigenvalues    EBANDS =     -3540.25823888
  atomic energy  EATOM  =      9226.83509577
  Solvation  Ediel_sol  =         0.00000000
  ---------------------------------------------------
  free energy    TOTEN  =      -229.16377517 eV

  energy without entropy =     -229.11833357  energy(sigma->0) =     -229.14105437


--------------------------------------------------------------------------------------------------------




--------------------------------------- Iteration      1(   3)  ---------------------------------------


     EDDAV:  cpu time  133.9281: real time  133.9386
       DOS:  cpu time    0.0004: real time    0.0004
    --------------------------------------------
      LOOP:  cpu time  133.9285: real time  133.9391

 eigenvalue-minimisations  :  3024
 total energy-change (2. order) :-0.4037126E+03  (-0.3982083E+03)
 number of electron     270.0000000 magnetization 
 augmentation part      270.0000000 magnetization 

 Free energy of the ion-electron system (eV)
  ---------------------------------------------------
  alpha Z        PSCENC =       131.76150006
  Ewald energy   TEWEN  =     23338.49153585
  -Hartree energ DENC   =    -30188.82465703
  -exchange      EXHF   =         0.00000000
  -V(xc)+E(xc)   XCENC  =       818.22858527
  PAW double counting   =      6643.18808362    -6658.54023824
  entropy T*S    EENTRO =        -0.00000001
  eigenvalues    EBANDS =     -3944.01630361
  atomic energy  EATOM  =      9226.83509577
  Solvation  Ediel_sol  =         0.00000000
  ---------------------------------------------------
  free energy    TOTEN  =      -632.87639831 eV

  energy without entropy =     -632.87639831  energy(sigma->0) =     -632.87639831


--------------------------------------------------------------------------------------------------------




--------------------------------------- Iteration      1(   4)  ---------------------------------------


     EDDAV:  cpu time  139.4128: real time  139.4255
       DOS:  cpu time    0.0004: real time    0.0004
    --------------------------------------------
      LOOP:  cpu time  139.4133: real time  139.4260

 eigenvalue-minimisations  :  3180
 total energy-change (2. order) :-0.1665192E+02  (-0.1653962E+02)
 number of electron     270.0000000 magnetization 
 augmentation part      270.0000000 magnetization 

 Free energy of the ion-electron system (eV)
  ---------------------------------------------------
  alpha Z        PSCENC =       131.76150006
  Ewald energy   TEWEN  =     23338.49153585
  -Hartree energ DENC   =    -30188.82465703
  -exchange      EXHF   =         0.00000000
  -V(xc)+E(xc)   XCENC  =       818.22858527
  PAW double counting   =      6643.18808362    -6658.54023824
  entropy T*S    EENTRO =        -0.00000001
  eigenvalues    EBANDS =     -3960.66822160
  atomic energy  EATOM  =      9226.83509577
  Solvation  Ediel_sol  =         0.00000000
  ---------------------------------------------------
  free energy    TOTEN  =      -649.52831631 eV

  energy without entropy =     -649.52831630  energy(sigma->0) =     -649.52831630


--------------------------------------------------------------------------------------------------------




--------------------------------------- Iteration      1(   5)  ---------------------------------------


     EDDAV:  cpu time  149.8712: real time  149.8827
       DOS:  cpu time    0.0005: real time    0.0005
    CHARGE:  cpu time    3.5914: real time    3.5916
    MIXING:  cpu time    0.0172: real time    0.0172
    --------------------------------------------
      LOOP:  cpu time  153.4802: real time  153.4920

 eigenvalue-minimisations  :  3480
 total energy-change (2. order) :-0.5738810E+00  (-0.5728302E+00)
 number of electron     270.0000110 magnetization 
 augmentation part        4.9072199 magnetization 

 Broyden mixing:
  rms(total) = 0.38603E+01    rms(broyden)= 0.38592E+01
  rms(prec ) = 0.43813E+01
  weight for this iteration     100.00

 Free energy of the ion-electron system (eV)
  ---------------------------------------------------
  alpha Z        PSCENC =       131.76150006
  Ewald energy   TEWEN  =     23338.49153585
  -Hartree energ DENC   =    -30188.82465703
  -exchange      EXHF   =         0.00000000
  -V(xc)+E(xc)   XCENC  =       818.22858527
  PAW double counting   =      6643.18808362    -6658.54023824
  entropy T*S    EENTRO =        -0.00000001
  eigenvalues    EBANDS =     -3961.24210264
  atomic energy  EATOM  =      9226.83509577
  Solvation  Ediel_sol  =         0.00000000
  ---------------------------------------------------
  free energy    TOTEN  =      -650.10219734 eV

  energy without entropy =     -650.10219733  energy(sigma->0) =     -650.10219734


--------------------------------------------------------------------------------------------------------




--------------------------------------- Iteration      1(   6)  ---------------------------------------


    POTLOK:  cpu time    0.7781: real time    0.7798
    SETDIJ:  cpu time    0.0113: real time    0.0113
     EDDAV:  cpu time  127.5015: real time  127.5110
       DOS:  cpu time    0.0005: real time    0.0005
    CHARGE:  cpu time    3.6072: real time    3.6075
    MIXING:  cpu time    0.0170: real time    0.0170
    --------------------------------------------
      LOOP:  cpu time  131.9156: real time  131.9271

 eigenvalue-minimisations  :  2844
 total energy-change (2. order) : 0.3715397E+02  (-0.3229465E+01)
 number of electron     270.0000105 magnetization 
 augmentation part        4.6174141 magnetization 

 Broyden mixing:
  rms(total) = 0.22238E+01    rms(broyden)= 0.22237E+01
  rms(prec ) = 0.25068E+01
  weight for this iteration     100.00

 eigenvalues of (default mixing * dielectric matrix)
  average eigenvalue GAMMA=   2.1904
  2.1904

 Free energy of the ion-electron system (eV)
  ---------------------------------------------------
  alpha Z        PSCENC =       131.76150006
  Ewald energy   TEWEN  =     23338.49153585
  -Hartree energ DENC   =    -30569.24373993
  -exchange      EXHF   =         0.00000000
  -V(xc)+E(xc)   XCENC  =       834.76237900
  PAW double counting   =     12256.79833191   -12276.96254413
  entropy T*S    EENTRO =        -0.00000012
  eigenvalues    EBANDS =     -3555.39079023
  atomic energy  EATOM  =      9226.83509577
  Solvation  Ediel_sol  =         0.00000000
  ---------------------------------------------------
  free energy    TOTEN  =      -612.94823182 eV

  energy without entropy =     -612.94823169  energy(sigma->0) =     -612.94823175


--------------------------------------------------------------------------------------------------------




--------------------------------------- Iteration      1(   7)  ---------------------------------------


    POTLOK:  cpu time    0.7801: real time    0.7820
    SETDIJ:  cpu time    0.0116: real time    0.0115
     EDDAV:  cpu time  126.2673: real time  126.2756
       DOS:  cpu time    0.0006: real time    0.0006
    CHARGE:  cpu time    3.6446: real time    3.6449
    MIXING:  cpu time    0.0175: real time    0.0175
    --------------------------------------------
      LOOP:  cpu time  130.7216: real time  130.7321

 eigenvalue-minimisations  :  2808
 total energy-change (2. order) : 0.1578607E+02  (-0.4640183E+01)
 number of electron     270.0000099 magnetization 
 augmentation part        4.2716580 magnetization 

 Broyden mixing:
  rms(total) = 0.51171E+00    rms(broyden)= 0.51138E+00
  rms(prec ) = 0.57061E+00
  weight for this iteration     100.00

 eigenvalues of (default mixing * dielectric matrix)
  average eigenvalue GAMMA=   2.2094
  2.2094  2.2094

 Free energy of the ion-electron system (eV)
  ---------------------------------------------------
  alpha Z        PSCENC =       131.76150006
  Ewald energy   TEWEN  =     23338.49153585
  -Hartree energ DENC   =    -31094.42700906
  -exchange      EXHF   =         0.00000000
  -V(xc)+E(xc)   XCENC  =       857.68068937
  PAW double counting   =     23359.84379299   -23384.33624619
  entropy T*S    EENTRO =        -0.00060278
  eigenvalues    EBANDS =     -3033.01092033
  atomic energy  EATOM  =      9226.83509577
  Solvation  Ediel_sol  =         0.00000000
  ---------------------------------------------------
  free energy    TOTEN  =      -597.16216432 eV

  energy without entropy =     -597.16156154  energy(sigma->0) =     -597.16186293


--------------------------------------------------------------------------------------------------------




--------------------------------------- Iteration      1(   8)  ---------------------------------------


    POTLOK:  cpu time    0.7866: real time    0.7882
    SETDIJ:  cpu time    0.0115: real time    0.0115
     EDDAV:  cpu time  130.3942: real time  130.4032
       DOS:  cpu time    0.0006: real time    0.0006
    CHARGE:  cpu time    3.6257: real time    3.6260
    MIXING:  cpu time    0.0177: real time    0.0177
    --------------------------------------------
      LOOP:  cpu time  134.8364: real time  134.8471

 eigenvalue-minimisations  :  2928
 total energy-change (2. order) : 0.3156464E+00  (-0.1460043E+00)
 number of electron     270.0000099 magnetization 
 augmentation part        4.2611584 magnetization 

 Broyden mixing:
  rms(total) = 0.75356E-01    rms(broyden)= 0.75261E-01
  rms(prec ) = 0.16450E+00
  weight for this iteration     100.00

 eigenvalues of (default mixing * dielectric matrix)
  average eigenvalue GAMMA=   1.8400
  1.0664  2.0984  2.3550

 Free energy of the ion-electron system (eV)
  ---------------------------------------------------
  alpha Z        PSCENC =       131.76150006
  Ewald energy   TEWEN  =     23338.49153585
  -Hartree energ DENC   =    -31176.02236312
  -exchange      EXHF   =         0.00000000
  -V(xc)+E(xc)   XCENC  =       858.34124847
  PAW double counting   =     25787.04857635   -25809.91251045
  entropy T*S    EENTRO =        -0.00049578
  eigenvalues    EBANDS =     -2953.38910513
  atomic energy  EATOM  =      9226.83509577
  Solvation  Ediel_sol  =         0.00000000
  ---------------------------------------------------
  free energy    TOTEN  =      -596.84651797 eV

  energy without entropy =     -596.84602218  energy(sigma->0) =     -596.84627007


--------------------------------------------------------------------------------------------------------




--------------------------------------- Iteration      1(   9)  ---------------------------------------


    POTLOK:  cpu time    0.7933: real time    0.7948
    SETDIJ:  cpu time    0.0113: real time    0.0113
     EDDAV:  cpu time  132.4996: real time  132.5088
       DOS:  cpu time    0.0005: real time    0.0005
    CHARGE:  cpu time    3.6671: real time    3.6674
    MIXING:  cpu time    0.0182: real time    0.0182
    --------------------------------------------
      LOOP:  cpu time  136.9901: real time  137.0011

 eigenvalue-minimisations  :  2988
 total energy-change (2. order) : 0.9272001E-01  (-0.1465015E-01)
 number of electron     270.0000099 magnetization 
 augmentation part        4.2428105 magnetization 

 Broyden mixing:
  rms(total) = 0.54208E-01    rms(broyden)= 0.54195E-01
  rms(prec ) = 0.12498E+00
  weight for this iteration     100.00

 eigenvalues of (default mixing * dielectric matrix)
  average eigenvalue GAMMA=   1.9177
  2.4827  2.4827  1.1138  1.5918

 Free energy of the ion-electron system (eV)
  ---------------------------------------------------
  alpha Z        PSCENC =       131.76150006
  Ewald energy   TEWEN  =     23338.49153585
  -Hartree energ DENC   =    -31221.53570436
  -exchange      EXHF   =         0.00000000
  -V(xc)+E(xc)   XCENC  =       859.32846962
  PAW double counting   =     26092.65395426   -26115.49486142
  entropy T*S    EENTRO =        -0.00089126
  eigenvalues    EBANDS =     -2908.79289646
  atomic energy  EATOM  =      9226.83509577
  Solvation  Ediel_sol  =         0.00000000
  ---------------------------------------------------
  free energy    TOTEN  =      -596.75379795 eV

  energy without entropy =     -596.75290669  energy(sigma->0) =     -596.75335232


--------------------------------------------------------------------------------------------------------




--------------------------------------- Iteration      1(  10)  ---------------------------------------


    POTLOK:  cpu time    0.8161: real time    0.8180
    SETDIJ:  cpu time    0.0113: real time    0.0113
     EDDAV:  cpu time  123.2014: real time  123.2095
       DOS:  cpu time    0.0006: real time    0.0006
    CHARGE:  cpu time    3.6365: real time    3.6367
    MIXING:  cpu time    0.0178: real time    0.0178
    --------------------------------------------
      LOOP:  cpu time  127.6836: real time  127.6939

 eigenvalue-minimisations  :  2724
 total energy-change (2. order) : 0.6930371E-01  (-0.5340051E-02)
 number of electron     270.0000099 magnetization 
 augmentation part        4.2375576 magnetization 

 Broyden mixing:
  rms(total) = 0.32238E-01    rms(broyden)= 0.32228E-01
  rms(prec ) = 0.69766E-01
  weight for this iteration     100.00

 eigenvalues of (default mixing * dielectric matrix)
  average eigenvalue GAMMA=   1.9824
  3.2820  2.1621  2.1621  0.9890  1.3169

 Free energy of the ion-electron system (eV)
  ---------------------------------------------------
  alpha Z        PSCENC =       131.76150006
  Ewald energy   TEWEN  =     23338.49153585
  -Hartree energ DENC   =    -31291.80048839
  -exchange      EXHF   =         0.00000000
  -V(xc)+E(xc)   XCENC  =       860.02129483
  PAW double counting   =     25781.21631883   -25803.90113005
  entropy T*S    EENTRO =        -0.00106778
  eigenvalues    EBANDS =     -2839.30755337
  atomic energy  EATOM  =      9226.83509577
  Solvation  Ediel_sol  =         0.00000000
  ---------------------------------------------------
  free energy    TOTEN  =      -596.68449425 eV

  energy without entropy =     -596.68342647  energy(sigma->0) =     -596.68396036


--------------------------------------------------------------------------------------------------------




--------------------------------------- Iteration      1(  11)  ---------------------------------------


    POTLOK:  cpu time    0.8131: real time    0.8146
    SETDIJ:  cpu time    0.0114: real time    0.0114
     EDDAV:  cpu time  121.5041: real time  121.5121
       DOS:  cpu time    0.0006: real time    0.0006
    CHARGE:  cpu time    3.6345: real time    3.6347
    MIXING:  cpu time    0.0183: real time    0.0183
    --------------------------------------------
      LOOP:  cpu time  125.9821: real time  125.9918

 eigenvalue-minimisations  :  2676
 total energy-change (2. order) : 0.1870918E-01  (-0.6384814E-02)
 number of electron     270.0000098 magnetization 
 augmentation part        4.2271026 magnetization 

 Broyden mixing:
  rms(total) = 0.21134E-01    rms(broyden)= 0.21122E-01
  rms(prec ) = 0.40220E-01
  weight for this iteration     100.00

 eigenvalues of (default mixing * dielectric matrix)
  average eigenvalue GAMMA=   2.2184
  4.5444  2.4748  2.4748  1.7389  1.1736  0.9040

 Free energy of the ion-electron system (eV)
  ---------------------------------------------------
  alpha Z        PSCENC =       131.76150006
  Ewald energy   TEWEN  =     23338.49153585
  -Hartree energ DENC   =    -31347.33357887
  -exchange      EXHF   =         0.00000000
  -V(xc)+E(xc)   XCENC  =       860.92787031
  PAW double counting   =     25962.30563016   -25985.04781452
  entropy T*S    EENTRO =        -0.00171095
  eigenvalues    EBANDS =     -2784.60431288
  atomic energy  EATOM  =      9226.83509577
  Solvation  Ediel_sol  =         0.00000000
  ---------------------------------------------------
  free energy    TOTEN  =      -596.66578506 eV

  energy without entropy =     -596.66407411  energy(sigma->0) =     -596.66492959


--------------------------------------------------------------------------------------------------------




--------------------------------------- Iteration      1(  12)  ---------------------------------------


    POTLOK:  cpu time    0.7801: real time    0.7817
    SETDIJ:  cpu time    0.0114: real time    0.0114
     EDDAV:  cpu time  118.9950: real time  119.0029
       DOS:  cpu time    0.0006: real time    0.0006
    CHARGE:  cpu time    3.6588: real time    3.6591
    MIXING:  cpu time    0.0186: real time    0.0186
    --------------------------------------------
      LOOP:  cpu time  123.4645: real time  123.4743

 eigenvalue-minimisations  :  2604
 total energy-change (2. order) : 0.4799057E-02  (-0.9202384E-03)
 number of electron     270.0000098 magnetization 
 augmentation part        4.2258440 magnetization 

 Broyden mixing:
  rms(total) = 0.11658E-01    rms(broyden)= 0.11656E-01
  rms(prec ) = 0.22074E-01
  weight for this iteration     100.00

 eigenvalues of (default mixing * dielectric matrix)
  average eigenvalue GAMMA=   2.2176
  5.3717  2.7280  2.1238  2.1238  1.2975  0.9951  0.8836

 Free energy of the ion-electron system (eV)
  ---------------------------------------------------
  alpha Z        PSCENC =       131.76150006
  Ewald energy   TEWEN  =     23338.49153585
  -Hartree energ DENC   =    -31371.99650570
  -exchange      EXHF   =         0.00000000
  -V(xc)+E(xc)   XCENC  =       860.95120112
  PAW double counting   =     25830.85680831   -25853.61480910
  entropy T*S    EENTRO =        -0.00173584
  eigenvalues    EBANDS =     -2759.94407648
  atomic energy  EATOM  =      9226.83509577
  Solvation  Ediel_sol  =         0.00000000
  ---------------------------------------------------
  free energy    TOTEN  =      -596.66098601 eV

  energy without entropy =     -596.65925016  energy(sigma->0) =     -596.66011809


--------------------------------------------------------------------------------------------------------




--------------------------------------- Iteration      1(  13)  ---------------------------------------


    POTLOK:  cpu time    0.7721: real time    0.7736
    SETDIJ:  cpu time    0.0114: real time    0.0114
     EDDAV:  cpu time  122.3347: real time  122.3428
       DOS:  cpu time    0.0006: real time    0.0006
    CHARGE:  cpu time    3.6480: real time    3.6483
    MIXING:  cpu time    0.0189: real time    0.0189
    --------------------------------------------
      LOOP:  cpu time  126.7858: real time  126.7956

 eigenvalue-minimisations  :  2700
 total energy-change (2. order) :-0.1597219E-01  (-0.3634857E-03)
 number of electron     270.0000098 magnetization 
 augmentation part        4.2273576 magnetization 

 Broyden mixing:
  rms(total) = 0.75512E-02    rms(broyden)= 0.75508E-02
  rms(prec ) = 0.14949E-01
  weight for this iteration     100.00

 eigenvalues of (default mixing * dielectric matrix)
  average eigenvalue GAMMA=   2.3681
  6.1107  3.3491  2.4471  2.1192  1.6831  1.3218  0.9568  0.9568

 Free energy of the ion-electron system (eV)
  ---------------------------------------------------
  alpha Z        PSCENC =       131.76150006
  Ewald energy   TEWEN  =     23338.49153585
  -Hartree energ DENC   =    -31373.64880608
  -exchange      EXHF   =         0.00000000
  -V(xc)+E(xc)   XCENC  =       860.77814480
  PAW double counting   =     25811.62181259   -25834.33604860
  entropy T*S    EENTRO =        -0.00158901
  eigenvalues    EBANDS =     -2758.17860358
  atomic energy  EATOM  =      9226.83509577
  Solvation  Ediel_sol  =         0.00000000
  ---------------------------------------------------
  free energy    TOTEN  =      -596.67695820 eV

  energy without entropy =     -596.67536919  energy(sigma->0) =     -596.67616369


--------------------------------------------------------------------------------------------------------




--------------------------------------- Iteration      1(  14)  ---------------------------------------


    POTLOK:  cpu time    0.7598: real time    0.7617
    SETDIJ:  cpu time    0.0113: real time    0.0113
     EDDAV:  cpu time  121.9099: real time  121.9179
       DOS:  cpu time    0.0006: real time    0.0006
    CHARGE:  cpu time    3.6221: real time    3.6224
    MIXING:  cpu time    0.0194: real time    0.0194
    --------------------------------------------
      LOOP:  cpu time  126.3232: real time  126.3333

 eigenvalue-minimisations  :  2688
 total energy-change (2. order) :-0.2291519E-01  (-0.4385273E-03)
 number of electron     270.0000098 magnetization 
 augmentation part        4.2269676 magnetization 

 Broyden mixing:
  rms(total) = 0.45174E-02    rms(broyden)= 0.45174E-02
  rms(prec ) = 0.69368E-02
  weight for this iteration     100.00

 eigenvalues of (default mixing * dielectric matrix)
  average eigenvalue GAMMA=   2.5348
  6.8468  4.5330  2.6186  2.2232  2.2232  0.9818  0.9818  1.2520  1.1528

 Free energy of the ion-electron system (eV)
  ---------------------------------------------------
  alpha Z        PSCENC =       131.76150006
  Ewald energy   TEWEN  =     23338.49153585
  -Hartree energ DENC   =    -31380.21873195
  -exchange      EXHF   =         0.00000000
  -V(xc)+E(xc)   XCENC  =       860.76210000
  PAW double counting   =     25873.19450860   -25895.91594139
  entropy T*S    EENTRO =        -0.00160780
  eigenvalues    EBANDS =     -2751.60833253
  atomic energy  EATOM  =      9226.83509577
  Solvation  Ediel_sol  =         0.00000000
  ---------------------------------------------------
  free energy    TOTEN  =      -596.69987339 eV

  energy without entropy =     -596.69826559  energy(sigma->0) =     -596.69906949


--------------------------------------------------------------------------------------------------------




--------------------------------------- Iteration      1(  15)  ---------------------------------------


    POTLOK:  cpu time    0.7548: real time    0.7562
    SETDIJ:  cpu time    0.0115: real time    0.0115
     EDDAV:  cpu time  127.2977: real time  127.3061
       DOS:  cpu time    0.0006: real time    0.0006
    CHARGE:  cpu time    3.6152: real time    3.6154
    MIXING:  cpu time    0.0203: real time    0.0203
    --------------------------------------------
      LOOP:  cpu time  131.7001: real time  131.7101

 eigenvalue-minimisations  :  2844
 total energy-change (2. order) :-0.7633650E-02  (-0.9988878E-04)
 number of electron     270.0000098 magnetization 
 augmentation part        4.2264291 magnetization 

 Broyden mixing:
  rms(total) = 0.23598E-02    rms(broyden)= 0.23595E-02
  rms(prec ) = 0.32134E-02
  weight for this iteration     100.00

 eigenvalues of (default mixing * dielectric matrix)
  average eigenvalue GAMMA=   2.6740
  8.1849  4.7402  2.9980  2.5383  2.0140  2.0140  1.2931  0.9643  0.9643  1.0291

 Free energy of the ion-electron system (eV)
  ---------------------------------------------------
  alpha Z        PSCENC =       131.76150006
  Ewald energy   TEWEN  =     23338.49153585
  -Hartree energ DENC   =    -31383.57835535
  -exchange      EXHF   =         0.00000000
  -V(xc)+E(xc)   XCENC  =       860.79083721
  PAW double counting   =     25857.21005298   -25879.93898078
  entropy T*S    EENTRO =        -0.00162525
  eigenvalues    EBANDS =     -2748.27756754
  atomic energy  EATOM  =      9226.83509577
  Solvation  Ediel_sol  =         0.00000000
  ---------------------------------------------------
  free energy    TOTEN  =      -596.70750704 eV

  energy without entropy =     -596.70588179  energy(sigma->0) =     -596.70669441


--------------------------------------------------------------------------------------------------------




--------------------------------------- Iteration      1(  16)  ---------------------------------------


    POTLOK:  cpu time    0.7584: real time    0.7599
    SETDIJ:  cpu time    0.0112: real time    0.0112
     EDDAV:  cpu time  118.9838: real time  118.9919
       DOS:  cpu time    0.0006: real time    0.0006
    CHARGE:  cpu time    3.6344: real time    3.6346
    MIXING:  cpu time    0.0207: real time    0.0207
    --------------------------------------------
      LOOP:  cpu time  123.4091: real time  123.4188

 eigenvalue-minimisations  :  2604
 total energy-change (2. order) :-0.3160843E-02  (-0.2445747E-04)
 number of electron     270.0000098 magnetization 
 augmentation part        4.2265150 magnetization 

 Broyden mixing:
  rms(total) = 0.99668E-03    rms(broyden)= 0.99654E-03
  rms(prec ) = 0.12157E-02
  weight for this iteration     100.00

 eigenvalues of (default mixing * dielectric matrix)
  average eigenvalue GAMMA=   2.7691
  9.0318  5.6209  3.2398  2.6938  2.2975  2.0965  1.2474  1.2474  0.9536  1.0077
  1.0232

 Free energy of the ion-electron system (eV)
  ---------------------------------------------------
  alpha Z        PSCENC =       131.76150006
  Ewald energy   TEWEN  =     23338.49153585
  -Hartree energ DENC   =    -31383.99150382
  -exchange      EXHF   =         0.00000000
  -V(xc)+E(xc)   XCENC  =       860.78127420
  PAW double counting   =     25849.60643098   -25872.32677807
  entropy T*S    EENTRO =        -0.00161521
  eigenvalues    EBANDS =     -2747.86660766
  atomic energy  EATOM  =      9226.83509577
  Solvation  Ediel_sol  =         0.00000000
  ---------------------------------------------------
  free energy    TOTEN  =      -596.71066788 eV

  energy without entropy =     -596.70905268  energy(sigma->0) =     -596.70986028


--------------------------------------------------------------------------------------------------------




--------------------------------------- Iteration      1(  17)  ---------------------------------------


    POTLOK:  cpu time    0.7624: real time    0.7638
    SETDIJ:  cpu time    0.0114: real time    0.0114
     EDDAV:  cpu time  116.1107: real time  116.1183
       DOS:  cpu time    0.0006: real time    0.0006
    CHARGE:  cpu time    3.6164: real time    3.6167
    MIXING:  cpu time    0.0212: real time    0.0212
    --------------------------------------------
      LOOP:  cpu time  120.5227: real time  120.5320

 eigenvalue-minimisations  :  2520
 total energy-change (2. order) :-0.5887702E-03  (-0.3634488E-05)
 number of electron     270.0000098 magnetization 
 augmentation part        4.2264056 magnetization 

 Broyden mixing:
  rms(total) = 0.45118E-03    rms(broyden)= 0.45113E-03
  rms(prec ) = 0.50725E-03
  weight for this iteration     100.00

 eigenvalues of (default mixing * dielectric matrix)
  average eigenvalue GAMMA=   2.8254
  9.5467  5.9039  3.5479  2.7929  2.6010  2.1289  2.1289  1.2755  0.9419  1.0198
  1.0198  0.9970

 Free energy of the ion-electron system (eV)
  ---------------------------------------------------
  alpha Z        PSCENC =       131.76150006
  Ewald energy   TEWEN  =     23338.49153585
  -Hartree energ DENC   =    -31383.94679045
  -exchange      EXHF   =         0.00000000
  -V(xc)+E(xc)   XCENC  =       860.78250950
  PAW double counting   =     25849.45942293   -25872.18353412
  entropy T*S    EENTRO =        -0.00162121
  eigenvalues    EBANDS =     -2747.90937499
  atomic energy  EATOM  =      9226.83509577
  Solvation  Ediel_sol  =         0.00000000
  ---------------------------------------------------
  free energy    TOTEN  =      -596.71125665 eV

  energy without entropy =     -596.70963544  energy(sigma->0) =     -596.71044605


--------------------------------------------------------------------------------------------------------




--------------------------------------- Iteration      1(  18)  ---------------------------------------


    POTLOK:  cpu time    0.7716: real time    0.7732
    SETDIJ:  cpu time    0.0113: real time    0.0113
     EDDAV:  cpu time  105.7559: real time  105.7633
       DOS:  cpu time    0.0006: real time    0.0006
    CHARGE:  cpu time    3.6356: real time    3.6359
    MIXING:  cpu time    0.0219: real time    0.0219
    --------------------------------------------
      LOOP:  cpu time  110.1970: real time  110.2062

 eigenvalue-minimisations  :  2220
 total energy-change (2. order) :-0.1455222E-03  (-0.4320987E-06)
 number of electron     270.0000098 magnetization 
 augmentation part        4.2264126 magnetization 

 Broyden mixing:
  rms(total) = 0.12421E-03    rms(broyden)= 0.12419E-03
  rms(prec ) = 0.15123E-03
  weight for this iteration     100.00

 eigenvalues of (default mixing * dielectric matrix)
  average eigenvalue GAMMA=   2.7076
  9.5184  5.9373  3.6630  2.8758  2.5646  2.1787  2.1787  1.2538  1.0519  1.0519
  0.9557  0.9557  1.0137

 Free energy of the ion-electron system (eV)
  ---------------------------------------------------
  alpha Z        PSCENC =       131.76150006
  Ewald energy   TEWEN  =     23338.49153585
  -Hartree energ DENC   =    -31383.93732690
  -exchange      EXHF   =         0.00000000
  -V(xc)+E(xc)   XCENC  =       860.78114732
  PAW double counting   =     25851.12251190   -25873.84694393
  entropy T*S    EENTRO =        -0.00162000
  eigenvalues    EBANDS =     -2747.91730225
  atomic energy  EATOM  =      9226.83509577
  Solvation  Ediel_sol  =         0.00000000
  ---------------------------------------------------
  free energy    TOTEN  =      -596.71140218 eV

  energy without entropy =     -596.70978218  energy(sigma->0) =     -596.71059218


--------------------------------------------------------------------------------------------------------




--------------------------------------- Iteration      1(  19)  ---------------------------------------


    POTLOK:  cpu time    0.7732: real time    0.7748
    SETDIJ:  cpu time    0.0113: real time    0.0113
     EDDAV:  cpu time   95.3690: real time   95.3757
       DOS:  cpu time    0.0005: real time    0.0005
    CHARGE:  cpu time    3.6277: real time    3.6279
    MIXING:  cpu time    0.0225: real time    0.0225
    --------------------------------------------
      LOOP:  cpu time   99.8042: real time   99.8127

 eigenvalue-minimisations  :  1920
 total energy-change (2. order) :-0.1260979E-04  (-0.3282669E-07)
 number of electron     270.0000098 magnetization 
 augmentation part        4.2264165 magnetization 

 Broyden mixing:
  rms(total) = 0.33700E-04    rms(broyden)= 0.33688E-04
  rms(prec ) = 0.39401E-04
  weight for this iteration     100.00

 eigenvalues of (default mixing * dielectric matrix)
  average eigenvalue GAMMA=   2.6901
  9.5406  5.9505  3.8027  2.8244  2.4107  2.4107  2.2302  2.2302  1.2659  0.9716
  0.9787  0.9787  1.0335  1.0335

 Free energy of the ion-electron system (eV)
  ---------------------------------------------------
  alpha Z        PSCENC =       131.76150006
  Ewald energy   TEWEN  =     23338.49153585
  -Hartree energ DENC   =    -31383.97089177
  -exchange      EXHF   =         0.00000000
  -V(xc)+E(xc)   XCENC  =       860.78093148
  PAW double counting   =     25850.95056782   -25873.67455575
  entropy T*S    EENTRO =        -0.00161949
  eigenvalues    EBANDS =     -2747.88397877
  atomic energy  EATOM  =      9226.83509577
  Solvation  Ediel_sol  =         0.00000000
  ---------------------------------------------------
  free energy    TOTEN  =      -596.71141479 eV

  energy without entropy =     -596.70979530  energy(sigma->0) =     -596.71060504


--------------------------------------------------------------------------------------------------------




--------------------------------------- Iteration      1(  20)  ---------------------------------------


    POTLOK:  cpu time    0.7864: real time    0.7881
    SETDIJ:  cpu time    0.0112: real time    0.0112
     EDDAV:  cpu time   85.2972: real time   85.3027
       DOS:  cpu time    0.0006: real time    0.0006
    CHARGE:  cpu time    3.6307: real time    3.6309
    MIXING:  cpu time    0.0228: real time    0.0228
    --------------------------------------------
      LOOP:  cpu time   89.7489: real time   89.7564

 eigenvalue-minimisations  :  1632
 total energy-change (2. order) :-0.7959488E-05  (-0.2190870E-07)
 number of electron     270.0000098 magnetization 
 augmentation part        4.2264124 magnetization 

 Broyden mixing:
  rms(total) = 0.19167E-04    rms(broyden)= 0.19165E-04
  rms(prec ) = 0.24772E-04
  weight for this iteration     100.00

 eigenvalues of (default mixing * dielectric matrix)
  average eigenvalue GAMMA=   2.6120
  9.5525  5.9504  3.8880  2.9398  2.7639  2.4481  2.1756  2.1756  1.2411  1.0717
  1.0717  0.9364  0.9939  0.9939  0.9769

 Free energy of the ion-electron system (eV)
  ---------------------------------------------------
  alpha Z        PSCENC =       131.76150006
  Ewald energy   TEWEN  =     23338.49153585
  -Hartree energ DENC   =    -31383.97884497
  -exchange      EXHF   =         0.00000000
  -V(xc)+E(xc)   XCENC  =       860.78109565
  PAW double counting   =     25850.86896443   -25873.59290951
  entropy T*S    EENTRO =        -0.00161971
  eigenvalues    EBANDS =     -2747.87624032
  atomic energy  EATOM  =      9226.83509577
  Solvation  Ediel_sol  =         0.00000000
  ---------------------------------------------------
  free energy    TOTEN  =      -596.71142274 eV

  energy without entropy =     -596.70980304  energy(sigma->0) =     -596.71061289


--------------------------------------------------------------------------------------------------------




--------------------------------------- Iteration      1(  21)  ---------------------------------------


    POTLOK:  cpu time    0.8054: real time    0.8068
    SETDIJ:  cpu time    0.0112: real time    0.0112
     EDDAV:  cpu time   87.4216: real time   87.4276
       DOS:  cpu time    0.0006: real time    0.0006
    CHARGE:  cpu time    3.6308: real time    3.6311
    MIXING:  cpu time    0.0233: real time    0.0233
    --------------------------------------------
      LOOP:  cpu time   91.8929: real time   91.9006

 eigenvalue-minimisations  :  1692
 total energy-change (2. order) :-0.1583774E-05  (-0.4660274E-08)
 number of electron     270.0000098 magnetization 
 augmentation part        4.2264119 magnetization 

 Broyden mixing:
  rms(total) = 0.96383E-05    rms(broyden)= 0.96377E-05
  rms(prec ) = 0.11069E-04
  weight for this iteration     100.00

 eigenvalues of (default mixing * dielectric matrix)
  average eigenvalue GAMMA=   2.5479
  9.5491  5.9531  3.8893  2.8821  2.8821  2.4297  2.1457  2.1457  1.5757  1.2812
  1.1482  1.0348  0.9662  0.9662  0.9588  0.9588

 Free energy of the ion-electron system (eV)
  ---------------------------------------------------
  alpha Z        PSCENC =       131.76150006
  Ewald energy   TEWEN  =     23338.49153585
  -Hartree energ DENC   =    -31383.97568679
  -exchange      EXHF   =         0.00000000
  -V(xc)+E(xc)   XCENC  =       860.78099864
  PAW double counting   =     25850.84577055   -25873.56972502
  entropy T*S    EENTRO =        -0.00161955
  eigenvalues    EBANDS =     -2747.87929385
  atomic energy  EATOM  =      9226.83509577
  Solvation  Ediel_sol  =         0.00000000
  ---------------------------------------------------
  free energy    TOTEN  =      -596.71142433 eV

  energy without entropy =     -596.70980478  energy(sigma->0) =     -596.71061456


--------------------------------------------------------------------------------------------------------




--------------------------------------- Iteration      1(  22)  ---------------------------------------


    POTLOK:  cpu time    0.8059: real time    0.8073
    SETDIJ:  cpu time    0.0113: real time    0.0113
     EDDAV:  cpu time   91.1262: real time   91.1323
       DOS:  cpu time    0.0006: real time    0.0006
    --------------------------------------------
      LOOP:  cpu time   91.9439: real time   91.9514

 eigenvalue-minimisations  :  1800
 total energy-change (2. order) :-0.1657336E-06  ( 0.9060086E-09)
 number of electron     270.0000098 magnetization 
 augmentation part        4.2264119 magnetization 

 Free energy of the ion-electron system (eV)
  ---------------------------------------------------
  alpha Z        PSCENC =       131.76150006
  Ewald energy   TEWEN  =     23338.49153585
  -Hartree energ DENC   =    -31383.97494546
  -exchange      EXHF   =         0.00000000
  -V(xc)+E(xc)   XCENC  =       860.78096319
  PAW double counting   =     25850.83826893   -25873.56220345
  entropy T*S    EENTRO =        -0.00161947
  eigenvalues    EBANDS =     -2747.88001992
  atomic energy  EATOM  =      9226.83509577
  Solvation  Ediel_sol  =         0.00000000
  ---------------------------------------------------
  free energy    TOTEN  =      -596.71142449 eV

  energy without entropy =     -596.70980503  energy(sigma->0) =     -596.71061476


--------------------------------------------------------------------------------------------------------




 average (electrostatic) potential at core
  the test charge radii are     0.7672  0.6991
  (the norm of the test charge is              1.0000)
       1 -34.2442       2 -34.2442       3 -34.2442       4 -34.2442       5 -34.2442
       6 -34.2442       7 -34.2442       8 -34.2442       9 -34.2442      10 -34.2442
      11 -34.2442      12 -34.2442      13 -34.2442      14 -34.2442      15 -34.2442
      16 -34.2442      17 -34.2442      18 -34.2442      19 -57.3025      20 -57.3025
      21 -57.3025      22 -57.3025      23 -57.3025      24 -57.3025      25 -57.3025
      26 -57.3025      27 -57.3025      28 -57.3025      29 -57.3025      30 -57.3025
      31 -57.3025      32 -57.3025      33 -57.3025      34 -57.3025      35 -57.3025
      36 -57.3025      37 -57.3027      38 -57.3027      39 -57.3027      40 -57.3027
      41 -57.3027      42 -57.3027      43 -57.3027      44 -57.3027      45 -57.3027
      46 -57.3027      47 -57.3027      48 -57.3027      49 -57.3027      50 -57.3027
      51 -57.3027      52 -57.3027      53 -57.3027      54 -57.3027      55 -57.3025
      56 -57.3025      57 -57.3025      58 -57.3025      59 -57.3025      60 -57.3025
      61 -57.3025      62 -57.3025      63 -57.3025      64 -57.3025      65 -57.3025
      66 -57.3025      67 -57.3025      68 -57.3025      69 -57.3025      70 -57.3025
      71 -57.3025      72 -57.3025
 
 
 
 E-fermi :  -3.7574     XC(G=0):  -2.8051     alpha+bet : -2.3762


 k-point     1 :       0.0000    0.0000    0.0000
  band No.  band energies     occupation 
      1     -19.5195      2.00000
      2     -19.0180      2.00000
      3     -19.0180      2.00000
      4     -19.0179      2.00000
      5     -19.0179      2.00000
      6     -19.0179      2.00000
      7     -19.0179      2.00000
      8     -18.5022      2.00000
      9     -18.5022      2.00000
     10     -17.3307      2.00000
     11     -17.3307      2.00000
     12     -17.3297      2.00000
     13     -17.3297      2.00000
     14     -17.1355      2.00000
     15     -17.1355      2.00000
     16     -17.1345      2.00000
     17     -17.1345      2.00000
     18     -17.1345      2.00000
     19     -17.1345      2.00000
     20     -16.1188      2.00000
     21     -16.1188      2.00000
     22     -16.1188      2.00000
     23     -16.1188      2.00000
     24     -16.1173      2.00000
     25     -16.1173      2.00000
     26     -15.5902      2.00000
     27     -15.5880      2.00000
     28     -14.3291      2.00000
     29     -14.3291      2.00000
     30     -14.3291      2.00000
     31     -14.3291      2.00000
     32     -14.3281      2.00000
     33     -14.3281      2.00000
     34     -13.8497      2.00000
     35     -13.8491      2.00000
     36     -12.8613      2.00000
     37     -12.8613      2.00000
     38     -12.8586      2.00000
     39     -12.8586      2.00000
     40     -12.4150      2.00000
     41     -12.4150      2.00000
[...]
 -----------------------------------------------------------------------------------
     -1.49100      2.58200      3.75000       -53.045494      0.000000      0.000000
      2.98200      5.16400      3.75000         0.208724      0.254204      0.000000
      7.45500      7.74600      3.75000         0.208951      0.221684      0.000000
     -5.96400      5.16400      3.75000         0.208951     -0.221684      0.000000
     -1.49100      7.74600      3.75000        -0.203414     -0.016072      0.000000
      2.98200     10.32800      3.75000         0.136952      0.000000      0.000000
    -10.43700      7.74600      3.75000         0.208724     -0.254204      0.000000
     -5.96400     10.32800      3.75000         0.136707      0.000000      0.000000
     -1.49100     12.91000      3.75000        -0.203414      0.016072      0.000000
      1.49100      2.58200      3.75000         0.667011      0.000000      0.000000
      5.96400      5.16400      3.75000         0.055680      0.105946      0.000000
     10.43700      7.74600      3.75000        -0.613449      0.739497      0.000000
     -2.98200      5.16400      3.75000        -0.613449     -0.739497      0.000000
      1.49100      7.74600      3.75000         0.257283      0.268349      0.000000
      5.96400     10.32800      3.75000         0.721068      0.000000      0.000000
     -7.45500      7.74600      3.75000         0.055680     -0.105946      0.000000
     -2.98200     10.32800      3.75000        -0.127486      0.000000      0.000000
      1.49100     12.91000      3.75000         0.257283     -0.268349      0.000000
     -0.74550      1.29100      3.75000        11.193952     -9.160452      0.000000
      3.72750      3.87300      3.75000         0.050577      0.063857      0.000000
      8.20050      6.45500      3.75000         0.056402     -0.057503      0.000000
     -5.21850      3.87300      3.75000        -0.359102     -0.085895      0.000000
     -0.74550      6.45500      3.75000         0.161149     -0.381331      0.000000
      3.72750      9.03700      3.75000         0.113127      0.089729      0.000000
     -9.69150      6.45500      3.75000        -0.232629      0.091315      0.000000
     -5.21850      9.03700      3.75000         0.072740      0.079956      0.000000
     -0.74550     11.61900      3.75000        -0.009270      0.036601      0.000000
      0.74550      1.29100      3.75000         1.405658     -2.452137      0.000000
      5.21850      3.87300      3.75000        -0.056593     -0.032426      0.000000
      9.69150      6.45500      3.75000        -0.043100     -0.141252      0.000000
     -3.72750      3.87300      3.75000         1.618920     -0.349965      0.000000
      0.74550      6.45500      3.75000        -0.165175     -0.261604      0.000000
      5.21850      9.03700      3.75000        -0.231889     -0.143231      0.000000
     -8.20050      6.45500      3.75000         0.219207     -0.122012      0.000000
     -3.72750      9.03700      3.75000        -0.062780      0.108371      0.000000
      0.74550     11.61900      3.75000         0.064416      0.033429      0.000000
     -2.98200      2.58200      3.75000        27.027005      0.000000      0.000000
      1.49100      5.16400      3.75000         0.305572     -0.302209      0.000000
      5.96400      7.74600      3.75000        -0.232368     -0.166548      0.000000
     -7.45500      5.16400      3.75000        -0.232368      0.166548      0.000000
     -2.98200      7.74600      3.75000         0.048011     -0.056513      0.000000
      1.49100     10.32800      3.75000        -0.041028      0.000000      0.000000
    -11.92800      7.74600      3.75000         0.305572      0.302209      0.000000
     -7.45500     10.32800      3.75000        -0.064869      0.000000      0.000000
     -2.98200     12.91000      3.75000         0.048011      0.056513      0.000000
      2.98200      2.58200      3.75000        -0.287887      0.000000      0.000000
      7.45500      5.16400      3.75000         0.005766      0.075518      0.000000
     11.92800      7.74600      3.75000        -0.913856      0.866840      0.000000
     -1.49100      5.16400      3.75000        -0.913856     -0.866840      0.000000
      2.98200      7.74600      3.75000        -0.178938     -0.168200      0.000000
      7.45500     10.32800      3.75000        -0.617456      0.000000      0.000000
     -5.96400      7.74600      3.75000         0.005766     -0.075518      0.000000
     -1.49100     10.32800      3.75000         0.008338      0.000000      0.000000
      2.98200     12.91000      3.75000        -0.178938      0.168200      0.000000
     -0.74550      3.87300      3.75000        11.193952      9.160452      0.000000
      3.72750      6.45500      3.75000        -0.232629     -0.091315      0.000000
      8.20050      9.03700      3.75000        -0.359102      0.085895      0.000000
     -5.21850      6.45500      3.75000         0.056402      0.057503      0.000000
     -0.74550      9.03700      3.75000        -0.009270     -0.036601      0.000000
      3.72750     11.61900      3.75000         0.113127     -0.089729      0.000000
     -9.69150      9.03700      3.75000         0.050577     -0.063857      0.000000
     -5.21850     11.61900      3.75000         0.072740     -0.079956      0.000000
     -0.74550     14.20100      3.75000         0.161149      0.381331      0.000000
      0.74550      3.87300      3.75000         1.405658      2.452137      0.000000
      5.21850      6.45500      3.75000         0.219207      0.122012      0.000000
      9.69150      9.03700      3.75000         1.618920      0.349965      0.000000
     -3.72750      6.45500      3.75000        -0.043100      0.141252      0.000000
      0.74550      9.03700      3.75000         0.064416     -0.033429      0.000000
      5.21850     11.61900      3.75000        -0.231889      0.143231      0.000000
     -8.20050      9.03700      3.75000        -0.056593      0.032426      0.000000
     -3.72750     11.61900      3.75000        -0.062780     -0.108371      0.000000
      0.74550     14.20100      3.75000        -0.165175      0.261604      0.000000
 -----------------------------------------------------------------------------------
    total drift:                               -0.000000      0.000000      0.000000




--------------------------------------------------------------------------------------------------------


 Linear response progress:
  Degree of freedom:   2/  9
  LATTYP: Found a base centered orthorhombic cell.
 ALAT       =    15.4920000000
 B/A-ratio  =     1.7323780015
 C/A-ratio  =     0.9682416731
  
  Lattice vectors:
  
 A1 = (  13.4190000000,   7.7460000000,   0.0000000000)
 A2 = ( -13.4190000000,   7.7460000000,   0.0000000000)
 A3 = (   0.0000000000,   0.0000000000,  15.0000000000)


Analysis of symmetry for initial positions (statically):
=====================================================================
 Subroutine PRICEL returns following result:
 
  LATTYP: Found a base centered orthorhombic cell.
 ALAT       =     5.1640000000
 B/A-ratio  =     1.7323780015
 C/A-ratio  =     2.9047250194
  
  Lattice vectors:
  
 A1 = (   4.4730000000,   2.5820000000,   0.0000000000)
 A2 = (  -4.4730000000,   2.5820000000,   0.0000000000)
 A3 = (   0.0000000000,   0.0000000000,  15.0000000000)
 
   9 primitive cells build up your supercell.
 

 Routine SETGRP: Setting up the symmetry group for a 
 base centered orthorhombic supercell.


 Subroutine GETGRP returns: Found  8 space group operations
 (whereof  4 operations were pure point group operations)
 out of a pool of  8 trial point group operations.


The static configuration has the point symmetry C_2v.
 The point group associated with its full space group is D_2h.


Analysis of symmetry for dynamics (positions and initial velocities):
=====================================================================
 Subroutine PRICEL returns:
 Original cell was already a primitive cell.
 

 Routine SETGRP: Setting up the symmetry group for a 
 base centered orthorhombic supercell.


 Subroutine GETGRP returns: Found  2 space group operations
 (whereof  1 operations were pure point group operations)
 out of a pool of  8 trial point group operations.


The dynamic configuration has the point symmetry C_1 .
 The point group associated with its full space group is C_1h.


 Subroutine INISYM returns: Found  2 space group operations
 (whereof  1 operations are pure point group operations),
 and found     1 'primitive' translations



----------------------------------------- Iteration    5(   1)  ---------------------------------------


   POT+DIJ:  cpu time    3.8606: real time    3.8609
    HAMIL1:  cpu time   33.7284: real time   33.7312
    LRDIAG:  cpu time    3.2250: real time    3.2253
    LRDIIS:  cpu time  333.0784: real time  333.1017
    LRDIAG:  cpu time    3.1779: real time    3.1782
    --------------------------------------------
      LOOP:  cpu time  377.0718: real time  377.0986

 Free energy of the ion-electron system (eV)
  ---------------------------------------------------
  -Hartree energ DENC   =        -0.00916407
  -V(xc)+E(xc)   XCENC  =         0.00327035
  PAW double counting   =         0.00000000        0.00000000
  entropy T*S    EENTRO =        -0.00000000
  eigenvalues    EBANDS =        -0.06649857
  ---------------------------------------------------
  free energy    TOTEN  =        -0.07239230 eV

  energy without entropy =       -0.07239230


----------------------------------------- Iteration    5(   2)  ---------------------------------------


   POT+DIJ:  cpu time    3.8299: real time    3.8303
    HAMIL1:  cpu time   33.2350: real time   33.2379
    LRDIAG:  cpu time    3.1568: real time    3.1571
    LRDIIS:  cpu time  181.2424: real time  181.2543
    LRDIAG:  cpu time    3.1832: real time    3.1837
    MIXING:  cpu time    0.0160: real time    0.0160
    --------------------------------------------
      LOOP:  cpu time  233.9603: real time  233.9767

 Broyden mixing:
  rms(total) = 0.13451E+01    rms(broyden)= 0.13441E+01
  rms(prec ) = 0.15639E+01
  weight for this iteration     100.00

 Free energy of the ion-electron system (eV)
  ---------------------------------------------------
  -Hartree energ DENC   =        -0.00916407
  -V(xc)+E(xc)   XCENC  =         0.00327035
  PAW double counting   =         0.00000000        0.00000000
  entropy T*S    EENTRO =        -0.00000003
  eigenvalues    EBANDS =        -0.04631130
  ---------------------------------------------------
  free energy    TOTEN  =        -0.05220506 eV

  energy without entropy =       -0.05220503


----------------------------------------- Iteration    5(   3)  ---------------------------------------


   POT+DIJ:  cpu time    3.8206: real time    3.8210
    HAMIL1:  cpu time   32.8477: real time   32.8504
    LRDIAG:  cpu time    3.1489: real time    3.1492
    LRDIIS:  cpu time  168.2040: real time  168.2150
    LRDIAG:  cpu time    3.0292: real time    3.0294
    MIXING:  cpu time    0.0166: real time    0.0166
    --------------------------------------------
      LOOP:  cpu time  220.3540: real time  220.3691

 Broyden mixing:
  rms(total) = 0.60796E+00    rms(broyden)= 0.60766E+00
  rms(prec ) = 0.64899E+00
  weight for this iteration     100.00

 eigenvalues of (default mixing * dielectric matrix)
  average eigenvalue GAMMA=   1.1130
  1.1130

 Free energy of the ion-electron system (eV)
  ---------------------------------------------------
  -Hartree energ DENC   =        -0.01311529
  -V(xc)+E(xc)   XCENC  =         0.00422034
  PAW double counting   =         0.01069982       -0.01069812
  entropy T*S    EENTRO =        -0.00000003
  eigenvalues    EBANDS =        -0.04112527
  ---------------------------------------------------
  free energy    TOTEN  =        -0.05001855 eV

  energy without entropy =       -0.05001853


----------------------------------------- Iteration    5(   4)  ---------------------------------------


   POT+DIJ:  cpu time    3.8228: real time    3.8232
    HAMIL1:  cpu time   32.5570: real time   32.5597
    LRDIAG:  cpu time    3.1475: real time    3.1478
    LRDIIS:  cpu time  173.1267: real time  173.1381
    LRDIAG:  cpu time    3.0278: real time    3.0280
    MIXING:  cpu time    0.0167: real time    0.0167
    --------------------------------------------
      LOOP:  cpu time  225.0184: real time  225.0339

 Broyden mixing:
  rms(total) = 0.32494E+00    rms(broyden)= 0.32492E+00
  rms(prec ) = 0.34441E+00
  weight for this iteration     100.00

 eigenvalues of (default mixing * dielectric matrix)
  average eigenvalue GAMMA=   1.6125
  0.9510  2.2741

 Free energy of the ion-electron system (eV)
  ---------------------------------------------------
  -Hartree energ DENC   =        -0.01386067
  -V(xc)+E(xc)   XCENC  =         0.00465434
  PAW double counting   =         0.02542445       -0.02542056
  entropy T*S    EENTRO =        -0.00000003
  eigenvalues    EBANDS =        -0.04051746
  ---------------------------------------------------
  free energy    TOTEN  =        -0.04971992 eV

  energy without entropy =       -0.04971989


----------------------------------------- Iteration    5(   5)  ---------------------------------------


   POT+DIJ:  cpu time    3.8335: real time    3.8338
    HAMIL1:  cpu time   32.3252: real time   32.3279
    LRDIAG:  cpu time    3.1478: real time    3.1480
    LRDIIS:  cpu time  168.0791: real time  168.0902
    LRDIAG:  cpu time    3.0293: real time    3.0296
    MIXING:  cpu time    0.0171: real time    0.0171
    --------------------------------------------
      LOOP:  cpu time  219.6756: real time  219.6907

 Broyden mixing:
  rms(total) = 0.46854E-01    rms(broyden)= 0.46835E-01
  rms(prec ) = 0.53622E-01
  weight for this iteration     100.00

 eigenvalues of (default mixing * dielectric matrix)
  average eigenvalue GAMMA=   1.4808
  2.3151  1.0637  1.0637

 Free energy of the ion-electron system (eV)
  ---------------------------------------------------
  -Hartree energ DENC   =        -0.01487428
  -V(xc)+E(xc)   XCENC  =         0.00531495
  PAW double counting   =         0.05174386       -0.05173611
  entropy T*S    EENTRO =        -0.00000003
  eigenvalues    EBANDS =        -0.03981976
  ---------------------------------------------------
  free energy    TOTEN  =        -0.04937137 eV

  energy without entropy =       -0.04937135


----------------------------------------- Iteration    5(   6)  ---------------------------------------


   POT+DIJ:  cpu time    3.8444: real time    3.8447
    HAMIL1:  cpu time   33.0635: real time   33.0662
    LRDIAG:  cpu time    3.1586: real time    3.1588
    LRDIIS:  cpu time  199.8367: real time  199.8497
    LRDIAG:  cpu time    3.0345: real time    3.0347
    MIXING:  cpu time    0.0174: real time    0.0174
    --------------------------------------------
      LOOP:  cpu time  252.2294: real time  252.2465

 Broyden mixing:
  rms(total) = 0.21033E-01    rms(broyden)= 0.21029E-01
  rms(prec ) = 0.25081E-01
  weight for this iteration     100.00

 eigenvalues of (default mixing * dielectric matrix)
  average eigenvalue GAMMA=   1.5961
  0.9863  0.9863  2.4785  1.9334

 Free energy of the ion-electron system (eV)
  ---------------------------------------------------
  -Hartree energ DENC   =        -0.01483577
  -V(xc)+E(xc)   XCENC  =         0.00531257
  PAW double counting   =         0.05413094       -0.05412317
  entropy T*S    EENTRO =        -0.00000003
  eigenvalues    EBANDS =        -0.03986141
  ---------------------------------------------------
  free energy    TOTEN  =        -0.04937686 eV

  energy without entropy =       -0.04937684


----------------------------------------- Iteration    5(   7)  ---------------------------------------


   POT+DIJ:  cpu time    3.8459: real time    3.8462
    HAMIL1:  cpu time   33.2422: real time   33.2450
    LRDIAG:  cpu time    3.1608: real time    3.1610
    LRDIIS:  cpu time  207.2542: real time  207.2678
    LRDIAG:  cpu time    3.0455: real time    3.0457
    MIXING:  cpu time    0.0182: real time    0.0182
    --------------------------------------------
      LOOP:  cpu time  259.8395: real time  259.8572

 Broyden mixing:
  rms(total) = 0.49916E-02    rms(broyden)= 0.49896E-02
  rms(prec ) = 0.75641E-02
  weight for this iteration     100.00

 eigenvalues of (default mixing * dielectric matrix)
  average eigenvalue GAMMA=   1.5492
  2.6182  1.9136  0.9793  0.9793  1.2559

 Free energy of the ion-electron system (eV)
  ---------------------------------------------------
  -Hartree energ DENC   =        -0.01474854
  -V(xc)+E(xc)   XCENC  =         0.00529290
  PAW double counting   =         0.05564848       -0.05564075
  entropy T*S    EENTRO =        -0.00000003
  eigenvalues    EBANDS =        -0.03994050
  ---------------------------------------------------
  free energy    TOTEN  =        -0.04938844 eV

  energy without entropy =       -0.04938841


----------------------------------------- Iteration    5(   8)  ---------------------------------------


   POT+DIJ:  cpu time    3.8540: real time    3.8543
    HAMIL1:  cpu time   33.1776: real time   33.1803
    LRDIAG:  cpu time    3.1515: real time    3.1517
    LRDIIS:  cpu time  248.4981: real time  248.5142
    LRDIAG:  cpu time    3.0304: real time    3.0308
    MIXING:  cpu time    0.0184: real time    0.0184
    --------------------------------------------
      LOOP:  cpu time  300.9877: real time  301.0081

 Broyden mixing:
  rms(total) = 0.26307E-02    rms(broyden)= 0.26302E-02
  rms(prec ) = 0.47831E-02
  weight for this iteration     100.00

 eigenvalues of (default mixing * dielectric matrix)
  average eigenvalue GAMMA=   1.6405
  2.7205  2.2938  1.7597  0.9675  1.0507  1.0507

 Free energy of the ion-electron system (eV)
  ---------------------------------------------------
  -Hartree energ DENC   =        -0.01474421
  -V(xc)+E(xc)   XCENC  =         0.00529420
  PAW double counting   =         0.05588692       -0.05587918
  entropy T*S    EENTRO =        -0.00000003
  eigenvalues    EBANDS =        -0.03994769
  ---------------------------------------------------
  free energy    TOTEN  =        -0.04938999 eV

  energy without entropy =       -0.04938996


----------------------------------------- Iteration    5(   9)  ---------------------------------------


   POT+DIJ:  cpu time    3.8637: real time    3.8640
    HAMIL1:  cpu time   32.4290: real time   32.4317
    LRDIAG:  cpu time    3.1465: real time    3.1467
    LRDIIS:  cpu time  248.2088: real time  248.2250
    LRDIAG:  cpu time    3.0362: real time    3.0366
    MIXING:  cpu time    0.0190: real time    0.0190
    --------------------------------------------
      LOOP:  cpu time  299.9872: real time  300.0076

 Broyden mixing:
  rms(total) = 0.11199E-02    rms(broyden)= 0.11197E-02
  rms(prec ) = 0.24989E-02
  weight for this iteration     100.00

 eigenvalues of (default mixing * dielectric matrix)
  average eigenvalue GAMMA=   1.6265
  2.9462  2.4727  1.8817  1.1767  0.9963  0.9963  0.9158

 Free energy of the ion-electron system (eV)
  ---------------------------------------------------
  -Hartree energ DENC   =        -0.01474184
  -V(xc)+E(xc)   XCENC  =         0.00529231
  PAW double counting   =         0.05585683       -0.05584911
  entropy T*S    EENTRO =        -0.00000003
  eigenvalues    EBANDS =        -0.03994833
  ---------------------------------------------------
  free energy    TOTEN  =        -0.04939018 eV

  energy without entropy =       -0.04939015


----------------------------------------- Iteration    5(  10)  ---------------------------------------


   POT+DIJ:  cpu time    3.8609: real time    3.8612
    HAMIL1:  cpu time   33.1388: real time   33.1415
    LRDIAG:  cpu time    3.1585: real time    3.1587
