<?xml version="1.0" encoding="ISO-8859-1"?>
<modeling>
 <generator>
  <i name="program" type="string">vasp </i>
  <i name="version" type="string">5.4.4.18Apr17-6-g9f103f2a35  </i>
  <i name="subversion" type="string">(build Mar 30 2023 15:39:25) complex            parallel </i>
  <i name="platform" type="string">LinuxIFC </i>
  <i name="date" type="string">2023 06 30 </i>
  <i name="time" type="string">16:13:52 </i>
 </generator>
 <incar>
  <i type="string" name="SYSTEM"> BC3</i>
  <i type="int" name="ISTART">     0</i>
  <i type="string" name="PREC">accurate</i>
  <i type="string" name="ALGO"> Normal</i>
  <i type="int" name="ICHARG">     2</i>
  <i type="int" name="NELM">   200</i>
  <i type="int" name="IBRION">     8</i>
  <i name="EDIFF">      0.00000100</i>
  <i name="EDIFFG">     -0.00100000</i>
  <i type="int" name="NSW">     1</i>
  <i type="int" name="ISIF">     2</i>
  <i name="ENCUT">    450.00000000</i>
  <i type="int" name="ISMEAR">     0</i>
  <i name="SIGMA">      0.10000000</i>
  <v type="int" name="KPOINT_BSE">    -1     0     0     0</v>
  <i type="int" name="NELM">   200</i>
 </incar>
 <structure name="primitive_cell" >
  <crystal>
   <varray name="basis" >
    <v>       4.47300000       2.58200000       0.00000000 </v>
    <v>      -4.47300000       2.58200000       0.00000000 </v>
    <v>       0.00000000       0.00000000      15.00000000 </v>
   </varray>
   <i name="volume">    346.47858000 </i>
   <varray name="rec_basis" >
    <v>       0.11178180       0.19364833       0.00000000 </v>
    <v>      -0.11178180       0.19364833       0.00000000 </v>
    <v>       0.00000000       0.00000000       0.06666667 </v>
   </varray>
  </crystal>
  <varray name="positions" >
   <v>       0.33333300      -0.33333400       0.25000000 </v>
   <v>      -0.33333400      -0.16666700       0.25000000 </v>
   <v>       0.16666600       0.33333300       0.25000000 </v>
   <v>       0.16666600      -0.16666700       0.25000000 </v>
   <v>      -0.16666700       0.16666600       0.25000000 </v>
   <v>       0.33333300       0.16666600       0.25000000 </v>
   <v>      -0.16666700      -0.33333400       0.25000000 </v>
   <v>      -0.33333400       0.33333300       0.25000000 </v>
  </varray>
 </structure>
 <varray name="primitive_index" >
  <v type="int" >        1 </v>
  <v type="int" >       55 </v>
  <v type="int" >       19 </v>
  <v type="int" >       37 </v>
  <v type="int" >       49 </v>
  <v type="int" >       31 </v>
  <v type="int" >       64 </v>
  <v type="int" >       12 </v>
 </varray>
 <kpoints>
  <generation param="Gamma">
   <v type="int" name="divisions">       4        4        1 </v>
   <v name="usershift">      0.00000000       0.00000000       0.00000000 </v>
   <v name="genvec1">      0.25000000       0.00000000       0.00000000 </v>
   <v name="genvec2">      0.00000000       0.25000000       0.00000000 </v>
   <v name="genvec3">      0.00000000       0.00000000       1.00000000 </v>
   <v name="shift">      0.00000000       0.00000000       0.00000000 </v>
  </generation>
  <varray name="kpointlist" >
   <v>       0.00000000       0.00000000       0.00000000 </v>
   <v>       0.25000000       0.00000000       0.00000000 </v>
   <v>       0.50000000       0.00000000       0.00000000 </v>
   <v>       0.25000000       0.25000000       0.00000000 </v>
   <v>       0.50000000       0.25000000       0.00000000 </v>
   <v>      -0.25000000       0.25000000       0.00000000 </v>
   <v>       0.50000000       0.50000000       0.00000000 </v>
  </varray>
  <varray name="weights" >
   <v>       0.06250000 </v>
   <v>       0.25000000 </v>
   <v>       0.12500000 </v>
   <v>       0.12500000 </v>
   <v>       0.25000000 </v>
   <v>       0.12500000 </v>
   <v>       0.06250000 </v>
  </varray>
 </kpoints>
 <parameters>
  <separator name="general" >
   <i type="string" name="SYSTEM">BC3</i>
   <i type="logical" name="LCOMPAT"> F  </i>
  </separator>
  <separator name="electronic" >
   <i type="string" name="PREC">accura</i>
   <i name="ENMAX">    450.00000000</i>
   <i name="ENAUG">    644.87300000</i>
   <i name="EDIFF">      0.00000100</i>
   <i type="int" name="IALGO">    38</i>
   <i type="int" name="IWAVPR">    11</i>
   <i type="int" name="NBANDS">   180</i>
   <i name="NELECT">    270.00000000</i>
   <i type="int" name="TURBO">     0</i>
   <i type="int" name="IRESTART">     0</i>
   <i type="int" name="NREBOOT">     0</i>
   <i type="int" name="NMIN">     0</i>
   <i name="EREF">      0.00000000</i>
   <separator name="electronic smearing" >
    <i type="int" name="ISMEAR">     0</i>
    <i name="SIGMA">      0.10000000</i>
    <i name="KSPACING">      0.50000000</i>
    <i type="logical" name="KGAMMA"> T  </i>
   </separator>
   <separator name="electronic projectors" >
    <i type="logical" name="LREAL"> F  </i>
    <v name="ROPT">      0.00000000      0.00000000</v>
    <i type="int" name="LMAXPAW">  -100</i>
    <i type="int" name="LMAXMIX">     2</i>
    <i type="logical" name="NLSPLINE"> F  </i>
   </separator>
   <separator name="electronic startup" >
    <i type="int" name="ISTART">     0</i>
    <i type="int" name="ICHARG">     2</i>
    <i type="int" name="INIWAV">     1</i>
   </separator>
   <separator name="electronic spin" >
    <i type="int" name="ISPIN">     1</i>
    <i type="logical" name="LNONCOLLINEAR"> F  </i>
    <v name="MAGMOM">      1.00000000      1.00000000      1.00000000      1.00000000      1.00000000      1.00000000      1.00000000      1.00000000      1.00000000      1.00000000      1.00000000      1.00000000      1.00000000      1.00000000      1.00000000      1.00000000      1.00000000      1.00000000      1.00000000      1.00000000
      1.00000000      1.00000000      1.00000000      1.00000000      1.00000000      1.00000000      1.00000000      1.00000000      1.00000000      1.00000000      1.00000000      1.00000000      1.00000000      1.00000000      1.00000000      1.00000000      1.00000000      1.00000000      1.00000000      1.00000000
      1.00000000      1.00000000      1.00000000      1.00000000      1.00000000      1.00000000      1.00000000      1.00000000      1.00000000      1.00000000      1.00000000      1.00000000      1.00000000      1.00000000      1.00000000      1.00000000      1.00000000      1.00000000      1.00000000      1.00000000
      1.00000000      1.00000000      1.00000000      1.00000000      1.00000000      1.00000000      1.00000000      1.00000000      1.00000000      1.00000000      1.00000000      1.00000000</v>
    <i name="NUPDOWN">     -1.00000000</i>
    <i type="logical" name="LSORBIT"> F  </i>
    <v name="SAXIS">      0.00000000      0.00000000      1.00000000</v>
    <i type="logical" name="LSPIRAL"> F  </i>
    <v name="QSPIRAL">      0.00000000      0.00000000      0.00000000</v>
    <i type="logical" name="LZEROZ"> F  </i>
   </separator>
   <separator name="electronic exchange-correlation" >
    <i type="logical" name="LASPH"> F  </i>
    <i type="logical" name="LMETAGGA"> F  </i>
   </separator>
   <separator name="electronic convergence" >
    <i type="int" name="NELM">   200</i>
    <i type="int" name="NELMDL">    -5</i>
    <i type="int" name="NELMIN">     2</i>
    <i name="ENINI">    450.00000000</i>
    <separator name="electronic convergence detail" >
     <i type="logical" name="LDIAG"> T  </i>
     <i type="logical" name="LSUBROT"> F  </i>
     <i name="WEIMIN">      0.00100000</i>
     <i name="EBREAK">      0.00000000</i>
     <i name="DEPER">      0.30000000</i>
     <i type="int" name="NRMM">     4</i>
     <i name="TIME">      0.40000000</i>
    </separator>
   </separator>
   <separator name="electronic mixer" >
    <i name="AMIX">      0.40000000</i>
    <i name="BMIX">      1.00000000</i>
    <i name="AMIN">      0.10000000</i>
    <i name="AMIX_MAG">      1.60000000</i>
    <i name="BMIX_MAG">      1.00000000</i>
    <separator name="electronic mixer details" >
     <i type="int" name="IMIX">     4</i>
     <i type="logical" name="MIXFIRST"> F  </i>
     <i type="int" name="MAXMIX">   -45</i>
     <i name="WC">    100.00000000</i>
     <i type="int" name="INIMIX">     1</i>
     <i type="int" name="MIXPRE">     1</i>
     <i type="int" name="MREMOVE">     5</i>
    </separator>
   </separator>
   <separator name="electronic dipolcorrection" >
    <i type="logical" name="LDIPOL"> F  </i>
    <i type="logical" name="LMONO"> F  </i>
    <i type="int" name="IDIPOL">     0</i>
    <i name="EPSILON">      1.00000000</i>
    <v name="DIPOL">   -100.00000000   -100.00000000   -100.00000000</v>
    <i name="EFIELD">      0.00000000</i>
   </separator>
  </separator>
  <separator name="grids" >
   <i type="int" name="NGX">   108</i>
   <i type="int" name="NGY">   108</i>
   <i type="int" name="NGZ">   108</i>
   <i type="int" name="NGXF">   216</i>
   <i type="int" name="NGYF">   216</i>
   <i type="int" name="NGZF">   216</i>
   <i type="logical" name="ADDGRID"> F  </i>
  </separator>
  <separator name="ionic" >
   <i type="int" name="NSW">     1</i>
   <i type="int" name="IBRION">     8</i>
   <i type="int" name="MDALGO">     0</i>
   <i type="int" name="ISIF">     2</i>
   <i name="PSTRESS">      0.00000000</i>
   <i name="EDIFFG">     -0.00100000</i>
   <i type="int" name="NFREE">     0</i>
   <i name="POTIM">      0.50000000</i>
   <i name="SMASS">     -3.00000000</i>
   <i name="SCALEE">      1.00000000</i>
  </separator>
  <separator name="ionic md" >
   <i name="TEBEG">      0.00010000</i>
   <i name="TEEND">      0.00010000</i>
   <i type="int" name="NBLOCK">     1</i>
   <i type="int" name="KBLOCK">     1</i>
   <i type="int" name="NPACO">   256</i>
   <i name="APACO">     16.00000000</i>
  </separator>
  <separator name="symmetry" >
   <i type="int" name="ISYM">     2</i>
   <i name="SYMPREC">      0.00001000</i>
  </separator>
  <separator name="dos" >
   <i type="int" name="LORBIT">     0</i>
   <v name="RWIGS">     -1.00000000     -1.00000000</v>
   <i type="int" name="NEDOS">   301</i>
   <i name="EMIN">     10.00000000</i>
   <i name="EMAX">    -10.00000000</i>
   <i name="EFERMI">      0.00000000</i>
  </separator>
  <separator name="writing" >
   <i type="int" name="NWRITE">     2</i>
   <i type="logical" name="LWAVE"> T  </i>
   <i type="logical" name="LDOWNSAMPLE"> F  </i>
   <i type="logical" name="LCHARG"> T  </i>
   <i type="logical" name="LPARD"> F  </i>
   <i type="logical" name="LVTOT"> F  </i>
   <i type="logical" name="LVHAR"> F  </i>
   <i type="logical" name="LELF"> F  </i>
   <i type="logical" name="LOPTICS"> F  </i>
   <v name="STM">      0.00000000      0.00000000      0.00000000      0.00000000      0.00000000      0.00000000      0.00000000</v>
  </separator>
  <separator name="performance" >
   <i type="int" name="NPAR">    12</i>
   <i type="int" name="NSIM">     4</i>
   <i type="int" name="NBLK">    -1</i>
   <i type="logical" name="LPLANE"> T  </i>
   <i type="logical" name="LSCALAPACK"> T  </i>
   <i type="logical" name="LSCAAWARE"> F  </i>
   <i type="logical" name="LSCALU"> F  </i>
   <i type="logical" name="LASYNC"> F  </i>
   <i type="logical" name="LORBITALREAL"> F  </i>
  </separator>
  <separator name="miscellaneous" >
   <i type="int" name="IDIOT">     3</i>
   <i type="int" name="ISPECIAL">     0</i>
   <i type="logical" name="LMUSIC"> F  </i>
   <v name="POMASS">     10.81100000     12.01100000</v>
   <v name="DARWINR">      0.00000000      0.00000000</v>
   <v name="DARWINV">      1.00000000      1.00000000</v>
   <i type="logical" name="LCORR"> T  </i>
  </separator>
  <i type="logical" name="GGA_COMPAT"> T  </i>
  <i type="logical" name="LBERRY"> F  </i>
  <i type="int" name="ICORELEVEL">     0</i>
  <i type="logical" name="LDAU"> F  </i>
  <i type="int" name="I_CONSTRAINED_M">     0</i>
  <separator name="electronic exchange-correlation" >
   <i type="string" name="GGA">--</i>
   <i type="int" name="VOSKOWN">     0</i>
   <i type="logical" name="LHFCALC"> F  </i>
   <i type="string" name="PRECFOCK"></i>
   <i type="logical" name="LSYMGRAD"> F  </i>
   <i type="logical" name="LHFONE"> F  </i>
   <i type="logical" name="LRHFCALC"> F  </i>
   <i type="logical" name="LTHOMAS"> F  </i>
   <i type="logical" name="LMODELHF"> F  </i>
   <i name="ENCUT4O">     -1.00000000</i>
   <i type="int" name="EXXOEP">     0</i>
   <i type="int" name="FOURORBIT">     0</i>
   <i name="AEXX">      0.00000000</i>
   <i name="HFALPHA">      0.00000000</i>
   <i name="MCALPHA">      0.00000000</i>
   <i name="ALDAX">      1.00000000</i>
   <i name="AGGAX">      1.00000000</i>
   <i name="ALDAC">      1.00000000</i>
   <i name="AGGAC">      1.00000000</i>
   <i type="int" name="NKREDX">     1</i>
   <i type="int" name="NKREDY">     1</i>
   <i type="int" name="NKREDZ">     1</i>
   <i type="logical" name="SHIFTRED"> F  </i>
   <i type="logical" name="ODDONLY"> F  </i>
   <i type="logical" name="EVENONLY"> F  </i>
   <i type="int" name="LMAXFOCK">     0</i>
   <i type="int" name="NMAXFOCKAE">     0</i>
   <i type="logical" name="LFOCKAEDFT"> F  </i>
   <i name="HFSCREEN">      0.00000000</i>
   <i name="HFSCREENC">      0.00000000</i>
   <i type="int" name="NBANDSGWLOW">     0</i>
  </separator>
  <separator name="vdW DFT" >
   <i type="logical" name="LUSE_VDW"> F  </i>
   <i name="Zab_VDW">     -0.84910000</i>
   <i name="PARAM1">      0.12340000</i>
   <i name="PARAM2">      1.00000000</i>
   <i name="PARAM3">      0.00000000</i>
  </separator>
  <separator name="model GW" >
   <i type="int" name="MODEL_GW">     0</i>
   <i name="MODEL_EPS0">     25.98589350</i>
   <i name="MODEL_ALPHA">      1.00000000</i>
  </separator>
  <separator name="linear response parameters" >
   <i type="logical" name="LEPSILON"> F  </i>
   <i type="logical" name="LRPA"> F  </i>
   <i type="logical" name="LNABLA"> F  </i>
   <i type="logical" name="LVEL"> F  </i>
   <i type="int" name="KINTER">     0</i>
   <i name="CSHIFT">      0.10000000</i>
   <i name="OMEGAMAX">     -1.00000000</i>
   <i name="DEG_THRESHOLD">      0.00200000</i>
   <i name="RTIME">     -0.10000000</i>
   <i name="WPLASMAI">      0.00000000</i>
   <v name="DFIELD">      0.00000000      0.00000000      0.00000000</v>
   <v name="WPLASMA">      0.00000000      0.00000000      0.00000000      0.00000000      0.00000000      0.00000000      0.00000000      0.00000000      0.00000000</v>
  </separator>
  <separator name="orbital magnetization" >
   <i type="logical" name="NUCIND"> F  </i>
   <v name="MAGPOS">      0.00000000      0.00000000      0.00000000</v>
   <i type="logical" name="LNICSALL"> T  </i>
   <i type="logical" name="ORBITALMAG"> F  </i>
   <i type="logical" name="LMAGBLOCH"> F  </i>
   <i type="logical" name="LCHIMAG"> F  </i>
   <i type="logical" name="LGAUGE"> T  </i>
   <i type="int" name="MAGATOM">     0</i>
   <v name="MAGDIPOL">      0.00000000      0.00000000      0.00000000</v>
   <v name="AVECCONST">      0.00000000      0.00000000      0.00000000</v>
  </separator>
  <separator name="response functions" >
   <i type="logical" name="LADDER"> F  </i>
   <i type="logical" name="LRPAFORCE"> F  </i>
   <i type="logical" name="LFXC"> F  </i>
   <i type="logical" name="LHARTREE"> T  </i>
   <i type="int" name="IBSE">     0</i>
   <v type="int" name="KPOINT">    -1     0     0     0</v>
   <i type="logical" name="LTCTE"> F  </i>
   <i type="logical" name="LTETE"> F  </i>
   <i type="logical" name="LTRIPLET"> F  </i>
   <i type="logical" name="LFXCEPS"> F  </i>
   <i type="logical" name="LFXHEG"> F  </i>
   <i type="int" name="NATURALO">     2</i>
   <i type="logical" name="L2ORDER"> F  </i>
   <i type="logical" name="LMP2LT"> F  </i>
   <i type="logical" name="LUSEW"> F  </i>
   <i name="ENCUTGW">     -2.00000000</i>
   <i name="ENCUTGWSOFT">     -2.00000000</i>
   <i name="ENCUTLF">     -1.00000000</i>
   <i type="int" name="LMAXMP2">    -1</i>
   <i name="SCISSOR">      0.00000000</i>
   <i type="int" name="NOMEGA">     0</i>
   <i type="int" name="NOMEGAR">     0</i>
   <i type="int" name="NBANDSGW">    -1</i>
   <i type="int" name="NBANDSO">    -1</i>
   <i type="int" name="NBANDSV">    -1</i>
   <i type="int" name="NELM">   200</i>
   <i type="int" name="NELMHF">     1</i>
   <i type="int" name="DIM">     3</i>
   <i type="int" name="ANTIRES">     0</i>
   <i name="OMEGAMAX">    -30.00000000</i>
   <i name="OMEGAMIN">    -30.00000000</i>
   <i name="OMEGATL">   -200.00000000</i>
   <i type="int" name="OMEGAGRID">   140</i>
   <i name="CSHIFT">     -0.10000000</i>
   <i type="logical" name="SELFENERGY"> F  </i>
   <i type="logical" name="LSPECTRAL"> F  </i>
   <i type="logical" name="LSPECTRALGW"> F  </i>
   <i type="logical" name="LSINGLES"> F  </i>
   <i type="logical" name="LFERMIGW"> F  </i>
   <i type="logical" name="ODDONLYGW"> F  </i>
   <i type="logical" name="EVENONLYGW"> F  </i>
   <i type="int" name="NKREDLFX">     1</i>
   <i type="int" name="NKREDLFY">     1</i>
   <i type="int" name="NKREDLFZ">     1</i>
   <i type="int" name="MAXMEM">  2800</i>
   <i type="int" name="TELESCOPE">     0</i>
   <i type="int" name="TAUPAR">     1</i>
   <i type="int" name="OMEGAPAR">    -1</i>
   <i name="LAMBDA">      1.00000000</i>
  </separator>
  <separator name="External order field" >
   <i name="OFIELD_KAPPA">      0.00000000</i>
   <v name="OFIELD_K">      0.00000000      0.00000000      0.00000000</v>
   <i name="OFIELD_Q6_NEAR">      0.00000000</i>
   <i name="OFIELD_Q6_FAR">      0.00000000</i>
   <i name="OFIELD_A">      0.00000000</i>
  </separator>
 </parameters>
 <atominfo>
  <atoms>      72 </atoms>
  <types>       2 </types>
  <array name="atoms" >
   <dimension dim="1">ion</dimension>
   <field type="string">element</field>
   <field type="int">atomtype</field>
   <set>
    <rc><c>B </c><c>   1</c></rc>
    <rc><c>B </c><c>   1</c></rc>
    <rc><c>B </c><c>   1</c></rc>
    <rc><c>B </c><c>   1</c></rc>
    <rc><c>B </c><c>   1</c></rc>
    <rc><c>B </c><c>   1</c></rc>
    <rc><c>B </c><c>   1</c></rc>
    <rc><c>B </c><c>   1</c></rc>
    <rc><c>B </c><c>   1</c></rc>
    <rc><c>B </c><c>   1</c></rc>
    <rc><c>B </c><c>   1</c></rc>
    <rc><c>B </c><c>   1</c></rc>
    <rc><c>B </c><c>   1</c></rc>
    <rc><c>B </c><c>   1</c></rc>
    <rc><c>B </c><c>   1</c></rc>
    <rc><c>B </c><c>   1</c></rc>
    <rc><c>B </c><c>   1</c></rc>
    <rc><c>B </c><c>   1</c></rc>
    <rc><c>C </c><c>   2</c></rc>
    <rc><c>C </c><c>   2</c></rc>
    <rc><c>C </c><c>   2</c></rc>
    <rc><c>C </c><c>   2</c></rc>
    <rc><c>C </c><c>   2</c></rc>
    <rc><c>C </c><c>   2</c></rc>
    <rc><c>C </c><c>   2</c></rc>
    <rc><c>C </c><c>   2</c></rc>
    <rc><c>C </c><c>   2</c></rc>
    <rc><c>C </c><c>   2</c></rc>
    <rc><c>C </c><c>   2</c></rc>
    <rc><c>C </c><c>   2</c></rc>
    <rc><c>C </c><c>   2</c></rc>
    <rc><c>C </c><c>   2</c></rc>
    <rc><c>C </c><c>   2</c></rc>
    <rc><c>C </c><c>   2</c></rc>
    <rc><c>C </c><c>   2</c></rc>
    <rc><c>C </c><c>   2</c></rc>
    <rc><c>C </c><c>   2</c></rc>
    <rc><c>C </c><c>   2</c></rc>
    <rc><c>C </c><c>   2</c></rc>
    <rc><c>C </c><c>   2</c></rc>
    <rc><c>C </c><c>   2</c></rc>
    <rc><c>C </c><c>   2</c></rc>
    <rc><c>C </c><c>   2</c></rc>
    <rc><c>C </c><c>   2</c></rc>
    <rc><c>C </c><c>   2</c></rc>
    <rc><c>C </c><c>   2</c></rc>
    <rc><c>C </c><c>   2</c></rc>
    <rc><c>C </c><c>   2</c></rc>
    <rc><c>C </c><c>   2</c></rc>
    <rc><c>C </c><c>   2</c></rc>
    <rc><c>C </c><c>   2</c></rc>
    <rc><c>C </c><c>   2</c></rc>
    <rc><c>C </c><c>   2</c></rc>
    <rc><c>C </c><c>   2</c></rc>
    <rc><c>C </c><c>   2</c></rc>
    <rc><c>C </c><c>   2</c></rc>
    <rc><c>C </c><c>   2</c></rc>
    <rc><c>C </c><c>   2</c></rc>
    <rc><c>C </c><c>   2</c></rc>
    <rc><c>C </c><c>   2</c></rc>
    <rc><c>C </c><c>   2</c></rc>
    <rc><c>C </c><c>   2</c></rc>
    <rc><c>C </c><c>   2</c></rc>
    <rc><c>C </c><c>   2</c></rc>
    <rc><c>C </c><c>   2</c></rc>
    <rc><c>C </c><c>   2</c></rc>
    <rc><c>C </c><c>   2</c></rc>
    <rc><c>C </c><c>   2</c></rc>
    <rc><c>C </c><c>   2</c></rc>
    <rc><c>C </c><c>   2</c></rc>
    <rc><c>C </c><c>   2</c></rc>
    <rc><c>C </c><c>   2</c></rc>
   </set>
  </array>
  <array name="atomtypes" >
   <dimension dim="1">type</dimension>
   <field type="int">atomspertype</field>
   <field type="string">element</field>
   <field>mass</field>
   <field>valence</field>
   <field type="string">pseudopotential</field>
   <set>
    <rc><c>  18</c><c>B </c><c>     10.81100000</c><c>      3.00000000</c><c>  PAW_PBE B 06Sep2000                   </c></rc>
    <rc><c>  54</c><c>C </c><c>     12.01100000</c><c>      4.00000000</c><c>  PAW_PBE C 08Apr2002                   </c></rc>
   </set>
  </array>
 </atominfo>
 <structure name="initialpos" >
  <crystal>
   <varray name="basis" >
    <v>      13.41900000       7.74600000       0.00000000 </v>
    <v>     -13.41900000       7.74600000       0.00000000 </v>
    <v>       0.00000000       0.00000000      15.00000000 </v>
   </varray>
   <i name="volume">   3118.30722000 </i>
   <varray name="rec_basis" >
    <v>       0.03726060       0.06454944       0.00000000 </v>
    <v>      -0.03726060       0.06454944       0.00000000 </v>
    <v>       0.00000000       0.00000000       0.06666667 </v>
   </varray>
  </crystal>
  <varray name="positions" >
   <v>       0.11111100       0.22222200       0.25000000 </v>
   <v>       0.44444433       0.22222200       0.25000000 </v>
   <v>       0.77777767       0.22222200       0.25000000 </v>
   <v>       0.11111100       0.55555533       0.25000000 </v>
   <v>       0.44444433       0.55555533       0.25000000 </v>
   <v>       0.77777767       0.55555533       0.25000000 </v>
   <v>       0.11111100       0.88888867       0.25000000 </v>
   <v>       0.44444433       0.88888867       0.25000000 </v>
   <v>       0.77777767       0.88888867       0.25000000 </v>
   <v>       0.22222200       0.11111100       0.25000000 </v>
   <v>       0.55555533       0.11111100       0.25000000 </v>
   <v>       0.88888867       0.11111100       0.25000000 </v>
   <v>       0.22222200       0.44444433       0.25000000 </v>
   <v>       0.55555533       0.44444433       0.25000000 </v>
   <v>       0.88888867       0.44444433       0.25000000 </v>
   <v>       0.22222200       0.77777767       0.25000000 </v>
   <v>       0.55555533       0.77777767       0.25000000 </v>
   <v>       0.88888867       0.77777767       0.25000000 </v>
   <v>       0.05555533       0.11111100       0.25000000 </v>
   <v>       0.38888867       0.11111100       0.25000000 </v>
   <v>       0.72222200       0.11111100       0.25000000 </v>
   <v>       0.05555533       0.44444433       0.25000000 </v>
   <v>       0.38888867       0.44444433       0.25000000 </v>
   <v>       0.72222200       0.44444433       0.25000000 </v>
   <v>       0.05555533       0.77777767       0.25000000 </v>
   <v>       0.38888867       0.77777767       0.25000000 </v>
   <v>       0.72222200       0.77777767       0.25000000 </v>
   <v>       0.11111100       0.05555533       0.25000000 </v>
   <v>       0.44444433       0.05555533       0.25000000 </v>
   <v>       0.77777767       0.05555533       0.25000000 </v>
   <v>       0.11111100       0.38888867       0.25000000 </v>
   <v>       0.44444433       0.38888867       0.25000000 </v>
   <v>       0.77777767       0.38888867       0.25000000 </v>
   <v>       0.11111100       0.72222200       0.25000000 </v>
   <v>       0.44444433       0.72222200       0.25000000 </v>
   <v>       0.77777767       0.72222200       0.25000000 </v>
   <v>       0.05555533       0.27777767       0.25000000 </v>
   <v>       0.38888867       0.27777767       0.25000000 </v>
   <v>       0.72222200       0.27777767       0.25000000 </v>
   <v>       0.05555533       0.61111100       0.25000000 </v>
   <v>       0.38888867       0.61111100       0.25000000 </v>
   <v>       0.72222200       0.61111100       0.25000000 </v>
   <v>       0.05555533       0.94444433       0.25000000 </v>
   <v>       0.38888867       0.94444433       0.25000000 </v>
   <v>       0.72222200       0.94444433       0.25000000 </v>
   <v>       0.27777767       0.05555533       0.25000000 </v>
   <v>       0.61111100       0.05555533       0.25000000 </v>
   <v>       0.94444433       0.05555533       0.25000000 </v>
   <v>       0.27777767       0.38888867       0.25000000 </v>
   <v>       0.61111100       0.38888867       0.25000000 </v>
   <v>       0.94444433       0.38888867       0.25000000 </v>
   <v>       0.27777767       0.72222200       0.25000000 </v>
   <v>       0.61111100       0.72222200       0.25000000 </v>
   <v>       0.94444433       0.72222200       0.25000000 </v>
   <v>       0.22222200       0.27777767       0.25000000 </v>
   <v>       0.55555533       0.27777767       0.25000000 </v>
   <v>       0.88888867       0.27777767       0.25000000 </v>
   <v>       0.22222200       0.61111100       0.25000000 </v>
   <v>       0.55555533       0.61111100       0.25000000 </v>
   <v>       0.88888867       0.61111100       0.25000000 </v>
   <v>       0.22222200       0.94444433       0.25000000 </v>
   <v>       0.55555533       0.94444433       0.25000000 </v>
   <v>       0.88888867       0.94444433       0.25000000 </v>
   <v>       0.27777767       0.22222200       0.25000000 </v>
   <v>       0.61111100       0.22222200       0.25000000 </v>
   <v>       0.94444433       0.22222200       0.25000000 </v>
   <v>       0.27777767       0.55555533       0.25000000 </v>
   <v>       0.61111100       0.55555533       0.25000000 </v>
   <v>       0.94444433       0.55555533       0.25000000 </v>
   <v>       0.27777767       0.88888867       0.25000000 </v>
   <v>       0.61111100       0.88888867       0.25000000 </v>
   <v>       0.94444433       0.88888867       0.25000000 </v>
  </varray>
 </structure>
 <calculation>
  <scstep>
   <time name="dav">  123.77  123.81</time>
   <time name="total">  124.62  124.67</time>
   <energy>
    <i name="alphaZ">    131.76150006 </i>
    <i name="ewald">  23338.49153585 </i>
    <i name="hartreedc"> -30188.82465703 </i>
    <i name="XCdc">    818.22858527 </i>
    <i name="pawpsdc">   6643.18808362 </i>
    <i name="pawaedc">  -6658.54023824 </i>
    <i name="eentropy">     -0.13548683 </i>
    <i name="bandstr">  -1162.85077653 </i>
    <i name="atom">   9226.83509577 </i>
    <i name="e_fr_energy">   2148.15364194 </i>
    <i name="e_wo_entrp">   2148.28912877 </i>
    <i name="e_0_energy">   2148.22138536 </i>
   </energy>
  </scstep>
  <scstep>
   <time name="dav">  156.92  156.93</time>
   <time name="total">  156.92  156.93</time>
   <energy>
    <i name="e_fr_energy">   -229.16377517 </i>
    <i name="e_wo_entrp">   -229.11833357 </i>
    <i name="e_0_energy">   -229.14105437 </i>
   </energy>
  </scstep>
  <scstep>
   <time name="dav">  133.93  133.94</time>
   <time name="total">  133.93  133.94</time>
   <energy>
    <i name="e_fr_energy">   -632.87639831 </i>
    <i name="e_wo_entrp">   -632.87639831 </i>
    <i name="e_0_energy">   -632.87639831 </i>
   </energy>
  </scstep>
  <scstep>
   <time name="dav">  139.41  139.43</time>
   <time name="total">  139.41  139.43</time>
   <energy>
    <i name="e_fr_energy">   -649.52831631 </i>
    <i name="e_wo_entrp">   -649.52831630 </i>
    <i name="e_0_energy">   -649.52831630 </i>
   </energy>
  </scstep>
  <scstep>
   <time name="dav">  149.87  149.88</time>
   <time name="total">  153.48  153.49</time>
   <energy>
    <i name="e_fr_energy">   -650.10219734 </i>
    <i name="e_wo_entrp">   -650.10219733 </i>
    <i name="e_0_energy">   -650.10219734 </i>
   </energy>
  </scstep>
  <scstep>
   <time name="dav">  127.50  127.51</time>
   <time name="total">  131.92  131.93</time>
   <energy>
    <i name="e_fr_energy">   -612.94823182 </i>
    <i name="e_wo_entrp">   -612.94823169 </i>
    <i name="e_0_energy">   -612.94823175 </i>
   </energy>
  </scstep>
  <scstep>
   <time name="dav">  126.27  126.28</time>
   <time name="total">  130.72  130.73</time>
   <energy>
    <i name="e_fr_energy">   -597.16216432 </i>
    <i name="e_wo_entrp">   -597.16156154 </i>
    <i name="e_0_energy">   -597.16186293 </i>
   </energy>
  </scstep>
  <scstep>
   <time name="dav">  130.39  130.40</time>
   <time name="total">  134.84  134.85</time>
   <energy>
    <i name="e_fr_energy">   -596.84651797 </i>
    <i name="e_wo_entrp">   -596.84602218 </i>
    <i name="e_0_energy">   -596.84627007 </i>
   </energy>
  </scstep>
  <scstep>
   <time name="dav">  132.50  132.51</time>
   <time name="total">  136.99  137.00</time>
   <energy>
    <i name="e_fr_energy">   -596.75379795 </i>
    <i name="e_wo_entrp">   -596.75290669 </i>
    <i name="e_0_energy">   -596.75335232 </i>
   </energy>
  </scstep>
  <scstep>
   <time name="dav">  123.20  123.21</time>
   <time name="total">  127.68  127.69</time>
   <energy>
    <i name="e_fr_energy">   -596.68449425 </i>
    <i name="e_wo_entrp">   -596.68342647 </i>
    <i name="e_0_energy">   -596.68396036 </i>
   </energy>
  </scstep>
  <scstep>
   <time name="dav">  121.50  121.51</time>
   <time name="total">  125.98  125.99</time>
   <energy>
    <i name="e_fr_energy">   -596.66578506 </i>
    <i name="e_wo_entrp">   -596.66407411 </i>
    <i name="e_0_energy">   -596.66492959 </i>
   </energy>
  </scstep>
  <scstep>
   <time name="dav">  119.00  119.00</time>
   <time name="total">  123.46  123.47</time>
   <energy>
    <i name="e_fr_energy">   -596.66098601 </i>
    <i name="e_wo_entrp">   -596.65925016 </i>
    <i name="e_0_energy">   -596.66011809 </i>
   </energy>
  </scstep>
  <scstep>
   <time name="dav">  122.33  122.34</time>
   <time name="total">  126.79  126.80</time>
   <energy>
    <i name="e_fr_energy">   -596.67695820 </i>
    <i name="e_wo_entrp">   -596.67536919 </i>
    <i name="e_0_energy">   -596.67616369 </i>
   </energy>
  </scstep>
  <scstep>
   <time name="dav">  121.91  121.92</time>
   <time name="total">  126.32  126.33</time>
   <energy>
    <i name="e_fr_energy">   -596.69987339 </i>
    <i name="e_wo_entrp">   -596.69826559 </i>
    <i name="e_0_energy">   -596.69906949 </i>
   </energy>
  </scstep>
  <scstep>
   <time name="dav">  127.30  127.31</time>
   <time name="total">  131.70  131.71</time>
   <energy>
    <i name="e_fr_energy">   -596.70750704 </i>
    <i name="e_wo_entrp">   -596.70588179 </i>
    <i name="e_0_energy">   -596.70669441 </i>
   </energy>
  </scstep>
  <scstep>
   <time name="dav">  118.98  118.99</time>
   <time name="total">  123.41  123.42</time>
   <energy>
    <i name="e_fr_energy">   -596.71066788 </i>
    <i name="e_wo_entrp">   -596.70905268 </i>
    <i name="e_0_energy">   -596.70986028 </i>
   </energy>
  </scstep>
  <scstep>
   <time name="dav">  116.11  116.12</time>
   <time name="total">  120.52  120.53</time>
   <energy>
    <i name="e_fr_energy">   -596.71125665 </i>
    <i name="e_wo_entrp">   -596.70963544 </i>
    <i name="e_0_energy">   -596.71044605 </i>
   </energy>
  </scstep>
  <scstep>
   <time name="dav">  105.76  105.76</time>
   <time name="total">  110.20  110.21</time>
   <energy>
    <i name="e_fr_energy">   -596.71140218 </i>
    <i name="e_wo_entrp">   -596.70978218 </i>
    <i name="e_0_energy">   -596.71059218 </i>
   </energy>
  </scstep>
  <scstep>
   <time name="dav">   95.37   95.38</time>
   <time name="total">   99.80   99.81</time>
   <energy>
    <i name="e_fr_energy">   -596.71141479 </i>
    <i name="e_wo_entrp">   -596.70979530 </i>
    <i name="e_0_energy">   -596.71060504 </i>
   </energy>
  </scstep>
  <scstep>
   <time name="dav">   85.30   85.30</time>
   <time name="total">   89.75   89.76</time>
   <energy>
    <i name="e_fr_energy">   -596.71142274 </i>
    <i name="e_wo_entrp">   -596.70980304 </i>
    <i name="e_0_energy">   -596.71061289 </i>
   </energy>
  </scstep>
  <scstep>
   <time name="dav">   87.42   87.43</time>
   <time name="total">   91.89   91.90</time>
   <energy>
    <i name="e_fr_energy">   -596.71142433 </i>
    <i name="e_wo_entrp">   -596.70980478 </i>
    <i name="e_0_energy">   -596.71061456 </i>
   </energy>
  </scstep>
  <scstep>
   <time name="dav">   91.13   91.13</time>
   <time name="total">   91.94   91.95</time>
   <energy>
    <i name="alphaZ">    131.76150006 </i>
    <i name="ewald">  23338.49153585 </i>
    <i name="hartreedc"> -31383.97494546 </i>
    <i name="XCdc">    860.78096319 </i>
    <i name="pawpsdc">  25850.83826893 </i>
    <i name="pawaedc"> -25873.56220345 </i>
    <i name="eentropy">     -0.00161947 </i>
    <i name="bandstr">  -2747.88001992 </i>
    <i name="atom">   9226.83509577 </i>
    <i name="e_fr_energy">   -596.71142449 </i>
    <i name="e_wo_entrp">   -596.70980503 </i>
    <i name="e_0_energy">   -596.71061476 </i>
   </energy>
  </scstep>
  <structure>
   <crystal>
    <varray name="basis" >
     <v>      13.41900000       7.74600000       0.00000000 </v>
     <v>     -13.41900000       7.74600000       0.00000000 </v>
     <v>       0.00000000       0.00000000      15.00000000 </v>
    </varray>
    <i name="volume">   3118.30722000 </i>
    <varray name="rec_basis" >
     <v>       0.03726060       0.06454944       0.00000000 </v>
     <v>      -0.03726060       0.06454944       0.00000000 </v>
     <v>       0.00000000       0.00000000       0.06666667 </v>
    </varray>
   </crystal>
   <varray name="positions" >
    <v>       0.11111100       0.22222200       0.25000000 </v>
    <v>       0.44444433       0.22222200       0.25000000 </v>
    <v>       0.77777767       0.22222200       0.25000000 </v>
    <v>       0.11111100       0.55555533       0.25000000 </v>
    <v>       0.44444433       0.55555533       0.25000000 </v>
    <v>       0.77777767       0.55555533       0.25000000 </v>
    <v>       0.11111100       0.88888867       0.25000000 </v>
    <v>       0.44444433       0.88888867       0.25000000 </v>
    <v>       0.77777767       0.88888867       0.25000000 </v>
    <v>       0.22222200       0.11111100       0.25000000 </v>
    <v>       0.55555533       0.11111100       0.25000000 </v>
    <v>       0.88888867       0.11111100       0.25000000 </v>
    <v>       0.22222200       0.44444433       0.25000000 </v>
    <v>       0.55555533       0.44444433       0.25000000 </v>
    <v>       0.88888867       0.44444433       0.25000000 </v>
    <v>       0.22222200       0.77777767       0.25000000 </v>
    <v>       0.55555533       0.77777767       0.25000000 </v>
    <v>       0.88888867       0.77777767       0.25000000 </v>
    <v>       0.05555533       0.11111100       0.25000000 </v>
    <v>       0.38888867       0.11111100       0.25000000 </v>
    <v>       0.72222200       0.11111100       0.25000000 </v>
    <v>       0.05555533       0.44444433       0.25000000 </v>
    <v>       0.38888867       0.44444433       0.25000000 </v>
    <v>       0.72222200       0.44444433       0.25000000 </v>
    <v>       0.05555533       0.77777767       0.25000000 </v>
    <v>       0.38888867       0.77777767       0.25000000 </v>
    <v>       0.72222200       0.77777767       0.25000000 </v>
    <v>       0.11111100       0.05555533       0.25000000 </v>
    <v>       0.44444433       0.05555533       0.25000000 </v>
    <v>       0.77777767       0.05555533       0.25000000 </v>
    <v>       0.11111100       0.38888867       0.25000000 </v>
    <v>       0.44444433       0.38888867       0.25000000 </v>
    <v>       0.77777767       0.38888867       0.25000000 </v>
    <v>       0.11111100       0.72222200       0.25000000 </v>
    <v>       0.44444433       0.72222200       0.25000000 </v>
    <v>       0.77777767       0.72222200       0.25000000 </v>
    <v>       0.05555533       0.27777767       0.25000000 </v>
    <v>       0.38888867       0.27777767       0.25000000 </v>
    <v>       0.72222200       0.27777767       0.25000000 </v>
    <v>       0.05555533       0.61111100       0.25000000 </v>
    <v>       0.38888867       0.61111100       0.25000000 </v>
    <v>       0.72222200       0.61111100       0.25000000 </v>
    <v>       0.05555533       0.94444433       0.25000000 </v>
    <v>       0.38888867       0.94444433       0.25000000 </v>
    <v>       0.72222200       0.94444433       0.25000000 </v>
    <v>       0.27777767       0.05555533       0.25000000 </v>
    <v>       0.61111100       0.05555533       0.25000000 </v>
    <v>       0.94444433       0.05555533       0.25000000 </v>
    <v>       0.27777767       0.38888867       0.25000000 </v>
    <v>       0.61111100       0.38888867       0.25000000 </v>
    <v>       0.94444433       0.38888867       0.25000000 </v>
    <v>       0.27777767       0.72222200       0.25000000 </v>
    <v>       0.61111100       0.72222200       0.25000000 </v>
    <v>       0.94444433       0.72222200       0.25000000 </v>
    <v>       0.22222200       0.27777767       0.25000000 </v>
    <v>       0.55555533       0.27777767       0.25000000 </v>
    <v>       0.88888867       0.27777767       0.25000000 </v>
    <v>       0.22222200       0.61111100       0.25000000 </v>
    <v>       0.55555533       0.61111100       0.25000000 </v>
    <v>       0.88888867       0.61111100       0.25000000 </v>
    <v>       0.22222200       0.94444433       0.25000000 </v>
    <v>       0.55555533       0.94444433       0.25000000 </v>
    <v>       0.88888867       0.94444433       0.25000000 </v>
    <v>       0.27777767       0.22222200       0.25000000 </v>
    <v>       0.61111100       0.22222200       0.25000000 </v>
    <v>       0.94444433       0.22222200       0.25000000 </v>
    <v>       0.27777767       0.55555533       0.25000000 </v>
    <v>       0.61111100       0.55555533       0.25000000 </v>
    <v>       0.94444433       0.55555533       0.25000000 </v>
    <v>       0.27777767       0.88888867       0.25000000 </v>
    <v>       0.61111100       0.88888867       0.25000000 </v>
    <v>       0.94444433       0.88888867       0.25000000 </v>
   </varray>
  </structure>
  <varray name="forces" >
   <v>      -0.00332018       0.00000000       0.00000000 </v>
   <v>      -0.00332018       0.00000000       0.00000000 </v>
   <v>      -0.00332018       0.00000000       0.00000000 </v>
   <v>      -0.00332018       0.00000000       0.00000000 </v>
   <v>      -0.00332018       0.00000000       0.00000000 </v>
   <v>      -0.00332018       0.00000000       0.00000000 </v>
   <v>      -0.00332018       0.00000000       0.00000000 </v>
   <v>      -0.00332018       0.00000000       0.00000000 </v>
   <v>      -0.00332018       0.00000000       0.00000000 </v>
   <v>       0.00332018       0.00000000       0.00000000 </v>
   <v>       0.00332018       0.00000000       0.00000000 </v>
   <v>       0.00332018       0.00000000       0.00000000 </v>
   <v>       0.00332018       0.00000000       0.00000000 </v>
   <v>       0.00332018       0.00000000       0.00000000 </v>
   <v>       0.00332018       0.00000000       0.00000000 </v>
   <v>       0.00332018       0.00000000       0.00000000 </v>
   <v>       0.00332018       0.00000000       0.00000000 </v>
   <v>       0.00332018       0.00000000       0.00000000 </v>
   <v>       2.15783754      -3.73406873       0.00000000 </v>
   <v>       2.15783754      -3.73406873      -0.00000000 </v>
   <v>       2.15783754      -3.73406873      -0.00000000 </v>
   <v>       2.15783754      -3.73406873      -0.00000000 </v>
   <v>       2.15783754      -3.73406873      -0.00000000 </v>
   <v>       2.15783754      -3.73406873      -0.00000000 </v>
   <v>       2.15783754      -3.73406873      -0.00000000 </v>
   <v>       2.15783754      -3.73406873      -0.00000000 </v>
   <v>       2.15783754      -3.73406873       0.00000000 </v>
   <v>      -2.15783754      -3.73406873       0.00000000 </v>
   <v>      -2.15783754      -3.73406873       0.00000000 </v>
   <v>      -2.15783754      -3.73406873       0.00000000 </v>
   <v>      -2.15783754      -3.73406873       0.00000000 </v>
   <v>      -2.15783754      -3.73406873      -0.00000000 </v>
   <v>      -2.15783754      -3.73406873      -0.00000000 </v>
   <v>      -2.15783754      -3.73406873       0.00000000 </v>
   <v>      -2.15783754      -3.73406873       0.00000000 </v>
   <v>      -2.15783754      -3.73406873       0.00000000 </v>
   <v>      -4.30917284       0.00000000       0.00000000 </v>
   <v>      -4.30917284       0.00000000       0.00000000 </v>
   <v>      -4.30917284       0.00000000       0.00000000 </v>
   <v>      -4.30917284       0.00000000       0.00000000 </v>
   <v>      -4.30917284       0.00000000       0.00000000 </v>
   <v>      -4.30917284       0.00000000       0.00000000 </v>
   <v>      -4.30917284       0.00000000       0.00000000 </v>
   <v>      -4.30917284       0.00000000       0.00000000 </v>
   <v>      -4.30917284       0.00000000       0.00000000 </v>
   <v>       4.30917284       0.00000000       0.00000000 </v>
   <v>       4.30917284       0.00000000       0.00000000 </v>
   <v>       4.30917284       0.00000000       0.00000000 </v>
   <v>       4.30917284       0.00000000       0.00000000 </v>
   <v>       4.30917284       0.00000000       0.00000000 </v>
   <v>       4.30917284       0.00000000       0.00000000 </v>
   <v>       4.30917284       0.00000000       0.00000000 </v>
   <v>       4.30917284       0.00000000       0.00000000 </v>
   <v>       4.30917284       0.00000000       0.00000000 </v>
   <v>       2.15783754       3.73406873      -0.00000000 </v>
   <v>       2.15783754       3.73406873       0.00000000 </v>
   <v>       2.15783754       3.73406873       0.00000000 </v>
   <v>       2.15783754       3.73406873       0.00000000 </v>
   <v>       2.15783754       3.73406873       0.00000000 </v>
   <v>       2.15783754       3.73406873       0.00000000 </v>
   <v>       2.15783754       3.73406873      -0.00000000 </v>
   <v>       2.15783754       3.73406873       0.00000000 </v>
   <v>       2.15783754       3.73406873       0.00000000 </v>
   <v>      -2.15783754       3.73406873      -0.00000000 </v>
   <v>      -2.15783754       3.73406873      -0.00000000 </v>
   <v>      -2.15783754       3.73406873       0.00000000 </v>
   <v>      -2.15783754       3.73406873       0.00000000 </v>
   <v>      -2.15783754       3.73406873       0.00000000 </v>
   <v>      -2.15783754       3.73406873       0.00000000 </v>
   <v>      -2.15783754       3.73406873      -0.00000000 </v>
   <v>      -2.15783754       3.73406873       0.00000000 </v>
   <v>      -2.15783754       3.73406873       0.00000000 </v>
  </varray>
  <varray name="stress" >
   <v>      -3.08836636       0.00000000       0.00000000 </v>
   <v>       0.00000000      -2.78416694       0.00000000 </v>
   <v>       0.00000000       0.00000000      -0.87655681 </v>
  </varray>
  <energy>
   <i name="e_fr_energy">   -596.71142449 </i>
   <i name="e_wo_entrp">   -596.71061476 </i>
   <i name="e_0_energy">     -0.00161947 </i>
  </energy>
  <kpoints>
   <generation param="Gamma">
    <v type="int" name="divisions">       4        4        1 </v>
    <v name="usershift">      0.00000000       0.00000000       0.00000000 </v>
    <v name="genvec1">      0.25000000       0.00000000       0.00000000 </v>
    <v name="genvec2">      0.00000000       0.25000000       0.00000000 </v>
    <v name="genvec3">      0.00000000       0.00000000       1.00000000 </v>
    <v name="shift">      0.00000000       0.00000000       0.00000000 </v>
   </generation>
   <varray name="kpointlist" >
    <v>       0.00000000       0.00000000       0.00000000 </v>
    <v>       0.25000000       0.00000000       0.00000000 </v>
    <v>       0.50000000       0.00000000       0.00000000 </v>
    <v>       0.25000000       0.25000000       0.00000000 </v>
    <v>       0.50000000       0.25000000       0.00000000 </v>
    <v>      -0.25000000       0.25000000       0.00000000 </v>
    <v>       0.50000000       0.50000000       0.00000000 </v>
   </varray>
   <varray name="weights" >
    <v>       0.06250000 </v>
    <v>       0.25000000 </v>
    <v>       0.12500000 </v>
    <v>       0.12500000 </v>
    <v>       0.25000000 </v>
    <v>       0.12500000 </v>
    <v>       0.06250000 </v>
   </varray>
  </kpoints>
  <scstep>
   <time name="total">  265.79  265.82</time>
   <energy>
    <i name="e_fr_energy">   -180.52989575 </i>
    <i name="e_wo_entrp">   -180.52993198 </i>
    <i name="e_0_energy">   -180.52991386 </i>
   </energy>
  </scstep>
  <scstep>
   <time name="total">  165.77  165.78</time>
   <energy>
    <i name="e_fr_energy">   -130.53429976 </i>
    <i name="e_wo_entrp">   -130.53417622 </i>
    <i name="e_0_energy">   -130.53423799 </i>
   </energy>
  </scstep>
  <scstep>
   <time name="total">  157.00  157.01</time>
   <energy>
    <i name="e_fr_energy">   -124.99033213 </i>
    <i name="e_wo_entrp">   -124.99024608 </i>
    <i name="e_0_energy">   -124.99028910 </i>
   </energy>
  </scstep>
  <scstep>
   <time name="total">  159.01  159.02</time>
   <energy>
    <i name="e_fr_energy">   -124.23652856 </i>
    <i name="e_wo_entrp">   -124.23644265 </i>
    <i name="e_0_energy">   -124.23648560 </i>
   </energy>
  </scstep>
  <scstep>
   <time name="total">  157.49  157.50</time>
   <energy>
    <i name="e_fr_energy">   -123.41087714 </i>
    <i name="e_wo_entrp">   -123.41079131 </i>
    <i name="e_0_energy">   -123.41083422 </i>
   </energy>
  </scstep>
  <scstep>
   <time name="total">  176.03  176.04</time>
   <energy>
    <i name="e_fr_energy">   -123.39439691 </i>
    <i name="e_wo_entrp">   -123.39431196 </i>
    <i name="e_0_energy">   -123.39435443 </i>
   </energy>
  </scstep>
  <scstep>
   <time name="total">  179.32  179.33</time>
   <energy>
    <i name="e_fr_energy">   -123.40875967 </i>
    <i name="e_wo_entrp">   -123.40867458 </i>
    <i name="e_0_energy">   -123.40871712 </i>
   </energy>
  </scstep>
  <scstep>
   <time name="total">  203.61  203.62</time>
   <energy>
    <i name="e_fr_energy">   -123.40609906 </i>
    <i name="e_wo_entrp">   -123.40601391 </i>
    <i name="e_0_energy">   -123.40605649 </i>
   </energy>
  </scstep>
  <scstep>
   <time name="total">  200.92  200.94</time>
   <energy>
    <i name="e_fr_energy">   -123.40767589 </i>
    <i name="e_wo_entrp">   -123.40759079 </i>
    <i name="e_0_energy">   -123.40763334 </i>
   </energy>
  </scstep>
  <scstep>
   <time name="total">  212.13  212.15</time>
   <energy>
    <i name="e_fr_energy">   -123.40594509 </i>
    <i name="e_wo_entrp">   -123.40585998 </i>
    <i name="e_0_energy">   -123.40590254 </i>
   </energy>
  </scstep>
  <scstep>
   <time name="total">  207.42  207.44</time>
   <energy>
    <i name="e_fr_energy">   -123.40596426 </i>
    <i name="e_wo_entrp">   -123.40587915 </i>
    <i name="e_0_energy">   -123.40592171 </i>
   </energy>
  </scstep>
  <scstep>
   <time name="total">  216.54  216.55</time>
   <energy>
    <i name="e_fr_energy">   -123.40541122 </i>
    <i name="e_wo_entrp">   -123.40532612 </i>
    <i name="e_0_energy">   -123.40536867 </i>
   </energy>
  </scstep>
  <kpoints>
   <generation param="Gamma">
    <v type="int" name="divisions">       4        4        1 </v>
    <v name="usershift">      0.00000000       0.00000000       0.00000000 </v>
    <v name="genvec1">      0.25000000       0.00000000       0.00000000 </v>
    <v name="genvec2">      0.00000000       0.25000000       0.00000000 </v>
    <v name="genvec3">      0.00000000       0.00000000       1.00000000 </v>
    <v name="shift">      0.00000000       0.00000000       0.00000000 </v>
   </generation>
   <varray name="kpointlist" >
    <v>       0.00000000       0.00000000       0.00000000 </v>
    <v>       0.25000000       0.00000000       0.00000000 </v>
    <v>       0.50000000       0.00000000       0.00000000 </v>
    <v>       0.00000000       0.25000000       0.00000000 </v>
    <v>       0.25000000       0.25000000       0.00000000 </v>
    <v>       0.50000000       0.25000000       0.00000000 </v>
    <v>      -0.25000000       0.25000000       0.00000000 </v>
    <v>       0.00000000       0.50000000       0.00000000 </v>
    <v>       0.25000000       0.50000000       0.00000000 </v>
    <v>       0.50000000       0.50000000       0.00000000 </v>
   </varray>
   <varray name="weights" >
    <v>       0.06250000 </v>
    <v>       0.12500000 </v>
    <v>       0.06250000 </v>
    <v>       0.12500000 </v>
    <v>       0.12500000 </v>
    <v>       0.12500000 </v>
    <v>       0.12500000 </v>
    <v>       0.06250000 </v>
    <v>       0.12500000 </v>
    <v>       0.06250000 </v>
   </varray>
  </kpoints>
  <scstep>
   <time name="total">  377.07  377.10</time>
   <energy>
    <i name="e_fr_energy">   -180.98074248 </i>
    <i name="e_wo_entrp">   -180.98074242 </i>
    <i name="e_0_energy">   -180.98074245 </i>
   </energy>
  </scstep>
  <scstep>
   <time name="total">  233.96  233.98</time>
   <energy>
    <i name="e_fr_energy">   -130.51265277 </i>
    <i name="e_wo_entrp">   -130.51257183 </i>
    <i name="e_0_energy">   -130.51261230 </i>
   </energy>
  </scstep>
  <scstep>
   <time name="total">  220.35  220.37</time>
   <energy>
    <i name="e_fr_energy">   -125.04638713 </i>
    <i name="e_wo_entrp">   -125.04631366 </i>
    <i name="e_0_energy">   -125.04635040 </i>
   </energy>
  </scstep>
  <scstep>
   <time name="total">  225.02  225.03</time>
   <energy>
    <i name="e_fr_energy">   -124.29979713 </i>
    <i name="e_wo_entrp">   -124.29972542 </i>
    <i name="e_0_energy">   -124.29976128 </i>
   </energy>
  </scstep>
  <scstep>
   <time name="total">  219.68  219.69</time>
   <energy>
    <i name="e_fr_energy">   -123.42843704 </i>
    <i name="e_wo_entrp">   -123.42836736 </i>
    <i name="e_0_energy">   -123.42840220 </i>
   </energy>
  </scstep>
  <scstep>
   <time name="total">  252.23  252.25</time>
   <energy>
    <i name="e_fr_energy">   -123.44216202 </i>
    <i name="e_wo_entrp">   -123.44209234 </i>
    <i name="e_0_energy">   -123.44212718 </i>
   </energy>
  </scstep>
  <scstep>
   <time name="total">  259.84  259.86</time>
   <energy>
    <i name="e_fr_energy">   -123.47109510 </i>
    <i name="e_wo_entrp">   -123.47102529 </i>
    <i name="e_0_energy">   -123.47106020 </i>
   </energy>
  </scstep>
  <scstep>
   <time name="total">  300.99  301.01</time>
   <energy>
    <i name="e_fr_energy">   -123.47498216 </i>
    <i name="e_wo_entrp">   -123.47491236 </i>
    <i name="e_0_energy">   -123.47494726 </i>
   </energy>
  </scstep>
  <scstep>
   <time name="total">  299.99  300.01</time>
   <energy>
    <i name="e_fr_energy">   -123.47544809 </i>
    <i name="e_wo_entrp">   -123.47537828 </i>
    <i name="e_0_energy">   -123.47541319 </i>
   </energy>
  </scstep>
  <scstep>
