   8   8   0   0
  0.2469169E+02  0.5174038E-09  0.5174038E-09  0.8520222E-09  0.5000000E-15
  1.000000000000000E-004
  CAR 
 BC3-optical                             
     50.42861607    -21.82456535 2400     -2.42478191      1.00000000
    -21.825  0.0000E+00  0.0000E+00
    -21.794  0.0000E+00  0.0000E+00
    -21.764  0.0000E+00  0.0000E+00
    -21.734  0.0000E+00  0.0000E+00
    -21.704  0.0000E+00  0.0000E+00
    -21.674  0.0000E+00  0.0000E+00
    -21.644  0.0000E+00  0.0000E+00
    -21.614  0.0000E+00  0.0000E+00
    -21.584  0.0000E+00  0.0000E+00
    -21.554  0.0000E+00  0.0000E+00
    -21.523  0.0000E+00  0.0000E+00
    -21.493  0.0000E+00  0.0000E+00
    -21.463  0.0000E+00  0.0000E+00
    -21.433  0.0000E+00  0.0000E+00
    -21.403  0.0000E+00  0.0000E+00
    -21.373  0.0000E+00  0.0000E+00
    -21.343  0.0000E+00  0.0000E+00
    -21.313  0.0000E+00  0.0000E+00
    -21.282  0.0000E+00  0.0000E+00
    -21.252  0.0000E+00  0.0000E+00
    -21.222  0.0000E+00  0.0000E+00
    -21.192  0.0000E+00  0.0000E+00
    -21.162  0.0000E+00  0.0000E+00
    -21.132  0.0000E+00  0.0000E+00
    -21.102  0.0000E+00  0.0000E+00
    -21.072  0.0000E+00  0.0000E+00
    -21.041  0.0000E+00  0.0000E+00
    -21.011  0.0000E+00  0.0000E+00
    -20.981  0.0000E+00  0.0000E+00
    -20.951  0.0000E+00  0.0000E+00
    -20.921  0.0000E+00  0.0000E+00
    -20.891  0.0000E+00  0.0000E+00
    -20.861  0.0000E+00  0.0000E+00
    -20.831  0.0000E+00  0.0000E+00
    -20.801  0.0000E+00  0.0000E+00
    -20.770  0.0000E+00  0.0000E+00
    -20.740  0.0000E+00  0.0000E+00
    -20.710  0.0000E+00  0.0000E+00
    -20.680  0.0000E+00  0.0000E+00
    -20.650  0.0000E+00  0.0000E+00
    -20.620  0.0000E+00  0.0000E+00
    -20.590  0.0000E+00  0.0000E+00
    -20.560  0.0000E+00  0.0000E+00
    -20.529  0.0000E+00  0.0000E+00
    -20.499  0.0000E+00  0.0000E+00
    -20.469  0.0000E+00  0.0000E+00
    -20.439  0.0000E+00  0.0000E+00
    -20.409  0.0000E+00  0.0000E+00
    -20.379  0.0000E+00  0.0000E+00
    -20.349  0.0000E+00  0.0000E+00
    -20.319  0.0000E+00  0.0000E+00
    -20.289  0.0000E+00  0.0000E+00
    -20.258  0.0000E+00  0.0000E+00
    -20.228  0.0000E+00  0.0000E+00
    -20.198  0.0000E+00  0.0000E+00
    -20.168  0.0000E+00  0.0000E+00
    -20.138  0.0000E+00  0.0000E+00
    -20.108  0.0000E+00  0.0000E+00
    -20.078  0.0000E+00  0.0000E+00
    -20.048  0.0000E+00  0.0000E+00
    -20.017  0.0000E+00  0.0000E+00
    -19.987  0.0000E+00  0.0000E+00
    -19.957  0.0000E+00  0.0000E+00
    -19.927  0.0000E+00  0.0000E+00
    -19.897  0.0000E+00  0.0000E+00
    -19.867  0.0000E+00  0.0000E+00
    -19.837  0.0000E+00  0.0000E+00
    -19.807  0.0000E+00  0.0000E+00
    -19.777  0.0000E+00  0.0000E+00
    -19.746  0.0000E+00  0.0000E+00
    -19.716  0.0000E+00  0.0000E+00
    -19.686  0.0000E+00  0.0000E+00
    -19.656  0.0000E+00  0.0000E+00
    -19.626  0.0000E+00  0.0000E+00
    -19.596  0.0000E+00  0.0000E+00
    -19.566  0.0000E+00  0.0000E+00
    -19.536  0.0000E+00  0.0000E+00
    -19.505  0.0000E+00  0.0000E+00
    -19.475  0.0000E+00  0.0000E+00
    -19.445  0.0000E+00  0.0000E+00
    -19.415  0.0000E+00  0.0000E+00
    -19.385  0.0000E+00  0.0000E+00
    -19.355  0.0000E+00  0.0000E+00
    -19.325  0.0000E+00  0.0000E+00
    -19.295  0.0000E+00  0.0000E+00
    -19.265  0.0000E+00  0.0000E+00
    -19.234  0.0000E+00  0.0000E+00
    -19.204  0.0000E+00  0.0000E+00
    -19.174  0.0000E+00  0.0000E+00
    -19.144  0.0000E+00  0.0000E+00
    -19.114  0.0000E+00  0.0000E+00
    -19.084  0.0000E+00  0.0000E+00
    -19.054  0.0000E+00  0.0000E+00
    -19.024  0.0000E+00  0.0000E+00
    -18.993  0.0000E+00  0.0000E+00
    -18.963  0.0000E+00  0.0000E+00
    -18.933  0.0000E+00  0.0000E+00
    -18.903  0.0000E+00  0.0000E+00
    -18.873  0.0000E+00  0.0000E+00
    -18.843  0.0000E+00  0.0000E+00
    -18.813  0.0000E+00  0.0000E+00
    -18.783  0.0000E+00  0.0000E+00
    -18.753  0.0000E+00  0.0000E+00
    -18.722  0.0000E+00  0.0000E+00
    -18.692  0.0000E+00  0.0000E+00
    -18.662  0.0000E+00  0.0000E+00
    -18.632  0.0000E+00  0.0000E+00
    -18.602  0.0000E+00  0.0000E+00
    -18.572  0.1953E-05  0.5882E-07
    -18.542  0.1953E+00  0.5881E-02
    -18.512  0.1903E+01  0.6319E-01
    -18.481  0.1133E+01  0.9733E-01
    -18.451  0.2486E+01  0.1722E+00
    -18.421  0.2951E+01  0.2611E+00
    -18.391  0.9368E-01  0.2639E+00
    -18.361  0.2069E+01  0.3262E+00
    -18.331  0.3472E+01  0.4308E+00
    -18.301  0.2562E+01  0.5079E+00
    -18.271  0.1983E+00  0.5139E+00
    -18.241  0.1679E+01  0.5645E+00
    -18.210  0.6304E+01  0.7543E+00
    -18.180  0.3341E+00  0.7644E+00
    -18.150  0.2639E+01  0.8439E+00
    -18.120  0.1681E+00  0.8489E+00
    -18.090  0.5453E+01  0.1013E+01
    -18.060  0.5487E+01  0.1178E+01
    -18.030  0.1071E+01  0.1211E+01
    -18.000  0.1817E+01  0.1265E+01
    -17.969  0.1215E+02  0.1631E+01
    -17.939  0.3153E+01  0.1726E+01
    -17.909  0.3785E+01  0.1840E+01
    -17.879  0.4592E+01  0.1979E+01
    -17.849  0.7073E+00  0.2000E+01
    -17.819  0.1877E-03  0.2000E+01
    -17.789  0.0000E+00  0.2000E+01
    -17.759  0.0000E+00  0.2000E+01
    -17.729  0.0000E+00  0.2000E+01
    -17.698  0.0000E+00  0.2000E+01
    -17.668  0.0000E+00  0.2000E+01
    -17.638  0.0000E+00  0.2000E+01
    -17.608  0.0000E+00  0.2000E+01
    -17.578  0.0000E+00  0.2000E+01
    -17.548  0.0000E+00  0.2000E+01
    -17.518  0.0000E+00  0.2000E+01
    -17.488  0.0000E+00  0.2000E+01
    -17.457  0.0000E+00  0.2000E+01
    -17.427  0.0000E+00  0.2000E+01
    -17.397  0.0000E+00  0.2000E+01
    -17.367  0.0000E+00  0.2000E+01
    -17.337  0.0000E+00  0.2000E+01
    -17.307  0.0000E+00  0.2000E+01
    -17.277  0.0000E+00  0.2000E+01
    -17.247  0.0000E+00  0.2000E+01
    -17.217  0.0000E+00  0.2000E+01
    -17.186  0.0000E+00  0.2000E+01
    -17.156  0.0000E+00  0.2000E+01
    -17.126  0.0000E+00  0.2000E+01
    -17.096  0.0000E+00  0.2000E+01
    -17.066  0.0000E+00  0.2000E+01
    -17.036  0.0000E+00  0.2000E+01
    -17.006  0.0000E+00  0.2000E+01
    -16.976  0.0000E+00  0.2000E+01
    -16.945  0.0000E+00  0.2000E+01
    -16.915  0.0000E+00  0.2000E+01
    -16.885  0.0000E+00  0.2000E+01
    -16.855  0.0000E+00  0.2000E+01
    -16.825  0.0000E+00  0.2000E+01
    -16.795  0.0000E+00  0.2000E+01
    -16.765  0.0000E+00  0.2000E+01
    -16.735  0.0000E+00  0.2000E+01
    -16.704  0.0000E+00  0.2000E+01
    -16.674  0.0000E+00  0.2000E+01
    -16.644  0.0000E+00  0.2000E+01
    -16.614  0.0000E+00  0.2000E+01
    -16.584  0.0000E+00  0.2000E+01
    -16.554  0.0000E+00  0.2000E+01
    -16.524  0.0000E+00  0.2000E+01
    -16.494  0.0000E+00  0.2000E+01
    -16.464  0.0000E+00  0.2000E+01
    -16.433  0.0000E+00  0.2000E+01
    -16.403  0.0000E+00  0.2000E+01
    -16.373  0.0000E+00  0.2000E+01
    -16.343  0.0000E+00  0.2000E+01
    -16.313  0.5673E-08  0.2000E+01
    -16.283  0.9154E-01  0.2003E+01
    -16.253  0.1288E+01  0.2042E+01
    -16.223  0.3100E+01  0.2135E+01
    -16.192  0.3101E+01  0.2228E+01
    -16.162  0.3568E+01  0.2336E+01
    -16.132  0.1302E+01  0.2375E+01
    -16.102  0.1447E+01  0.2419E+01
    -16.072  0.7288E+01  0.2638E+01
    -16.042  0.2383E+01  0.2710E+01
    -16.012  0.5454E+01  0.2874E+01
    -15.982  0.2782E+01  0.2958E+01
    -15.952  0.1670E+00  0.2963E+01
    -15.921  0.1687E+01  0.3014E+01
    -15.891  0.1596E+00  0.3019E+01
    -15.861  0.7758E+01  0.3252E+01
    -15.831  0.3873E+00  0.3264E+01
    -15.801  0.2444E-07  0.3264E+01
    -15.771  0.2457E-14  0.3264E+01
    -15.741  0.4370E-03  0.3264E+01
    -15.711  0.4202E+01  0.3390E+01
    -15.680  0.6852E+01  0.3597E+01
    -15.650  0.1340E-01  0.3597E+01
    -15.620  0.4072E-03  0.3597E+01
    -15.590  0.2044E+01  0.3659E+01
    -15.560  0.2941E+01  0.3747E+01
    -15.530  0.5484E+00  0.3764E+01
    -15.500  0.1796E+01  0.3818E+01
    -15.470  0.1947E+01  0.3877E+01
    -15.440  0.2253E+01  0.3944E+01
    -15.409  0.5060E+01  0.4097E+01
    -15.379  0.1107E-01  0.4097E+01
    -15.349  0.1591E-01  0.4098E+01
    -15.319  0.7306E+01  0.4318E+01
    -15.289  0.3746E+01  0.4431E+01
    -15.259  0.1903E-03  0.4431E+01
    -15.229  0.2474E+00  0.4438E+01
    -15.199  0.5257E+01  0.4596E+01
    -15.168  0.1326E+01  0.4636E+01
    -15.138  0.4909E+01  0.4784E+01
    -15.108  0.4455E+01  0.4918E+01
    -15.078  0.4575E+01  0.5056E+01
    -15.048  0.5367E+01  0.5218E+01
    -15.018  0.2367E+01  0.5289E+01
    -14.988  0.2824E+01  0.5374E+01
    -14.958  0.4904E+00  0.5389E+01
    -14.928  0.2046E+01  0.5451E+01
    -14.897  0.6249E+01  0.5639E+01
    -14.867  0.5910E-02  0.5639E+01
    -14.837  0.4851E-08  0.5639E+01
    -14.807  0.1384E+00  0.5643E+01
    -14.777  0.6558E+01  0.5841E+01
    -14.747  0.1605E+01  0.5889E+01
    -14.717  0.4280E-03  0.5889E+01
    -14.687  0.2053E+01  0.5951E+01
    -14.656  0.8421E+00  0.5976E+01
    -14.626  0.7933E+00  0.6000E+01
    -14.596  0.6911E-03  0.6000E+01
    -14.566  0.0000E+00  0.6000E+01
    -14.536  0.0000E+00  0.6000E+01
    -14.506  0.0000E+00  0.6000E+01
    -14.476  0.0000E+00  0.6000E+01
    -14.446  0.0000E+00  0.6000E+01
    -14.416  0.0000E+00  0.6000E+01
    -14.385  0.0000E+00  0.6000E+01
    -14.355  0.0000E+00  0.6000E+01
    -14.325  0.0000E+00  0.6000E+01
    -14.295  0.0000E+00  0.6000E+01
    -14.265  0.0000E+00  0.6000E+01
    -14.235  0.0000E+00  0.6000E+01
    -14.205  0.0000E+00  0.6000E+01
    -14.175  0.0000E+00  0.6000E+01
    -14.144  0.0000E+00  0.6000E+01
    -14.114  0.0000E+00  0.6000E+01
    -14.084  0.0000E+00  0.6000E+01
    -14.054  0.0000E+00  0.6000E+01
    -14.024  0.0000E+00  0.6000E+01
    -13.994  0.0000E+00  0.6000E+01
    -13.964  0.0000E+00  0.6000E+01
    -13.934  0.0000E+00  0.6000E+01
    -13.904  0.0000E+00  0.6000E+01
    -13.873  0.0000E+00  0.6000E+01
    -13.843  0.0000E+00  0.6000E+01
    -13.813  0.0000E+00  0.6000E+01
    -13.783  0.0000E+00  0.6000E+01
    -13.753  0.0000E+00  0.6000E+01
    -13.723  0.0000E+00  0.6000E+01
    -13.693  0.0000E+00  0.6000E+01
    -13.663  0.0000E+00  0.6000E+01
    -13.632  0.0000E+00  0.6000E+01
    -13.602  0.0000E+00  0.6000E+01
    -13.572  0.0000E+00  0.6000E+01
    -13.542  0.0000E+00  0.6000E+01
    -13.512  0.0000E+00  0.6000E+01
    -13.482  0.0000E+00  0.6000E+01
    -13.452  0.0000E+00  0.6000E+01
    -13.422  0.0000E+00  0.6000E+01
    -13.392  0.0000E+00  0.6000E+01
    -13.361  0.0000E+00  0.6000E+01
    -13.331  0.0000E+00  0.6000E+01
    -13.301  0.0000E+00  0.6000E+01
    -13.271  0.0000E+00  0.6000E+01
    -13.241  0.0000E+00  0.6000E+01
    -13.211  0.0000E+00  0.6000E+01
    -13.181  0.0000E+00  0.6000E+01
    -13.151  0.0000E+00  0.6000E+01
    -13.120  0.0000E+00  0.6000E+01
    -13.090  0.0000E+00  0.6000E+01
    -13.060  0.0000E+00  0.6000E+01
    -13.030  0.0000E+00  0.6000E+01
    -13.000  0.0000E+00  0.6000E+01
    -12.970  0.0000E+00  0.6000E+01
    -12.940  0.0000E+00  0.6000E+01
    -12.910  0.0000E+00  0.6000E+01
    -12.880  0.8404E-06  0.6000E+01
    -12.849  0.3823E+00  0.6012E+01
    -12.819  0.1898E+01  0.6069E+01
    -12.789  0.1870E+01  0.6125E+01
    -12.759  0.3405E-03  0.6125E+01
    -12.729  0.1789E+01  0.6179E+01
    -12.699  0.1860E+01  0.6235E+01
    -12.669  0.4648E+01  0.6375E+01
    -12.639  0.3332E+01  0.6475E+01
    -12.608  0.2771E+01  0.6559E+01
    -12.578  0.2200E+01  0.6625E+01
    -12.548  0.2364E+01  0.6696E+01
    -12.518  0.3170E+01  0.6792E+01
    -12.488  0.1310E-03  0.6792E+01
    -12.458  0.9464E+00  0.6820E+01
    -12.428  0.6884E+01  0.7028E+01
    -12.398  0.4703E+00  0.7042E+01
    -12.368  0.1301E+01  0.7081E+01
    -12.337  0.4288E+01  0.7210E+01
    -12.307  0.1138E+02  0.7553E+01
    -12.277  0.6072E+01  0.7736E+01
    -12.247  0.1574E-01  0.7736E+01
    -12.217  0.3104E-01  0.7737E+01
    -12.187  0.2669E+01  0.7817E+01
    -12.157  0.6654E-01  0.7819E+01
    -12.127  0.6220E-09  0.7819E+01
    -12.096  0.2501E-02  0.7820E+01
    -12.066  0.2412E+01  0.7892E+01
    -12.036  0.5377E+00  0.7908E+01
    -12.006  0.2573E+01  0.7986E+01
    -11.976  0.7972E-02  0.7986E+01
    -11.946  0.6185E-01  0.7988E+01
    -11.916  0.2892E+01  0.8075E+01
    -11.886  0.5313E+01  0.8235E+01
    -11.855  0.3373E-01  0.8236E+01
    -11.825  0.1775E+01  0.8290E+01
    -11.795  0.3758E+01  0.8403E+01
    -11.765  0.4103E-03  0.8403E+01
    -11.735  0.2426E-01  0.8404E+01
    -11.705  0.2660E+01  0.8484E+01
    -11.675  0.8240E-01  0.8486E+01
    -11.645  0.1118E-08  0.8486E+01
    -11.615  0.0000E+00  0.8486E+01
    -11.584  0.1815E-06  0.8486E+01
    -11.554  0.4271E+00  0.8499E+01
    -11.524  0.2385E+01  0.8571E+01
    -11.494  0.1780E+01  0.8624E+01
    -11.464  0.2092E-01  0.8625E+01
    -11.434  0.8033E+01  0.8867E+01
    -11.404  0.3052E+01  0.8959E+01
    -11.374  0.2648E+01  0.9039E+01
    -11.343  0.9938E-01  0.9042E+01
    -11.313  0.1889E-08  0.9042E+01
    -11.283  0.4601E-10  0.9042E+01
    -11.253  0.3735E-01  0.9043E+01
    -11.223  0.5689E+01  0.9214E+01
    -11.193  0.2688E+00  0.9222E+01
    -11.163  0.2460E-07  0.9222E+01
    -11.133  0.1244E-02  0.9222E+01
    -11.103  0.2790E+01  0.9306E+01
    -11.072  0.6878E+01  0.9513E+01
    -11.042  0.1398E+01  0.9556E+01
    -11.012  0.2576E+01  0.9633E+01
    -10.982  0.2958E+01  0.9722E+01
    -10.952  0.8324E-04  0.9722E+01
    -10.922  0.2261E-04  0.9722E+01
    -10.892  0.1328E+01  0.9762E+01
    -10.862  0.1439E+01  0.9806E+01
    -10.831  0.5540E+00  0.9822E+01
    -10.801  0.2212E+01  0.9889E+01
    -10.771  0.8714E-03  0.9889E+01
    -10.741  0.2950E-03  0.9889E+01
    -10.711  0.2888E+01  0.9976E+01
    -10.681  0.6377E+01  0.1017E+02
    -10.651  0.1802E+01  0.1022E+02
    -10.621  0.6806E-05  0.1022E+02
    -10.591  0.0000E+00  0.1022E+02
    -10.560  0.1026E-06  0.1022E+02
    -10.530  0.2210E+00  0.1023E+02
    -10.500  0.1162E+01  0.1026E+02
    -10.470  0.7599E-03  0.1026E+02
    -10.440  0.0000E+00  0.1026E+02
    -10.410  0.0000E+00  0.1026E+02
    -10.380  0.1895E-09  0.1026E+02
    -10.350  0.6513E-01  0.1027E+02
    -10.319  0.5341E+01  0.1043E+02
    -10.289  0.1275E+00  0.1043E+02
    -10.259  0.1106E-08  0.1043E+02
    -10.229  0.1382E-14  0.1043E+02
    -10.199  0.2288E-03  0.1043E+02
    -10.169  0.1906E+01  0.1049E+02
    -10.139  0.8609E+00  0.1051E+02
    -10.109  0.2788E-05  0.1051E+02
    -10.079  0.0000E+00  0.1051E+02
    -10.048  0.0000E+00  0.1051E+02
    -10.018  0.0000E+00  0.1051E+02
     -9.988  0.0000E+00  0.1051E+02
     -9.958  0.7103E-10  0.1051E+02
     -9.928  0.9642E-02  0.1051E+02
     -9.898  0.4455E+00  0.1053E+02
     -9.868  0.6029E-02  0.1053E+02
     -9.838  0.2069E-10  0.1053E+02
     -9.807  0.2473E-13  0.1053E+02
     -9.777  0.1198E-02  0.1053E+02
     -9.747  0.4245E+01  0.1066E+02
     -9.717  0.6603E+01  0.1085E+02
     -9.687  0.2177E+00  0.1086E+02
     -9.657  0.4895E-08  0.1086E+02
     -9.627  0.0000E+00  0.1086E+02
     -9.597  0.3264E-10  0.1086E+02
     -9.567  0.2529E-01  0.1086E+02
     -9.536  0.3530E+01  0.1097E+02
     -9.506  0.1342E+00  0.1097E+02
     -9.476  0.5443E-01  0.1097E+02
     -9.446  0.2674E+01  0.1105E+02
     -9.416  0.3859E-01  0.1106E+02
     -9.386  0.1648E+00  0.1106E+02
     -9.356  0.5320E+01  0.1122E+02
     -9.326  0.1145E+01  0.1126E+02
     -9.295  0.1670E+01  0.1131E+02
     -9.265  0.8900E-04  0.1131E+02
     -9.235  0.0000E+00  0.1131E+02
     -9.205  0.1156E-10  0.1131E+02
     -9.175  0.1395E-01  0.1131E+02
     -9.145  0.2628E+01  0.1139E+02
     -9.115  0.4524E+01  0.1152E+02
     -9.085  0.6380E+01  0.1171E+02
     -9.055  0.2898E+00  0.1172E+02
     -9.024  0.2131E+01  0.1179E+02
     -8.994  0.6413E+00  0.1181E+02
     -8.964  0.5246E+01  0.1196E+02
     -8.934  0.5801E+01  0.1214E+02
     -8.904  0.1442E+01  0.1218E+02
     -8.874  0.1340E+01  0.1222E+02
     -8.844  0.2377E-04  0.1222E+02
     -8.814  0.4526E+00  0.1224E+02
     -8.783  0.5070E+01  0.1239E+02
     -8.753  0.1150E-01  0.1239E+02
     -8.723  0.2626E+00  0.1240E+02
     -8.693  0.2500E+01  0.1247E+02
     -8.663  0.1020E+01  0.1250E+02
     -8.633  0.3676E+00  0.1251E+02
     -8.603  0.7148E-06  0.1251E+02
     -8.573  0.0000E+00  0.1251E+02
     -8.543  0.0000E+00  0.1251E+02
     -8.512  0.1795E-04  0.1251E+02
     -8.482  0.1273E+01  0.1255E+02
     -8.452  0.2895E+01  0.1264E+02
     -8.422  0.7090E+01  0.1285E+02
     -8.392  0.5129E+01  0.1301E+02
     -8.362  0.7011E+01  0.1322E+02
     -8.332  0.3260E+01  0.1332E+02
     -8.302  0.6776E+01  0.1352E+02
     -8.271  0.1971E+01  0.1358E+02
     -8.241  0.1948E+01  0.1364E+02
     -8.211  0.2724E-03  0.1364E+02
     -8.181  0.0000E+00  0.1364E+02
     -8.151  0.0000E+00  0.1364E+02
     -8.121  0.6328E-06  0.1364E+02
     -8.091  0.5991E+00  0.1366E+02
     -8.061  0.2167E+01  0.1372E+02
     -8.031  0.8202E-02  0.1372E+02
     -8.000  0.2567E+01  0.1380E+02
     -7.970  0.3452E+00  0.1381E+02
     -7.940  0.8209E+01  0.1406E+02
     -7.910  0.2699E+01  0.1414E+02
     -7.880  0.7677E-02  0.1414E+02
     -7.850  0.1001E+01  0.1417E+02
     -7.820  0.3840E+00  0.1418E+02
     -7.790  0.4374E+01  0.1431E+02
     -7.759  0.1158E+01  0.1435E+02
     -7.729  0.1112E-05  0.1435E+02
     -7.699  0.4141E-02  0.1435E+02
     -7.669  0.2578E+01  0.1442E+02
     -7.639  0.6285E+01  0.1461E+02
     -7.609  0.4962E+01  0.1476E+02
     -7.579  0.1766E+01  0.1482E+02
     -7.549  0.1204E+02  0.1518E+02
     -7.518  0.3172E-01  0.1518E+02
     -7.488  0.2107E-10  0.1518E+02
     -7.458  0.0000E+00  0.1518E+02
     -7.428  0.0000E+00  0.1518E+02
     -7.398  0.2995E-05  0.1518E+02
     -7.368  0.9789E+00  0.1521E+02
     -7.338  0.4930E+01  0.1536E+02
     -7.308  0.1822E+01  0.1541E+02
     -7.278  0.3862E+01  0.1553E+02
     -7.247  0.7827E+01  0.1577E+02
     -7.217  0.2500E+01  0.1584E+02
     -7.187  0.1936E+01  0.1590E+02
     -7.157  0.4275E+01  0.1603E+02
     -7.127  0.1789E+00  0.1603E+02
     -7.097  0.2835E+00  0.1604E+02
     -7.067  0.1199E+01  0.1608E+02
     -7.037  0.6108E+01  0.1626E+02
     -7.006  0.5660E+00  0.1628E+02
     -6.976  0.7239E+01  0.1650E+02
     -6.946  0.5678E+00  0.1651E+02
     -6.916  0.4821E-06  0.1651E+02
     -6.886  0.5635E-02  0.1651E+02
     -6.856  0.2533E+01  0.1659E+02
     -6.826  0.3705E+01  0.1670E+02
     -6.796  0.3020E+01  0.1679E+02
     -6.766  0.1804E+01  0.1685E+02
     -6.735  0.1711E-01  0.1685E+02
     -6.705  0.2647E+01  0.1693E+02
     -6.675  0.1949E+01  0.1699E+02
     -6.645  0.4608E+01  0.1712E+02
     -6.615  0.9137E+00  0.1715E+02
     -6.585  0.4714E+01  0.1729E+02
     -6.555  0.5662E+01  0.1746E+02
     -6.525  0.6696E+01  0.1767E+02
     -6.494  0.3481E+01  0.1777E+02
     -6.464  0.8955E+01  0.1804E+02
     -6.434  0.2992E+00  0.1805E+02
     -6.404  0.2482E+01  0.1812E+02
     -6.374  0.2167E+01  0.1819E+02
     -6.344  0.2626E+01  0.1827E+02
     -6.314  0.6160E+01  0.1845E+02
     -6.284  0.2878E+01  0.1854E+02
     -6.254  0.9011E+01  0.1881E+02
     -6.223  0.4450E+01  0.1895E+02
     -6.193  0.3887E+00  0.1896E+02
     -6.163  0.6891E+01  0.1917E+02
     -6.133  0.2508E+01  0.1924E+02
     -6.103  0.4426E+01  0.1937E+02
     -6.073  0.1751E-02  0.1938E+02
     -6.043  0.3157E+00  0.1938E+02
     -6.013  0.6065E+00  0.1940E+02
     -5.982  0.2091E+00  0.1941E+02
     -5.952  0.2028E+01  0.1947E+02
     -5.922  0.5958E+01  0.1965E+02
     -5.892  0.2400E+01  0.1972E+02
     -5.862  0.1755E-01  0.1972E+02
     -5.832  0.4905E+01  0.1987E+02
     -5.802  0.6219E+00  0.1989E+02
     -5.772  0.1222E-06  0.1989E+02
     -5.742  0.0000E+00  0.1989E+02
     -5.711  0.5126E-06  0.1989E+02
     -5.681  0.1001E+01  0.1992E+02
     -5.651  0.9928E+01  0.2022E+02
     -5.621  0.1383E+00  0.2022E+02
     -5.591  0.1629E+01  0.2027E+02
     -5.561  0.1138E+01  0.2031E+02
     -5.531  0.1017E-04  0.2031E+02
     -5.501  0.9535E-10  0.2031E+02
     -5.470  0.4967E-01  0.2031E+02
     -5.440  0.6711E+01  0.2051E+02
     -5.410  0.1540E+01  0.2056E+02
     -5.380  0.2783E-04  0.2056E+02
     -5.350  0.2502E-04  0.2056E+02
     -5.320  0.2417E+01  0.2063E+02
     -5.290  0.7123E+01  0.2084E+02
     -5.260  0.2311E+00  0.2085E+02
     -5.230  0.4734E+01  0.2099E+02
     -5.199  0.5405E+01  0.2116E+02
     -5.169  0.3204E+01  0.2125E+02
     -5.139  0.4051E+00  0.2126E+02
     -5.109  0.1089E+01  0.2130E+02
     -5.079  0.1655E+02  0.2180E+02
     -5.049  0.6018E+01  0.2198E+02
     -5.019  0.1381E+02  0.2239E+02
     -4.989  0.6035E+01  0.2257E+02
     -4.958  0.1542E+02  0.2304E+02
     -4.928  0.2795E+01  0.2312E+02
     -4.898  0.7277E+00  0.2314E+02
     -4.868  0.3897E+01  0.2326E+02
     -4.838  0.7281E+01  0.2348E+02
     -4.808  0.8198E+01  0.2373E+02
     -4.778  0.3006E+01  0.2382E+02
     -4.748  0.6899E+01  0.2403E+02
     -4.718  0.4826E-01  0.2403E+02
     -4.687  0.1138E-09  0.2403E+02
     -4.657  0.4094E-10  0.2403E+02
     -4.627  0.2336E-01  0.2403E+02
     -4.597  0.2659E+01  0.2411E+02
     -4.567  0.4200E+01  0.2424E+02
     -4.537  0.1418E+01  0.2428E+02
     -4.507  0.2477E-05  0.2428E+02
     -4.477  0.4251E+00  0.2429E+02
     -4.446  0.1399E+02  0.2471E+02
     -4.416  0.2191E+01  0.2478E+02
     -4.386  0.2496E+01  0.2485E+02
     -4.356  0.5513E+00  0.2487E+02
     -4.326  0.5225E+01  0.2503E+02
     -4.296  0.2373E-01  0.2503E+02
     -4.266  0.3561E+00  0.2504E+02
     -4.236  0.2408E+01  0.2511E+02
     -4.206  0.2488E-02  0.2511E+02
     -4.175  0.1487E+01  0.2516E+02
     -4.145  0.1280E+01  0.2519E+02
     -4.115  0.1420E-01  0.2519E+02
     -4.085  0.7158E+01  0.2541E+02
     -4.055  0.2259E+01  0.2548E+02
     -4.025  0.5757E+01  0.2565E+02
     -3.995  0.6863E+01  0.2586E+02
     -3.965  0.6377E+00  0.2588E+02
     -3.934  0.4971E+01  0.2603E+02
     -3.904  0.8044E-02  0.2603E+02
     -3.874  0.3006E+01  0.2612E+02
     -3.844  0.1079E+02  0.2644E+02
     -3.814  0.4262E-01  0.2644E+02
     -3.784  0.1202E-02  0.2644E+02
     -3.754  0.4264E+01  0.2657E+02
     -3.724  0.1269E+01  0.2661E+02
     -3.694  0.4660E-01  0.2661E+02
     -3.663  0.1328E+01  0.2665E+02
     -3.633  0.7743E+01  0.2689E+02
     -3.603  0.1152E+02  0.2723E+02
     -3.573  0.3963E+01  0.2735E+02
     -3.543  0.9016E+01  0.2762E+02
     -3.513  0.9685E+00  0.2765E+02
     -3.483  0.3963E+01  0.2777E+02
     -3.453  0.4337E+01  0.2790E+02
     -3.422  0.7466E+00  0.2793E+02
     -3.392  0.3338E+01  0.2803E+02
     -3.362  0.6045E+01  0.2821E+02
     -3.332  0.7855E+01  0.2844E+02
     -3.302  0.2505E+01  0.2852E+02
     -3.272  0.5065E+01  0.2867E+02
     -3.242  0.7207E+01  0.2889E+02
     -3.212  0.7247E+01  0.2911E+02
     -3.181  0.2449E+00  0.2912E+02
     -3.151  0.2975E+01  0.2920E+02
     -3.121  0.5829E+00  0.2922E+02
     -3.091  0.3459E-04  0.2922E+02
     -3.061  0.4081E-09  0.2922E+02
     -3.031  0.5702E-01  0.2922E+02
     -3.001  0.4370E+01  0.2936E+02
     -2.971  0.1107E+01  0.2939E+02
     -2.941  0.3712E+00  0.2940E+02
     -2.910  0.5147E+01  0.2956E+02
     -2.880  0.6451E+00  0.2957E+02
     -2.850  0.2137E+01  0.2964E+02
     -2.820  0.6154E-03  0.2964E+02
     -2.790  0.0000E+00  0.2964E+02
     -2.760  0.5251E-05  0.2964E+02
     -2.730  0.9915E+00  0.2967E+02
     -2.700  0.1776E+01  0.2972E+02
     -2.669  0.2145E+01  0.2979E+02
     -2.639  0.6216E+00  0.2981E+02
     -2.609  0.1380E+01  0.2985E+02
     -2.579  0.1387E+01  0.2989E+02
     -2.549  0.7466E-01  0.2989E+02
     -2.519  0.2665E+01  0.2997E+02
     -2.489  0.2805E-01  0.2997E+02
     -2.459  0.8015E+00  0.3000E+02
     -2.429  0.1200E+00  0.3000E+02
     -2.398  0.3337E-07  0.3000E+02
     -2.368  0.0000E+00  0.3000E+02
     -2.338  0.0000E+00  0.3000E+02
     -2.308  0.0000E+00  0.3000E+02
     -2.278  0.0000E+00  0.3000E+02
     -2.248  0.0000E+00  0.3000E+02
     -2.218  0.0000E+00  0.3000E+02
     -2.188  0.0000E+00  0.3000E+02
     -2.157  0.0000E+00  0.3000E+02
     -2.127  0.0000E+00  0.3000E+02
     -2.097  0.0000E+00  0.3000E+02
     -2.067  0.0000E+00  0.3000E+02
     -2.037  0.0000E+00  0.3000E+02
     -2.007  0.0000E+00  0.3000E+02
     -1.977  0.0000E+00  0.3000E+02
     -1.947  0.0000E+00  0.3000E+02
     -1.917  0.0000E+00  0.3000E+02
     -1.886  0.0000E+00  0.3000E+02
     -1.856  0.1546E-05  0.3000E+02
     -1.826  0.4408E+00  0.3001E+02
     -1.796  0.1093E+01  0.3005E+02
     -1.766  0.2605E+01  0.3012E+02
     -1.736  0.1094E-01  0.3012E+02
     -1.706  0.2727E-06  0.3013E+02
     -1.676  0.4785E+00  0.3014E+02
     -1.645  0.2287E+01  0.3021E+02
     -1.615  0.1565E-02  0.3021E+02
     -1.585  0.3611E+01  0.3032E+02
     -1.555  0.2241E+01  0.3038E+02
     -1.525  0.5195E+01  0.3054E+02
     -1.495  0.2101E-01  0.3054E+02
     -1.465  0.2500E+01  0.3062E+02
     -1.435  0.5777E+01  0.3079E+02
     -1.405  0.2332E-01  0.3079E+02
     -1.374  0.1504E-10  0.3079E+02
     -1.344  0.2144E-07  0.3079E+02
     -1.314  0.3594E+00  0.3080E+02
     -1.284  0.6519E+01  0.3100E+02
     -1.254  0.1422E+01  0.3104E+02
     -1.224  0.1698E-02  0.3104E+02
     -1.194  0.4636E+01  0.3118E+02
     -1.164  0.3657E+01  0.3129E+02
     -1.133  0.1912E+01  0.3135E+02
     -1.103  0.5449E+01  0.3151E+02
     -1.073  0.2817E+01  0.3160E+02
     -1.043  0.8943E+00  0.3162E+02
     -1.013  0.3294E-05  0.3162E+02
     -0.983  0.0000E+00  0.3162E+02
     -0.953  0.0000E+00  0.3162E+02
     -0.923  0.1536E-14  0.3162E+02
     -0.893  0.2398E-03  0.3163E+02
     -0.862  0.1917E+01  0.3168E+02
     -0.832  0.2805E+01  0.3177E+02
     -0.802  0.8111E+00  0.3179E+02
     -0.772  0.2157E-05  0.3179E+02
     -0.742  0.0000E+00  0.3179E+02
     -0.712  0.0000E+00  0.3179E+02
     -0.682  0.2786E-12  0.3179E+02
     -0.652  0.1024E-02  0.3179E+02
     -0.621  0.4593E+00  0.3181E+02
     -0.591  0.5322E+01  0.3197E+02
     -0.561  0.2121E+00  0.3197E+02
     -0.531  0.4546E-08  0.3197E+02
     -0.501  0.0000E+00  0.3197E+02
     -0.471  0.0000E+00  0.3197E+02
     -0.441  0.0000E+00  0.3197E+02
     -0.411  0.0000E+00  0.3197E+02
     -0.381  0.0000E+00  0.3197E+02
     -0.350  0.0000E+00  0.3197E+02
     -0.320  0.0000E+00  0.3197E+02
     -0.290  0.0000E+00  0.3197E+02
     -0.260  0.0000E+00  0.3197E+02
     -0.230  0.0000E+00  0.3197E+02
     -0.200  0.0000E+00  0.3197E+02
     -0.170  0.0000E+00  0.3197E+02
     -0.140  0.0000E+00  0.3197E+02
     -0.109  0.0000E+00  0.3197E+02
     -0.079  0.4599E-06  0.3197E+02
     -0.049  0.4084E+00  0.3198E+02
     -0.019  0.1436E+01  0.3203E+02
      0.011  0.4425E-03  0.3203E+02
      0.041  0.0000E+00  0.3203E+02
      0.071  0.0000E+00  0.3203E+02
      0.101  0.0000E+00  0.3203E+02
      0.131  0.0000E+00  0.3203E+02
      0.162  0.0000E+00  0.3203E+02
      0.192  0.0000E+00  0.3203E+02
      0.222  0.0000E+00  0.3203E+02
      0.252  0.0000E+00  0.3203E+02
      0.282  0.0000E+00  0.3203E+02
      0.312  0.0000E+00  0.3203E+02
      0.342  0.0000E+00  0.3203E+02
      0.372  0.0000E+00  0.3203E+02
      0.403  0.0000E+00  0.3203E+02
      0.433  0.0000E+00  0.3203E+02
      0.463  0.1659E-11  0.3203E+02
      0.493  0.9044E-02  0.3203E+02
      0.523  0.5006E+01  0.3218E+02
      0.553  0.5187E+00  0.3219E+02
      0.583  0.6755E-07  0.3219E+02
      0.613  0.0000E+00  0.3219E+02
      0.643  0.0000E+00  0.3219E+02
      0.674  0.0000E+00  0.3219E+02
      0.704  0.7578E-09  0.3219E+02
      0.734  0.7156E-01  0.3220E+02
      0.764  0.2667E+01  0.3228E+02
      0.794  0.2860E-01  0.3228E+02
      0.824  0.6811E-10  0.3228E+02
      0.854  0.0000E+00  0.3228E+02
      0.884  0.0000E+00  0.3228E+02
      0.915  0.0000E+00  0.3228E+02
      0.945  0.0000E+00  0.3228E+02
      0.975  0.0000E+00  0.3228E+02
      1.005  0.1610E-08  0.3228E+02
      1.035  0.1831E+00  0.3228E+02
      1.065  0.1116E+02  0.3262E+02
      1.095  0.2681E+01  0.3270E+02
      1.125  0.1309E+01  0.3274E+02
      1.156  0.2861E+01  0.3283E+02
      1.186  0.2525E+01  0.3290E+02
      1.216  0.2340E+01  0.3297E+02
      1.246  0.1272E+00  0.3298E+02
      1.276  0.5342E+01  0.3314E+02
      1.306  0.8317E-01  0.3314E+02
      1.336  0.2640E+01  0.3322E+02
      1.366  0.1111E+00  0.3322E+02
      1.396  0.4364E+01  0.3335E+02
      1.427  0.3888E+01  0.3347E+02
      1.457  0.4683E-01  0.3347E+02
      1.487  0.2451E-09  0.3347E+02
      1.517  0.9819E-02  0.3347E+02
      1.547  0.5672E+01  0.3364E+02
      1.577  0.2618E+01  0.3372E+02
      1.607  0.1094E-02  0.3372E+02
      1.637  0.3871E+01  0.3384E+02
      1.668  0.1662E+01  0.3389E+02
      1.698  0.4781E-05  0.3389E+02
      1.728  0.0000E+00  0.3389E+02
      1.758  0.1737E-04  0.3389E+02
      1.788  0.1416E+01  0.3393E+02
      1.818  0.1812E+01  0.3399E+02
      1.848  0.7125E-04  0.3399E+02
      1.878  0.2328E+00  0.3399E+02
      1.908  0.3138E+01  0.3409E+02
      1.939  0.5373E+01  0.3425E+02
      1.969  0.2026E+01  0.3431E+02
      1.999  0.3525E+01  0.3442E+02
      2.029  0.1809E+00  0.3442E+02
      2.059  0.1220E+01  0.3446E+02
      2.089  0.2644E+01  0.3454E+02
      2.119  0.3966E+00  0.3455E+02
      2.149  0.2475E+01  0.3462E+02
      2.180  0.2360E+01  0.3470E+02
      2.210  0.4085E+00  0.3471E+02
      2.240  0.6921E+00  0.3473E+02
      2.270  0.2282E+01  0.3480E+02
      2.300  0.5290E+01  0.3496E+02
      2.330  0.3644E-01  0.3496E+02
      2.360  0.6533E-03  0.3496E+02
      2.390  0.2150E+01  0.3502E+02
      2.420  0.1468E+01  0.3507E+02
      2.451  0.7394E+01  0.3529E+02
      2.481  0.5437E-01  0.3529E+02
      2.511  0.9325E-04  0.3529E+02
      2.541  0.1682E+01  0.3534E+02
      2.571  0.2880E+01  0.3543E+02
      2.601  0.6196E+01  0.3562E+02
      2.631  0.3096E+00  0.3562E+02
      2.661  0.1368E-07  0.3562E+02
      2.692  0.4795E-12  0.3563E+02
      2.722  0.3548E-02  0.3563E+02
      2.752  0.2468E+01  0.3570E+02
      2.782  0.2968E+00  0.3571E+02
      2.812  0.5655E+01  0.3588E+02
      2.842  0.3217E+01  0.3598E+02
      2.872  0.4955E+01  0.3612E+02
      2.902  0.4848E+01  0.3627E+02
      2.932  0.2075E+01  0.3633E+02
      2.963  0.4783E-04  0.3633E+02
      2.993  0.1174E+01  0.3637E+02
      3.023  0.4358E+01  0.3650E+02