<?xml version="1.0" encoding="ISO-8859-1"?>
<modeling>
 <generator>
  <i name="program" type="string">vasp </i>
  <i name="version" type="string">5.4.4.18Apr17-6-g9f103f2a35  </i>
  <i name="subversion" type="string">(build Mar 30 2023 15:39:25) complex            parallel </i>
  <i name="platform" type="string">LinuxIFC </i>
  <i name="date" type="string">2023 06 28 </i>
  <i name="time" type="string">21:29:02 </i>
 </generator>
 <incar>
  <i type="string" name="SYSTEM"> BC3-optical</i>
  <i type="int" name="ISTART">     1</i>
  <i type="string" name="PREC">accurate</i>
  <i type="string" name="ALGO"> Exact</i>
  <i type="int" name="ICHARG">     2</i>
  <i name="EDIFF">      0.00000001</i>
  <i name="ENCUT">    450.00000000</i>
  <i type="int" name="NBANDS">   160</i>
  <i type="int" name="NEDOS">  2400</i>
  <i type="logical" name="LREAL"> F  </i>
  <i type="int" name="ISMEAR">     0</i>
  <i name="SIGMA">      0.01000000</i>
  <i type="int" name="NWRITE">     3</i>
  <i type="logical" name="LOPTICS"> T  </i>
  <v type="int" name="KPOINT_BSE">    -1     0     0     0</v>
  <i name="CSHIFT">      0.10000000</i>
  <i name="CSHIFT">      0.10000000</i>
 </incar>
 <structure name="primitive_cell" >
  <crystal>
   <varray name="basis" >
    <v>       4.48084843       2.58701885       0.00000000 </v>
    <v>      -4.48084843       2.58701885       0.00000000 </v>
    <v>       0.00000000       0.00000000       8.52022140 </v>
   </varray>
   <i name="volume">    197.53348383 </i>
   <varray name="rec_basis" >
    <v>       0.11158601       0.19327265       0.00000000 </v>
    <v>      -0.11158601       0.19327265       0.00000000 </v>
    <v>       0.00000000       0.00000000       0.11736784 </v>
   </varray>
  </crystal>
  <varray name="positions" >
   <v>       0.33333300      -0.33333400       0.25000000 </v>
   <v>       0.15869124       0.31738348       0.25000000 </v>
   <v>      -0.31738448      -0.15869224       0.25000000 </v>
   <v>       0.15869124      -0.15869224       0.25000000 </v>
   <v>      -0.15869224       0.15869124       0.25000000 </v>
   <v>       0.31738348       0.15869124       0.25000000 </v>
   <v>      -0.15869224      -0.31738448       0.25000000 </v>
   <v>      -0.33333400       0.33333300       0.25000000 </v>
  </varray>
 </structure>
 <varray name="primitive_index" >
  <v type="int" >        1 </v>
  <v type="int" >        3 </v>
  <v type="int" >        7 </v>
  <v type="int" >        5 </v>
  <v type="int" >        6 </v>
  <v type="int" >        4 </v>
  <v type="int" >        8 </v>
  <v type="int" >        2 </v>
 </varray>
 <kpoints>
  <generation param="Gamma">
   <v type="int" name="divisions">      12       12        1 </v>
   <v name="usershift">      0.00000000       0.00000000       0.00000000 </v>
   <v name="genvec1">      0.08333333       0.00000000       0.00000000 </v>
   <v name="genvec2">      0.00000000       0.08333333       0.00000000 </v>
   <v name="genvec3">      0.00000000       0.00000000       1.00000000 </v>
   <v name="shift">      0.00000000       0.00000000       0.00000000 </v>
  </generation>
  <varray name="kpointlist" >
   <v>       0.00000000       0.00000000       0.00000000 </v>
   <v>       0.08333333       0.00000000       0.00000000 </v>
   <v>       0.16666667       0.00000000       0.00000000 </v>
   <v>       0.25000000      -0.00000000       0.00000000 </v>
   <v>       0.33333333      -0.00000000       0.00000000 </v>
   <v>       0.41666667       0.00000000       0.00000000 </v>
   <v>       0.50000000      -0.00000000       0.00000000 </v>
   <v>       0.08333333       0.08333333       0.00000000 </v>
   <v>       0.16666667       0.08333333       0.00000000 </v>
   <v>       0.25000000       0.08333333       0.00000000 </v>
   <v>       0.33333333       0.08333333       0.00000000 </v>
   <v>       0.41666667       0.08333333       0.00000000 </v>
   <v>       0.16666667       0.16666667       0.00000000 </v>
   <v>       0.25000000       0.16666667       0.00000000 </v>
   <v>       0.33333333       0.16666667       0.00000000 </v>
   <v>       0.41666667       0.16666667       0.00000000 </v>
   <v>       0.25000000       0.25000000       0.00000000 </v>
   <v>       0.33333333       0.25000000       0.00000000 </v>
   <v>       0.33333333       0.33333333       0.00000000 </v>
  </varray>
  <varray name="weights" >
   <v>       0.00694444 </v>
   <v>       0.04166667 </v>
   <v>       0.04166667 </v>
   <v>       0.04166667 </v>
   <v>       0.04166667 </v>
   <v>       0.04166667 </v>
   <v>       0.02083333 </v>
   <v>       0.04166667 </v>
   <v>       0.08333333 </v>
   <v>       0.08333333 </v>
   <v>       0.08333333 </v>
   <v>       0.08333333 </v>
   <v>       0.04166667 </v>
   <v>       0.08333333 </v>
   <v>       0.08333333 </v>
   <v>       0.04166667 </v>
   <v>       0.04166667 </v>
   <v>       0.08333333 </v>
   <v>       0.01388889 </v>
  </varray>
 </kpoints>
 <parameters>
  <separator name="general" >
   <i type="string" name="SYSTEM">BC3-optical</i>
   <i type="logical" name="LCOMPAT"> F  </i>
  </separator>
  <separator name="electronic" >
   <i type="string" name="PREC">accura</i>
   <i name="ENMAX">    450.00000000</i>
   <i name="ENAUG">    644.87300000</i>
   <i name="EDIFF">      0.00000001</i>
   <i type="int" name="IALGO">    90</i>
   <i type="int" name="IWAVPR">    10</i>
   <i type="int" name="NBANDS">   168</i>
   <i name="NELECT">     30.00000000</i>
   <i type="int" name="TURBO">     0</i>
   <i type="int" name="IRESTART">     0</i>
   <i type="int" name="NREBOOT">     0</i>
   <i type="int" name="NMIN">     0</i>
   <i name="EREF">      0.00000000</i>
   <separator name="electronic smearing" >
    <i type="int" name="ISMEAR">     0</i>
    <i name="SIGMA">      0.01000000</i>
    <i name="KSPACING">      0.50000000</i>
    <i type="logical" name="KGAMMA"> T  </i>
   </separator>
   <separator name="electronic projectors" >
    <i type="logical" name="LREAL"> F  </i>
    <v name="ROPT">      0.00000000      0.00000000</v>
    <i type="int" name="LMAXPAW">  -100</i>
    <i type="int" name="LMAXMIX">     2</i>
    <i type="logical" name="NLSPLINE"> F  </i>
   </separator>
   <separator name="electronic startup" >
    <i type="int" name="ISTART">     1</i>
    <i type="int" name="ICHARG">     2</i>
    <i type="int" name="INIWAV">     1</i>
   </separator>
   <separator name="electronic spin" >
    <i type="int" name="ISPIN">     1</i>
    <i type="logical" name="LNONCOLLINEAR"> F  </i>
    <v name="MAGMOM">      1.00000000      1.00000000      1.00000000      1.00000000      1.00000000      1.00000000      1.00000000      1.00000000</v>
    <i name="NUPDOWN">     -1.00000000</i>
    <i type="logical" name="LSORBIT"> F  </i>
    <v name="SAXIS">      0.00000000      0.00000000      1.00000000</v>
    <i type="logical" name="LSPIRAL"> F  </i>
    <v name="QSPIRAL">      0.00000000      0.00000000      0.00000000</v>
    <i type="logical" name="LZEROZ"> F  </i>
   </separator>
   <separator name="electronic exchange-correlation" >
    <i type="logical" name="LASPH"> F  </i>
    <i type="logical" name="LMETAGGA"> F  </i>
   </separator>
   <separator name="electronic convergence" >
    <i type="int" name="NELM">    60</i>
    <i type="int" name="NELMDL">     0</i>
    <i type="int" name="NELMIN">     2</i>
    <i name="ENINI">    450.00000000</i>
    <separator name="electronic convergence detail" >
     <i type="logical" name="LDIAG"> T  </i>
     <i type="logical" name="LSUBROT"> F  </i>
     <i name="WEIMIN">      0.00000000</i>
     <i name="EBREAK">      0.00000000</i>
     <i name="DEPER">      0.30000000</i>
     <i type="int" name="NRMM">     4</i>
     <i name="TIME">      0.40000000</i>
    </separator>
   </separator>
   <separator name="electronic mixer" >
    <i name="AMIX">      0.40000000</i>
    <i name="BMIX">      1.00000000</i>
    <i name="AMIN">      0.10000000</i>
    <i name="AMIX_MAG">      1.60000000</i>
    <i name="BMIX_MAG">      1.00000000</i>
    <separator name="electronic mixer details" >
     <i type="int" name="IMIX">     4</i>
     <i type="logical" name="MIXFIRST"> F  </i>
     <i type="int" name="MAXMIX">   -45</i>
     <i name="WC">    100.00000000</i>
     <i type="int" name="INIMIX">     1</i>
     <i type="int" name="MIXPRE">     1</i>
     <i type="int" name="MREMOVE">     5</i>
    </separator>
   </separator>
   <separator name="electronic dipolcorrection" >
    <i type="logical" name="LDIPOL"> F  </i>
    <i type="logical" name="LMONO"> F  </i>
    <i type="int" name="IDIPOL">     0</i>
    <i name="EPSILON">      1.00000000</i>
    <v name="DIPOL">   -100.00000000   -100.00000000   -100.00000000</v>
    <i name="EFIELD">      0.00000000</i>
   </separator>
  </separator>
  <separator name="grids" >
   <i type="int" name="NGX">    36</i>
   <i type="int" name="NGY">    36</i>
   <i type="int" name="NGZ">    60</i>
   <i type="int" name="NGXF">    72</i>
   <i type="int" name="NGYF">    72</i>
   <i type="int" name="NGZF">   120</i>
   <i type="logical" name="ADDGRID"> F  </i>
  </separator>
  <separator name="ionic" >
   <i type="int" name="NSW">     0</i>
   <i type="int" name="IBRION">    -1</i>
   <i type="int" name="MDALGO">     0</i>
   <i type="int" name="ISIF">     2</i>
   <i name="PSTRESS">      0.00000000</i>
   <i name="EDIFFG">      0.00000010</i>
   <i type="int" name="NFREE">     0</i>
   <i name="POTIM">      0.50000000</i>
   <i name="SMASS">     -3.00000000</i>
   <i name="SCALEE">      1.00000000</i>
  </separator>
  <separator name="ionic md" >
   <i name="TEBEG">      0.00010000</i>
   <i name="TEEND">      0.00010000</i>
   <i type="int" name="NBLOCK">     1</i>
   <i type="int" name="KBLOCK">     1</i>
   <i type="int" name="NPACO">   256</i>
   <i name="APACO">     16.00000000</i>
  </separator>
  <separator name="symmetry" >
   <i type="int" name="ISYM">     2</i>
   <i name="SYMPREC">      0.00001000</i>
  </separator>
  <separator name="dos" >
   <i type="int" name="LORBIT">     0</i>
   <v name="RWIGS">     -1.00000000     -1.00000000</v>
   <i type="int" name="NEDOS">  2400</i>
   <i name="EMIN">     10.00000000</i>
   <i name="EMAX">    -10.00000000</i>
   <i name="EFERMI">      0.00000000</i>
  </separator>
  <separator name="writing" >
   <i type="int" name="NWRITE">     3</i>
   <i type="logical" name="LWAVE"> T  </i>
   <i type="logical" name="LDOWNSAMPLE"> F  </i>
   <i type="logical" name="LCHARG"> T  </i>
   <i type="logical" name="LPARD"> F  </i>
   <i type="logical" name="LVTOT"> F  </i>
   <i type="logical" name="LVHAR"> F  </i>
   <i type="logical" name="LELF"> F  </i>
   <i type="logical" name="LOPTICS"> T  </i>
   <v name="STM">      0.00000000      0.00000000      0.00000000      0.00000000      0.00000000      0.00000000      0.00000000</v>
  </separator>
  <separator name="performance" >
   <i type="int" name="NPAR">    12</i>
   <i type="int" name="NSIM">     4</i>
   <i type="int" name="NBLK">    -1</i>
   <i type="logical" name="LPLANE"> T  </i>
   <i type="logical" name="LSCALAPACK"> T  </i>
   <i type="logical" name="LSCAAWARE"> F  </i>
   <i type="logical" name="LSCALU"> F  </i>
   <i type="logical" name="LASYNC"> F  </i>
   <i type="logical" name="LORBITALREAL"> F  </i>
  </separator>
  <separator name="miscellaneous" >
   <i type="int" name="IDIOT">     3</i>
   <i type="int" name="ISPECIAL">     0</i>
   <i type="logical" name="LMUSIC"> F  </i>
   <v name="POMASS">     10.81100000     12.01100000</v>
   <v name="DARWINR">      0.00000000      0.00000000</v>
   <v name="DARWINV">      1.00000000      1.00000000</v>
   <i type="logical" name="LCORR"> T  </i>
  </separator>
  <i type="logical" name="GGA_COMPAT"> T  </i>
  <i type="logical" name="LBERRY"> F  </i>
  <i type="int" name="ICORELEVEL">     0</i>
  <i type="logical" name="LDAU"> F  </i>
  <i type="int" name="I_CONSTRAINED_M">     0</i>
  <separator name="electronic exchange-correlation" >
   <i type="string" name="GGA">--</i>
   <i type="int" name="VOSKOWN">     0</i>
   <i type="logical" name="LHFCALC"> F  </i>
   <i type="string" name="PRECFOCK"></i>
   <i type="logical" name="LSYMGRAD"> F  </i>
   <i type="logical" name="LHFONE"> F  </i>
   <i type="logical" name="LRHFCALC"> F  </i>
   <i type="logical" name="LTHOMAS"> F  </i>
   <i type="logical" name="LMODELHF"> F  </i>
   <i name="ENCUT4O">     -1.00000000</i>
   <i type="int" name="EXXOEP">     0</i>
   <i type="int" name="FOURORBIT">     0</i>
   <i name="AEXX">      0.00000000</i>
   <i name="HFALPHA">      0.00000000</i>
   <i name="MCALPHA">      0.00000000</i>
   <i name="ALDAX">      1.00000000</i>
   <i name="AGGAX">      1.00000000</i>
   <i name="ALDAC">      1.00000000</i>
   <i name="AGGAC">      1.00000000</i>
   <i type="int" name="NKREDX">     1</i>
   <i type="int" name="NKREDY">     1</i>
   <i type="int" name="NKREDZ">     1</i>
   <i type="logical" name="SHIFTRED"> F  </i>
   <i type="logical" name="ODDONLY"> F  </i>
   <i type="logical" name="EVENONLY"> F  </i>
   <i type="int" name="LMAXFOCK">     0</i>
   <i type="int" name="NMAXFOCKAE">     0</i>
   <i type="logical" name="LFOCKAEDFT"> F  </i>
   <i name="HFSCREEN">      0.00000000</i>
   <i name="HFSCREENC">      0.00000000</i>
   <i type="int" name="NBANDSGWLOW">     0</i>
  </separator>
  <separator name="vdW DFT" >
   <i type="logical" name="LUSE_VDW"> F  </i>
   <i name="Zab_VDW">     -0.84910000</i>
   <i name="PARAM1">      0.12340000</i>
   <i name="PARAM2">      1.00000000</i>
   <i name="PARAM3">      0.00000000</i>
  </separator>
  <separator name="model GW" >
   <i type="int" name="MODEL_GW">     0</i>
   <i name="MODEL_EPS0">     14.81501129</i>
   <i name="MODEL_ALPHA">      1.00000000</i>
  </separator>
  <separator name="linear response parameters" >
   <i type="logical" name="LEPSILON"> F  </i>
   <i type="logical" name="LRPA"> F  </i>
   <i type="logical" name="LNABLA"> F  </i>
   <i type="logical" name="LVEL"> F  </i>
   <i type="int" name="KINTER">     0</i>
   <i name="CSHIFT">      0.10000000</i>
   <i name="OMEGAMAX">     -1.00000000</i>
   <i name="DEG_THRESHOLD">      0.00200000</i>
   <i name="RTIME">     -0.10000000</i>
   <i name="WPLASMAI">      0.00000000</i>
   <v name="DFIELD">      0.00000000      0.00000000      0.00000000</v>
   <v name="WPLASMA">      0.00000000      0.00000000      0.00000000      0.00000000      0.00000000      0.00000000      0.00000000      0.00000000      0.00000000</v>
  </separator>
  <separator name="orbital magnetization" >
   <i type="logical" name="NUCIND"> F  </i>
   <v name="MAGPOS">      0.00000000      0.00000000      0.00000000</v>
   <i type="logical" name="LNICSALL"> T  </i>
   <i type="logical" name="ORBITALMAG"> F  </i>
   <i type="logical" name="LMAGBLOCH"> F  </i>
   <i type="logical" name="LCHIMAG"> F  </i>
   <i type="logical" name="LGAUGE"> T  </i>
   <i type="int" name="MAGATOM">     0</i>
   <v name="MAGDIPOL">      0.00000000      0.00000000      0.00000000</v>
   <v name="AVECCONST">      0.00000000      0.00000000      0.00000000</v>
  </separator>
  <separator name="response functions" >
   <i type="logical" name="LADDER"> F  </i>
   <i type="logical" name="LRPAFORCE"> F  </i>
   <i type="logical" name="LFXC"> F  </i>
   <i type="logical" name="LHARTREE"> T  </i>
   <i type="int" name="IBSE">     0</i>
   <v type="int" name="KPOINT">    -1     0     0     0</v>
   <i type="logical" name="LTCTE"> F  </i>
   <i type="logical" name="LTETE"> F  </i>
   <i type="logical" name="LTRIPLET"> F  </i>
   <i type="logical" name="LFXCEPS"> F  </i>
   <i type="logical" name="LFXHEG"> F  </i>
   <i type="int" name="NATURALO">     2</i>
   <i type="logical" name="L2ORDER"> F  </i>
   <i type="logical" name="LMP2LT"> F  </i>
   <i type="logical" name="LUSEW"> F  </i>
   <i name="ENCUTGW">     -2.00000000</i>
   <i name="ENCUTGWSOFT">     -2.00000000</i>
   <i name="ENCUTLF">     -1.00000000</i>
   <i type="int" name="LMAXMP2">    -1</i>
   <i name="SCISSOR">      0.00000000</i>
   <i type="int" name="NOMEGA">     0</i>
   <i type="int" name="NOMEGAR">     0</i>
   <i type="int" name="NBANDSGW">    -1</i>
   <i type="int" name="NBANDSO">    -1</i>
   <i type="int" name="NBANDSV">    -1</i>
   <i type="int" name="NELM">     1</i>
   <i type="int" name="NELMHF">     1</i>
   <i type="int" name="DIM">     3</i>
   <i type="int" name="ANTIRES">     0</i>
   <i name="OMEGAMAX">    -30.00000000</i>
   <i name="OMEGAMIN">    -30.00000000</i>
   <i name="OMEGATL">   -200.00000000</i>
   <i type="int" name="OMEGAGRID">   140</i>
   <i name="CSHIFT">      0.10000000</i>
   <i type="logical" name="SELFENERGY"> F  </i>
   <i type="logical" name="LSPECTRAL"> F  </i>
   <i type="logical" name="LSPECTRALGW"> F  </i>
   <i type="logical" name="LSINGLES"> F  </i>
   <i type="logical" name="LFERMIGW"> F  </i>
   <i type="logical" name="ODDONLYGW"> F  </i>
   <i type="logical" name="EVENONLYGW"> F  </i>
   <i type="int" name="NKREDLFX">     1</i>
   <i type="int" name="NKREDLFY">     1</i>
   <i type="int" name="NKREDLFZ">     1</i>
   <i type="int" name="MAXMEM">  2800</i>
   <i type="int" name="TELESCOPE">     0</i>
   <i type="int" name="TAUPAR">     1</i>
   <i type="int" name="OMEGAPAR">    -1</i>
   <i name="LAMBDA">      1.00000000</i>
  </separator>
  <separator name="External order field" >
   <i name="OFIELD_KAPPA">      0.00000000</i>
   <v name="OFIELD_K">      0.00000000      0.00000000      0.00000000</v>
   <i name="OFIELD_Q6_NEAR">      0.00000000</i>
   <i name="OFIELD_Q6_FAR">      0.00000000</i>
   <i name="OFIELD_A">      0.00000000</i>
  </separator>
 </parameters>
 <atominfo>
  <atoms>       8 </atoms>
  <types>       2 </types>
  <array name="atoms" >
   <dimension dim="1">ion</dimension>
   <field type="string">element</field>
   <field type="int">atomtype</field>
   <set>
    <rc><c>B </c><c>   1</c></rc>
    <rc><c>B </c><c>   1</c></rc>
    <rc><c>C </c><c>   2</c></rc>
    <rc><c>C </c><c>   2</c></rc>
    <rc><c>C </c><c>   2</c></rc>
    <rc><c>C </c><c>   2</c></rc>
    <rc><c>C </c><c>   2</c></rc>
    <rc><c>C </c><c>   2</c></rc>
   </set>
  </array>
  <array name="atomtypes" >
   <dimension dim="1">type</dimension>
   <field type="int">atomspertype</field>
   <field type="string">element</field>
   <field>mass</field>
   <field>valence</field>
   <field type="string">pseudopotential</field>
   <set>
    <rc><c>   2</c><c>B </c><c>     10.81100000</c><c>      3.00000000</c><c>  PAW_PBE B 06Sep2000                   </c></rc>
    <rc><c>   6</c><c>C </c><c>     12.01100000</c><c>      4.00000000</c><c>  PAW_PBE C 08Apr2002                   </c></rc>
   </set>
  </array>
 </atominfo>
 <structure name="initialpos" >
  <crystal>
   <varray name="basis" >
    <v>       4.48084843       2.58701885       0.00000000 </v>
    <v>      -4.48084843       2.58701885       0.00000000 </v>
    <v>       0.00000000       0.00000000       8.52022140 </v>
   </varray>
   <i name="volume">    197.53348383 </i>
   <varray name="rec_basis" >
    <v>       0.11158601       0.19327265       0.00000000 </v>
    <v>      -0.11158601       0.19327265       0.00000000 </v>
    <v>       0.00000000       0.00000000       0.11736784 </v>
   </varray>
  </crystal>
  <varray name="positions" >
   <v>       0.33333300       0.66666600       0.25000000 </v>
   <v>       0.66666600       0.33333300       0.25000000 </v>
   <v>       0.15869124       0.31738348       0.25000000 </v>
   <v>       0.31738348       0.15869124       0.25000000 </v>
   <v>       0.15869124       0.84130776       0.25000000 </v>
   <v>       0.84130776       0.15869124       0.25000000 </v>
   <v>       0.68261552       0.84130776       0.25000000 </v>
   <v>       0.84130776       0.68261552       0.25000000 </v>
  </varray>
 </structure>
 <calculation>
  <scstep>
   <time name="diag">  545.60  545.60</time>
   <time name="total">  545.70  545.70</time>
   <energy>
    <i name="alphaZ">     25.67921176 </i>
    <i name="ewald">    700.27145080 </i>
    <i name="hartreedc">  -1524.76618073 </i>
    <i name="XCdc">     91.14273073 </i>
    <i name="pawpsdc">    738.13200929 </i>
    <i name="pawaedc">   -739.83780425 </i>
    <i name="eentropy">     -0.00000000 </i>
    <i name="bandstr">   -389.26594481 </i>
    <i name="atom">   1025.20389953 </i>
    <i name="e_fr_energy">    -73.44062769 </i>
    <i name="e_wo_entrp">    -73.44062769 </i>
    <i name="e_0_energy">    -73.44062769 </i>
   </energy>
  </scstep>
  <scstep>
   <time name="diag">  569.77  569.77</time>
   <time name="total">  569.88  569.88</time>
   <energy>
    <i name="e_fr_energy">    -68.99901163 </i>
    <i name="e_wo_entrp">    -68.99901163 </i>
    <i name="e_0_energy">    -68.99901163 </i>
   </energy>
  </scstep>
  <scstep>
   <time name="diag">  556.52  556.52</time>
   <time name="total">  556.63  556.63</time>
   <energy>
    <i name="e_fr_energy">    -67.35394036 </i>
    <i name="e_wo_entrp">    -67.35394036 </i>
    <i name="e_0_energy">    -67.35394036 </i>
   </energy>
  </scstep>
  <scstep>
   <time name="diag">  565.29  565.28</time>
   <time name="total">  565.40  565.39</time>
   <energy>
    <i name="e_fr_energy">    -67.24757337 </i>
    <i name="e_wo_entrp">    -67.24757337 </i>
    <i name="e_0_energy">    -67.24757337 </i>
   </energy>
  </scstep>
  <scstep>
   <time name="diag">  586.12  586.12</time>
   <time name="total">  586.23  586.23</time>
   <energy>
    <i name="e_fr_energy">    -67.22049319 </i>
    <i name="e_wo_entrp">    -67.22049319 </i>
    <i name="e_0_energy">    -67.22049319 </i>
   </energy>
  </scstep>
  <scstep>
   <time name="diag">  573.95  573.95</time>
   <time name="total">  574.06  574.05</time>
   <energy>
    <i name="e_fr_energy">    -67.21907962 </i>
    <i name="e_wo_entrp">    -67.21907962 </i>
    <i name="e_0_energy">    -67.21907962 </i>
   </energy>
  </scstep>
  <scstep>
   <time name="diag">  574.82  574.82</time>
   <time name="total">  574.93  574.92</time>
   <energy>
    <i name="e_fr_energy">    -67.22295241 </i>
    <i name="e_wo_entrp">    -67.22295241 </i>
    <i name="e_0_energy">    -67.22295241 </i>
   </energy>
  </scstep>
  <scstep>
   <time name="diag">  566.06  566.05</time>
   <time name="total">  566.16  566.16</time>
   <energy>
    <i name="e_fr_energy">    -67.22702477 </i>
    <i name="e_wo_entrp">    -67.22702477 </i>
    <i name="e_0_energy">    -67.22702477 </i>
   </energy>
  </scstep>
  <scstep>
   <time name="diag">  571.74  571.73</time>
   <time name="total">  571.84  571.84</time>
   <energy>
    <i name="e_fr_energy">    -67.22770203 </i>
    <i name="e_wo_entrp">    -67.22770203 </i>
    <i name="e_0_energy">    -67.22770203 </i>
   </energy>
  </scstep>
  <scstep>
   <time name="diag">  567.19  567.18</time>
   <time name="total">  567.30  567.29</time>
   <energy>
    <i name="e_fr_energy">    -67.22771724 </i>
    <i name="e_wo_entrp">    -67.22771724 </i>
    <i name="e_0_energy">    -67.22771724 </i>
   </energy>
  </scstep>
  <scstep>
   <time name="diag">  564.07  564.07</time>
   <time name="total">  564.18  564.18</time>
   <energy>
    <i name="e_fr_energy">    -67.22773009 </i>
    <i name="e_wo_entrp">    -67.22773009 </i>
    <i name="e_0_energy">    -67.22773009 </i>
   </energy>
  </scstep>
  <scstep>
   <time name="diag">  563.10  563.10</time>
   <time name="total">  563.21  563.21</time>
   <energy>
    <i name="e_fr_energy">    -67.22773016 </i>
    <i name="e_wo_entrp">    -67.22773016 </i>
    <i name="e_0_energy">    -67.22773016 </i>
   </energy>
  </scstep>
  <scstep>
   <time name="diag">  552.26  552.26</time>
   <time name="total">  552.37  552.37</time>
   <energy>
    <i name="e_fr_energy">    -67.22773024 </i>
    <i name="e_wo_entrp">    -67.22773024 </i>
    <i name="e_0_energy">    -67.22773024 </i>
   </energy>
  </scstep>
  <scstep>
   <time name="diag">  563.27  563.27</time>
   <time name="total">  563.32  563.32</time>
   <energy>
    <i name="alphaZ">     25.67921176 </i>
    <i name="ewald">    700.27145080 </i>
    <i name="hartreedc">  -1646.75291199 </i>
    <i name="XCdc">     96.02426133 </i>
    <i name="pawpsdc">   2894.38113027 </i>
    <i name="pawaedc">  -2896.90834136 </i>
    <i name="eentropy">     -0.00000000 </i>
    <i name="bandstr">   -265.12643058 </i>
    <i name="atom">   1025.20389953 </i>
    <i name="e_fr_energy">    -67.22773025 </i>
    <i name="e_wo_entrp">    -67.22773025 </i>
    <i name="e_0_energy">    -67.22773025 </i>
   </energy>
  </scstep>
  <structure>
   <crystal>
    <varray name="basis" >
     <v>       4.48084843       2.58701885       0.00000000 </v>
     <v>      -4.48084843       2.58701885       0.00000000 </v>
     <v>       0.00000000       0.00000000       8.52022140 </v>
    </varray>
    <i name="volume">    197.53348383 </i>
    <varray name="rec_basis" >
     <v>       0.11158601       0.19327265       0.00000000 </v>
     <v>      -0.11158601       0.19327265       0.00000000 </v>
     <v>       0.00000000       0.00000000       0.11736784 </v>
    </varray>
   </crystal>
   <varray name="positions" >
    <v>       0.33333300       0.66666600       0.25000000 </v>
    <v>       0.66666600       0.33333300       0.25000000 </v>
    <v>       0.15869124       0.31738348       0.25000000 </v>
    <v>       0.31738348       0.15869124       0.25000000 </v>
    <v>       0.15869124       0.84130776       0.25000000 </v>
    <v>       0.84130776       0.15869124       0.25000000 </v>
    <v>       0.68261552       0.84130776       0.25000000 </v>
    <v>       0.84130776       0.68261552       0.25000000 </v>
   </varray>
  </structure>
  <varray name="forces" >
   <v>       0.00000000       0.00000000      -0.00000000 </v>
   <v>       0.00000000       0.00000000      -0.00000000 </v>
   <v>      -0.00064694       0.00112054      -0.00000000 </v>
   <v>       0.00064694       0.00112054       0.00000000 </v>
   <v>       0.00129389       0.00000000      -0.00000000 </v>
   <v>      -0.00129389       0.00000000       0.00000000 </v>
   <v>      -0.00064694      -0.00112054      -0.00000000 </v>
   <v>       0.00064694      -0.00112054      -0.00000000 </v>
  </varray>
  <varray name="stress" >
   <v>      -0.53277499       0.00000000      -0.00000000 </v>
   <v>       0.00000000      -0.53277490       0.00000000 </v>
   <v>       0.00000000       0.00000000      -1.27118546 </v>
  </varray>
  <energy>
   <i name="e_fr_energy">    -67.22773025 </i>
   <i name="e_wo_entrp">    -67.22773025 </i>
   <i name="e_0_energy">     -0.00000000 </i>
  </energy>
  <time name="totalsc"> 7924.42 7925.34</time>
  <eigenvalues>
   <array>
    <dimension dim="1">band</dimension>
    <dimension dim="2">kpoint</dimension>
    <dimension dim="3">spin</dimension>
    <field>eigene</field>
    <field>occ</field>
    <set>
     <set comment="spin 1">
      <set comment="kpoint 1">
       <r>  -18.5403    1.0000 </r>
       <r>  -14.6488    1.0000 </r>
       <r>  -14.6488    1.0000 </r>
       <r>  -12.2992    1.0000 </r>
       <r>  -12.2992    1.0000 </r>
       <r>  -11.2307    1.0000 </r>
       <r>   -9.9135    1.0000 </r>
       <r>   -7.3452    1.0000 </r>
       <r>   -7.1249    1.0000 </r>
       <r>   -4.9710    1.0000 </r>
       <r>   -4.9710    1.0000 </r>
       <r>   -3.1493    1.0000 </r>
       <r>   -3.1492    1.0000 </r>
       <r>   -2.4667    1.0000 </r>
       <r>   -2.4666    1.0000 </r>
       <r>   -0.6315    0.0000 </r>
       <r>    1.1011    0.0000 </r>
       <r>    1.1012    0.0000 </r>
       <r>    1.7906    0.0000 </r>
       <r>    1.9217    0.0000 </r>
       <r>    4.5207    0.0000 </r>
       <r>    5.9130    0.0000 </r>
       <r>    6.3151    0.0000 </r>
       <r>    6.3151    0.0000 </r>
       <r>    7.6726    0.0000 </r>
       <r>    8.0796    0.0000 </r>
       <r>    8.0797    0.0000 </r>
       <r>    8.9955    0.0000 </r>
       <r>    9.1419    0.0000 </r>
       <r>    9.1419    0.0000 </r>
       <r>    9.2976    0.0000 </r>
       <r>    9.2976    0.0000 </r>
       <r>    9.5160    0.0000 </r>
       <r>   10.3273    0.0000 </r>
       <r>   10.6836    0.0000 </r>
       <r>   10.6836    0.0000 </r>
       <r>   11.3540    0.0000 </r>
       <r>   11.3541    0.0000 </r>
       <r>   11.3922    0.0000 </r>
       <r>   11.3995    0.0000 </r>
       <r>   11.9841    0.0000 </r>
       <r>   13.0008    0.0000 </r>
       <r>   13.0008    0.0000 </r>
       <r>   13.0285    0.0000 </r>
       <r>   13.1319    0.0000 </r>
       <r>   13.1319    0.0000 </r>
       <r>   13.1825    0.0000 </r>
       <r>   13.5279    0.0000 </r>
       <r>   15.6135    0.0000 </r>
       <r>   15.8008    0.0000 </r>
       <r>   15.8008    0.0000 </r>
       <r>   16.4913    0.0000 </r>
       <r>   18.2923    0.0000 </r>
       <r>   18.2923    0.0000 </r>
       <r>   18.8601    0.0000 </r>
       <r>   18.8602    0.0000 </r>
       <r>   19.1473    0.0000 </r>
       <r>   19.2290    0.0000 </r>
       <r>   19.5333    0.0000 </r>
       <r>   19.5333    0.0000 </r>
       <r>   19.7217    0.0000 </r>
       <r>   19.9888    0.0000 </r>
       <r>   19.9888    0.0000 </r>
       <r>   20.0167    0.0000 </r>
       <r>   20.4546    0.0000 </r>
       <r>   21.0813    0.0000 </r>
       <r>   21.3027    0.0000 </r>
       <r>   21.3027    0.0000 </r>
       <r>   22.8793    0.0000 </r>
       <r>   23.2968    0.0000 </r>
       <r>   23.2968    0.0000 </r>
       <r>   23.4397    0.0000 </r>
       <r>   23.4397    0.0000 </r>
       <r>   23.5738    0.0000 </r>
       <r>   24.0936    0.0000 </r>
       <r>   24.0936    0.0000 </r>
       <r>   24.4126    0.0000 </r>
       <r>   24.4126    0.0000 </r>
       <r>   24.5372    0.0000 </r>
       <r>   24.6374    0.0000 </r>
       <r>   24.8763    0.0000 </r>
       <r>   25.2174    0.0000 </r>
       <r>   25.2174    0.0000 </r>
       <r>   26.6516    0.0000 </r>
       <r>   26.6516    0.0000 </r>
       <r>   26.7538    0.0000 </r>
       <r>   26.7538    0.0000 </r>
       <r>   26.8463    0.0000 </r>
       <r>   27.0341    0.0000 </r>
       <r>   27.1216    0.0000 </r>
       <r>   27.7308    0.0000 </r>
       <r>   27.7308    0.0000 </r>
       <r>   27.7998    0.0000 </r>
       <r>   27.7998    0.0000 </r>
       <r>   27.8401    0.0000 </r>
       <r>   28.2967    0.0000 </r>
       <r>   28.2967    0.0000 </r>
       <r>   28.7936    0.0000 </r>
       <r>   28.7936    0.0000 </r>
       <r>   28.9524    0.0000 </r>
       <r>   29.6489    0.0000 </r>
       <r>   30.2897    0.0000 </r>
       <r>   31.1920    0.0000 </r>
       <r>   31.1920    0.0000 </r>
       <r>   31.4239    0.0000 </r>
       <r>   31.4816    0.0000 </r>
       <r>   31.4816    0.0000 </r>
       <r>   31.8841    0.0000 </r>
       <r>   32.0865    0.0000 </r>
       <r>   32.0865    0.0000 </r>
       <r>   32.4044    0.0000 </r>
       <r>   32.6844    0.0000 </r>
       <r>   33.2983    0.0000 </r>
       <r>   33.2983    0.0000 </r>
       <r>   33.3127    0.0000 </r>
       <r>   33.3127    0.0000 </r>
       <r>   33.4606    0.0000 </r>
       <r>   34.0099    0.0000 </r>
       <r>   34.9816    0.0000 </r>
       <r>   34.9816    0.0000 </r>
       <r>   35.0442    0.0000 </r>
       <r>   35.0442    0.0000 </r>
       <r>   35.2268    0.0000 </r>
       <r>   35.2268    0.0000 </r>
       <r>   35.8334    0.0000 </r>
       <r>   35.8655    0.0000 </r>
       <r>   35.8655    0.0000 </r>
       <r>   36.0454    0.0000 </r>
       <r>   36.6964    0.0000 </r>
       <r>   36.6964    0.0000 </r>
       <r>   37.0546    0.0000 </r>
       <r>   37.3010    0.0000 </r>
       <r>   37.3124    0.0000 </r>
       <r>   37.3124    0.0000 </r>
       <r>   37.3416    0.0000 </r>
       <r>   37.3416    0.0000 </r>
       <r>   37.3663    0.0000 </r>
       <r>   37.4564    0.0000 </r>
       <r>   37.4564    0.0000 </r>
       <r>   37.6595    0.0000 </r>
       <r>   37.8898    0.0000 </r>
       <r>   37.9469    0.0000 </r>
       <r>   38.2105    0.0000 </r>
       <r>   38.2105    0.0000 </r>
       <r>   38.5577    0.0000 </r>
       <r>   38.8474    0.0000 </r>
       <r>   38.8474    0.0000 </r>
       <r>   40.8943    0.0000 </r>
       <r>   42.2089    0.0000 </r>
       <r>   42.2089    0.0000 </r>
       <r>   42.3915    0.0000 </r>
       <r>   43.7541    0.0000 </r>
       <r>   43.7541    0.0000 </r>
       <r>   43.9385    0.0000 </r>
       <r>   43.9385    0.0000 </r>
       <r>   44.3103    0.0000 </r>
       <r>   44.3103    0.0000 </r>
       <r>   44.3566    0.0000 </r>
       <r>   44.4926    0.0000 </r>
       <r>   44.4926    0.0000 </r>
       <r>   44.7977    0.0000 </r>
       <r>   45.3264    0.0000 </r>
       <r>   45.3264    0.0000 </r>
       <r>   45.6092    0.0000 </r>
       <r>   45.6092    0.0000 </r>
       <r>   46.0655    0.0000 </r>
       <r>   46.5987    0.0000 </r>
       <r>   46.8263    0.0000 </r>
      </set>
      <set comment="kpoint 2">
       <r>  -18.5132    1.0000 </r>
       <r>  -14.7809    1.0000 </r>
       <r>  -14.6912    1.0000 </r>
       <r>  -12.3384    1.0000 </r>
       <r>  -12.2008    1.0000 </r>
       <r>  -11.0961    1.0000 </r>
       <r>   -9.7531    1.0000 </r>
       <r>   -7.3040    1.0000 </r>
       <r>   -7.1822    1.0000 </r>
       <r>   -5.0944    1.0000 </r>
       <r>   -4.9934    1.0000 </r>
       <r>   -3.2737    1.0000 </r>
       <r>   -3.1697    1.0000 </r>
       <r>   -2.6092    1.0000 </r>
       <r>   -2.5354    1.0000 </r>
       <r>   -0.8361    0.0000 </r>
       <r>    1.1605    0.0000 </r>
       <r>    1.4116    0.0000 </r>
       <r>    1.9153    0.0000 </r>
       <r>    1.9734    0.0000 </r>
       <r>    4.5728    0.0000 </r>
       <r>    5.9692    0.0000 </r>
       <r>    6.3866    0.0000 </r>
       <r>    6.4781    0.0000 </r>
       <r>    7.6627    0.0000 </r>
       <r>    8.0377    0.0000 </r>
       <r>    8.2336    0.0000 </r>
       <r>    8.2352    0.0000 </r>
       <r>    8.6808    0.0000 </r>
       <r>    8.7555    0.0000 </r>
       <r>    9.8480    0.0000 </r>
       <r>    9.8619    0.0000 </r>
       <r>    9.9124    0.0000 </r>
       <r>   10.3759    0.0000 </r>
       <r>   10.3995    0.0000 </r>
       <r>   10.4193    0.0000 </r>
       <r>   10.9077    0.0000 </r>
       <r>   11.4137    0.0000 </r>
       <r>   11.6687    0.0000 </r>
       <r>   12.0448    0.0000 </r>
       <r>   12.1516    0.0000 </r>
       <r>   12.3345    0.0000 </r>
       <r>   12.5608    0.0000 </r>
       <r>   12.8381    0.0000 </r>
       <r>   13.0972    0.0000 </r>
       <r>   13.6279    0.0000 </r>
       <r>   13.8001    0.0000 </r>
       <r>   14.2603    0.0000 </r>
       <r>   15.5623    0.0000 </r>
       <r>   15.6614    0.0000 </r>
       <r>   15.7181    0.0000 </r>
       <r>   16.2792    0.0000 </r>
       <r>   18.0211    0.0000 </r>
       <r>   18.0716    0.0000 </r>
       <r>   18.6452    0.0000 </r>
       <r>   18.9834    0.0000 </r>
       <r>   18.9928    0.0000 </r>
       <r>   19.3961    0.0000 </r>
       <r>   19.4430    0.0000 </r>
       <r>   19.8594    0.0000 </r>
       <r>   19.9227    0.0000 </r>
       <r>   19.9355    0.0000 </r>
       <r>   20.0222    0.0000 </r>
       <r>   20.0695    0.0000 </r>
       <r>   20.4469    0.0000 </r>
       <r>   20.9480    0.0000 </r>
       <r>   21.1306    0.0000 </r>
       <r>   21.1701    0.0000 </r>
       <r>   22.3006    0.0000 </r>
       <r>   22.5129    0.0000 </r>
       <r>   23.0923    0.0000 </r>
       <r>   23.5592    0.0000 </r>
       <r>   23.5744    0.0000 </r>
       <r>   23.6015    0.0000 </r>
       <r>   23.8165    0.0000 </r>
       <r>   24.0248    0.0000 </r>
       <r>   24.2674    0.0000 </r>
       <r>   24.5217    0.0000 </r>
       <r>   24.8306    0.0000 </r>
       <r>   24.9676    0.0000 </r>
       <r>   25.0475    0.0000 </r>
       <r>   25.5521    0.0000 </r>
       <r>   25.6964    0.0000 </r>
       <r>   25.7980    0.0000 </r>
       <r>   25.9189    0.0000 </r>
       <r>   26.1275    0.0000 </r>
       <r>   26.3973    0.0000 </r>
       <r>   26.9094    0.0000 </r>
       <r>   26.9234    0.0000 </r>
       <r>   27.0815    0.0000 </r>
       <r>   27.0849    0.0000 </r>
       <r>   27.5813    0.0000 </r>
       <r>   27.8918    0.0000 </r>
       <r>   28.1065    0.0000 </r>
       <r>   28.6632    0.0000 </r>
       <r>   28.9184    0.0000 </r>
       <r>   29.0466    0.0000 </r>
       <r>   29.1763    0.0000 </r>
       <r>   29.2646    0.0000 </r>
       <r>   29.6366    0.0000 </r>
       <r>   29.6478    0.0000 </r>
       <r>   30.1213    0.0000 </r>
       <r>   30.1818    0.0000 </r>
       <r>   30.7678    0.0000 </r>
       <r>   31.1259    0.0000 </r>
       <r>   31.8749    0.0000 </r>
       <r>   31.9108    0.0000 </r>
       <r>   32.0148    0.0000 </r>
       <r>   32.0886    0.0000 </r>
       <r>   32.5461    0.0000 </r>
       <r>   32.6542    0.0000 </r>
       <r>   32.9444    0.0000 </r>
       <r>   33.0816    0.0000 </r>
       <r>   33.3384    0.0000 </r>
       <r>   33.4640    0.0000 </r>
       <r>   33.5848    0.0000 </r>
       <r>   33.6087    0.0000 </r>
       <r>   33.8445    0.0000 </r>
       <r>   34.0075    0.0000 </r>
       <r>   34.0686    0.0000 </r>
       <r>   34.1281    0.0000 </r>
       <r>   34.2291    0.0000 </r>
       <r>   35.1281    0.0000 </r>
       <r>   35.9146    0.0000 </r>
       <r>   35.9610    0.0000 </r>
       <r>   35.9882    0.0000 </r>
       <r>   36.2332    0.0000 </r>
       <r>   36.3840    0.0000 </r>
       <r>   36.5942    0.0000 </r>
       <r>   36.7596    0.0000 </r>
       <r>   36.8647    0.0000 </r>
       <r>   37.0219    0.0000 </r>
       <r>   37.1188    0.0000 </r>
       <r>   37.2090    0.0000 </r>
       <r>   37.4568    0.0000 </r>
       <r>   37.5348    0.0000 </r>
       <r>   37.8830    0.0000 </r>
       <r>   37.9740    0.0000 </r>
       <r>   38.0606    0.0000 </r>
       <r>   38.1707    0.0000 </r>
       <r>   38.3342    0.0000 </r>
       <r>   38.4488    0.0000 </r>
       <r>   38.9582    0.0000 </r>
       <r>   39.0151    0.0000 </r>
       <r>   39.1512    0.0000 </r>
       <r>   39.7411    0.0000 </r>
       <r>   39.8913    0.0000 </r>
       <r>   40.4036    0.0000 </r>
       <r>   41.6591    0.0000 </r>
       <r>   41.7874    0.0000 </r>
       <r>   42.0183    0.0000 </r>
       <r>   43.0529    0.0000 </r>
       <r>   43.1371    0.0000 </r>
       <r>   43.1853    0.0000 </r>
       <r>   43.3711    0.0000 </r>
       <r>   43.6680    0.0000 </r>
       <r>   43.9100    0.0000 </r>
       <r>   44.3356    0.0000 </r>
       <r>   44.4581    0.0000 </r>
       <r>   44.7940    0.0000 </r>
       <r>   44.8728    0.0000 </r>
       <r>   45.0487    0.0000 </r>
       <r>   45.2335    0.0000 </r>
       <r>   46.1032    0.0000 </r>
       <r>   46.2269    0.0000 </r>
       <r>   46.3651    0.0000 </r>
       <r>   46.4216    0.0000 </r>
       <r>   46.8963    0.0000 </r>
      </set>
      <set comment="kpoint 3">
       <r>  -18.4341    1.0000 </r>
       <r>  -15.1059    1.0000 </r>
       <r>  -14.7954    1.0000 </r>
       <r>  -12.4549    1.0000 </r>
       <r>  -11.9317    1.0000 </r>
       <r>  -10.7149    1.0000 </r>
       <r>   -9.3237    1.0000 </r>
       <r>   -7.3645    1.0000 </r>
       <r>   -7.1816    1.0000 </r>
       <r>   -5.4404    1.0000 </r>
       <r>   -5.0296    1.0000 </r>
       <r>   -3.6157    1.0000 </r>
       <r>   -3.2240    1.0000 </r>
       <r>   -3.0165    1.0000 </r>
       <r>   -2.7272    1.0000 </r>
       <r>   -1.1839    0.0000 </r>
       <r>    1.3238    0.0000 </r>
       <r>    1.8881    0.0000 </r>
       <r>    2.1281    0.0000 </r>
       <r>    2.4358    0.0000 </r>
       <r>    4.7294    0.0000 </r>
       <r>    6.1240    0.0000 </r>
       <r>    6.5551    0.0000 </r>
       <r>    6.9440    0.0000 </r>
       <r>    6.9598    0.0000 </r>
       <r>    7.9146    0.0000 </r>
       <r>    8.1729    0.0000 </r>
       <r>    8.2020    0.0000 </r>
       <r>    8.5790    0.0000 </r>
       <r>    8.7436    0.0000 </r>
       <r>    9.0740    0.0000 </r>
       <r>    9.9077    0.0000 </r>
       <r>    9.9160    0.0000 </r>
       <r>   10.4672    0.0000 </r>
       <r>   10.5716    0.0000 </r>
       <r>   10.5788    0.0000 </r>
       <r>   10.9114    0.0000 </r>
       <r>   11.5894    0.0000 </r>
       <r>   11.8802    0.0000 </r>
       <r>   12.1077    0.0000 </r>
       <r>   12.1424    0.0000 </r>
       <r>   12.3419    0.0000 </r>
       <r>   12.6423    0.0000 </r>
       <r>   13.0075    0.0000 </r>
       <r>   13.4775    0.0000 </r>
       <r>   14.1695    0.0000 </r>
       <r>   14.3858    0.0000 </r>
       <r>   15.1545    0.0000 </r>
       <r>   15.2765    0.0000 </r>
       <r>   15.3889    0.0000 </r>
       <r>   15.7997    0.0000 </r>
       <r>   16.1743    0.0000 </r>
       <r>   17.3574    0.0000 </r>
       <r>   17.5941    0.0000 </r>
       <r>   17.8616    0.0000 </r>
       <r>   19.0273    0.0000 </r>
       <r>   19.0831    0.0000 </r>
       <r>   19.1612    0.0000 </r>
       <r>   19.5522    0.0000 </r>
       <r>   19.8344    0.0000 </r>
       <r>   19.9231    0.0000 </r>
       <r>   20.1859    0.0000 </r>
       <r>   20.2006    0.0000 </r>
       <r>   20.2953    0.0000 </r>
       <r>   20.4610    0.0000 </r>
       <r>   20.6854    0.0000 </r>
       <r>   20.9076    0.0000 </r>
       <r>   20.9177    0.0000 </r>
       <r>   20.9658    0.0000 </r>
       <r>   21.2974    0.0000 </r>
       <r>   23.1084    0.0000 </r>
       <r>   23.7417    0.0000 </r>
       <r>   23.7808    0.0000 </r>
       <r>   23.9368    0.0000 </r>
       <r>   24.0480    0.0000 </r>
       <r>   24.1155    0.0000 </r>
       <r>   24.2288    0.0000 </r>
       <r>   24.2478    0.0000 </r>
       <r>   24.4571    0.0000 </r>
       <r>   24.5114    0.0000 </r>
       <r>   24.6934    0.0000 </r>
       <r>   24.7126    0.0000 </r>
       <r>   25.1039    0.0000 </r>
       <r>   25.1717    0.0000 </r>
       <r>   25.2293    0.0000 </r>
       <r>   26.4776    0.0000 </r>
       <r>   26.6052    0.0000 </r>
       <r>   26.9337    0.0000 </r>
       <r>   27.0663    0.0000 </r>
       <r>   27.5561    0.0000 </r>
       <r>   27.7010    0.0000 </r>
       <r>   28.0595    0.0000 </r>
       <r>   28.1032    0.0000 </r>
       <r>   28.1118    0.0000 </r>
       <r>   28.1885    0.0000 </r>
       <r>   29.1207    0.0000 </r>
       <r>   29.1320    0.0000 </r>
       <r>   29.6998    0.0000 </r>
       <r>   29.7331    0.0000 </r>
       <r>   29.7997    0.0000 </r>
       <r>   30.2525    0.0000 </r>
       <r>   30.3510    0.0000 </r>
       <r>   30.5885    0.0000 </r>
       <r>   30.9582    0.0000 </r>
       <r>   30.9705    0.0000 </r>
       <r>   31.5020    0.0000 </r>
       <r>   31.7567    0.0000 </r>
       <r>   31.9397    0.0000 </r>
       <r>   32.6385    0.0000 </r>
       <r>   32.7569    0.0000 </r>
       <r>   32.8169    0.0000 </r>
       <r>   32.8397    0.0000 </r>
       <r>   32.9283    0.0000 </r>
       <r>   33.0869    0.0000 </r>
       <r>   33.1632    0.0000 </r>
       <r>   33.2361    0.0000 </r>
       <r>   33.7486    0.0000 </r>
       <r>   33.7648    0.0000 </r>
       <r>   33.9660    0.0000 </r>
       <r>   34.0186    0.0000 </r>
       <r>   34.2044    0.0000 </r>
       <r>   34.6047    0.0000 </r>
       <r>   34.9498    0.0000 </r>
       <r>   35.2437    0.0000 </r>
       <r>   35.4874    0.0000 </r>
       <r>   36.2302    0.0000 </r>
       <r>   36.5183    0.0000 </r>
       <r>   36.7573    0.0000 </r>
       <r>   36.8777    0.0000 </r>
       <r>   37.0315    0.0000 </r>
       <r>   37.0646    0.0000 </r>
       <r>   37.4346    0.0000 </r>
       <r>   37.5842    0.0000 </r>
       <r>   37.9624    0.0000 </r>
       <r>   38.0094    0.0000 </r>
       <r>   38.1555    0.0000 </r>
       <r>   38.4170    0.0000 </r>
       <r>   38.8542    0.0000 </r>
       <r>   38.8811    0.0000 </r>
       <r>   39.1132    0.0000 </r>
       <r>   39.2447    0.0000 </r>
       <r>   39.8819    0.0000 </r>
       <r>   39.9875    0.0000 </r>
       <r>   40.0175    0.0000 </r>
       <r>   40.2079    0.0000 </r>
       <r>   40.3686    0.0000 </r>
       <r>   40.5672    0.0000 </r>
       <r>   40.9918    0.0000 </r>
       <r>   41.4309    0.0000 </r>
       <r>   41.5055    0.0000 </r>
       <r>   41.6760    0.0000 </r>
       <r>   41.6996    0.0000 </r>
       <r>   41.7220    0.0000 </r>
       <r>   41.9303    0.0000 </r>
       <r>   42.6752    0.0000 </r>
       <r>   42.7148    0.0000 </r>
       <r>   43.5865    0.0000 </r>
       <r>   43.8867    0.0000 </r>
       <r>   44.2380    0.0000 </r>
       <r>   44.5378    0.0000 </r>
       <r>   44.5403    0.0000 </r>
       <r>   44.7224    0.0000 </r>
       <r>   44.7919    0.0000 </r>
       <r>   45.3049    0.0000 </r>
       <r>   45.7839    0.0000 </r>
       <r>   46.2576    0.0000 </r>
       <r>   46.9417    0.0000 </r>
       <r>   47.1444    0.0000 </r>
      </set>
      <set comment="kpoint 4">
       <r>  -18.3111    1.0000 </r>
       <r>  -15.5025    1.0000 </r>
       <r>  -14.9178    1.0000 </r>
       <r>  -12.6026    1.0000 </r>
       <r>  -11.5471    1.0000 </r>
       <r>  -10.1724    1.0000 </r>
       <r>   -8.7139    1.0000 </r>
       <r>   -7.6782    1.0000 </r>
       <r>   -6.9823    1.0000 </r>
       <r>   -5.9473    1.0000 </r>
       <r>   -5.0207    1.0000 </r>
       <r>   -4.0930    1.0000 </r>
       <r>   -3.6340    1.0000 </r>
       <r>   -3.2941    1.0000 </r>
       <r>   -3.0028    1.0000 </r>
       <r>   -1.4707    0.0000 </r>
       <r>    1.5522    0.0000 </r>
       <r>    2.2445    0.0000 </r>
       <r>    2.3849    0.0000 </r>
       <r>    3.3190    0.0000 </r>
       <r>    4.9927    0.0000 </r>
       <r>    6.0211    0.0000 </r>
       <r>    6.3584    0.0000 </r>
       <r>    6.7511    0.0000 </r>
       <r>    7.6029    0.0000 </r>
       <r>    7.8092    0.0000 </r>
       <r>    7.9266    0.0000 </r>
       <r>    8.1647    0.0000 </r>
       <r>    8.2206    0.0000 </r>
       <r>    8.9264    0.0000 </r>
       <r>    9.3180    0.0000 </r>
       <r>    9.4674    0.0000 </r>
       <r>    9.4698    0.0000 </r>
       <r>   10.1391    0.0000 </r>
       <r>   10.1768    0.0000 </r>
       <r>   11.1044    0.0000 </r>
       <r>   11.3401    0.0000 </r>
       <r>   11.7682    0.0000 </r>
       <r>   11.8214    0.0000 </r>
       <r>   12.3380    0.0000 </r>
       <r>   12.3959    0.0000 </r>
       <r>   12.5104    0.0000 </r>
       <r>   13.2333    0.0000 </r>
       <r>   13.2608    0.0000 </r>
       <r>   14.2225    0.0000 </r>
       <r>   14.4784    0.0000 </r>
       <r>   14.8590    0.0000 </r>
       <r>   15.0380    0.0000 </r>
       <r>   15.3045    0.0000 </r>
       <r>   16.0072    0.0000 </r>
       <r>   16.0964    0.0000 </r>
       <r>   16.2607    0.0000 </r>
       <r>   16.4635    0.0000 </r>
       <r>   17.1509    0.0000 </r>
       <r>   17.2038    0.0000 </r>
       <r>   18.7148    0.0000 </r>
       <r>   18.8973    0.0000 </r>
       <r>   18.9961    0.0000 </r>
       <r>   19.1637    0.0000 </r>
       <r>   19.3560    0.0000 </r>
       <r>   19.6341    0.0000 </r>
       <r>   19.6521    0.0000 </r>
       <r>   19.8567    0.0000 </r>
       <r>   20.1793    0.0000 </r>
       <r>   20.2805    0.0000 </r>
       <r>   20.6624    0.0000 </r>
       <r>   20.7056    0.0000 </r>
       <r>   21.0592    0.0000 </r>
       <r>   21.0780    0.0000 </r>
       <r>   21.4988    0.0000 </r>
       <r>   21.9505    0.0000 </r>
       <r>   22.9605    0.0000 </r>
       <r>   23.2358    0.0000 </r>
       <r>   23.2529    0.0000 </r>
       <r>   23.3291    0.0000 </r>
       <r>   23.5515    0.0000 </r>
       <r>   24.0815    0.0000 </r>
       <r>   24.5135    0.0000 </r>
       <r>   24.5438    0.0000 </r>
       <r>   24.5896    0.0000 </r>
       <r>   24.7054    0.0000 </r>
       <r>   25.0584    0.0000 </r>
       <r>   25.2804    0.0000 </r>
       <r>   25.5470    0.0000 </r>
       <r>   25.6479    0.0000 </r>
       <r>   25.6602    0.0000 </r>
       <r>   26.4057    0.0000 </r>
       <r>   26.7615    0.0000 </r>
       <r>   27.3091    0.0000 </r>
       <r>   28.0925    0.0000 </r>
       <r>   28.1525    0.0000 </r>
       <r>   28.1598    0.0000 </r>
       <r>   28.1715    0.0000 </r>
       <r>   28.3197    0.0000 </r>
       <r>   28.6563    0.0000 </r>
       <r>   28.6892    0.0000 </r>
       <r>   29.1922    0.0000 </r>
       <r>   29.5560    0.0000 </r>
       <r>   29.8650    0.0000 </r>
       <r>   29.9607    0.0000 </r>
       <r>   30.0805    0.0000 </r>
       <r>   30.1473    0.0000 </r>
       <r>   30.6552    0.0000 </r>
       <r>   30.9060    0.0000 </r>
       <r>   31.0702    0.0000 </r>
       <r>   31.7272    0.0000 </r>
       <r>   31.9407    0.0000 </r>
       <r>   31.9744    0.0000 </r>
       <r>   32.2557    0.0000 </r>
       <r>   32.4165    0.0000 </r>
       <r>   32.5241    0.0000 </r>
       <r>   32.5549    0.0000 </r>
       <r>   33.0529    0.0000 </r>
       <r>   33.4802    0.0000 </r>
       <r>   33.5835    0.0000 </r>
       <r>   33.8017    0.0000 </r>
       <r>   33.9561    0.0000 </r>
       <r>   34.1088    0.0000 </r>
       <r>   34.2691    0.0000 </r>
       <r>   34.6196    0.0000 </r>
       <r>   34.9734    0.0000 </r>
       <r>   35.1859    0.0000 </r>
       <r>   35.7166    0.0000 </r>
       <r>   35.7976    0.0000 </r>
       <r>   35.8135    0.0000 </r>
       <r>   36.4358    0.0000 </r>
       <r>   36.7285    0.0000 </r>
       <r>   36.8859    0.0000 </r>
       <r>   37.2446    0.0000 </r>
       <r>   37.2882    0.0000 </r>
       <r>   37.7699    0.0000 </r>
       <r>   37.8238    0.0000 </r>
       <r>   37.9895    0.0000 </r>
       <r>   38.6388    0.0000 </r>
       <r>   39.0195    0.0000 </r>
       <r>   39.0640    0.0000 </r>
       <r>   39.1075    0.0000 </r>
       <r>   39.2829    0.0000 </r>
       <r>   39.3790    0.0000 </r>
       <r>   39.5941    0.0000 </r>
       <r>   39.6123    0.0000 </r>
       <r>   39.7353    0.0000 </r>
       <r>   39.9602    0.0000 </r>
       <r>   40.1138    0.0000 </r>
       <r>   40.1251    0.0000 </r>
       <r>   40.2040    0.0000 </r>
       <r>   40.9925    0.0000 </r>
       <r>   41.3002    0.0000 </r>
       <r>   41.6598    0.0000 </r>
       <r>   41.7458    0.0000 </r>
       <r>   41.8535    0.0000 </r>
       <r>   41.9176    0.0000 </r>
       <r>   42.3695    0.0000 </r>
       <r>   42.4999    0.0000 </r>
       <r>   42.6064    0.0000 </r>
       <r>   42.8776    0.0000 </r>
       <r>   43.1819    0.0000 </r>
       <r>   43.5598    0.0000 </r>
       <r>   43.6217    0.0000 </r>
       <r>   43.9314    0.0000 </r>
       <r>   44.3277    0.0000 </r>
       <r>   44.6186    0.0000 </r>
       <r>   44.9663    0.0000 </r>
       <r>   45.2003    0.0000 </r>
       <r>   45.3725    0.0000 </r>
       <r>   45.4747    0.0000 </r>
       <r>   45.6654    0.0000 </r>
       <r>   46.2222    0.0000 </r>
      </set>
      <set comment="kpoint 5">
       <r>  -18.1625    1.0000 </r>
       <r>  -15.8797    1.0000 </r>
       <r>  -15.0239    1.0000 </r>
       <r>  -12.7316    1.0000 </r>
       <r>  -11.1092    1.0000 </r>
       <r>   -9.5491    1.0000 </r>
       <r>   -8.0852    1.0000 </r>
       <r>   -8.0108    1.0000 </r>
       <r>   -6.7177    1.0000 </r>
       <r>   -6.5247    1.0000 </r>
       <r>   -4.9417    1.0000 </r>
       <r>   -4.6103    1.0000 </r>
       <r>   -4.3954    1.0000 </r>
       <r>   -3.3602    1.0000 </r>
       <r>   -3.3072    1.0000 </r>
       <r>   -1.6689    0.0000 </r>
       <r>    1.7888    0.0000 </r>
       <r>    2.5685    0.0000 </r>
       <r>    2.7430    0.0000 </r>
       <r>    4.2903    0.0000 </r>
       <r>    5.1738    0.0000 </r>
       <r>    5.3723    0.0000 </r>
       <r>    6.6300    0.0000 </r>
       <r>    6.9218    0.0000 </r>
       <r>    7.4317    0.0000 </r>
       <r>    7.5747    0.0000 </r>
       <r>    7.6596    0.0000 </r>
       <r>    8.1261    0.0000 </r>
       <r>    8.5825    0.0000 </r>
       <r>    8.5992    0.0000 </r>
       <r>    9.1056    0.0000 </r>
       <r>    9.1461    0.0000 </r>
       <r>    9.8097    0.0000 </r>
       <r>    9.9117    0.0000 </r>
       <r>   10.3942    0.0000 </r>
       <r>   11.3233    0.0000 </r>
       <r>   11.5760    0.0000 </r>
       <r>   12.0495    0.0000 </r>
       <r>   12.1462    0.0000 </r>
       <r>   12.1731    0.0000 </r>
       <r>   12.2810    0.0000 </r>
       <r>   13.0014    0.0000 </r>
       <r>   13.5155    0.0000 </r>
       <r>   14.2023    0.0000 </r>
       <r>   14.2919    0.0000 </r>
       <r>   14.6098    0.0000 </r>
       <r>   14.9235    0.0000 </r>
       <r>   15.3296    0.0000 </r>
       <r>   15.4034    0.0000 </r>
       <r>   15.7518    0.0000 </r>
       <r>   16.3012    0.0000 </r>
       <r>   16.5796    0.0000 </r>
       <r>   16.6247    0.0000 </r>
       <r>   17.1348    0.0000 </r>
       <r>   17.2323    0.0000 </r>
       <r>   17.6843    0.0000 </r>
       <r>   17.8094    0.0000 </r>
       <r>   18.4659    0.0000 </r>
       <r>   18.6258    0.0000 </r>
       <r>   18.8087    0.0000 </r>
       <r>   19.7113    0.0000 </r>
       <r>   19.9249    0.0000 </r>
       <r>   20.0480    0.0000 </r>
       <r>   20.0842    0.0000 </r>
       <r>   20.2596    0.0000 </r>
       <r>   20.3208    0.0000 </r>
       <r>   20.6361    0.0000 </r>
       <r>   20.9062    0.0000 </r>
       <r>   21.0103    0.0000 </r>
       <r>   21.2642    0.0000 </r>
       <r>   21.6925    0.0000 </r>
       <r>   21.7278    0.0000 </r>
       <r>   22.1547    0.0000 </r>
       <r>   22.4047    0.0000 </r>
       <r>   23.2560    0.0000 </r>
       <r>   23.2649    0.0000 </r>
       <r>   23.8377    0.0000 </r>
       <r>   24.1045    0.0000 </r>
       <r>   24.1943    0.0000 </r>
       <r>   24.8458    0.0000 </r>
       <r>   24.8595    0.0000 </r>
       <r>   24.9236    0.0000 </r>
       <r>   25.7790    0.0000 </r>
       <r>   26.0006    0.0000 </r>
       <r>   26.7166    0.0000 </r>
       <r>   26.7677    0.0000 </r>
       <r>   26.8194    0.0000 </r>
       <r>   26.9807    0.0000 </r>
       <r>   27.2670    0.0000 </r>
       <r>   27.2937    0.0000 </r>
       <r>   27.3826    0.0000 </r>
       <r>   27.6980    0.0000 </r>
       <r>   28.1237    0.0000 </r>
       <r>   28.1329    0.0000 </r>
       <r>   28.5291    0.0000 </r>
       <r>   28.6794    0.0000 </r>
       <r>   29.2568    0.0000 </r>
       <r>   29.4999    0.0000 </r>
       <r>   29.8863    0.0000 </r>
       <r>   30.1178    0.0000 </r>
       <r>   30.2741    0.0000 </r>
       <r>   30.5257    0.0000 </r>
       <r>   30.8992    0.0000 </r>
       <r>   30.9636    0.0000 </r>
       <r>   31.0432    0.0000 </r>
       <r>   31.0750    0.0000 </r>
       <r>   31.7420    0.0000 </r>
       <r>   32.0779    0.0000 </r>
       <r>   32.1846    0.0000 </r>
       <r>   32.2946    0.0000 </r>
       <r>   32.4570    0.0000 </r>
       <r>   32.6305    0.0000 </r>
       <r>   33.0404    0.0000 </r>
       <r>   33.0521    0.0000 </r>
       <r>   33.9218    0.0000 </r>
       <r>   34.7892    0.0000 </r>
       <r>   34.8274    0.0000 </r>
       <r>   35.0880    0.0000 </r>
       <r>   35.2388    0.0000 </r>
       <r>   35.4682    0.0000 </r>
       <r>   35.5684    0.0000 </r>
       <r>   35.6783    0.0000 </r>
       <r>   36.0039    0.0000 </r>
       <r>   36.1773    0.0000 </r>
       <r>   36.7865    0.0000 </r>
       <r>   36.9575    0.0000 </r>
       <r>   37.0661    0.0000 </r>
       <r>   37.1216    0.0000 </r>
       <r>   37.7787    0.0000 </r>
       <r>   37.8099    0.0000 </r>
       <r>   38.0417    0.0000 </r>
       <r>   38.2040    0.0000 </r>
       <r>   38.5480    0.0000 </r>
       <r>   38.7291    0.0000 </r>
       <r>   38.8050    0.0000 </r>
       <r>   38.9357    0.0000 </r>
       <r>   39.0387    0.0000 </r>
       <r>   39.1935    0.0000 </r>
       <r>   39.6691    0.0000 </r>
       <r>   40.0621    0.0000 </r>
       <r>   40.3005    0.0000 </r>
       <r>   40.3501    0.0000 </r>
       <r>   40.6077    0.0000 </r>
       <r>   40.6511    0.0000 </r>
       <r>   40.7527    0.0000 </r>
       <r>   40.8179    0.0000 </r>
       <r>   40.9890    0.0000 </r>
       <r>   41.4842    0.0000 </r>
       <r>   41.4976    0.0000 </r>
       <r>   41.5840    0.0000 </r>
       <r>   41.8153    0.0000 </r>
       <r>   41.8484    0.0000 </r>
       <r>   41.9819    0.0000 </r>
       <r>   42.2135    0.0000 </r>
       <r>   42.2646    0.0000 </r>
       <r>   43.0424    0.0000 </r>
       <r>   43.0575    0.0000 </r>
       <r>   43.6263    0.0000 </r>
       <r>   44.0351    0.0000 </r>
       <r>   44.8254    0.0000 </r>
       <r>   44.9233    0.0000 </r>
       <r>   44.9617    0.0000 </r>
       <r>   45.0181    0.0000 </r>
       <r>   45.0418    0.0000 </r>
       <r>   45.1302    0.0000 </r>
       <r>   45.1441    0.0000 </r>
       <r>   45.3294    0.0000 </r>
       <r>   45.3355    0.0000 </r>
      </set>
      <set comment="kpoint 6">
       <r>  -18.0272    1.0000 </r>
       <r>  -16.1629    1.0000 </r>
       <r>  -15.0939    1.0000 </r>
       <r>  -12.8160    1.0000 </r>
       <r>  -10.7080    1.0000 </r>
       <r>   -8.9042    1.0000 </r>
       <r>   -8.4816    1.0000 </r>
       <r>   -7.5745    1.0000 </r>
       <r>   -6.7929    1.0000 </r>
       <r>   -6.4253    1.0000 </r>
       <r>   -5.2343    1.0000 </r>
       <r>   -5.0733    1.0000 </r>
       <r>   -4.8255    1.0000 </r>
       <r>   -3.5685    1.0000 </r>
       <r>   -3.4063    1.0000 </r>
       <r>   -1.7847    0.0000 </r>
       <r>    1.9692    0.0000 </r>
       <r>    2.8120    0.0000 </r>
       <r>    3.2016    0.0000 </r>
       <r>    4.4184    0.0000 </r>
       <r>    5.2007    0.0000 </r>
       <r>    5.8937    0.0000 </r>
       <r>    6.7443    0.0000 </r>
       <r>    6.7975    0.0000 </r>
       <r>    7.1991    0.0000 </r>
       <r>    7.4335    0.0000 </r>
       <r>    7.5840    0.0000 </r>
       <r>    7.7340    0.0000 </r>
       <r>    8.0166    0.0000 </r>
       <r>    8.6500    0.0000 </r>
       <r>    8.8572    0.0000 </r>
       <r>    9.5160    0.0000 </r>
       <r>    9.5495    0.0000 </r>
       <r>   10.6449    0.0000 </r>
       <r>   11.2326    0.0000 </r>
       <r>   11.2992    0.0000 </r>
       <r>   11.6977    0.0000 </r>
       <r>   11.9222    0.0000 </r>
       <r>   12.1340    0.0000 </r>
       <r>   12.1610    0.0000 </r>
       <r>   12.5332    0.0000 </r>
       <r>   13.4739    0.0000 </r>
       <r>   13.8226    0.0000 </r>
       <r>   13.9784    0.0000 </r>
       <r>   14.4402    0.0000 </r>
       <r>   14.5157    0.0000 </r>
       <r>   14.5333    0.0000 </r>
       <r>   14.8859    0.0000 </r>
       <r>   16.0731    0.0000 </r>
       <r>   16.2936    0.0000 </r>
       <r>   16.3614    0.0000 </r>
       <r>   16.4705    0.0000 </r>
       <r>   16.8056    0.0000 </r>
       <r>   17.2299    0.0000 </r>
       <r>   17.4944    0.0000 </r>
       <r>   17.5993    0.0000 </r>
       <r>   17.8535    0.0000 </r>
       <r>   18.0816    0.0000 </r>
       <r>   18.1855    0.0000 </r>
       <r>   18.3931    0.0000 </r>
       <r>   19.2319    0.0000 </r>
       <r>   19.3262    0.0000 </r>
       <r>   19.9117    0.0000 </r>
       <r>   20.0815    0.0000 </r>
       <r>   20.1586    0.0000 </r>
       <r>   20.3208    0.0000 </r>
       <r>   20.3607    0.0000 </r>
       <r>   20.5816    0.0000 </r>
       <r>   20.6691    0.0000 </r>
       <r>   21.2355    0.0000 </r>
       <r>   21.4672    0.0000 </r>
       <r>   21.5752    0.0000 </r>
       <r>   21.6759    0.0000 </r>
       <r>   21.7734    0.0000 </r>
       <r>   22.9441    0.0000 </r>
       <r>   23.6443    0.0000 </r>
       <r>   23.8383    0.0000 </r>
       <r>   23.8481    0.0000 </r>
       <r>   24.0304    0.0000 </r>
       <r>   24.4372    0.0000 </r>
       <r>   24.6008    0.0000 </r>
       <r>   25.2913    0.0000 </r>
       <r>   25.6794    0.0000 </r>
       <r>   26.4236    0.0000 </r>
       <r>   26.4270    0.0000 </r>
       <r>   26.4999    0.0000 </r>
       <r>   27.1312    0.0000 </r>
       <r>   27.3482    0.0000 </r>
       <r>   27.4076    0.0000 </r>
       <r>   27.4819    0.0000 </r>
       <r>   27.6466    0.0000 </r>
       <r>   27.9119    0.0000 </r>
       <r>   28.0444    0.0000 </r>
       <r>   28.0530    0.0000 </r>
       <r>   29.0204    0.0000 </r>
       <r>   29.1305    0.0000 </r>
       <r>   29.5580    0.0000 </r>
       <r>   29.6028    0.0000 </r>
       <r>   29.6518    0.0000 </r>
       <r>   29.8219    0.0000 </r>
       <r>   30.2210    0.0000 </r>
       <r>   30.3000    0.0000 </r>
       <r>   30.3297    0.0000 </r>
       <r>   30.6964    0.0000 </r>
       <r>   31.0138    0.0000 </r>
       <r>   31.2065    0.0000 </r>
       <r>   31.3579    0.0000 </r>
       <r>   31.6073    0.0000 </r>
       <r>   31.7101    0.0000 </r>
       <r>   32.2821    0.0000 </r>
       <r>   32.3508    0.0000 </r>
       <r>   33.6159    0.0000 </r>
       <r>   33.7224    0.0000 </r>
       <r>   34.1765    0.0000 </r>
       <r>   34.3867    0.0000 </r>
       <r>   34.5317    0.0000 </r>
       <r>   34.5825    0.0000 </r>
       <r>   34.6123    0.0000 </r>
       <r>   34.9067    0.0000 </r>
       <r>   35.2682    0.0000 </r>
       <r>   35.5431    0.0000 </r>
       <r>   36.3325    0.0000 </r>
       <r>   37.4780    0.0000 </r>
       <r>   37.5085    0.0000 </r>
       <r>   37.6507    0.0000 </r>
       <r>   37.6847    0.0000 </r>
       <r>   37.7428    0.0000 </r>
       <r>   37.8106    0.0000 </r>
       <r>   37.9395    0.0000 </r>
       <r>   38.4678    0.0000 </r>
       <r>   38.4988    0.0000 </r>
       <r>   38.7099    0.0000 </r>
       <r>   38.9982    0.0000 </r>
       <r>   39.0633    0.0000 </r>
       <r>   39.2265    0.0000 </r>
       <r>   39.3989    0.0000 </r>
       <r>   39.4787    0.0000 </r>
       <r>   39.6422    0.0000 </r>
       <r>   39.6754    0.0000 </r>
       <r>   39.9261    0.0000 </r>
       <r>   39.9653    0.0000 </r>
       <r>   40.0463    0.0000 </r>
       <r>   40.4955    0.0000 </r>
       <r>   40.5139    0.0000 </r>
       <r>   40.9819    0.0000 </r>
       <r>   41.0215    0.0000 </r>
       <r>   41.2677    0.0000 </r>
       <r>   41.3247    0.0000 </r>
       <r>   41.7321    0.0000 </r>
       <r>   41.8725    0.0000 </r>
       <r>   41.9732    0.0000 </r>
       <r>   42.0752    0.0000 </r>
       <r>   42.1973    0.0000 </r>
       <r>   42.4914    0.0000 </r>
       <r>   42.4994    0.0000 </r>
       <r>   43.0482    0.0000 </r>
       <r>   43.1188    0.0000 </r>
       <r>   43.1882    0.0000 </r>
       <r>   43.2596    0.0000 </r>
       <r>   43.3000    0.0000 </r>
       <r>   43.3578    0.0000 </r>
       <r>   43.5294    0.0000 </r>
       <r>   43.6799    0.0000 </r>
       <r>   44.6417    0.0000 </r>
       <r>   44.6720    0.0000 </r>
       <r>   44.8853    0.0000 </r>
       <r>   45.4007    0.0000 </r>
       <r>   45.4470    0.0000 </r>
      </set>
      <set comment="kpoint 7">
       <r>  -17.9687    1.0000 </r>
       <r>  -16.2722    1.0000 </r>
       <r>  -15.1182    1.0000 </r>
       <r>  -12.8452    1.0000 </r>
       <r>  -10.5233    1.0000 </r>
       <r>   -8.6674    1.0000 </r>
       <r>   -8.4603    1.0000 </r>
       <r>   -7.8540    1.0000 </r>
       <r>   -6.2579    1.0000 </r>
       <r>   -6.2284    1.0000 </r>
       <r>   -5.9752    1.0000 </r>
       <r>   -5.3004    1.0000 </r>
       <r>   -4.7629    1.0000 </r>
       <r>   -3.6806    1.0000 </r>
       <r>   -3.4227    1.0000 </r>
       <r>   -1.8229    0.0000 </r>
       <r>    2.0369    0.0000 </r>
       <r>    2.9042    0.0000 </r>
       <r>    3.7591    0.0000 </r>
       <r>    3.7616    0.0000 </r>
       <r>    5.8295    0.0000 </r>
       <r>    6.0178    0.0000 </r>
       <r>    6.6833    0.0000 </r>
       <r>    6.8324    0.0000 </r>
       <r>    7.0070    0.0000 </r>
       <r>    7.3848    0.0000 </r>
       <r>    7.5018    0.0000 </r>
       <r>    7.5244    0.0000 </r>
       <r>    7.8615    0.0000 </r>
       <r>    8.4188    0.0000 </r>
       <r>    8.7679    0.0000 </r>
       <r>    9.4538    0.0000 </r>
       <r>   10.0363    0.0000 </r>
       <r>   11.0875    0.0000 </r>
       <r>   11.2965    0.0000 </r>
       <r>   11.3093    0.0000 </r>
       <r>   11.8230    0.0000 </r>
       <r>   11.8675    0.0000 </r>
       <r>   12.0688    0.0000 </r>
       <r>   12.5005    0.0000 </r>
       <r>   12.7063    0.0000 </r>
       <r>   12.8630    0.0000 </r>
       <r>   13.6413    0.0000 </r>
       <r>   14.0529    0.0000 </r>
       <r>   14.3493    0.0000 </r>
       <r>   14.6915    0.0000 </r>
       <r>   15.0594    0.0000 </r>
       <r>   15.2109    0.0000 </r>
       <r>   15.3651    0.0000 </r>
       <r>   15.3664    0.0000 </r>
       <r>   16.6211    0.0000 </r>
       <r>   16.9789    0.0000 </r>
       <r>   17.1612    0.0000 </r>
       <r>   17.3312    0.0000 </r>
       <r>   17.3606    0.0000 </r>
       <r>   17.7409    0.0000 </r>
       <r>   18.2136    0.0000 </r>
       <r>   18.3643    0.0000 </r>
       <r>   18.5835    0.0000 </r>
       <r>   18.6120    0.0000 </r>
       <r>   18.8324    0.0000 </r>
       <r>   18.9763    0.0000 </r>
       <r>   19.1429    0.0000 </r>
       <r>   19.3566    0.0000 </r>
       <r>   19.9079    0.0000 </r>
       <r>   19.9569    0.0000 </r>
       <r>   20.0143    0.0000 </r>
       <r>   20.1817    0.0000 </r>
       <r>   20.9535    0.0000 </r>
       <r>   21.1326    0.0000 </r>
       <r>   21.6406    0.0000 </r>
       <r>   21.7580    0.0000 </r>
       <r>   22.4412    0.0000 </r>
       <r>   22.5453    0.0000 </r>
       <r>   22.5762    0.0000 </r>
       <r>   22.6512    0.0000 </r>
       <r>   23.6180    0.0000 </r>
       <r>   23.8592    0.0000 </r>
       <r>   23.9896    0.0000 </r>
       <r>   24.0510    0.0000 </r>
       <r>   24.6837    0.0000 </r>
       <r>   25.4785    0.0000 </r>
       <r>   25.8082    0.0000 </r>
       <r>   25.8779    0.0000 </r>
       <r>   26.7758    0.0000 </r>
       <r>   26.8048    0.0000 </r>
       <r>   26.8170    0.0000 </r>
       <r>   27.1894    0.0000 </r>
       <r>   27.4249    0.0000 </r>
       <r>   27.4830    0.0000 </r>
       <r>   27.9756    0.0000 </r>
       <r>   28.0416    0.0000 </r>
       <r>   28.0484    0.0000 </r>
       <r>   28.8468    0.0000 </r>
       <r>   28.9853    0.0000 </r>
       <r>   29.0125    0.0000 </r>
       <r>   29.5492    0.0000 </r>
       <r>   29.6296    0.0000 </r>
       <r>   29.6772    0.0000 </r>
       <r>   29.7181    0.0000 </r>
       <r>   30.3493    0.0000 </r>
       <r>   30.4480    0.0000 </r>
       <r>   30.5398    0.0000 </r>
       <r>   30.6617    0.0000 </r>
       <r>   30.7937    0.0000 </r>
       <r>   30.9544    0.0000 </r>
       <r>   31.3317    0.0000 </r>
       <r>   31.3867    0.0000 </r>
       <r>   32.0574    0.0000 </r>
       <r>   32.1985    0.0000 </r>
       <r>   32.6911    0.0000 </r>
       <r>   32.7768    0.0000 </r>
       <r>   32.9954    0.0000 </r>
       <r>   33.2954    0.0000 </r>
       <r>   34.1025    0.0000 </r>
       <r>   34.3971    0.0000 </r>
       <r>   35.2177    0.0000 </r>
       <r>   35.3890    0.0000 </r>
       <r>   36.0993    0.0000 </r>
       <r>   36.2766    0.0000 </r>
       <r>   36.2958    0.0000 </r>
       <r>   36.4642    0.0000 </r>
       <r>   36.7282    0.0000 </r>
       <r>   37.0847    0.0000 </r>
       <r>   37.5441    0.0000 </r>
       <r>   37.6053    0.0000 </r>
       <r>   37.8529    0.0000 </r>
       <r>   38.1464    0.0000 </r>
       <r>   38.1501    0.0000 </r>
       <r>   38.7016    0.0000 </r>
       <r>   38.7568    0.0000 </r>
       <r>   39.0227    0.0000 </r>
       <r>   39.1861    0.0000 </r>
       <r>   39.3287    0.0000 </r>
       <r>   39.4010    0.0000 </r>
       <r>   39.4258    0.0000 </r>
       <r>   39.5871    0.0000 </r>
       <r>   39.9373    0.0000 </r>
       <r>   40.1680    0.0000 </r>
       <r>   40.4537    0.0000 </r>
       <r>   40.5255    0.0000 </r>
       <r>   40.6248    0.0000 </r>
       <r>   40.6467    0.0000 </r>
       <r>   40.7621    0.0000 </r>
       <r>   40.9160    0.0000 </r>
       <r>   41.2621    0.0000 </r>
       <r>   41.4603    0.0000 </r>
       <r>   41.4751    0.0000 </r>
       <r>   41.6013    0.0000 </r>
       <r>   41.6817    0.0000 </r>
       <r>   41.6992    0.0000 </r>
       <r>   41.8627    0.0000 </r>
       <r>   41.9437    0.0000 </r>
       <r>   42.0061    0.0000 </r>
       <r>   42.0875    0.0000 </r>
       <r>   42.2696    0.0000 </r>
       <r>   42.4282    0.0000 </r>
       <r>   42.6036    0.0000 </r>
       <r>   43.0445    0.0000 </r>
       <r>   43.2096    0.0000 </r>
       <r>   43.6206    0.0000 </r>
       <r>   43.7131    0.0000 </r>
       <r>   43.8801    0.0000 </r>
       <r>   44.1396    0.0000 </r>
       <r>   44.8172    0.0000 </r>
       <r>   44.8381    0.0000 </r>
       <r>   44.9977    0.0000 </r>
       <r>   45.1072    0.0000 </r>
      </set>
      <set comment="kpoint 8">
       <r>  -18.4601    1.0000 </r>
       <r>  -14.9943    1.0000 </r>
       <r>  -14.7809    1.0000 </r>
       <r>  -12.3670    1.0000 </r>
       <r>  -12.0744    1.0000 </r>
       <r>  -10.8255    1.0000 </r>
       <r>   -9.4616    1.0000 </r>
       <r>   -7.3045    1.0000 </r>
       <r>   -7.2222    1.0000 </r>
       <r>   -5.3045    1.0000 </r>
       <r>   -5.0454    1.0000 </r>
       <r>   -3.4865    1.0000 </r>
       <r>   -3.2340    1.0000 </r>
       <r>   -2.8750    1.0000 </r>
       <r>   -2.6748    1.0000 </r>
       <r>   -1.0765    0.0000 </r>
       <r>    1.1928    0.0000 </r>
       <r>    1.9201    0.0000 </r>
       <r>    2.0766    0.0000 </r>
       <r>    2.1721    0.0000 </r>
       <r>    4.6771    0.0000 </r>
       <r>    6.0776    0.0000 </r>
       <r>    6.5380    0.0000 </r>
       <r>    6.7516    0.0000 </r>
       <r>    7.3986    0.0000 </r>
       <r>    7.5582    0.0000 </r>
       <r>    8.0759    0.0000 </r>
       <r>    8.3552    0.0000 </r>
       <r>    8.5474    0.0000 </r>
       <r>    9.2291    0.0000 </r>
       <r>    9.4118    0.0000 </r>
       <r>    9.5260    0.0000 </r>
       <r>    9.6858    0.0000 </r>
       <r>   10.2460    0.0000 </r>
       <r>   10.7998    0.0000 </r>
       <r>   10.8126    0.0000 </r>
       <r>   11.1324    0.0000 </r>
       <r>   11.4092    0.0000 </r>
       <r>   11.5924    0.0000 </r>
       <r>   11.7043    0.0000 </r>
       <r>   12.1663    0.0000 </r>
       <r>   12.7034    0.0000 </r>
       <r>   12.7084    0.0000 </r>
       <r>   13.2664    0.0000 </r>
       <r>   13.2707    0.0000 </r>
       <r>   13.3116    0.0000 </r>
       <r>   14.6751    0.0000 </r>
       <r>   14.8541    0.0000 </r>
       <r>   15.0942    0.0000 </r>
       <r>   15.7535    0.0000 </r>
       <r>   15.7542    0.0000 </r>
       <r>   16.0620    0.0000 </r>
       <r>   17.5711    0.0000 </r>
       <r>   17.7323    0.0000 </r>
       <r>   18.0866    0.0000 </r>
       <r>   18.7975    0.0000 </r>
       <r>   19.2809    0.0000 </r>
       <r>   19.3447    0.0000 </r>
       <r>   19.6799    0.0000 </r>
       <r>   19.7002    0.0000 </r>
       <r>   19.7886    0.0000 </r>
       <r>   19.9487    0.0000 </r>
       <r>   20.3937    0.0000 </r>
       <r>   20.4966    0.0000 </r>
       <r>   20.5031    0.0000 </r>
       <r>   20.6163    0.0000 </r>
       <r>   20.7882    0.0000 </r>
       <r>   20.9393    0.0000 </r>
       <r>   21.1718    0.0000 </r>
       <r>   22.5187    0.0000 </r>
       <r>   22.5238    0.0000 </r>
       <r>   23.2618    0.0000 </r>
       <r>   23.6610    0.0000 </r>
       <r>   23.8736    0.0000 </r>
       <r>   23.9585    0.0000 </r>
       <r>   24.0196    0.0000 </r>
       <r>   24.1366    0.0000 </r>
       <r>   24.4987    0.0000 </r>
       <r>   24.5861    0.0000 </r>
       <r>   24.5924    0.0000 </r>
       <r>   24.9850    0.0000 </r>
       <r>   24.9984    0.0000 </r>
       <r>   25.7623    0.0000 </r>
       <r>   25.8278    0.0000 </r>
       <r>   25.9447    0.0000 </r>
       <r>   26.0228    0.0000 </r>
       <r>   26.2519    0.0000 </r>
       <r>   26.4644    0.0000 </r>
       <r>   26.6504    0.0000 </r>
       <r>   27.2927    0.0000 </r>
       <r>   27.3911    0.0000 </r>
       <r>   28.0323    0.0000 </r>
       <r>   28.0424    0.0000 </r>
       <r>   28.1296    0.0000 </r>
       <r>   28.3527    0.0000 </r>
       <r>   28.9976    0.0000 </r>
       <r>   29.1798    0.0000 </r>
       <r>   29.5464    0.0000 </r>
       <r>   29.6700    0.0000 </r>
       <r>   29.8667    0.0000 </r>
       <r>   30.1911    0.0000 </r>
       <r>   30.4004    0.0000 </r>
       <r>   31.0275    0.0000 </r>
       <r>   31.2333    0.0000 </r>
       <r>   31.4941    0.0000 </r>
       <r>   31.6245    0.0000 </r>
       <r>   31.6318    0.0000 </r>
       <r>   31.8743    0.0000 </r>
       <r>   32.0655    0.0000 </r>
       <r>   32.2723    0.0000 </r>
       <r>   32.4690    0.0000 </r>
       <r>   32.5777    0.0000 </r>
       <r>   32.7464    0.0000 </r>
       <r>   32.7535    0.0000 </r>
       <r>   32.7708    0.0000 </r>
       <r>   33.4091    0.0000 </r>
       <r>   33.6079    0.0000 </r>
       <r>   33.9290    0.0000 </r>
       <r>   34.0033    0.0000 </r>
       <r>   34.8529    0.0000 </r>
       <r>   35.0592    0.0000 </r>
       <r>   35.1432    0.0000 </r>
       <r>   35.3567    0.0000 </r>
       <r>   35.4891    0.0000 </r>
       <r>   35.5772    0.0000 </r>
       <r>   35.6795    0.0000 </r>
       <r>   35.7196    0.0000 </r>
       <r>   36.2098    0.0000 </r>
       <r>   36.4418    0.0000 </r>
       <r>   36.4684    0.0000 </r>
       <r>   36.8738    0.0000 </r>
       <r>   37.0586    0.0000 </r>
       <r>   37.2995    0.0000 </r>
       <r>   37.3067    0.0000 </r>
       <r>   38.1912    0.0000 </r>
       <r>   38.2679    0.0000 </r>
       <r>   38.8224    0.0000 </r>
       <r>   38.9144    0.0000 </r>
       <r>   39.1468    0.0000 </r>
       <r>   39.2301    0.0000 </r>
       <r>   39.3077    0.0000 </r>
       <r>   39.3164    0.0000 </r>
       <r>   39.3304    0.0000 </r>
       <r>   39.8281    0.0000 </r>
       <r>   40.0284    0.0000 </r>
       <r>   40.1675    0.0000 </r>
       <r>   40.1699    0.0000 </r>
       <r>   40.7409    0.0000 </r>
       <r>   41.1723    0.0000 </r>
       <r>   41.2858    0.0000 </r>
       <r>   41.5298    0.0000 </r>
       <r>   41.8178    0.0000 </r>
       <r>   41.9503    0.0000 </r>
       <r>   42.7353    0.0000 </r>
       <r>   42.7981    0.0000 </r>
       <r>   43.5426    0.0000 </r>
       <r>   43.5521    0.0000 </r>
       <r>   43.7493    0.0000 </r>
       <r>   44.2006    0.0000 </r>
       <r>   44.6138    0.0000 </r>
       <r>   44.9483    0.0000 </r>
       <r>   44.9528    0.0000 </r>
       <r>   45.2113    0.0000 </r>
       <r>   45.9019    0.0000 </r>
       <r>   45.9341    0.0000 </r>
       <r>   46.2868    0.0000 </r>
       <r>   46.3631    0.0000 </r>
       <r>   46.5218    0.0000 </r>
      </set>
      <set comment="kpoint 9">
       <r>  -18.3587    1.0000 </r>
       <r>  -15.3297    1.0000 </r>
       <r>  -14.9244    1.0000 </r>
       <r>  -12.4374    1.0000 </r>
       <r>  -11.8221    1.0000 </r>
       <r>  -10.3336    1.0000 </r>
       <r>   -8.9537    1.0000 </r>
       <r>   -7.5669    1.0000 </r>
       <r>   -7.0611    1.0000 </r>
       <r>   -5.6745    1.0000 </r>
       <r>   -5.1027    1.0000 </r>
       <r>   -3.8636    1.0000 </r>
       <r>   -3.3655    1.0000 </r>
       <r>   -3.3565    1.0000 </r>
       <r>   -2.9300    1.0000 </r>
       <r>   -1.3035    0.0000 </r>
       <r>    1.2600    0.0000 </r>
       <r>    2.2825    0.0000 </r>
       <r>    2.4279    0.0000 </r>
       <r>    2.8510    0.0000 </r>
       <r>    4.8861    0.0000 </r>
       <r>    6.2808    0.0000 </r>
       <r>    6.5078    0.0000 </r>
       <r>    6.7723    0.0000 </r>
       <r>    7.1502    0.0000 </r>
       <r>    7.2481    0.0000 </r>
       <r>    8.2401    0.0000 </r>
       <r>    8.6339    0.0000 </r>
       <r>    8.6392    0.0000 </r>
       <r>    9.0266    0.0000 </r>
       <r>    9.0745    0.0000 </r>
       <r>    9.1530    0.0000 </r>
       <r>    9.7711    0.0000 </r>
       <r>   10.1428    0.0000 </r>
       <r>   10.4882    0.0000 </r>
       <r>   10.5456    0.0000 </r>
       <r>   11.0698    0.0000 </r>
       <r>   11.7230    0.0000 </r>
       <r>   11.9531    0.0000 </r>
       <r>   12.1359    0.0000 </r>
       <r>   12.5589    0.0000 </r>
       <r>   12.9163    0.0000 </r>
       <r>   13.0498    0.0000 </r>
       <r>   13.1819    0.0000 </r>
       <r>   13.7879    0.0000 </r>
       <r>   13.8784    0.0000 </r>
       <r>   14.6673    0.0000 </r>
       <r>   15.0635    0.0000 </r>
       <r>   15.6424    0.0000 </r>
       <r>   15.7272    0.0000 </r>
       <r>   15.9300    0.0000 </r>
       <r>   16.1285    0.0000 </r>
       <r>   16.9985    0.0000 </r>
       <r>   17.2342    0.0000 </r>
       <r>   17.4622    0.0000 </r>
       <r>   18.5950    0.0000 </r>
       <r>   18.8063    0.0000 </r>
       <r>   19.1417    0.0000 </r>
       <r>   19.3697    0.0000 </r>
       <r>   19.5440    0.0000 </r>
       <r>   19.7248    0.0000 </r>
       <r>   19.8257    0.0000 </r>
       <r>   20.1113    0.0000 </r>
       <r>   20.3707    0.0000 </r>
       <r>   20.4668    0.0000 </r>
       <r>   20.6286    0.0000 </r>
       <r>   20.9226    0.0000 </r>
       <r>   21.0740    0.0000 </r>
       <r>   21.1664    0.0000 </r>
       <r>   21.4502    0.0000 </r>
       <r>   22.1496    0.0000 </r>
       <r>   22.6793    0.0000 </r>
       <r>   23.1242    0.0000 </r>
       <r>   23.2068    0.0000 </r>
       <r>   23.8068    0.0000 </r>
       <r>   24.0762    0.0000 </r>
       <r>   24.0992    0.0000 </r>
       <r>   24.3011    0.0000 </r>
       <r>   24.5136    0.0000 </r>
       <r>   25.0531    0.0000 </r>
       <r>   25.1449    0.0000 </r>
       <r>   25.1929    0.0000 </r>
       <r>   25.2353    0.0000 </r>
       <r>   25.3105    0.0000 </r>
       <r>   25.8855    0.0000 </r>
       <r>   26.0007    0.0000 </r>
       <r>   26.1849    0.0000 </r>
       <r>   26.2052    0.0000 </r>
       <r>   26.9497    0.0000 </r>
       <r>   27.0710    0.0000 </r>
       <r>   27.4627    0.0000 </r>
       <r>   28.0074    0.0000 </r>
       <r>   28.0409    0.0000 </r>
       <r>   28.2909    0.0000 </r>
       <r>   29.2070    0.0000 </r>
       <r>   29.4427    0.0000 </r>
       <r>   29.8030    0.0000 </r>
       <r>   29.8838    0.0000 </r>
       <r>   29.9485    0.0000 </r>
       <r>   30.0936    0.0000 </r>
       <r>   30.3367    0.0000 </r>
       <r>   30.5370    0.0000 </r>
       <r>   30.5824    0.0000 </r>
       <r>   30.7176    0.0000 </r>
       <r>   31.1731    0.0000 </r>
       <r>   31.3766    0.0000 </r>
       <r>   31.4251    0.0000 </r>
       <r>   31.5442    0.0000 </r>
       <r>   31.8706    0.0000 </r>
       <r>   32.0762    0.0000 </r>
       <r>   32.6805    0.0000 </r>
       <r>   32.9547    0.0000 </r>
       <r>   33.2241    0.0000 </r>
       <r>   33.3846    0.0000 </r>
       <r>   33.6857    0.0000 </r>
       <r>   33.6994    0.0000 </r>
       <r>   34.0043    0.0000 </r>
       <r>   34.1939    0.0000 </r>
       <r>   34.1999    0.0000 </r>
[...]
       <r>    38.9235     8.1102   271.2779 </r>
       <r>    38.9536     4.5173   271.4140 </r>
       <r>    38.9838    10.9906   271.7450 </r>
       <r>    39.0139     9.3147   272.0255 </r>
       <r>    39.0440    10.9915   272.3566 </r>
       <r>    39.0741     7.4437   272.5808 </r>
       <r>    39.1042    12.6432   272.9616 </r>
       <r>    39.1344     5.6640   273.1322 </r>
       <r>    39.1645    12.4156   273.5061 </r>
       <r>    39.1946    21.6654   274.1586 </r>
       <r>    39.2247     6.2760   274.3476 </r>
       <r>    39.2548    16.7248   274.8513 </r>
       <r>    39.2849     6.0474   275.0335 </r>
       <r>    39.3151     5.2669   275.1921 </r>
       <r>    39.3452     7.3321   275.4129 </r>
       <r>    39.3753    17.8882   275.9517 </r>
       <r>    39.4054    13.5933   276.3611 </r>
       <r>    39.4355     6.4529   276.5555 </r>
       <r>    39.4656     5.3412   276.7163 </r>
       <r>    39.4958    18.4545   277.2721 </r>
       <r>    39.5259     3.6012   277.3806 </r>
       <r>    39.5560    16.1525   277.8671 </r>
       <r>    39.5861     4.6642   278.0076 </r>
       <r>    39.6162    18.9269   278.5776 </r>
       <r>    39.6464     8.5740   278.8358 </r>
       <r>    39.6765     6.6212   279.0352 </r>
       <r>    39.7066     6.9826   279.2455 </r>
       <r>    39.7367    10.4907   279.5615 </r>
       <r>    39.7668     5.7334   279.7342 </r>
       <r>    39.7969     9.7360   280.0274 </r>
       <r>    39.8271     3.8590   280.1436 </r>
       <r>    39.8572    11.8893   280.5017 </r>
       <r>    39.8873    15.1104   280.9568 </r>
       <r>    39.9174     8.1927   281.2036 </r>
       <r>    39.9475     4.1405   281.3283 </r>
       <r>    39.9777    15.0409   281.7813 </r>
       <r>    40.0078    11.5379   282.1288 </r>
       <r>    40.0379     5.8865   282.3061 </r>
       <r>    40.0680    14.2725   282.7359 </r>
       <r>    40.0981     7.3957   282.9587 </r>
       <r>    40.1282     7.3142   283.1790 </r>
       <r>    40.1584    11.4273   283.5231 </r>
       <r>    40.1885    10.1533   283.8289 </r>
       <r>    40.2186    10.6832   284.1507 </r>
       <r>    40.2487     6.0638   284.3333 </r>
       <r>    40.2788     0.0040   284.3334 </r>
       <r>    40.3090     5.2594   284.4918 </r>
       <r>    40.3391     9.1340   284.7669 </r>
       <r>    40.3692     7.7859   285.0014 </r>
       <r>    40.3993     4.7752   285.1452 </r>
       <r>    40.4294    14.0132   285.5673 </r>
       <r>    40.4595     4.5938   285.7056 </r>
       <r>    40.4897     1.7225   285.7575 </r>
       <r>    40.5198    18.0009   286.2997 </r>
       <r>    40.5499    12.7517   286.6837 </r>
       <r>    40.5800     7.6372   286.9138 </r>
       <r>    40.6101     1.8789   286.9703 </r>
       <r>    40.6403     2.8902   287.0574 </r>
       <r>    40.6704    18.9548   287.6283 </r>
       <r>    40.7005     9.8450   287.9248 </r>
       <r>    40.7306    10.4628   288.2399 </r>
       <r>    40.7607    17.9783   288.7814 </r>
       <r>    40.7908     6.5147   288.9776 </r>
       <r>    40.8210    13.5757   289.3865 </r>
       <r>    40.8511     2.3863   289.4583 </r>
       <r>    40.8812     1.0443   289.4898 </r>
       <r>    40.9113     8.6230   289.7495 </r>
       <r>    40.9414     9.6057   290.0388 </r>
       <r>    40.9716    10.4271   290.3528 </r>
       <r>    41.0017    21.2142   290.9918 </r>
       <r>    41.0318    16.7847   291.4973 </r>
       <r>    41.0619     4.5717   291.6350 </r>
       <r>    41.0920    14.2320   292.0636 </r>
       <r>    41.1221     6.6563   292.2641 </r>
       <r>    41.1523     6.6479   292.4643 </r>
       <r>    41.1824     5.1206   292.6185 </r>
       <r>    41.2125     3.1585   292.7137 </r>
       <r>    41.2426     2.5944   292.7918 </r>
       <r>    41.2727     3.6163   292.9007 </r>
       <r>    41.3028    20.9109   293.5305 </r>
       <r>    41.3330    12.0814   293.8944 </r>
       <r>    41.3631     8.5530   294.1520 </r>
       <r>    41.3932     4.9378   294.3007 </r>
       <r>    41.4233     1.4783   294.3452 </r>
       <r>    41.4534     2.6028   294.4236 </r>
       <r>    41.4836     5.8871   294.6009 </r>
       <r>    41.5137    18.2681   295.1511 </r>
       <r>    41.5438     8.1889   295.3978 </r>
       <r>    41.5739     0.8497   295.4234 </r>
       <r>    41.6040     9.2163   295.7009 </r>
       <r>    41.6341    12.4501   296.0759 </r>
       <r>    41.6643    14.2933   296.5064 </r>
       <r>    41.6944    16.9606   297.0172 </r>
       <r>    41.7245    13.9700   297.4380 </r>
       <r>    41.7546    10.8411   297.7645 </r>
       <r>    41.7847    13.1156   298.1595 </r>
       <r>    41.8149    13.8798   298.5775 </r>
       <r>    41.8450     6.3476   298.7687 </r>
       <r>    41.8751    14.5158   299.2059 </r>
       <r>    41.9052    11.1075   299.5404 </r>
       <r>    41.9353    14.2488   299.9696 </r>
       <r>    41.9654     9.2337   300.2477 </r>
       <r>    41.9956    15.6317   300.7185 </r>
       <r>    42.0257     9.5279   301.0054 </r>
       <r>    42.0558     1.2403   301.0428 </r>
       <r>    42.0859     4.8121   301.1877 </r>
       <r>    42.1160    21.3533   301.8308 </r>
       <r>    42.1462    13.5482   302.2389 </r>
       <r>    42.1763    12.5990   302.6183 </r>
       <r>    42.2064     3.4777   302.7231 </r>
       <r>    42.2365     5.2010   302.8797 </r>
       <r>    42.2666     9.9907   303.1806 </r>
       <r>    42.2967    13.8809   303.5987 </r>
       <r>    42.3269    15.9583   304.0793 </r>
       <r>    42.3570     2.4129   304.1520 </r>
       <r>    42.3871     7.0473   304.3642 </r>
       <r>    42.4172     3.9144   304.4821 </r>
       <r>    42.4473     3.8052   304.5967 </r>
       <r>    42.4775    10.1967   304.9038 </r>
       <r>    42.5076    21.5706   305.5535 </r>
       <r>    42.5377     3.7820   305.6674 </r>
       <r>    42.5678     5.2332   305.8250 </r>
       <r>    42.5979     0.8877   305.8518 </r>
       <r>    42.6280     8.3034   306.1018 </r>
       <r>    42.6582    18.5343   306.6601 </r>
       <r>    42.6883    21.2012   307.2986 </r>
       <r>    42.7184    15.6805   307.7709 </r>
       <r>    42.7485    15.4209   308.2353 </r>
       <r>    42.7786     5.1576   308.3906 </r>
       <r>    42.8088    10.8708   308.7181 </r>
       <r>    42.8389    10.7502   309.0418 </r>
       <r>    42.8690     8.6258   309.3016 </r>
       <r>    42.8991     7.9364   309.5407 </r>
       <r>    42.9292     7.3836   309.7630 </r>
       <r>    42.9593     3.7195   309.8751 </r>
       <r>    42.9895     0.8449   309.9005 </r>
       <r>    43.0196     0.0808   309.9029 </r>
       <r>    43.0497    12.7591   310.2872 </r>
       <r>    43.0798    13.1726   310.6839 </r>
       <r>    43.1099     0.6386   310.7032 </r>
       <r>    43.1401     5.9873   310.8835 </r>
       <r>    43.1702    21.0087   311.5162 </r>
       <r>    43.2003    15.4916   311.9828 </r>
       <r>    43.2304     5.6704   312.1536 </r>
       <r>    43.2605    11.3299   312.4948 </r>
       <r>    43.2906    12.4619   312.8702 </r>
       <r>    43.3208    15.5852   313.3396 </r>
       <r>    43.3509     7.2271   313.5572 </r>
       <r>    43.3810    12.7950   313.9426 </r>
       <r>    43.4111     3.2895   314.0417 </r>
       <r>    43.4412     0.1200   314.0453 </r>
       <r>    43.4713    11.2940   314.3854 </r>
       <r>    43.5015     5.1867   314.5416 </r>
       <r>    43.5316     2.7284   314.6238 </r>
       <r>    43.5617    11.6064   314.9734 </r>
       <r>    43.5918     8.8092   315.2387 </r>
       <r>    43.6219    17.2448   315.7581 </r>
       <r>    43.6521     6.0134   315.9392 </r>
       <r>    43.6822     8.2987   316.1891 </r>
       <r>    43.7123     1.7690   316.2424 </r>
       <r>    43.7424     7.8486   316.4788 </r>
       <r>    43.7725    12.2401   316.8474 </r>
       <r>    43.8026    12.6508   317.2285 </r>
       <r>    43.8328     4.8635   317.3749 </r>
       <r>    43.8629    10.4285   317.6890 </r>
       <r>    43.8930    10.1393   317.9944 </r>
       <r>    43.9231    11.4890   318.3404 </r>
       <r>    43.9532     3.4336   318.4438 </r>
       <r>    43.9834     0.0869   318.4465 </r>
       <r>    44.0135     5.3557   318.6078 </r>
       <r>    44.0436     7.6061   318.8368 </r>
       <r>    44.0737     5.0556   318.9891 </r>
       <r>    44.1038     8.1094   319.2334 </r>
       <r>    44.1339    18.8886   319.8022 </r>
       <r>    44.1641    18.3747   320.3556 </r>
       <r>    44.1942    11.3922   320.6988 </r>
       <r>    44.2243     3.2455   320.7965 </r>
       <r>    44.2544     8.9911   321.0673 </r>
       <r>    44.2845     6.6758   321.2684 </r>
       <r>    44.3147    11.3934   321.6115 </r>
       <r>    44.3448    12.2405   321.9802 </r>
       <r>    44.3749     8.4552   322.2348 </r>
       <r>    44.4050     0.6271   322.2537 </r>
       <r>    44.4351    13.2467   322.6527 </r>
       <r>    44.4652     2.8026   322.7371 </r>
       <r>    44.4954     3.2681   322.8355 </r>
       <r>    44.5255     6.5001   323.0313 </r>
       <r>    44.5556    12.1591   323.3975 </r>
       <r>    44.5857     1.8497   323.4532 </r>
       <r>    44.6158    11.9188   323.8122 </r>
       <r>    44.6460    16.6349   324.3132 </r>
       <r>    44.6761    10.3079   324.6236 </r>
       <r>    44.7062     6.1341   324.8084 </r>
       <r>    44.7363     6.2199   324.9957 </r>
       <r>    44.7664     0.6299   325.0147 </r>
       <r>    44.7965    11.4944   325.3609 </r>
       <r>    44.8267    20.3533   325.9739 </r>
       <r>    44.8568     9.4842   326.2595 </r>
       <r>    44.8869    10.2987   326.5697 </r>
       <r>    44.9170    10.1486   326.8753 </r>
       <r>    44.9471    18.3251   327.4273 </r>
       <r>    44.9773    22.9051   328.1171 </r>
       <r>    45.0074     4.3054   328.2468 </r>
       <r>    45.0375    13.5293   328.6543 </r>
       <r>    45.0676    19.7270   329.2484 </r>
       <r>    45.0977     2.4325   329.3217 </r>
       <r>    45.1278     2.9833   329.4115 </r>
       <r>    45.1580    15.0072   329.8635 </r>
       <r>    45.1881     6.7130   330.0657 </r>
       <r>    45.2182    14.3360   330.4975 </r>
       <r>    45.2483    10.0379   330.7998 </r>
       <r>    45.2784     5.2467   330.9578 </r>
       <r>    45.3085     2.0357   331.0191 </r>
       <r>    45.3387    14.0501   331.4423 </r>
       <r>    45.3688     2.2899   331.5112 </r>
       <r>    45.3989     3.1419   331.6059 </r>
       <r>    45.4290     7.3020   331.8258 </r>
       <r>    45.4591    14.9211   332.2752 </r>
       <r>    45.4893     7.3450   332.4964 </r>
       <r>    45.5194    11.3637   332.8387 </r>
       <r>    45.5495     5.5547   333.0060 </r>
       <r>    45.5796     5.8661   333.1826 </r>
       <r>    45.6097    16.6191   333.6832 </r>
       <r>    45.6398     4.5243   333.8194 </r>
       <r>    45.6700     2.0539   333.8813 </r>
       <r>    45.7001     0.7134   333.9028 </r>
       <r>    45.7302     0.0000   333.9028 </r>
       <r>    45.7603     0.0012   333.9028 </r>
       <r>    45.7904     2.2731   333.9713 </r>
       <r>    45.8206     0.5956   333.9892 </r>
       <r>    45.8507     5.3626   334.1507 </r>
       <r>    45.8808     1.8532   334.2065 </r>
       <r>    45.9109     3.0073   334.2971 </r>
       <r>    45.9410     8.1001   334.5411 </r>
       <r>    45.9711     7.0963   334.7548 </r>
       <r>    46.0013     2.1244   334.8188 </r>
       <r>    46.0314     3.7109   334.9305 </r>
       <r>    46.0615     0.1651   334.9355 </r>
       <r>    46.0916     1.3511   334.9762 </r>
       <r>    46.1217     2.6222   335.0552 </r>
       <r>    46.1519     0.0123   335.0556 </r>
       <r>    46.1820     0.0000   335.0556 </r>
       <r>    46.2121     0.2598   335.0634 </r>
       <r>    46.2422     5.2659   335.2220 </r>
       <r>    46.2723     2.7792   335.3057 </r>
       <r>    46.3024     2.7253   335.3878 </r>
       <r>    46.3326     0.0374   335.3889 </r>
       <r>    46.3627     2.3326   335.4591 </r>
       <r>    46.3928     3.2010   335.5556 </r>
       <r>    46.4229     1.5899   335.6034 </r>
       <r>    46.4530     1.1771   335.6389 </r>
       <r>    46.4832     0.0000   335.6389 </r>
       <r>    46.5133     0.3142   335.6484 </r>
       <r>    46.5434     2.4496   335.7221 </r>
       <r>    46.5735     0.0032   335.7222 </r>
       <r>    46.6036     0.3497   335.7328 </r>
       <r>    46.6337     0.1113   335.7361 </r>
       <r>    46.6639     0.0000   335.7361 </r>
       <r>    46.6940     0.0000   335.7361 </r>
       <r>    46.7241     0.0000   335.7361 </r>
       <r>    46.7542     0.0000   335.7361 </r>
       <r>    46.7843     0.0000   335.7361 </r>
       <r>    46.8145     0.0219   335.7368 </r>
       <r>    46.8446     0.4370   335.7499 </r>
       <r>    46.8747     0.0053   335.7501 </r>
       <r>    46.9048     2.4457   335.8238 </r>
       <r>    46.9349     0.7842   335.8474 </r>
       <r>    46.9650     2.2994   335.9166 </r>
       <r>    46.9952     0.0013   335.9167 </r>
       <r>    47.0253     0.0000   335.9167 </r>
       <r>    47.0554     0.0000   335.9167 </r>
       <r>    47.0855     0.0000   335.9167 </r>
       <r>    47.1156     0.0001   335.9167 </r>
       <r>    47.1457     1.5958   335.9647 </r>
       <r>    47.1759     1.1711   336.0000 </r>
       <r>    47.2060     0.0000   336.0000 </r>
       <r>    47.2361     0.0000   336.0000 </r>
       <r>    47.2662     0.0000   336.0000 </r>
       <r>    47.2963     0.0000   336.0000 </r>
       <r>    47.3265     0.0000   336.0000 </r>
       <r>    47.3566     0.0000   336.0000 </r>
       <r>    47.3867     0.0000   336.0000 </r>
       <r>    47.4168     0.0000   336.0000 </r>
       <r>    47.4469     0.0000   336.0000 </r>
       <r>    47.4770     0.0000   336.0000 </r>
       <r>    47.5072     0.0000   336.0000 </r>
       <r>    47.5373     0.0000   336.0000 </r>
       <r>    47.5674     0.0000   336.0000 </r>
       <r>    47.5975     0.0000   336.0000 </r>
       <r>    47.6276     0.0000   336.0000 </r>
       <r>    47.6578     0.0000   336.0000 </r>
       <r>    47.6879     0.0000   336.0000 </r>
       <r>    47.7180     0.0000   336.0000 </r>
       <r>    47.7481     0.0000   336.0000 </r>
       <r>    47.7782     0.0000   336.0000 </r>
       <r>    47.8083     0.0000   336.0000 </r>
       <r>    47.8385     0.0000   336.0000 </r>
       <r>    47.8686     0.0000   336.0000 </r>
       <r>    47.8987     0.0000   336.0000 </r>
       <r>    47.9288     0.0000   336.0000 </r>
       <r>    47.9589     0.0000   336.0000 </r>
       <r>    47.9891     0.0000   336.0000 </r>
       <r>    48.0192     0.0000   336.0000 </r>
       <r>    48.0493     0.0000   336.0000 </r>
       <r>    48.0794     0.0000   336.0000 </r>
       <r>    48.1095     0.0000   336.0000 </r>
       <r>    48.1396     0.0000   336.0000 </r>
       <r>    48.1698     0.0000   336.0000 </r>
       <r>    48.1999     0.0000   336.0000 </r>
       <r>    48.2300     0.0000   336.0000 </r>
       <r>    48.2601     0.0000   336.0000 </r>
       <r>    48.2902     0.0000   336.0000 </r>
       <r>    48.3204     0.0000   336.0000 </r>
       <r>    48.3505     0.0000   336.0000 </r>
       <r>    48.3806     0.0000   336.0000 </r>
       <r>    48.4107     0.0000   336.0000 </r>
       <r>    48.4408     0.0000   336.0000 </r>
       <r>    48.4709     0.0000   336.0000 </r>
       <r>    48.5011     0.0000   336.0000 </r>
       <r>    48.5312     0.0000   336.0000 </r>
       <r>    48.5613     0.0000   336.0000 </r>
       <r>    48.5914     0.0000   336.0000 </r>
       <r>    48.6215     0.0000   336.0000 </r>
       <r>    48.6517     0.0000   336.0000 </r>
       <r>    48.6818     0.0000   336.0000 </r>
       <r>    48.7119     0.0000   336.0000 </r>
       <r>    48.7420     0.0000   336.0000 </r>
       <r>    48.7721     0.0000   336.0000 </r>
       <r>    48.8022     0.0000   336.0000 </r>
       <r>    48.8324     0.0000   336.0000 </r>
       <r>    48.8625     0.0000   336.0000 </r>
       <r>    48.8926     0.0000   336.0000 </r>
       <r>    48.9227     0.0000   336.0000 </r>
       <r>    48.9528     0.0000   336.0000 </r>
       <r>    48.9830     0.0000   336.0000 </r>
       <r>    49.0131     0.0000   336.0000 </r>
       <r>    49.0432     0.0000   336.0000 </r>
       <r>    49.0733     0.0000   336.0000 </r>
       <r>    49.1034     0.0000   336.0000 </r>
       <r>    49.1335     0.0000   336.0000 </r>
       <r>    49.1637     0.0000   336.0000 </r>
       <r>    49.1938     0.0000   336.0000 </r>
       <r>    49.2239     0.0000   336.0000 </r>
       <r>    49.2540     0.0000   336.0000 </r>
       <r>    49.2841     0.0000   336.0000 </r>
       <r>    49.3142     0.0000   336.0000 </r>
       <r>    49.3444     0.0000   336.0000 </r>
       <r>    49.3745     0.0000   336.0000 </r>
       <r>    49.4046     0.0000   336.0000 </r>
       <r>    49.4347     0.0000   336.0000 </r>
       <r>    49.4648     0.0000   336.0000 </r>
       <r>    49.4950     0.0000   336.0000 </r>
       <r>    49.5251     0.0000   336.0000 </r>
       <r>    49.5552     0.0000   336.0000 </r>
       <r>    49.5853     0.0000   336.0000 </r>
       <r>    49.6154     0.0000   336.0000 </r>
       <r>    49.6455     0.0000   336.0000 </r>
       <r>    49.6757     0.0000   336.0000 </r>
       <r>    49.7058     0.0000   336.0000 </r>
       <r>    49.7359     0.0000   336.0000 </r>
       <r>    49.7660     0.0000   336.0000 </r>
       <r>    49.7961     0.0000   336.0000 </r>
       <r>    49.8263     0.0000   336.0000 </r>
       <r>    49.8564     0.0000   336.0000 </r>
       <r>    49.8865     0.0000   336.0000 </r>
       <r>    49.9166     0.0000   336.0000 </r>
       <r>    49.9467     0.0000   336.0000 </r>
       <r>    49.9768     0.0000   336.0000 </r>
       <r>    50.0070     0.0000   336.0000 </r>
       <r>    50.0371     0.0000   336.0000 </r>
       <r>    50.0672     0.0000   336.0000 </r>
       <r>    50.0973     0.0000   336.0000 </r>
       <r>    50.1274     0.0000   336.0000 </r>
       <r>    50.1576     0.0000   336.0000 </r>
       <r>    50.1877     0.0000   336.0000 </r>
       <r>    50.2178     0.0000   336.0000 </r>
       <r>    50.2479     0.0000   336.0000 </r>
       <r>    50.2780     0.0000   336.0000 </r>
       <r>    50.3081     0.0000   336.0000 </r>
       <r>    50.3383     0.0000   336.0000 </r>
       <r>    50.3684     0.0000   336.0000 </r>
       <r>    50.3985     0.0000   336.0000 </r>
       <r>    50.4286     0.0000   336.0000 </r>
      </set>
     </set>
    </array>
   </total>
  </dos>
 </calculation>
 <structure name="finalpos" >
  <crystal>
   <varray name="basis" >
    <v>       4.48084843       2.58701885       0.00000000 </v>
    <v>      -4.48084843       2.58701885       0.00000000 </v>
    <v>       0.00000000       0.00000000       8.52022140 </v>
   </varray>
   <i name="volume">    197.53348383 </i>
   <varray name="rec_basis" >
    <v>       0.11158601       0.19327265       0.00000000 </v>
    <v>      -0.11158601       0.19327265       0.00000000 </v>
    <v>       0.00000000       0.00000000       0.11736784 </v>
   </varray>
  </crystal>
  <varray name="positions" >
   <v>       0.33333300       0.66666600       0.25000000 </v>
   <v>       0.66666600       0.33333300       0.25000000 </v>
   <v>       0.15869124       0.31738348       0.25000000 </v>
   <v>       0.31738348       0.15869124       0.25000000 </v>
   <v>       0.15869124       0.84130776       0.25000000 </v>
   <v>       0.84130776       0.15869124       0.25000000 </v>
   <v>       0.68261552       0.84130776       0.25000000 </v>
   <v>       0.84130776       0.68261552       0.25000000 </v>
  </varray>
 </structure>
</modeling>
