fcc Ni bandstructure                    
   3.53000000000000     
     0.500000    0.500000    0.000000
     0.000000    0.500000    0.500000
     0.500000    0.000000    0.500000
   Ni
     1
Direct
  0.000000  0.000000  0.000000
 
   28   28   28
 0.15234477533E+03 0.14727171508E+03 0.13298411552E+03 0.11199895083E+03 0.87713175380E+02
 0.63567711536E+02 0.42362517454E+02 0.25857457698E+02 0.14650032382E+02 0.82670458913E+01
 0.54229445944E+01 0.44106824124E+01 0.38259231827E+01 0.34651532251E+01 0.33450972449E+01
 0.34651532251E+01 0.38259231827E+01 0.44106824124E+01 0.54229445944E+01 0.82670458913E+01
 0.14650032382E+02 0.25857457698E+02 0.42362517454E+02 0.63567711536E+02 0.87713175380E+02
 0.11199895083E+03 0.13298411552E+03 0.14727171508E+03 0.14727171508E+03 0.13759625896E+03
 0.11999484429E+03 0.97458371701E+02 0.73428327069E+02 0.51026233193E+02 0.32514414426E+02
 0.19043340392E+02 0.10641479256E+02 0.63917410840E+01 0.47586867777E+01 0.40662113380E+01
 0.35948369582E+01 0.33578657682E+01 0.33578651551E+01 0.35948357063E+01 0.40662108914E+01
 0.47586886603E+01 0.63917460007E+01 0.10641486545E+02 0.19043348065E+02 0.32514419889E+02
 0.51026234272E+02 0.73428323021E+02 0.97458363634E+02 0.11999483487E+03 0.13759625151E+03
 0.14727171226E+03 0.13298411552E+03 0.11999484429E+03 0.10092072902E+03 0.78864074588E+02
 0.56977856464E+02 0.37833093722E+02 0.23038581310E+02 0.13114871384E+02 0.75753811534E+01
 0.51751509918E+01 0.42922738579E+01 0.37338516858E+01 0.33932263452E+01 0.32804426216E+01
 0.33932240849E+01 0.37338492410E+01 0.42922742874E+01 0.51751566623E+01 0.75753922752E+01
 0.13114885495E+02 0.23038593978E+02 0.37833100273E+02 0.56977853959E+02 0.78864063269E+02
 0.10092071246E+03 0.11999482822E+03 0.13298410570E+03 0.13759625151E+03 0.11199895083E+03
 0.97458371701E+02 0.78864074588E+02 0.59098682712E+02 0.40789552629E+02 0.25836247232E+02
 0.15171287297E+02 0.87370454384E+01 0.56448923874E+01 0.44845785871E+01 0.38665444087E+01
 0.34432351626E+01 0.32336049448E+01 0.32336029505E+01 0.34432307128E+01 0.38665413147E+01
 0.44845809541E+01 0.56449023510E+01 0.87370617051E+01 0.15171305221E+02 0.25836260488E+02
 0.40789555821E+02 0.59098673781E+02 0.78864055986E+02 0.97458349717E+02 0.11199893331E+03
 0.11999482822E+03 0.11999483487E+03 0.87713175380E+02 0.73428327069E+02 0.56977856464E+02
 0.40789552629E+02 0.26841932181E+02 0.16339322515E+02 0.95891829545E+01 0.60669334778E+01
 0.46434770279E+01 0.39782818627E+01 0.34972231822E+01 0.32122665386E+01 0.31191473742E+01
 0.32122615701E+01 0.34972166249E+01 0.39782787830E+01 0.46434815702E+01 0.60669465677E+01
 0.95892013876E+01 0.16339339954E+02 0.26841941669E+02 0.40789549592E+02 0.56977840902E+02
 0.73428303876E+02 0.87713152689E+02 0.97458349717E+02 0.10092071246E+03 0.97458363634E+02
 0.63567711536E+02 0.51026233193E+02 0.37833093722E+02 0.25836247232E+02 0.16339322515E+02
 0.99022568729E+01 0.63184430377E+01 0.47575426378E+01 0.40580841316E+01 0.35444866594E+01
 0.32079074974E+01 0.30452254330E+01 0.30452221090E+01 0.32078994388E+01 0.35444786689E+01
 0.40580815587E+01 0.47575486513E+01 0.63184568486E+01 0.99022736797E+01 0.16339335365E+02
 0.25836249953E+02 0.37833083708E+02 0.51026212835E+02 0.63567687526E+02 0.73428303876E+02
 0.78864055986E+02 0.78864063269E+02 0.73428323021E+02 0.42362517454E+02 0.32514414426E+02
 0.23038581310E+02 0.15171287297E+02 0.95891829545E+01 0.63184430377E+01 0.47998739855E+01
 0.40993986605E+01 0.35764238445E+01 0.32113485230E+01 0.30027921294E+01 0.29357600914E+01
 0.30027852948E+01 0.32113383136E+01 0.35764155298E+01 0.40993967940E+01 0.47998801070E+01
 0.63184547424E+01 0.95891947042E+01 0.15171292765E+02 0.23038576211E+02 0.32514398551E+02
 0.42362495134E+02 0.51026212835E+02 0.56977840902E+02 0.59098673781E+02 0.56977853959E+02
 0.51026234272E+02 0.25857457698E+02 0.19043340392E+02 0.13114871384E+02 0.87370454384E+01
 0.60669334778E+01 0.47575426378E+01 0.40993986605E+01 0.35876688198E+01 0.32151308847E+01
 0.29821622270E+01 0.28723859107E+01 0.28723823426E+01 0.29821531219E+01 0.32151203240E+01
 0.35876614159E+01 0.40993973908E+01 0.47575473078E+01 0.60669406919E+01 0.87370499958E+01
 0.13114868596E+02 0.19043328349E+02 0.25857438344E+02 0.32514398551E+02 0.37833083708E+02
 0.40789549592E+02 0.40789555821E+02 0.37833100273E+02 0.32514419889E+02 0.14650032382E+02
 0.10641479256E+02 0.75753811534E+01 0.56448923874E+01 0.46434770279E+01 0.40580841316E+01
 0.35764238445E+01 0.32151308847E+01 0.29761609446E+01 0.28440020905E+01 0.28021709423E+01
 0.28439964042E+01 0.29761519008E+01 0.32151220571E+01 0.35764183415E+01 0.40580831037E+01
 0.46434790211E+01 0.56448939164E+01 0.75753783042E+01 0.10641469486E+02 0.14650015984E+02
 0.19043328349E+02 0.23038576211E+02 0.25836249953E+02 0.26841941669E+02 0.25836260488E+02
 0.23038593978E+02 0.19043348065E+02 0.82670458913E+01 0.63917410840E+01 0.51751509918E+01
 0.44845785871E+01 0.39782818627E+01 0.35444866594E+01 0.32113485230E+01 0.29821622270E+01
 0.28440020905E+01 0.27802622287E+01 0.27802602138E+01 0.28439968559E+01 0.29821557581E+01
 0.32113430471E+01 0.35444834797E+01 0.39782806694E+01 0.44845774927E+01 0.51751473063E+01
 0.63917326848E+01 0.82670322962E+01 0.10641469486E+02 0.13114868596E+02 0.15171292765E+02
 0.16339335365E+02 0.16339339954E+02 0.15171305221E+02 0.13114885495E+02 0.10641486545E+02
 0.54229445944E+01 0.47586867777E+01 0.42922738579E+01 0.38665444087E+01 0.34972231822E+01
 0.32079074974E+01 0.30027921294E+01 0.28723859107E+01 0.28021709423E+01 0.27802602138E+01
 0.28021694918E+01 0.28723836336E+01 0.30027899128E+01 0.32079059357E+01 0.34972221516E+01
 0.38665429002E+01 0.42922704181E+01 0.47586800412E+01 0.54229341077E+01 0.63917326848E+01
 0.75753783042E+01 0.87370499958E+01 0.95891947042E+01 0.99022736797E+01 0.95892013876E+01
 0.87370617051E+01 0.75753922752E+01 0.63917460007E+01 0.44106824124E+01 0.40662113380E+01
 0.37338516858E+01 0.34432351626E+01 0.32122665386E+01 0.30452254330E+01 0.29357600914E+01
 0.28723823426E+01 0.28439964042E+01 0.28439968559E+01 0.28723836336E+01 0.29357620149E+01
 0.30452275826E+01 0.32122682695E+01 0.34432356921E+01 0.37338501959E+01 0.40662072883E+01
 0.44106757885E+01 0.47586800412E+01 0.51751473063E+01 0.56448939164E+01 0.60669406919E+01
 0.63184547424E+01 0.63184568486E+01 0.60669465677E+01 0.56449023510E+01 0.51751566623E+01
 0.47586886603E+01 0.38259231827E+01 0.35948369582E+01 0.33932263452E+01 0.32336049448E+01
 0.31191473742E+01 0.30452221090E+01 0.30027852948E+01 0.29821531219E+01 0.29761519008E+01
 0.29821557581E+01 0.30027899128E+01 0.30452275826E+01 0.31191524415E+01 0.32336085151E+01
 0.33932278031E+01 0.35948362258E+01 0.38259206507E+01 0.40662072883E+01 0.42922704181E+01
 0.44845774927E+01 0.46434790211E+01 0.47575473078E+01 0.47998801070E+01 0.47575486513E+01
 0.46434815702E+01 0.44845809541E+01 0.42922742874E+01 0.40662108914E+01 0.34651532251E+01
 0.33578657682E+01 0.32804426216E+01 0.32336029505E+01 0.32122615701E+01 0.32078994388E+01
 0.32113383136E+01 0.32151203240E+01 0.32151220571E+01 0.32113430471E+01 0.32079059357E+01
 0.32122682695E+01 0.32336085151E+01 0.32804463249E+01 0.33578676649E+01 0.34651539921E+01
 0.35948362258E+01 0.37338501959E+01 0.38665429002E+01 0.39782806694E+01 0.40580831037E+01
 0.40993973908E+01 0.40993967940E+01 0.40580815587E+01 0.39782787830E+01 0.38665413147E+01
 0.37338492410E+01 0.35948357063E+01 0.33450972449E+01 0.33578651551E+01 0.33932240849E+01
 0.34432307128E+01 0.34972166249E+01 0.35444786689E+01 0.35764155298E+01 0.35876614159E+01
 0.35764183415E+01 0.35444834797E+01 0.34972221516E+01 0.34432356921E+01 0.33932278031E+01
 0.33578676649E+01 0.33450992623E+01 0.33578676649E+01 0.33932278031E+01 0.34432356921E+01
 0.34972221516E+01 0.35444834797E+01 0.35764183415E+01 0.35876614159E+01 0.35764155298E+01
 0.35444786689E+01 0.34972166249E+01 0.34432307128E+01 0.33932240849E+01 0.33578651551E+01
 0.34651532251E+01 0.35948357063E+01 0.37338492410E+01 0.38665413147E+01 0.39782787830E+01
 0.40580815587E+01 0.40993967940E+01 0.40993973908E+01 0.40580831037E+01 0.39782806694E+01
 0.38665429002E+01 0.37338501959E+01 0.35948362258E+01 0.34651539921E+01 0.33578676649E+01
 0.32804463249E+01 0.32336085151E+01 0.32122682695E+01 0.32079059357E+01 0.32113430471E+01
 0.32151220571E+01 0.32151203240E+01 0.32113383136E+01 0.32078994388E+01 0.32122615701E+01
 0.32336029505E+01 0.32804426216E+01 0.33578657682E+01 0.38259231827E+01 0.40662108914E+01
 0.42922742874E+01 0.44845809541E+01 0.46434815702E+01 0.47575486513E+01 0.47998801070E+01
 0.47575473078E+01 0.46434790211E+01 0.44845774927E+01 0.42922704181E+01 0.40662072883E+01
 0.38259206507E+01 0.35948362258E+01 0.33932278031E+01 0.32336085151E+01 0.31191524415E+01
 0.30452275826E+01 0.30027899128E+01 0.29821557581E+01 0.29761519008E+01 0.29821531219E+01
 0.30027852948E+01 0.30452221090E+01 0.31191473742E+01 0.32336049448E+01 0.33932263452E+01
 0.35948369582E+01 0.44106824124E+01 0.47586886603E+01 0.51751566623E+01 0.56449023510E+01
 0.60669465677E+01 0.63184568486E+01 0.63184547424E+01 0.60669406919E+01 0.56448939164E+01
 0.51751473063E+01 0.47586800412E+01 0.44106757885E+01 0.40662072883E+01 0.37338501959E+01
 0.34432356921E+01 0.32122682695E+01 0.30452275826E+01 0.29357620149E+01 0.28723836336E+01
 0.28439968559E+01 0.28439964042E+01 0.28723823426E+01 0.29357600914E+01 0.30452254330E+01
 0.32122665386E+01 0.34432351626E+01 0.37338516858E+01 0.40662113380E+01 0.54229445944E+01
 0.63917460007E+01 0.75753922752E+01 0.87370617051E+01 0.95892013876E+01 0.99022736797E+01
 0.95891947042E+01 0.87370499958E+01 0.75753783042E+01 0.63917326848E+01 0.54229341077E+01
 0.47586800412E+01 0.42922704181E+01 0.38665429002E+01 0.34972221516E+01 0.32079059357E+01
 0.30027899128E+01 0.28723836336E+01 0.28021694918E+01 0.27802602138E+01 0.28021709423E+01
 0.28723859107E+01 0.30027921294E+01 0.32079074974E+01 0.34972231822E+01 0.38665444087E+01
 0.42922738579E+01 0.47586867777E+01 0.82670458913E+01 0.10641486545E+02 0.13114885495E+02
 0.15171305221E+02 0.16339339954E+02 0.16339335365E+02 0.15171292765E+02 0.13114868596E+02
 0.10641469486E+02 0.82670322962E+01 0.63917326848E+01 0.51751473063E+01 0.44845774927E+01
 0.39782806694E+01 0.35444834797E+01 0.32113430471E+01 0.29821557581E+01 0.28439968559E+01
 0.27802602138E+01 0.27802622287E+01 0.28440020905E+01 0.29821622270E+01 0.32113485230E+01
 0.35444866594E+01 0.39782818627E+01 0.44845785871E+01 0.51751509918E+01 0.63917410840E+01
 0.14650032382E+02 0.19043348065E+02 0.23038593978E+02 0.25836260488E+02 0.26841941669E+02
 0.25836249953E+02 0.23038576211E+02 0.19043328349E+02 0.14650015984E+02 0.10641469486E+02
 0.75753783042E+01 0.56448939164E+01 0.46434790211E+01 0.40580831037E+01 0.35764183415E+01
 0.32151220571E+01 0.29761519008E+01 0.28439964042E+01 0.28021709423E+01 0.28440020905E+01
 0.29761609446E+01 0.32151308847E+01 0.35764238445E+01 0.40580841316E+01 0.46434770279E+01
 0.56448923874E+01 0.75753811534E+01 0.10641479256E+02 0.25857457698E+02 0.32514419889E+02
 0.37833100273E+02 0.40789555821E+02 0.40789549592E+02 0.37833083708E+02 0.32514398551E+02
 0.25857438344E+02 0.19043328349E+02 0.13114868596E+02 0.87370499958E+01 0.60669406919E+01
 0.47575473078E+01 0.40993973908E+01 0.35876614159E+01 0.32151203240E+01 0.29821531219E+01
 0.28723823426E+01 0.28723859107E+01 0.29821622270E+01 0.32151308847E+01 0.35876688198E+01
 0.40993986605E+01 0.47575426378E+01 0.60669334778E+01 0.87370454384E+01 0.13114871384E+02
 0.19043340392E+02 0.42362517454E+02 0.51026234272E+02 0.56977853959E+02 0.59098673781E+02
 0.56977840902E+02 0.51026212835E+02 0.42362495134E+02 0.32514398551E+02 0.23038576211E+02
 0.15171292765E+02 0.95891947042E+01 0.63184547424E+01 0.47998801070E+01 0.40993967940E+01
 0.35764155298E+01 0.32113383136E+01 0.30027852948E+01 0.29357600914E+01 0.30027921294E+01
 0.32113485230E+01 0.35764238445E+01 0.40993986605E+01 0.47998739855E+01 0.63184430377E+01
 0.95891829545E+01 0.15171287297E+02 0.23038581310E+02 0.32514414426E+02 0.63567711536E+02
 0.73428323021E+02 0.78864063269E+02 0.78864055986E+02 0.73428303876E+02 0.63567687526E+02
 0.51026212835E+02 0.37833083708E+02 0.25836249953E+02 0.16339335365E+02 0.99022736797E+01
 0.63184568486E+01 0.47575486513E+01 0.40580815587E+01 0.35444786689E+01 0.32078994388E+01
 0.30452221090E+01 0.30452254330E+01 0.32079074974E+01 0.35444866594E+01 0.40580841316E+01
 0.47575426378E+01 0.63184430377E+01 0.99022568729E+01 0.16339322515E+02 0.25836247232E+02
 0.37833093722E+02 0.51026233193E+02 0.87713175380E+02 0.97458363634E+02 0.10092071246E+03
 0.97458349717E+02 0.87713152689E+02 0.73428303876E+02 0.56977840902E+02 0.40789549592E+02
 0.26841941669E+02 0.16339339954E+02 0.95892013876E+01 0.60669465677E+01 0.46434815702E+01
 0.39782787830E+01 0.34972166249E+01 0.32122615701E+01 0.31191473742E+01 0.32122665386E+01
 0.34972231822E+01 0.39782818627E+01 0.46434770279E+01 0.60669334778E+01 0.95891829545E+01
 0.16339322515E+02 0.26841932181E+02 0.40789552629E+02 0.56977856464E+02 0.73428327069E+02
 0.11199895083E+03 0.11999483487E+03 0.11999482822E+03 0.11199893331E+03 0.97458349717E+02
 0.78864055986E+02 0.59098673781E+02 0.40789555821E+02 0.25836260488E+02 0.15171305221E+02
 0.87370617051E+01 0.56449023510E+01 0.44845809541E+01 0.38665413147E+01 0.34432307128E+01
 0.32336029505E+01 0.32336049448E+01 0.34432351626E+01 0.38665444087E+01 0.44845785871E+01
 0.56448923874E+01 0.87370454384E+01 0.15171287297E+02 0.25836247232E+02 0.40789552629E+02
 0.59098682712E+02 0.78864074588E+02 0.97458371701E+02 0.13298411552E+03 0.13759625151E+03
 0.13298410570E+03 0.11999482822E+03 0.10092071246E+03 0.78864063269E+02 0.56977853959E+02
 0.37833100273E+02 0.23038593978E+02 0.13114885495E+02 0.75753922752E+01 0.51751566623E+01
 0.42922742874E+01 0.37338492410E+01 0.33932240849E+01 0.32804426216E+01 0.33932263452E+01
 0.37338516858E+01 0.42922738579E+01 0.51751509918E+01 0.75753811534E+01 0.13114871384E+02
 0.23038581310E+02 0.37833093722E+02 0.56977856464E+02 0.78864074588E+02 0.10092072902E+03
 0.11999484429E+03 0.14727171508E+03 0.14727171226E+03 0.13759625151E+03 0.11999483487E+03
 0.97458363634E+02 0.73428323021E+02 0.51026234272E+02 0.32514419889E+02 0.19043348065E+02
 0.10641486545E+02 0.63917460007E+01 0.47586886603E+01 0.40662108914E+01 0.35948357063E+01
 0.33578651551E+01 0.33578657682E+01 0.35948369582E+01 0.40662113380E+01 0.47586867777E+01
 0.63917410840E+01 0.10641479256E+02 0.19043340392E+02 0.32514414426E+02 0.51026233193E+02
 0.73428327069E+02 0.97458371701E+02 0.11999484429E+03 0.13759625896E+03 0.14727171508E+03
 0.13759625896E+03 0.11999484429E+03 0.97458371701E+02 0.73428327069E+02 0.51026233193E+02
 0.32514414426E+02 0.19043340392E+02 0.10641479256E+02 0.63917410840E+01 0.47586867777E+01
 0.40662113380E+01 0.35948369582E+01 0.33578657682E+01 0.33578651551E+01 0.35948357063E+01
 0.40662108914E+01 0.47586886603E+01 0.63917460007E+01 0.10641486545E+02 0.19043348065E+02
 0.32514419889E+02 0.51026234272E+02 0.73428323021E+02 0.97458363634E+02 0.11999483487E+03
 0.13759625151E+03 0.14727171226E+03 0.13759625896E+03 0.12413407810E+03 0.10438324901E+03
 0.81568398987E+02 0.58949725501E+02 0.39168263952E+02 0.23864934806E+02 0.13566982141E+02
 0.77819253427E+01 0.52518503425E+01 0.43332648914E+01 0.37676084700E+01 0.34211002790E+01
 0.33061505993E+01 0.34210986556E+01 0.37676068090E+01 0.43332654788E+01 0.52518548217E+01
 0.77819335697E+01 0.13566991819E+02 0.23864942150E+02 0.39168265186E+02 0.58949718506E+02
 0.81568384496E+02 0.10438323061E+03 0.12413406122E+03 0.13759624889E+03 0.14237871609E+03
 0.11999484429E+03 0.10438324901E+03 0.84455658788E+02 0.63309847745E+02 0.43737914004E+02
 0.27733457970E+02 0.16264587667E+02 0.92747236946E+01 0.58579341254E+01 0.45712107898E+01
 0.39363080706E+01 0.34992802874E+01 0.32816647474E+01 0.32816637423E+01 0.34992781094E+01
 0.39363067409E+01 0.45712123026E+01 0.58579390957E+01 0.92747305794E+01 0.16264593002E+02
 0.27733457619E+02 0.43737904965E+02 0.63309829699E+02 0.84455634755E+02 0.10438322467E+03
 0.11999482617E+03 0.12859097215E+03 0.12859097885E+03 0.97458371701E+02 0.81568398987E+02
 0.63309847745E+02 0.45365310669E+02 0.29886890400E+02 0.18166880075E+02 0.10539212496E+02
 0.64695266744E+01 0.47932859733E+01 0.40836469982E+01 0.35808264601E+01 0.32799032663E+01
 0.31811065170E+01 0.32799015088E+01 0.35808241445E+01 0.40836457770E+01 0.47932868356E+01
 0.64695290340E+01 0.10539214005E+02 0.18166877356E+02 0.29886880436E+02 0.45365292363E+02
 0.63309822830E+02 0.81568371988E+02 0.97458348718E+02 0.10832082004E+03 0.11218474728E+03
 0.10832083326E+03 0.73428327069E+02 0.58949725501E+02 0.43737914004E+02 0.29886890400E+02
 0.18852647443E+02 0.11264429244E+02 0.69276583171E+01 0.49841233361E+01 0.41962691186E+01
 0.36536888199E+01 0.32925904464E+01 0.31166084143E+01 0.31166075155E+01 0.32925881971E+01
 0.36536862784E+01 0.41962672368E+01 0.49841221986E+01 0.69276567425E+01 0.11264425020E+02
 0.18852638207E+02 0.29886874766E+02 0.43737892559E+02 0.58949701080E+02 0.73428304211E+02
 0.84835829669E+02 0.91135178870E+02 0.91135184788E+02 0.84835845974E+02 0.51026233193E+02
 0.39168263952E+02 0.27733457970E+02 0.18166880075E+02 0.11264429244E+02 0.70977250189E+01
 0.50975133042E+01 0.42661591263E+01 0.37078283019E+01 0.33102539906E+01 0.30804553445E+01
 0.30061936894E+01 0.30804536689E+01 0.33102512552E+01 0.37078253515E+01 0.42661564617E+01
 0.50975106178E+01 0.70977211375E+01 0.11264422516E+02 0.18166869160E+02 0.27733442606E+02
 0.39168245478E+02 0.51026214436E+02 0.61463831951E+02 0.68643995134E+02 0.71205147365E+02
 0.68644003845E+02 0.61463847356E+02 0.32514414426E+02 0.23864934806E+02 0.16264587667E+02
 0.10539212496E+02 0.69276583171E+01 0.50975133042E+01 0.42897549326E+01 0.37365182498E+01
 0.33245707907E+01 0.30632697154E+01 0.29391697800E+01 0.29391688415E+01 0.30632672457E+01
 0.33245676366E+01 0.37365152873E+01 0.42897525450E+01 0.50975110637E+01 0.69276551002E+01
 0.10539206932E+02 0.16264578865E+02 0.23864922938E+02 0.32514400933E+02 0.40931372112E+02
 0.47650590332E+02 0.51386517675E+02 0.51386520955E+02 0.47650599370E+02 0.40931384757E+02
 0.19043340392E+02 0.13566982141E+02 0.92747236946E+01 0.64695266744E+01 0.49841233361E+01
 0.42661591263E+01 0.37365182498E+01 0.33299877799E+01 0.30569781803E+01 0.29045752958E+01
 0.28561204063E+01 0.29045732920E+01 0.30569750026E+01 0.33299846727E+01 0.37365162181E+01
 0.42661584061E+01 0.49841231535E+01 0.64695255795E+01 0.92747201697E+01 0.13566975379E+02
 0.19043330845E+02 0.24965101442E+02 0.30315023502E+02 0.34050967599E+02 0.35392720415E+02
 0.34050972950E+02 0.30315032714E+02 0.24965112069E+02 0.10641479256E+02 0.77819253427E+01
 0.58579341254E+01 0.47932859733E+01 0.41962691186E+01 0.37078283019E+01 0.33245707907E+01
 0.30569781803E+01 0.28940708440E+01 0.28184749973E+01 0.28184738002E+01 0.28940678150E+01
 0.30569746988E+01 0.33245683940E+01 0.37078278419E+01 0.41962703089E+01 0.47932873538E+01
 0.58579336999E+01 0.77819214817E+01 0.10641471488E+02 0.14156019749E+02 0.17750593148E+02
 0.20709177016E+02 0.22381513890E+02 0.22381516890E+02 0.20709185097E+02 0.17750603933E+02
 0.14156030263E+02 0.63917410840E+01 0.52518503425E+01 0.45712107898E+01 0.40836469982E+01
 0.36536888199E+01 0.33102539906E+01 0.30632697154E+01 0.29045752958E+01 0.28184749973E+01
 0.27914920549E+01 0.28184726145E+01 0.29045716748E+01 0.30632665525E+01 0.33102526667E+01
 0.36536895945E+01 0.40836487649E+01 0.45712114521E+01 0.52518476726E+01 0.63917338931E+01
 0.80372790209E+01 0.99857707732E+01 0.11853887522E+02 0.13205381141E+02 0.13698814741E+02
 0.13205387952E+02 0.11853899126E+02 0.99857838832E+01 0.80372902863E+01 0.47586867777E+01
 0.43332648914E+01 0.39363080706E+01 0.35808264601E+01 0.32925904464E+01 0.30804553445E+01
 0.29391697800E+01 0.28561204063E+01 0.28184738002E+01 0.28184726145E+01 0.28561174135E+01
 0.29391664062E+01 0.30804530908E+01 0.32925900799E+01 0.35808274643E+01 0.39363087067E+01
 0.43332629582E+01 0.47586805225E+01 0.53365307152E+01 0.61217548083E+01 0.70092239721E+01
 0.77917711842E+01 0.82516334681E+01 0.82516372413E+01 0.77917814207E+01 0.70092378207E+01
 0.61217686872E+01 0.53365415782E+01 0.40662113380E+01 0.37676084700E+01 0.34992802874E+01
 0.32799032663E+01 0.31166084143E+01 0.30061936894E+01 0.29391688415E+01 0.29045732920E+01
 0.28940678150E+01 0.29045716748E+01 0.29391664062E+01 0.30061916079E+01 0.31166075605E+01
 0.32799036524E+01 0.34992809238E+01 0.37676076333E+01 0.40662073798E+01 0.43679219133E+01
 0.46563753668E+01 0.49662363335E+01 0.52788567890E+01 0.55188772788E+01 0.56094420072E+01
 0.55188834869E+01 0.52788674925E+01 0.49662487245E+01 0.46563865194E+01 0.43679297659E+01
 0.35948369582E+01 0.34211002790E+01 0.32816647474E+01 0.31811065170E+01 0.31166075155E+01
 0.30804536689E+01 0.30632672457E+01 0.30569750026E+01 0.30569746988E+01 0.30632665525E+01
 0.30804530908E+01 0.31166075605E+01 0.31811073457E+01 0.32816659715E+01 0.34211010546E+01
 0.35948362714E+01 0.37903631897E+01 0.39893653689E+01 0.41719259017E+01 0.43209889058E+01
 0.44263418439E+01 0.44831165128E+01 0.44831182787E+01 0.44263466338E+01 0.43209954050E+01
 0.41719324374E+01 0.39893704843E+01 0.37903660779E+01 0.33578657682E+01 0.33061505993E+01
 0.32816637423E+01 0.32799015088E+01 0.32925881971E+01 0.33102512552E+01 0.33245676366E+01
 0.33299846727E+01 0.33245683940E+01 0.33102526667E+01 0.32925900799E+01 0.32799036524E+01
 0.32816659715E+01 0.33061527657E+01 0.33578677949E+01 0.34356286871E+01 0.35321959543E+01
 0.36357733147E+01 0.37328387339E+01 0.38111172806E+01 0.38615572344E+01 0.38789266052E+01
 0.38615567994E+01 0.38111164550E+01 0.37328375730E+01 0.36357718777E+01 0.35321942935E+01
 0.34356268320E+01 0.33578651551E+01 0.34210986556E+01 0.34992781094E+01 0.35808241445E+01
 0.36536862784E+01 0.37078253515E+01 0.37365152873E+01 0.37365162181E+01 0.37078278419E+01
 0.36536895945E+01 0.35808274643E+01 0.34992809238E+01 0.34211010546E+01 0.33578677949E+01
 0.33178164002E+01 0.33037537856E+01 0.33126266106E+01 0.33368249664E+01 0.33665694755E+01
 0.33924319229E+01 0.34072576778E+01 0.34072555934E+01 0.33924261974E+01 0.33665614853E+01
 0.33368164747E+01 0.33126191410E+01 0.33037481628E+01 0.33178126125E+01 0.35948357063E+01
 0.37676068090E+01 0.39363067409E+01 0.40836457770E+01 0.41962672368E+01 0.42661564617E+01
 0.42897525450E+01 0.42661584061E+01 0.41962703089E+01 0.40836487649E+01 0.39363087067E+01
 0.37676076333E+01 0.35948362714E+01 0.34356286871E+01 0.33037537856E+01 0.32062066169E+01
 0.31426784725E+01 0.31072125106E+01 0.30910333442E+01 0.30854815407E+01 0.30843718285E+01
 0.30854754754E+01 0.30910228428E+01 0.31072002523E+01 0.31426672260E+01 0.32061983470E+01
 0.33037490986E+01 0.34356268320E+01 0.40662108914E+01 0.43332654788E+01 0.45712123026E+01
 0.47932868356E+01 0.49841221986E+01 0.50975106178E+01 0.50975110637E+01 0.49841231535E+01
 0.47932873538E+01 0.45712114521E+01 0.43332629582E+01 0.40662073798E+01 0.37903631897E+01
 0.35321959543E+01 0.33126266106E+01 0.31426784725E+01 0.30230508207E+01 0.29469195699E+01
 0.29041788002E+01 0.28855309078E+01 0.28855279072E+01 0.29041706913E+01 0.29469087214E+01
 0.30230402084E+01 0.31426706769E+01 0.33126229737E+01 0.35321962784E+01 0.37903660779E+01
 0.47586886603E+01 0.52518548217E+01 0.58579390957E+01 0.64695290340E+01 0.69276567425E+01
 0.70977211375E+01 0.69276551002E+01 0.64695255795E+01 0.58579336999E+01 0.52518476726E+01
 0.47586805225E+01 0.43679219133E+01 0.39893653689E+01 0.36357733147E+01 0.33368249664E+01
 0.31072125106E+01 0.29469195699E+01 0.28462853108E+01 0.27926419948E+01 0.27760024094E+01
 0.27926388017E+01 0.28462800492E+01 0.29469140905E+01 0.31072087786E+01 0.33368243808E+01
 0.36357763408E+01 0.39893714628E+01 0.43679297659E+01 0.63917460007E+01 0.77819335697E+01
 0.92747305794E+01 0.10539214005E+02 0.11264425020E+02 0.11264422516E+02 0.10539206932E+02
 0.92747201697E+01 0.77819214817E+01 0.63917338931E+01 0.53365307152E+01 0.46563753668E+01
 0.41719259017E+01 0.37328387339E+01 0.33665694755E+01 0.30910333442E+01 0.29041788002E+01
 0.27926419948E+01 0.27414994233E+01 0.27414998418E+01 0.27926432222E+01 0.29041807638E+01
 0.30910360702E+01 0.33665731393E+01 0.37328437429E+01 0.41719326883E+01 0.46563842393E+01
 0.53365415782E+01 0.10641486545E+02 0.13566991819E+02 0.16264593002E+02 0.18166877356E+02
 0.18852638207E+02 0.18166869160E+02 0.16264578865E+02 0.13566975379E+02 0.10641471488E+02
 0.80372790209E+01 0.61217548083E+01 0.49662363335E+01 0.43209889058E+01 0.38111172806E+01
 0.33924319229E+01 0.30854815407E+01 0.28855309078E+01 0.27760024094E+01 0.27414998418E+01
 0.27760074919E+01 0.28855394315E+01 0.30854909745E+01 0.33924399699E+01 0.38111229482E+01
 0.43209928752E+01 0.49662406898E+01 0.61217618966E+01 0.80372902863E+01 0.19043348065E+02
 0.23864942150E+02 0.27733457619E+02 0.29886880436E+02 0.29886874766E+02 0.27733442606E+02
 0.23864922938E+02 0.19043330845E+02 0.14156019749E+02 0.99857707732E+01 0.70092239721E+01
 0.52788567890E+01 0.44263418439E+01 0.38615572344E+01 0.34072576778E+01 0.30843718285E+01
 0.28855279072E+01 0.27926388017E+01 0.27926432222E+01 0.28855394315E+01 0.30843859973E+01
 0.34072693056E+01 0.38615626989E+01 0.44263406916E+01 0.52788519483E+01 0.70092203672E+01
 0.99857731183E+01 0.14156030263E+02 0.32514419889E+02 0.39168265186E+02 0.43737904965E+02
 0.45365292363E+02 0.43737892559E+02 0.39168245478E+02 0.32514400933E+02 0.24965101442E+02
 0.17750593148E+02 0.11853887522E+02 0.77917711842E+01 0.55188772788E+01 0.44831165128E+01
 0.38789266052E+01 0.34072555934E+01 0.30854754754E+01 0.29041706913E+01 0.28462800492E+01
 0.29041807638E+01 0.30854909745E+01 0.34072693056E+01 0.38789319966E+01 0.44831106950E+01
 0.55188624020E+01 0.77917535606E+01 0.11853874979E+02 0.17750591530E+02 0.24965112069E+02
 0.51026234272E+02 0.58949718506E+02 0.63309829699E+02 0.63309822830E+02 0.58949701080E+02
 0.51026214436E+02 0.40931372112E+02 0.30315023502E+02 0.20709177016E+02 0.13205381141E+02
 0.82516334681E+01 0.56094420072E+01 0.44831182787E+01 0.38615567994E+01 0.33924261974E+01
 0.30910228428E+01 0.29469087214E+01 0.29469140905E+01 0.30910360702E+01 0.33924399699E+01
 0.38615626989E+01 0.44831106950E+01 0.56094208468E+01 0.82516044776E+01 0.13205353655E+02
 0.20709160053E+02 0.30315021991E+02 0.40931384757E+02 0.73428323021E+02 0.81568384496E+02
 0.84455634755E+02 0.81568371988E+02 0.73428304211E+02 0.61463831951E+02 0.47650590332E+02
 0.34050967599E+02 0.22381513890E+02 0.13698814741E+02 0.82516372413E+01 0.55188834869E+01
 0.44263466338E+01 0.38111164550E+01 0.33665614853E+01 0.31072002523E+01 0.30230402084E+01
 0.31072087786E+01 0.33665731393E+01 0.38111229482E+01 0.44263406916E+01 0.55188624020E+01
 0.82516044776E+01 0.13698778844E+02 0.22381485095E+02 0.34050953670E+02 0.47650593306E+02
 0.61463847356E+02 0.97458363634E+02 0.10438323061E+03 0.10438322467E+03 0.97458348718E+02
 0.84835829669E+02 0.68643995134E+02 0.51386517675E+02 0.35392720415E+02 0.22381516890E+02
 0.13205387952E+02 0.77917814207E+01 0.52788674925E+01 0.43209954050E+01 0.37328375730E+01
 0.33368164747E+01 0.31426672260E+01 0.31426706769E+01 0.33368243808E+01 0.37328437429E+01
 0.43209928752E+01 0.52788519483E+01 0.77917535606E+01 0.13205353655E+02 0.22381485095E+02
 0.35392699569E+02 0.51386512264E+02 0.68644003847E+02 0.84835845974E+02 0.11999483487E+03
 0.12413406122E+03 0.11999482617E+03 0.10832082004E+03 0.91135178870E+02 0.71205147365E+02
 0.51386520955E+02 0.34050972950E+02 0.20709185097E+02 0.11853899126E+02 0.70092378207E+01
 0.49662487245E+01 0.41719324374E+01 0.36357718777E+01 0.33126191410E+01 0.32061983470E+01
 0.33126229737E+01 0.36357763408E+01 0.41719326883E+01 0.49662406898E+01 0.70092203672E+01
 0.11853874979E+02 0.20709160053E+02 0.34050953670E+02 0.51386512264E+02 0.71205150266E+02
 0.91135190050E+02 0.10832083326E+03 0.13759625151E+03 0.13759624889E+03 0.12859097215E+03
 0.11218474728E+03 0.91135184788E+02 0.68644003845E+02 0.47650599370E+02 0.30315032714E+02
 0.17750603933E+02 0.99857838832E+01 0.61217686872E+01 0.46563865194E+01 0.39893704843E+01
 0.35321942935E+01 0.33037481628E+01 0.33037490986E+01 0.35321962784E+01 0.39893714628E+01
 0.46563842393E+01 0.61217618966E+01 0.99857731183E+01 0.17750591530E+02 0.30315021991E+02
 0.47650593306E+02 0.68644003847E+02 0.91135190050E+02 0.11218475505E+03 0.12859097885E+03
 0.14727171226E+03 0.14237871609E+03 0.12859097885E+03 0.10832083326E+03 0.84835845974E+02
 0.61463847356E+02 0.40931384757E+02 0.24965112069E+02 0.14156030263E+02 0.80372902863E+01
 0.53365415782E+01 0.43679297659E+01 0.37903660779E+01 0.34356268320E+01 0.33178126125E+01
 0.34356268320E+01 0.37903660779E+01 0.43679297659E+01 0.53365415782E+01 0.80372902863E+01
 0.14156030263E+02 0.24965112069E+02 0.40931384757E+02 0.61463847356E+02 0.84835845974E+02
 0.10832083326E+03 0.12859097885E+03 0.14237871609E+03 0.13298411552E+03 0.11999484429E+03
 0.10092072902E+03 0.78864074588E+02 0.56977856464E+02 0.37833093722E+02 0.23038581310E+02
 0.13114871384E+02 0.75753811534E+01 0.51751509918E+01 0.42922738579E+01 0.37338516858E+01
 0.33932263452E+01 0.32804426216E+01 0.33932240849E+01 0.37338492410E+01 0.42922742874E+01
 0.51751566623E+01 0.75753922752E+01 0.13114885495E+02 0.23038593978E+02 0.37833100273E+02
 0.56977853959E+02 0.78864063269E+02 0.10092071246E+03 0.11999482822E+03 0.13298410570E+03
 0.13759625151E+03 0.11999484429E+03 0.10438324901E+03 0.84455658788E+02 0.63309847745E+02
 0.43737914004E+02 0.27733457970E+02 0.16264587667E+02 0.92747236946E+01 0.58579341254E+01
 0.45712107898E+01 0.39363080706E+01 0.34992802874E+01 0.32816647474E+01 0.32816637423E+01
 0.34992781094E+01 0.39363067409E+01 0.45712123026E+01 0.58579390957E+01 0.92747305794E+01
 0.16264593002E+02 0.27733457619E+02 0.43737904965E+02 0.63309829699E+02 0.84455634755E+02
 0.10438322467E+03 0.11999482617E+03 0.12859097215E+03 0.12859097885E+03 0.10092072902E+03
 0.84455658788E+02 0.65552285416E+02 0.46984964855E+02 0.30966734408E+02 0.18818895833E+02