   1   1   1   0
  0.1099674E+02  0.2496087E-09  0.2496087E-09  0.2496087E-09  0.5000000E-15
  1.000000000000000E-004
  CAR 
 fcc Ni bandstructure                    
     56.17734873     -2.41648140  301      9.20458982      1.00000000
     -2.416  0.0000E+00  0.0000E+00  0.0000E+00  0.0000E+00
     -2.221  0.0000E+00  0.0000E+00  0.0000E+00  0.0000E+00
     -2.026  0.0000E+00  0.0000E+00  0.0000E+00  0.0000E+00
     -1.831  0.0000E+00  0.0000E+00  0.0000E+00  0.0000E+00
     -1.635  0.0000E+00  0.0000E+00  0.0000E+00  0.0000E+00
     -1.440 -0.2089E-34 -0.1173E-32 -0.4081E-35 -0.2292E-33
     -1.245 -0.1618E-27 -0.5698E-26 -0.3160E-28 -0.1113E-26
     -1.049 -0.1831E-21 -0.4039E-20 -0.3576E-22 -0.7888E-21
     -0.854 -0.2925E-16 -0.4019E-15 -0.5713E-17 -0.7849E-16
     -0.659 -0.6829E-12 -0.5848E-11 -0.1334E-12 -0.1142E-11
     -0.463 -0.2244E-08 -0.1187E-07 -0.4383E-09 -0.2319E-08
     -0.268 -0.9881E-06 -0.3161E-05 -0.1934E-06 -0.6196E-06
     -0.073 -0.4968E-04 -0.8685E-04 -0.9897E-05 -0.1758E-04
      0.123 -0.8799E-05  0.2400E-03 -0.1162E-04  0.2929E-04
      0.318  0.1304E-02  0.1405E-02  0.2430E-03  0.3037E-03
      0.513  0.6042E-02  0.1137E-01  0.1423E-02  0.2524E-02
      0.709  0.3316E-01  0.3507E-01  0.7900E-02  0.9373E-02
      0.904  0.1688E-01  0.1029E-01  0.1120E-01  0.1138E-01
      1.099  0.1533E-01  0.2191E-01  0.1419E-01  0.1566E-01
      1.294  0.3318E-01  0.3686E-01  0.2067E-01  0.2286E-01
      1.490  0.7512E-01  0.8219E-01  0.3534E-01  0.3891E-01
      1.685  0.4787E-01  0.3038E-01  0.4469E-01  0.4485E-01
      1.880  0.3528E-02  0.5074E-02  0.4538E-01  0.4584E-01
      2.076  0.1975E-01  0.2743E-01  0.4924E-01  0.5120E-01
      2.271  0.1018E+00  0.1146E+00  0.6913E-01  0.7358E-01
      2.466  0.8192E-01  0.6355E-01  0.8513E-01  0.8599E-01
      2.662  0.4953E-01  0.5291E-01  0.9480E-01  0.9632E-01
      2.857  0.8399E-01  0.8480E-01  0.1112E+00  0.1129E+00
      3.052  0.7618E-01  0.7059E-01  0.1261E+00  0.1267E+00
      3.248  0.5482E-02  0.4151E-02  0.1272E+00  0.1275E+00
      3.443  0.7181E-01  0.5950E-01  0.1412E+00  0.1391E+00
      3.638  0.2182E+00  0.2139E+00  0.1838E+00  0.1809E+00
      3.834  0.1016E+00  0.9486E-01  0.2036E+00  0.1994E+00
      4.029  0.1537E+00  0.1106E+00  0.2336E+00  0.2210E+00
      4.224  0.9550E-01  0.1340E+00  0.2523E+00  0.2472E+00
      4.419  0.1300E+00  0.5694E-01  0.2777E+00  0.2583E+00
      4.615  0.4079E+00  0.1116E+00  0.3573E+00  0.2801E+00
      4.810  0.5398E+00  0.3416E+00  0.4628E+00  0.3468E+00
      5.005  0.5915E+00  0.4323E+00  0.5783E+00  0.4313E+00
      5.201  0.5538E+00  0.4393E+00  0.6865E+00  0.5171E+00
      5.396  0.8710E+00  0.4041E+00  0.8566E+00  0.5960E+00
      5.591  0.1107E+01  0.5166E+00  0.1073E+01  0.6969E+00
      5.787  0.8685E+00  0.6849E+00  0.1242E+01  0.8307E+00
      5.982  0.8982E+00  0.8529E+00  0.1418E+01  0.9973E+00
      6.177  0.8182E+00  0.8620E+00  0.1578E+01  0.1166E+01
      6.373  0.1032E+01  0.8281E+00  0.1779E+01  0.1327E+01
      6.568  0.1273E+01  0.8888E+00  0.2028E+01  0.1501E+01
      6.763  0.1256E+01  0.6916E+00  0.2273E+01  0.1636E+01
      6.959  0.1502E+01  0.1170E+01  0.2567E+01  0.1865E+01
      7.154  0.1744E+01  0.1079E+01  0.2907E+01  0.2075E+01
      7.349  0.1347E+01  0.1275E+01  0.3170E+01  0.2324E+01
      7.544  0.9765E+00  0.1422E+01  0.3361E+01  0.2602E+01
      7.740  0.1040E+01  0.1565E+01  0.3564E+01  0.2908E+01
      7.935  0.1574E+01  0.1337E+01  0.3872E+01  0.3169E+01
      8.130  0.1285E+01  0.1016E+01  0.4123E+01  0.3367E+01
      8.326  0.1222E+01  0.1026E+01  0.4361E+01  0.3568E+01
      8.521  0.1752E+01  0.1355E+01  0.4703E+01  0.3833E+01
      8.716  0.2239E+01  0.1430E+01  0.5141E+01  0.4112E+01
      8.912  0.8081E+00  0.8781E+00  0.5299E+01  0.4283E+01
      9.107 -0.6651E-01  0.1337E+01  0.5286E+01  0.4545E+01
      9.302  0.3722E-01  0.1883E+01  0.5293E+01  0.4912E+01
      9.498  0.2086E+00  0.1640E+01  0.5334E+01  0.5233E+01
      9.693  0.3552E+00  0.3056E+00  0.5403E+01  0.5292E+01
      9.888  0.1767E+00  0.5336E-01  0.5438E+01  0.5303E+01
     10.084  0.1021E+00  0.2381E+00  0.5457E+01  0.5349E+01
     10.279  0.1183E+00  0.3616E+00  0.5481E+01  0.5420E+01
     10.474  0.9719E-01  0.2126E+00  0.5500E+01  0.5462E+01
     10.669  0.7698E-01  0.1145E+00  0.5515E+01  0.5484E+01
     10.865  0.7580E-01  0.1266E+00  0.5529E+01  0.5509E+01
     11.060  0.2997E+00  0.4989E-01  0.5588E+01  0.5518E+01
     11.255  0.1783E+00  0.1172E+00  0.5623E+01  0.5541E+01
     11.451  0.6342E-01  0.2598E+00  0.5635E+01  0.5592E+01
     11.646  0.1480E+00  0.1502E+00  0.5664E+01  0.5621E+01
     11.841  0.1451E+00  0.9765E-01  0.5692E+01  0.5640E+01
     12.037  0.1551E+00  0.1971E+00  0.5723E+01  0.5679E+01
     12.232  0.1171E+00  0.1760E+00  0.5746E+01  0.5713E+01
     12.427  0.5693E-01  0.1995E+00  0.5757E+01  0.5752E+01
     12.623 -0.4728E-02  0.2828E-01  0.5756E+01  0.5758E+01
     12.818  0.5510E-01 -0.1248E-01  0.5767E+01  0.5755E+01
     13.013  0.2510E+00  0.3097E-01  0.5816E+01  0.5761E+01
     13.209  0.1962E+00  0.2288E+00  0.5854E+01  0.5806E+01
     13.404  0.5270E-01  0.2097E+00  0.5864E+01  0.5847E+01
     13.599  0.7335E-02  0.7333E-01  0.5866E+01  0.5861E+01
     13.794  0.1149E+00  0.1501E-01  0.5888E+01  0.5864E+01
     13.990  0.1115E+00  0.9311E-01  0.5910E+01  0.5882E+01
     14.185  0.1021E+00  0.1571E+00  0.5930E+01  0.5913E+01
     14.380  0.3527E-01  0.8879E-01  0.5937E+01  0.5930E+01
     14.576  0.8108E-01  0.3098E-01  0.5952E+01  0.5937E+01
     14.771  0.1046E+00  0.8487E-01  0.5973E+01  0.5953E+01
     14.966  0.4643E-01  0.1024E+00  0.5982E+01  0.5973E+01
     15.162  0.7816E-01  0.8019E-03  0.5997E+01  0.5973E+01
     15.357  0.1009E+00  0.6249E-01  0.6017E+01  0.5985E+01
     15.552  0.1836E+00  0.1187E+00  0.6053E+01  0.6009E+01
     15.748  0.2057E+00  0.1522E+00  0.6093E+01  0.6038E+01
     15.943  0.6570E-01  0.2155E+00  0.6106E+01  0.6080E+01
     16.138 -0.5633E-02  0.1250E+00  0.6105E+01  0.6105E+01
     16.334  0.2307E+00  0.1879E-02  0.6150E+01  0.6105E+01
     16.529  0.3424E+00  0.2347E+00  0.6217E+01  0.6151E+01
     16.724  0.1083E+00  0.3433E+00  0.6238E+01  0.6218E+01
     16.919  0.5610E-01  0.8866E-01  0.6249E+01  0.6235E+01
     17.115  0.1255E+00  0.6691E-01  0.6273E+01  0.6249E+01
     17.310  0.2133E+00  0.1450E+00  0.6315E+01  0.6277E+01
     17.505  0.1582E+00  0.1915E+00  0.6346E+01  0.6314E+01
     17.701  0.6157E-01  0.1668E+00  0.6358E+01  0.6347E+01
     17.896  0.5766E-01  0.6085E-01  0.6369E+01  0.6359E+01
     18.091  0.3159E-01  0.5520E-01  0.6375E+01  0.6369E+01
     18.287  0.8306E-02  0.2865E-01  0.6377E+01  0.6375E+01
     18.482  0.2099E+00  0.1348E-01  0.6418E+01  0.6378E+01
     18.677  0.1389E+00  0.2243E+00  0.6445E+01  0.6422E+01
     18.873  0.8276E-01  0.1317E+00  0.6461E+01  0.6447E+01
     19.068  0.1896E+00  0.1109E+00  0.6498E+01  0.6469E+01
     19.263  0.1868E+00  0.1817E+00  0.6535E+01  0.6504E+01
     19.459  0.2268E+00  0.2062E+00  0.6579E+01  0.6545E+01
     19.654  0.2245E+00  0.2444E+00  0.6623E+01  0.6592E+01
     19.849  0.2241E+00  0.2262E+00  0.6667E+01  0.6637E+01
     20.044  0.1667E+00  0.1972E+00  0.6699E+01  0.6675E+01
     20.240  0.2102E+00  0.1869E+00  0.6740E+01  0.6712E+01
     20.435  0.1999E+00  0.2163E+00  0.6779E+01  0.6754E+01
     20.630  0.6370E-01  0.1581E+00  0.6792E+01  0.6785E+01
     20.826 -0.8231E-02  0.3205E-01  0.6790E+01  0.6791E+01
     21.021  0.1799E+00  0.2640E-01  0.6825E+01  0.6796E+01
     21.216  0.3085E+00  0.2802E+00  0.6885E+01  0.6851E+01
     21.412  0.1735E+00  0.2550E+00  0.6919E+01  0.6901E+01
     21.607  0.2956E+00  0.2035E+00  0.6977E+01  0.6940E+01
     21.802  0.2521E+00  0.3392E+00  0.7026E+01  0.7007E+01
     21.998  0.8139E-01  0.1324E+00  0.7042E+01  0.7033E+01
     22.193  0.1997E+00  0.1454E+00  0.7081E+01  0.7061E+01
     22.388  0.9638E-01  0.1753E+00  0.7100E+01  0.7095E+01
     22.584  0.3087E-01  0.3278E-01  0.7106E+01  0.7102E+01
     22.779  0.2121E+00  0.1253E+00  0.7147E+01  0.7126E+01
     22.974  0.3193E+00  0.3027E+00  0.7210E+01  0.7185E+01
     23.169  0.3328E+00  0.2876E+00  0.7275E+01  0.7241E+01
     23.365  0.3055E+00  0.3793E+00  0.7335E+01  0.7315E+01
     23.560  0.1292E+00  0.1885E+00  0.7360E+01  0.7352E+01
     23.755  0.1387E+00  0.1127E+00  0.7387E+01  0.7374E+01
     23.951  0.1522E+00  0.1748E+00  0.7417E+01  0.7408E+01
     24.146  0.1861E+00  0.1528E+00  0.7453E+01  0.7438E+01
     24.341  0.1634E+00  0.2040E+00  0.7485E+01  0.7478E+01
     24.537  0.2911E+00  0.1703E+00  0.7542E+01  0.7511E+01
     24.732  0.3306E+00  0.4081E+00  0.7606E+01  0.7591E+01
     24.927  0.2111E+00  0.2199E+00  0.7648E+01  0.7634E+01
     25.123  0.2257E+00  0.2418E+00  0.7692E+01  0.7681E+01
     25.318  0.8063E-01  0.1180E+00  0.7707E+01  0.7704E+01
     25.513  0.2048E+00  0.1474E+00  0.7747E+01  0.7733E+01
     25.709  0.3076E+00  0.2844E+00  0.7807E+01  0.7789E+01
     25.904  0.1637E+00  0.2159E+00  0.7839E+01  0.7831E+01
     26.099  0.8440E-01  0.1086E+00  0.7856E+01  0.7852E+01
     26.294  0.1065E+00  0.7120E-01  0.7877E+01  0.7866E+01
     26.490  0.1928E+00  0.1934E+00  0.7914E+01  0.7904E+01
     26.685  0.2464E+00  0.2211E+00  0.7962E+01  0.7947E+01
     26.880  0.2749E+00  0.2918E+00  0.8016E+01  0.8004E+01
     27.076  0.3102E+00  0.2942E+00  0.8077E+01  0.8061E+01
     27.271  0.3237E+00  0.3553E+00  0.8140E+01  0.8131E+01
     27.466  0.1043E+00  0.1336E+00  0.8160E+01  0.8157E+01
     27.662  0.1839E-01  0.2834E-01  0.8164E+01  0.8162E+01
     27.857  0.1112E+00  0.7524E-01  0.8186E+01  0.8177E+01
     28.052  0.1551E+00  0.1718E+00  0.8216E+01  0.8211E+01
     28.248  0.6429E-01  0.9082E-01  0.8228E+01  0.8228E+01
     28.443 -0.1793E-01 -0.1391E-01  0.8225E+01  0.8226E+01
     28.638  0.1709E+00  0.7779E-01  0.8258E+01  0.8241E+01
     28.834  0.4698E+00  0.4680E+00  0.8350E+01  0.8332E+01
     29.029  0.2455E+00  0.3147E+00  0.8398E+01  0.8394E+01
     29.224  0.9910E-01  0.1073E+00  0.8417E+01  0.8415E+01
     29.419  0.1216E+00  0.1206E+00  0.8441E+01  0.8438E+01
     29.615  0.1658E+00  0.1497E+00  0.8474E+01  0.8467E+01
     29.810  0.1606E+00  0.1453E+00  0.8505E+01  0.8496E+01
     30.005  0.2050E+00  0.2069E+00  0.8545E+01  0.8536E+01
     30.201  0.2292E+00  0.2789E+00  0.8590E+01  0.8591E+01
     30.396  0.1538E+00  0.1375E+00  0.8620E+01  0.8618E+01
     30.591  0.1647E+00  0.1355E+00  0.8652E+01  0.8644E+01
     30.787  0.1851E+00  0.1755E+00  0.8688E+01  0.8678E+01
     30.982  0.2008E+00  0.2617E+00  0.8727E+01  0.8729E+01
     31.177  0.1896E+00  0.1437E+00  0.8764E+01  0.8757E+01
     31.373  0.2814E+00  0.2689E+00  0.8819E+01  0.8810E+01
     31.568  0.3323E+00  0.3540E+00  0.8884E+01  0.8879E+01
     31.763  0.1750E+00  0.2069E+00  0.8918E+01  0.8920E+01
     31.959  0.2187E+00  0.2245E+00  0.8961E+01  0.8963E+01
     32.154  0.2916E+00  0.2917E+00  0.9018E+01  0.9020E+01
     32.349  0.3255E+00  0.2888E+00  0.9082E+01  0.9077E+01
     32.545  0.2140E+00  0.2252E+00  0.9123E+01  0.9121E+01
     32.740  0.2926E+00  0.2865E+00  0.9181E+01  0.9177E+01
     32.935  0.2667E+00  0.2837E+00  0.9233E+01  0.9232E+01
     33.130  0.1004E+00  0.1041E+00  0.9252E+01  0.9252E+01
     33.326  0.9856E-01  0.9816E-01  0.9272E+01  0.9272E+01
     33.521  0.2948E+00  0.2769E+00  0.9329E+01  0.9326E+01
     33.716  0.3276E+00  0.2876E+00  0.9393E+01  0.9382E+01
     33.912  0.4413E+00  0.3914E+00  0.9479E+01  0.9458E+01
     34.107  0.4497E+00  0.5597E+00  0.9567E+01  0.9568E+01
     34.302  0.3464E+00  0.3460E+00  0.9635E+01  0.9635E+01
     34.498  0.2243E+00  0.1896E+00  0.9679E+01  0.9672E+01
     34.693  0.2455E+00  0.2292E+00  0.9727E+01  0.9717E+01
     34.888  0.7527E-01  0.1044E+00  0.9741E+01  0.9737E+01
     35.084  0.1913E+00  0.1747E+00  0.9779E+01  0.9772E+01
     35.279  0.3317E+00  0.3677E+00  0.9843E+01  0.9843E+01
     35.474  0.8734E-01  0.1256E+00  0.9860E+01  0.9868E+01
     35.670  0.1074E+00  0.7753E-01  0.9881E+01  0.9883E+01
     35.865  0.1474E+00  0.1454E+00  0.9910E+01  0.9911E+01
     36.060  0.1706E+00  0.1591E+00  0.9944E+01  0.9943E+01
     36.255  0.1956E+00  0.1264E+00  0.9982E+01  0.9967E+01
     36.451  0.1461E+00  0.1838E+00  0.1001E+02  0.1000E+02
     36.646  0.9731E-01  0.1022E+00  0.1003E+02  0.1002E+02
     36.841  0.6444E-01  0.9261E-01  0.1004E+02  0.1004E+02
     37.037  0.2075E+00  0.2159E+00  0.1008E+02  0.1008E+02
     37.232  0.1120E+00  0.1043E+00  0.1010E+02  0.1010E+02
     37.427  0.8537E-01  0.6519E-01  0.1012E+02  0.1012E+02
     37.623  0.1228E+00  0.1306E+00  0.1014E+02  0.1014E+02
     37.818  0.2656E+00  0.2213E+00  0.1020E+02  0.1019E+02
     38.013  0.4199E+00  0.4154E+00  0.1028E+02  0.1027E+02
     38.209  0.2386E+00  0.3282E+00  0.1033E+02  0.1033E+02
     38.404  0.1795E+00  0.1248E+00  0.1036E+02  0.1035E+02
     38.599  0.2500E+00  0.1979E+00  0.1041E+02  0.1039E+02
     38.795  0.1979E+00  0.2325E+00  0.1045E+02  0.1044E+02
     38.990  0.2843E+00  0.3142E+00  0.1050E+02  0.1050E+02
     39.185  0.6786E+00  0.6826E+00  0.1064E+02  0.1063E+02
     39.380  0.6188E+00  0.6492E+00  0.1076E+02  0.1076E+02
     39.576  0.2330E+00  0.1685E+00  0.1080E+02  0.1079E+02
     39.771  0.9863E-01  0.1366E+00  0.1082E+02  0.1082E+02
     39.966  0.3477E-02  0.2789E-01  0.1082E+02  0.1083E+02
     40.162  0.1335E+00  0.1416E+00  0.1085E+02  0.1085E+02
     40.357  0.1719E+00  0.1509E+00  0.1088E+02  0.1088E+02
     40.552  0.3198E-01  0.3324E-01  0.1089E+02  0.1089E+02
     40.748  0.1710E+00  0.1787E+00  0.1092E+02  0.1092E+02
     40.943  0.1888E+00  0.1838E+00  0.1096E+02  0.1096E+02
     41.138  0.2849E+00  0.2811E+00  0.1101E+02  0.1101E+02
     41.334  0.1875E+00  0.1843E+00  0.1105E+02  0.1105E+02
     41.529  0.1301E+00  0.1499E+00  0.1108E+02  0.1108E+02
     41.724  0.1786E+00  0.1901E+00  0.1111E+02  0.1112E+02
     41.920  0.2167E+00  0.1687E+00  0.1115E+02  0.1115E+02
     42.115  0.2369E+00  0.2158E+00  0.1120E+02  0.1119E+02
     42.310  0.2959E+00  0.3051E+00  0.1126E+02  0.1125E+02
     42.505  0.3245E+00  0.3506E+00  0.1132E+02  0.1132E+02
     42.701  0.2668E+00  0.2736E+00  0.1137E+02  0.1137E+02
     42.896  0.2193E-01  0.2265E-01  0.1138E+02  0.1138E+02
     43.091  0.1166E+00  0.1463E+00  0.1140E+02  0.1141E+02
     43.287  0.2995E+00  0.2728E+00  0.1146E+02  0.1146E+02
     43.482  0.6133E-01  0.6317E-01  0.1147E+02  0.1147E+02
     43.677  0.9713E-01  0.8700E-01  0.1149E+02  0.1149E+02
     43.873  0.2475E+00  0.2230E+00  0.1154E+02  0.1153E+02
     44.068  0.3509E+00  0.3674E+00  0.1161E+02  0.1160E+02
     44.263  0.8572E-01  0.9416E-01  0.1162E+02  0.1162E+02
     44.459  0.7076E-02  0.2951E-01  0.1162E+02  0.1163E+02
     44.654  0.1427E+00  0.1718E+00  0.1165E+02  0.1166E+02
     44.849  0.1935E+00  0.1475E+00  0.1169E+02  0.1169E+02
     45.045  0.1887E+00  0.1564E+00  0.1173E+02  0.1172E+02
     45.240  0.1279E-01  0.4074E-01  0.1173E+02  0.1173E+02
     45.435  0.3556E-01  0.5623E-01  0.1174E+02  0.1174E+02
     45.630  0.1648E+00  0.1610E+00  0.1177E+02  0.1177E+02
     45.826  0.9291E-01  0.7823E-01  0.1179E+02  0.1179E+02
     46.021  0.2492E-01  0.8671E-02  0.1179E+02  0.1179E+02
     46.216  0.6433E-01  0.5943E-01  0.1180E+02  0.1180E+02
     46.412  0.1253E-01  0.3072E-01  0.1181E+02  0.1181E+02
     46.607 -0.7735E-02 -0.9872E-02  0.1181E+02  0.1180E+02
     46.802  0.2277E-01  0.5437E-01  0.1181E+02  0.1182E+02
     46.998  0.1633E+00  0.1812E+00  0.1184E+02  0.1185E+02
     47.193  0.1941E+00  0.1760E+00  0.1188E+02  0.1189E+02
     47.388  0.1295E+00  0.1065E+00  0.1190E+02  0.1191E+02
     47.584  0.7001E-02 -0.7068E-03  0.1191E+02  0.1191E+02
     47.779 -0.3323E-02 -0.2244E-02  0.1191E+02  0.1191E+02
     47.974 -0.1230E-03 -0.5222E-04  0.1191E+02  0.1191E+02
     48.170 -0.1610E-05 -0.2194E-05  0.1191E+02  0.1191E+02
     48.365 -0.1815E-03 -0.2791E-03  0.1191E+02  0.1191E+02
     48.560 -0.2754E-02 -0.2951E-02  0.1190E+02  0.1190E+02
     48.755  0.1889E-01  0.2532E-01  0.1191E+02  0.1191E+02
     48.951  0.6434E-01  0.6408E-01  0.1192E+02  0.1192E+02
     49.146  0.2735E-01  0.3727E-01  0.1193E+02  0.1193E+02
     49.341  0.7250E-01  0.7101E-01  0.1194E+02  0.1194E+02
     49.537  0.6326E-01  0.6757E-01  0.1195E+02  0.1196E+02
     49.732  0.5589E-01  0.4087E-01  0.1196E+02  0.1196E+02
     49.927  0.2201E-02 -0.2151E-02  0.1196E+02  0.1196E+02
     50.123 -0.1410E-02 -0.6796E-03  0.1196E+02  0.1196E+02
     50.318 -0.3305E-04 -0.8702E-05  0.1196E+02  0.1196E+02
     50.513 -0.2832E-05 -0.7189E-05  0.1196E+02  0.1196E+02
     50.709 -0.3372E-03 -0.6065E-03  0.1196E+02  0.1196E+02
     50.904 -0.2929E-02 -0.2296E-02  0.1196E+02  0.1196E+02
     51.099  0.2935E-01  0.4109E-01  0.1197E+02  0.1197E+02
     51.295  0.6283E-01  0.5475E-01  0.1198E+02  0.1198E+02
     51.490  0.5176E-02  0.5483E-03  0.1198E+02  0.1198E+02
     51.685 -0.1818E-02 -0.1360E-02  0.1198E+02  0.1198E+02
     51.880 -0.1450E-02 -0.1412E-02  0.1198E+02  0.1198E+02
     52.076  0.1015E-01  0.1731E-01  0.1198E+02  0.1199E+02
     52.271  0.3324E-01  0.2981E-01  0.1199E+02  0.1199E+02
     52.466  0.5438E-02  0.1398E-02  0.1199E+02  0.1199E+02
     52.662 -0.1202E-02 -0.8186E-03  0.1199E+02  0.1199E+02
     52.857 -0.7823E-03 -0.7378E-03  0.1199E+02  0.1199E+02
     53.052  0.6893E-02  0.7889E-02  0.1199E+02  0.1199E+02
     53.248  0.1518E-01  0.1462E-01  0.1200E+02  0.1200E+02
     53.443  0.7345E-02  0.9356E-02  0.1200E+02  0.1200E+02
     53.638  0.1593E-01  0.1469E-01  0.1200E+02  0.1200E+02
     53.834  0.2150E-02  0.8029E-03  0.1200E+02  0.1200E+02
     54.029 -0.5155E-03 -0.3749E-03  0.1200E+02  0.1200E+02
     54.224 -0.1896E-04 -0.9380E-05  0.1200E+02  0.1200E+02
     54.420 -0.7121E-07 -0.2579E-07  0.1200E+02  0.1200E+02
     54.615 -0.3509E-10 -0.9431E-11  0.1200E+02  0.1200E+02
     54.810 -0.2409E-14 -0.4817E-15  0.1200E+02  0.1200E+02
     55.005  0.0000E+00  0.0000E+00  0.1200E+02  0.1200E+02
     55.201  0.0000E+00  0.0000E+00  0.1200E+02  0.1200E+02
     55.396  0.0000E+00  0.0000E+00  0.1200E+02  0.1200E+02
     55.591  0.0000E+00  0.0000E+00  0.1200E+02  0.1200E+02
     55.787  0.0000E+00  0.0000E+00  0.1200E+02  0.1200E+02
     55.982  0.0000E+00  0.0000E+00  0.1200E+02  0.1200E+02
     56.177  0.0000E+00  0.0000E+00  0.1200E+02  0.1200E+02
     56.17734873     -2.41648140  301      9.20458982      1.00000000
     -2.416  0.0000E+00  0.0000E+00  0.0000E+00  0.0000E+00  0.0000E+00  0.0000E+00  0.0000E+00  0.0000E+00  0.0000E+00  0.0000E+00  0.0000E+00  0.0000E+00  0.0000E+00  0.0000E+00  0.0000E+00  0.0000E+00  0.0000E+00  0.0000E+00
     -2.221  0.0000E+00  0.0000E+00  0.0000E+00  0.0000E+00  0.0000E+00  0.0000E+00  0.0000E+00  0.0000E+00  0.0000E+00  0.0000E+00  0.0000E+00  0.0000E+00  0.0000E+00  0.0000E+00  0.0000E+00  0.0000E+00  0.0000E+00  0.0000E+00
     -2.026  0.0000E+00  0.0000E+00  0.0000E+00  0.0000E+00  0.0000E+00  0.0000E+00  0.0000E+00  0.0000E+00  0.0000E+00  0.0000E+00  0.0000E+00  0.0000E+00  0.0000E+00  0.0000E+00  0.0000E+00  0.0000E+00  0.0000E+00  0.0000E+00
     -1.831  0.0000E+00  0.0000E+00  0.0000E+00  0.0000E+00  0.0000E+00  0.0000E+00  0.0000E+00  0.0000E+00  0.0000E+00  0.0000E+00  0.0000E+00  0.0000E+00  0.0000E+00  0.0000E+00  0.0000E+00  0.0000E+00  0.0000E+00  0.0000E+00
     -1.635  0.0000E+00  0.0000E+00  0.0000E+00  0.0000E+00  0.0000E+00  0.0000E+00  0.0000E+00  0.0000E+00  0.0000E+00  0.0000E+00  0.0000E+00  0.0000E+00  0.0000E+00  0.0000E+00  0.0000E+00  0.0000E+00  0.0000E+00  0.0000E+00
     -1.440 -0.1505E-34 -0.8455E-33 -0.1438E-52 -0.2763E-50 -0.9989E-52 -0.5241E-50 -0.7132E-53 -0.1245E-50 -0.9116E-48 -0.7687E-45 -0.9131E-48 -0.7669E-45 -0.2868E-51 -0.4991E-52 -0.9105E-48 -0.7691E-45 -0.3385E-51 -0.3682E-51
     -1.245 -0.1166E-27 -0.4107E-26 -0.1114E-45 -0.1342E-43 -0.7736E-45 -0.2545E-43 -0.5524E-46 -0.6045E-44 -0.7060E-41 -0.3733E-38 -0.7072E-41 -0.3725E-38 -0.2221E-44 -0.2424E-45 -0.7052E-41 -0.3735E-38 -0.2622E-44 -0.1788E-44
     -1.049 -0.1319E-21 -0.2910E-20 -0.4865E-33 -0.2238E-31 -0.4863E-33 -0.2237E-31 -0.4863E-33 -0.2237E-31 -0.2222E-34 -0.3209E-32 -0.2223E-34 -0.3203E-32 -0.3856E-38 -0.7166E-37 -0.2221E-34 -0.3210E-32 -0.6995E-38 -0.2157E-36
     -0.854 -0.2107E-16 -0.2896E-15 -0.1868E-26 -0.5411E-25 -0.1867E-26 -0.5404E-25 -0.1867E-26 -0.5404E-25 -0.5591E-28 -0.1624E-26 -0.5591E-28 -0.1623E-26 -0.1499E-31 -0.4896E-30 -0.5591E-28 -0.1624E-26 -0.4425E-31 -0.1469E-29
     -0.659 -0.4919E-12 -0.4215E-11 -0.1048E-20 -0.1909E-19 -0.1045E-20 -0.1902E-19 -0.1045E-20 -0.1902E-19 -0.3061E-22 -0.4826E-21 -0.3061E-22 -0.4827E-21 -0.2320E-25 -0.4897E-24 -0.3061E-22 -0.4828E-21 -0.6957E-25 -0.1469E-23
     -0.463 -0.1616E-08 -0.8553E-08 -0.8260E-16 -0.9429E-15 -0.8192E-16 -0.9328E-15 -0.8192E-16 -0.9328E-15 -0.2398E-17 -0.2349E-16 -0.2398E-17 -0.2350E-16 -0.5085E-20 -0.6891E-19 -0.2398E-17 -0.2350E-16 -0.1525E-19 -0.2067E-18
     -0.268 -0.7118E-06 -0.2278E-05 -0.9613E-12 -0.6874E-11 -0.9385E-12 -0.6666E-11 -0.9385E-12 -0.6666E-11 -0.2747E-13 -0.1678E-12 -0.2747E-13 -0.1678E-12 -0.1717E-15 -0.1424E-14 -0.2747E-13 -0.1678E-12 -0.5152E-15 -0.4271E-14
     -0.073 -0.3579E-04 -0.6257E-04 -0.1598E-08 -0.7144E-08 -0.1492E-08 -0.6541E-08 -0.1492E-08 -0.6541E-08 -0.4367E-10 -0.1647E-09 -0.4367E-10 -0.1647E-09 -0.7993E-12 -0.4121E-11 -0.4367E-10 -0.1647E-09 -0.2398E-11 -0.1236E-10
      0.123 -0.5345E-05  0.1756E-03 -0.3741E-06 -0.1036E-05 -0.3070E-06 -0.8027E-06 -0.3070E-06 -0.8027E-06 -0.8987E-08 -0.2021E-07 -0.8987E-08 -0.2021E-07 -0.5047E-09 -0.1591E-08 -0.8987E-08 -0.2021E-07 -0.1514E-08 -0.4772E-08
      0.318  0.9622E-03  0.1044E-02 -0.1100E-04 -0.1696E-04 -0.5940E-05 -0.6964E-05 -0.5940E-05 -0.6964E-05 -0.1739E-06 -0.1753E-06 -0.1739E-06 -0.1754E-06 -0.3812E-07 -0.6823E-07 -0.1739E-06 -0.1754E-06 -0.1144E-06 -0.2047E-06
      0.513  0.4263E-02  0.7965E-02  0.2111E-04  0.8731E-04  0.3433E-04  0.6962E-04  0.3433E-04  0.6962E-04  0.1007E-05  0.1759E-05  0.1007E-05  0.1759E-05 -0.1006E-06  0.1176E-06  0.9986E-06  0.1734E-05 -0.3018E-06  0.3527E-06
      0.709  0.2310E-01  0.2442E-01  0.4757E-03  0.5709E-03  0.1522E-03  0.1356E-03  0.1522E-03  0.1356E-03  0.4649E-05  0.3759E-05  0.4649E-05  0.3760E-05  0.2337E-05  0.2784E-05  0.3840E-05  0.2319E-05  0.7010E-05  0.8351E-05
      0.904  0.1175E-01  0.7142E-02  0.4034E-03  0.2575E-03  0.8397E-06  0.6842E-05  0.8396E-06  0.6842E-05  0.1005E-05  0.5956E-07  0.1005E-05  0.5961E-07  0.2451E-05  0.1583E-05 -0.3422E-05 -0.2047E-06  0.7354E-05  0.4748E-05
      1.099  0.1017E-01  0.1456E-01 -0.1170E-03 -0.1869E-03  0.4761E-03  0.6877E-03  0.4761E-03  0.6877E-03 -0.4252E-05 -0.5465E-05 -0.4252E-05 -0.5465E-05  0.2024E-05  0.2508E-05  0.5964E-04  0.7311E-04  0.6072E-05  0.7523E-05
      1.294  0.2190E-01  0.2412E-01  0.2836E-03  0.9164E-03  0.8092E-03  0.6998E-03  0.8092E-03  0.6998E-03  0.6588E-05  0.2475E-04  0.6588E-05  0.2476E-04  0.1097E-04  0.1738E-04  0.9584E-04  0.6638E-04  0.3292E-04  0.5215E-04
      1.490  0.4810E-01  0.5260E-01  0.4096E-02  0.4501E-02  0.7303E-03  0.8386E-03  0.7303E-03  0.8386E-03  0.1740E-03  0.1711E-03  0.1740E-03  0.1711E-03  0.6086E-04  0.5752E-04  0.7064E-04  0.7092E-04  0.1826E-03  0.1726E-03
      1.685  0.3057E-01  0.1940E-01  0.2221E-02  0.1309E-02  0.6857E-03  0.4996E-03  0.6855E-03  0.4993E-03  0.1423E-03  0.8101E-04  0.1424E-03  0.8119E-04  0.2494E-04  0.1149E-04  0.8900E-04  0.5580E-04  0.7487E-04  0.3461E-04
      1.880  0.2093E-02  0.3019E-02  0.6134E-03  0.9404E-03 -0.1028E-03 -0.1749E-03 -0.1148E-03 -0.1965E-03 -0.1550E-04 -0.2358E-04 -0.8030E-05 -0.1255E-04  0.2883E-04  0.3754E-04 -0.3685E-04 -0.4584E-04  0.9173E-04  0.1211E-03
      2.076  0.1178E-01  0.1625E-01  0.1341E-02  0.1283E-02  0.4200E-03  0.9077E-03  0.3557E-03  0.8825E-03 -0.1788E-04  0.2707E-04  0.2219E-04  0.3991E-04  0.6050E-04  0.5774E-04  0.1567E-03  0.2717E-03  0.2097E-03  0.1831E-03
      2.271  0.5903E-01  0.6657E-01  0.4034E-02  0.5177E-02  0.3568E-02  0.3725E-02  0.4460E-02  0.4935E-02  0.7436E-03  0.7642E-03  0.1877E-03  0.1481E-03  0.2920E-03  0.3266E-03  0.1302E-02  0.1109E-02  0.4856E-03  0.5069E-03
      2.466  0.4721E-01  0.3664E-01  0.5858E-02  0.5030E-02  0.1348E-02  0.8472E-03  0.2754E-02  0.2010E-02  0.9497E-03  0.6655E-03  0.7355E-04  0.7303E-04  0.3840E-03  0.2789E-03  0.4887E-03  0.2494E-03  0.5368E-03  0.3818E-03
      2.662  0.2690E-01  0.2887E-01  0.4736E-02  0.5108E-02  0.9317E-03  0.1132E-02  0.9790E-03  0.1097E-02  0.1016E-02  0.8724E-03  0.9862E-03  0.8901E-03  0.1109E-03  0.9668E-04  0.3844E-03  0.3314E-03  0.3120E-03  0.3036E-03
      2.857  0.4426E-01  0.4494E-01  0.8439E-02  0.9085E-02  0.1696E-02  0.1666E-02  0.1664E-02  0.1647E-02  0.1455E-02  0.1094E-02  0.1475E-02  0.1104E-02  0.4747E-03  0.4808E-03  0.8728E-03  0.6328E-03  0.1438E-02  0.1450E-02
      3.052  0.3910E-01  0.3661E-01  0.9561E-02  0.9016E-02  0.8964E-03  0.8869E-03  0.8867E-03  0.8788E-03  0.8596E-03  0.6476E-03  0.8722E-03  0.6559E-03  0.8357E-03  0.6569E-03  0.4556E-03  0.3371E-03  0.2515E-02  0.1977E-02
      3.248  0.3052E-02  0.2256E-02  0.5565E-04 -0.4027E-03  0.5316E-03  0.6605E-03  0.3390E-03  0.4726E-03 -0.3933E-03 -0.2873E-03 -0.1342E-03 -0.9143E-04 -0.2409E-05 -0.3253E-04  0.3263E-03  0.3749E-03  0.1526E-03  0.4161E-04
      3.443  0.3307E-01  0.2813E-01  0.3369E-02  0.2863E-02  0.3869E-02  0.3420E-02  0.4889E-02  0.4314E-02  0.2145E-02  0.1244E-02  0.7743E-03  0.3132E-03  0.6376E-03  0.4838E-03  0.3810E-02  0.2429E-02  0.1071E-02  0.7922E-03
      3.638  0.9766E-01  0.9798E-01  0.1970E-01  0.2052E-01  0.5574E-02  0.5700E-02  0.1091E-01  0.1123E-01  0.1097E-01  0.8601E-02  0.3815E-02  0.2854E-02  0.3040E-02  0.2681E-02  0.7360E-02  0.5519E-02  0.4737E-02  0.3983E-02
      3.834  0.4253E-01  0.4230E-01  0.1170E-01  0.1040E-01  0.1487E-02  0.2146E-02  0.3524E-02  0.4314E-02  0.5402E-02  0.3400E-02  0.2442E-02  0.1002E-02  0.2250E-02  0.1716E-02  0.2922E-02  0.2070E-02  0.4618E-02  0.3267E-02
      4.029  0.5676E-01  0.4370E-01  0.1808E-01  0.1588E-01  0.1884E-02  0.1128E-02  0.2864E-02  0.2227E-02  0.1100E-01  0.5388E-02  0.9236E-02  0.3818E-02  0.3327E-02  0.2650E-02  0.7913E-02  0.2788E-02  0.8272E-02  0.6295E-02
      4.224  0.3471E-01  0.5140E-01  0.1248E-01  0.1627E-01  0.1267E-02  0.2743E-02  0.1315E-02  0.2928E-02  0.5196E-02  0.8125E-02  0.5242E-02  0.7874E-02  0.2498E-02  0.1919E-02  0.3608E-02  0.6063E-02  0.7526E-02  0.5509E-02
      4.419  0.3364E-01  0.1952E-01  0.9789E-02  0.8793E-02  0.2063E-02  0.3186E-03  0.2158E-02  0.3420E-03  0.1133E-01  0.1636E-02  0.1165E-01  0.1874E-02  0.5017E-02  0.2545E-02  0.1453E-01  0.4667E-03  0.1611E-01  0.8179E-02
      4.615  0.9763E-01  0.3369E-01  0.1534E-01  0.8947E-02  0.1207E-01  0.5191E-02  0.1256E-01  0.4635E-02  0.5353E-01  0.2625E-02  0.4445E-01  0.2831E-02  0.1106E-01  0.5158E-02  0.7071E-01  0.9507E-02  0.2289E-01  0.1449E-01
      4.810  0.1005E+00  0.9929E-01  0.2672E-01  0.1423E-01  0.1115E-01  0.1853E-01  0.1215E-01  0.1723E-01  0.4879E-01  0.3424E-01  0.3265E-01  0.2510E-01  0.4868E-01  0.8773E-02  0.5856E-01  0.4876E-01  0.1130E+00  0.8029E-02
      5.005  0.7937E-01  0.9703E-01  0.3209E-01  0.3224E-01  0.2506E-02  0.5888E-02  0.6544E-02  0.1064E-01  0.5971E-01  0.4647E-01  0.3946E-01  0.3202E-01  0.6007E-01  0.2788E-01  0.7411E-01  0.4210E-01  0.1539E+00  0.6103E-01
      5.201  0.4246E-01  0.6662E-01  0.1209E-01  0.2998E-01  0.3028E-02  0.4311E-03  0.6587E-02  0.4684E-02  0.4170E-01  0.2991E-01  0.3437E-01  0.2278E-01  0.6292E-01  0.5025E-01  0.1475E+00  0.3014E-01  0.1408E+00  0.1339E+00
      5.396  0.4880E-01  0.4921E-01  0.1466E-01  0.1575E-01  0.1551E-01  0.2729E-02  0.1466E-01  0.4392E-02  0.4944E-01  0.4442E-01  0.2496E-01  0.3264E-01  0.8780E-01  0.3957E-01  0.3918E+00  0.5529E-01  0.1345E+00  0.1050E+00
      5.591  0.4307E-01  0.5139E-01  0.1229E-01  0.1296E-01  0.2239E-01  0.9006E-02  0.2114E-01  0.1287E-01  0.5272E-01  0.4205E-01  0.2615E-01  0.3078E-01  0.1273E+00  0.7101E-01  0.5576E+00  0.8061E-01  0.1403E+00  0.1364E+00
      5.787  0.8587E-02  0.5900E-01  0.4562E-02  0.2008E-01  0.2328E-01  0.1858E-01  0.2032E-01  0.2089E-01  0.1064E-01  0.4005E-01  0.1041E-01  0.1900E-01  0.1141E+00  0.9294E-01  0.4996E+00  0.1995E+00  0.1025E+00  0.1252E+00
      5.982  0.5162E-02  0.2940E-01  0.3434E-02  0.1106E-01  0.3123E-01  0.1262E-01  0.1847E-01  0.1761E-01  0.3126E-01  0.3782E-01  0.1928E-01  0.1879E-01  0.1122E+00  0.1253E+00  0.4853E+00  0.3786E+00  0.1176E+00  0.1364E+00
      6.177  0.2180E-02  0.1337E-01  0.7915E-02  0.5283E-02  0.2113E-01  0.2332E-01  0.1920E-01  0.2196E-01  0.7988E-01  0.1865E-01  0.4395E-01  0.1217E-01  0.1381E+00  0.9864E-01  0.3048E+00  0.5139E+00  0.1332E+00  0.7626E-01
      6.373  0.5948E-02  0.5624E-02  0.2852E-01  0.1938E-02  0.1758E-01  0.3264E-01  0.1661E-01  0.1937E-01  0.2513E+00  0.1110E-01  0.1243E+00  0.1244E-01  0.1061E+00  0.8133E-01  0.2859E+00  0.4958E+00  0.1199E+00  0.9504E-01
      6.568  0.1227E-01  0.4423E-02  0.4012E-01  0.6092E-02  0.1980E-01  0.3188E-01  0.1907E-01  0.1900E-01  0.3718E+00  0.4638E-01  0.1404E+00  0.2490E-01  0.1493E+00  0.1225E+00  0.3026E+00  0.4358E+00  0.1275E+00  0.1200E+00
      6.763  0.1245E-01  0.1386E-02  0.4212E-01  0.1353E-01  0.1322E-01  0.1696E-01  0.1191E-01  0.1483E-01  0.3814E+00  0.1031E+00  0.1089E+00  0.5752E-01  0.1601E+00  0.7664E-01  0.2922E+00  0.2592E+00  0.1574E+00  0.9133E-01
      6.959  0.1001E-01  0.6456E-02  0.4388E-01  0.3969E-01  0.1022E-01  0.2475E-01  0.9404E-02  0.2171E-01  0.4515E+00  0.2881E+00  0.1760E+00  0.1352E+00  0.2036E+00  0.1275E+00  0.2756E+00  0.3096E+00  0.2460E+00  0.1231E+00
      7.154  0.1233E-01  0.8890E-02  0.3973E-01  0.4123E-01  0.1614E-01  0.1633E-01  0.1537E-01  0.1452E-01  0.5118E+00  0.3330E+00  0.3316E+00  0.1288E+00  0.2458E+00  0.1093E+00  0.2614E+00  0.2744E+00  0.2282E+00  0.7453E-01
      7.349  0.1476E-01  0.1193E-01  0.3264E-01  0.5204E-01  0.1141E-01  0.1402E-01  0.1193E-01  0.1073E-01  0.3384E+00  0.3772E+00  0.3567E+00  0.1125E+00  0.2132E+00  0.1480E+00  0.9925E-01  0.2858E+00  0.2068E+00  0.1816E+00