   8   8   0   0
  0.5796174E+02  0.5174000E-09  0.5174160E-09  0.2000000E-08  0.5000000E-15
  1.000000000000000E-004
  CAR 
 BC3                                     
      7.03861755    -20.87765078  301     -3.21589772      1.00000000
    -20.878  0.0000E+00  0.0000E+00
    -20.785  0.0000E+00  0.0000E+00
    -20.692  0.0000E+00  0.0000E+00
    -20.598  0.0000E+00  0.0000E+00
    -20.505  0.0000E+00  0.0000E+00
    -20.412  0.0000E+00  0.0000E+00
    -20.319  0.0000E+00  0.0000E+00
    -20.226  0.0000E+00  0.0000E+00
    -20.133  0.9140E-16  0.8505E-17
    -20.040  0.9260E-12  0.8618E-13
    -19.947  0.1832E-08  0.1705E-09
    -19.854  0.7280E-06  0.6791E-07
    -19.761  0.6112E-04  0.5755E-05
    -19.668  0.1193E-02  0.1168E-03
    -19.575  0.6449E-02  0.7168E-03
    -19.482  0.1308E-01  0.1934E-02
    -19.389  0.1602E-01  0.3425E-02
    -19.296  0.1778E-01  0.5080E-02
    -19.203  0.2066E-01  0.7002E-02
    -19.110  0.2729E-01  0.9542E-02
    -19.017  0.3413E-01  0.1272E-01
    -18.924  0.2415E-01  0.1497E-01
    -18.830  0.6535E-02  0.1557E-01
    -18.737  0.5443E-03  0.1562E-01
    -18.644  0.1157E-04  0.1562E-01
    -18.551  0.5521E-07  0.1562E-01
    -18.458  0.5507E-10  0.1562E-01
    -18.365  0.1100E-13  0.1562E-01
    -18.272  0.5178E-18  0.1562E-01
    -18.179  0.0000E+00  0.1562E-01
    -18.086  0.0000E+00  0.1562E-01
    -17.993  0.0000E+00  0.1562E-01
    -17.900  0.4078E-17  0.1562E-01
    -17.807  0.7047E-13  0.1563E-01
    -17.714  0.2282E-09  0.1563E-01
    -17.621  0.1454E-06  0.1563E-01
    -17.528  0.1978E-04  0.1563E-01
    -17.435  0.6433E-03  0.1569E-01
    -17.342  0.5673E-02  0.1621E-01
    -17.249  0.1632E-01  0.1773E-01
    -17.155  0.2396E-01  0.1996E-01
    -17.062  0.2488E-01  0.2228E-01
    -16.969  0.1843E-01  0.2399E-01
    -16.876  0.1445E-01  0.2534E-01
    -16.783  0.1458E-01  0.2669E-01
    -16.690  0.1624E-01  0.2820E-01
    -16.597  0.1430E-01  0.2954E-01
    -16.504  0.1676E-01  0.3109E-01
    -16.411  0.1941E-01  0.3290E-01
    -16.318  0.2081E-01  0.3484E-01
    -16.225  0.2407E-01  0.3708E-01
    -16.132  0.2885E-01  0.3976E-01
    -16.039  0.2412E-01  0.4201E-01
    -15.946  0.1793E-01  0.4367E-01
    -15.853  0.1483E-01  0.4505E-01
    -15.760  0.1239E-01  0.4621E-01
    -15.667  0.5869E-02  0.4675E-01
    -15.574  0.1234E-02  0.4687E-01
    -15.481  0.8009E-04  0.4687E-01
    -15.387  0.1259E-05  0.4687E-01
    -15.294  0.4268E-08  0.4687E-01
    -15.201  0.2902E-11  0.4687E-01
    -15.108  0.3770E-15  0.4688E-01
    -15.015  0.0000E+00  0.4688E-01
    -14.922  0.0000E+00  0.4688E-01
    -14.829  0.0000E+00  0.4688E-01
    -14.736  0.0000E+00  0.4688E-01
    -14.643  0.0000E+00  0.4688E-01
    -14.550  0.0000E+00  0.4688E-01
    -14.457  0.2473E-16  0.4688E-01
    -14.364  0.3318E-12  0.4688E-01
    -14.271  0.8363E-09  0.4688E-01
    -14.178  0.4098E-06  0.4688E-01
    -14.085  0.4075E-04  0.4688E-01
    -13.992  0.8813E-03  0.4696E-01
    -13.899  0.4923E-02  0.4742E-01
    -13.806  0.1164E-01  0.4850E-01
    -13.712  0.1926E-01  0.5029E-01
    -13.619  0.2012E-01  0.5217E-01
    -13.526  0.1848E-01  0.5389E-01
    -13.433  0.2580E-01  0.5629E-01
    -13.340  0.3126E-01  0.5920E-01
    -13.247  0.1676E-01  0.6076E-01
    -13.154  0.7691E-02  0.6147E-01
    -13.061  0.9524E-02  0.6236E-01
    -12.968  0.1380E-01  0.6364E-01
    -12.875  0.1487E-01  0.6503E-01
    -12.782  0.9425E-02  0.6590E-01
    -12.689  0.5039E-02  0.6637E-01
    -12.596  0.8227E-02  0.6714E-01
    -12.503  0.1771E-01  0.6879E-01
    -12.410  0.1652E-01  0.7032E-01
    -12.317  0.9872E-02  0.7124E-01
    -12.224  0.1197E-01  0.7235E-01
    -12.131  0.1796E-01  0.7403E-01
    -12.037  0.1656E-01  0.7557E-01
    -11.944  0.9612E-02  0.7646E-01
    -11.851  0.9410E-02  0.7734E-01
    -11.758  0.1402E-01  0.7864E-01
    -11.665  0.1130E-01  0.7969E-01
    -11.572  0.3926E-02  0.8006E-01
    -11.479  0.3079E-02  0.8034E-01
    -11.386  0.6621E-02  0.8096E-01
    -11.293  0.6382E-02  0.8155E-01
    -11.200  0.4262E-02  0.8195E-01
    -11.107  0.1861E-02  0.8212E-01
    -11.014  0.5829E-03  0.8218E-01
    -10.921  0.2123E-02  0.8238E-01
    -10.828  0.9582E-02  0.8327E-01
    -10.735  0.1321E-01  0.8450E-01
    -10.642  0.7311E-02  0.8518E-01
    -10.549  0.7891E-02  0.8591E-01
    -10.456  0.1076E-01  0.8691E-01
    -10.363  0.1104E-01  0.8794E-01
    -10.269  0.8289E-02  0.8871E-01
    -10.176  0.1649E-01  0.9025E-01
    -10.083  0.2222E-01  0.9231E-01
     -9.990  0.2181E-01  0.9434E-01
     -9.897  0.1572E-01  0.9581E-01
     -9.804  0.1121E-01  0.9685E-01
     -9.711  0.7366E-02  0.9753E-01
     -9.618  0.5084E-02  0.9801E-01
     -9.525  0.1652E-01  0.9954E-01
     -9.432  0.3352E-01  0.1027E+00
     -9.339  0.2933E-01  0.1054E+00
     -9.246  0.1174E-01  0.1065E+00
     -9.153  0.5981E-02  0.1070E+00
     -9.060  0.1304E-01  0.1083E+00
     -8.967  0.1833E-01  0.1100E+00
     -8.874  0.1394E-01  0.1113E+00
     -8.781  0.1447E-01  0.1126E+00
     -8.688  0.2563E-01  0.1150E+00
     -8.594  0.2779E-01  0.1176E+00
     -8.501  0.1283E-01  0.1188E+00
     -8.408  0.1466E-01  0.1201E+00
     -8.315  0.2583E-01  0.1225E+00
     -8.222  0.2334E-01  0.1247E+00
     -8.129  0.1820E-01  0.1264E+00
     -8.036  0.1932E-01  0.1282E+00
     -7.943  0.1532E-01  0.1296E+00
     -7.850  0.1626E-01  0.1311E+00
     -7.757  0.1822E-01  0.1328E+00
     -7.664  0.2657E-01  0.1353E+00
     -7.571  0.3542E-01  0.1386E+00
     -7.478  0.3087E-01  0.1415E+00
     -7.385  0.2919E-01  0.1442E+00
     -7.292  0.3429E-01  0.1474E+00
     -7.199  0.2837E-01  0.1500E+00
     -7.106  0.1593E-01  0.1515E+00
     -7.013  0.1395E-01  0.1528E+00
     -6.920  0.1666E-01  0.1544E+00
     -6.826  0.1200E-01  0.1555E+00
     -6.733  0.1450E-01  0.1568E+00
     -6.640  0.1519E-01  0.1582E+00
     -6.547  0.1102E-01  0.1593E+00
     -6.454  0.1421E-01  0.1606E+00
     -6.361  0.1964E-01  0.1624E+00
     -6.268  0.2728E-01  0.1649E+00
     -6.175  0.4056E-01  0.1687E+00
     -6.082  0.6338E-01  0.1746E+00
     -5.989  0.5799E-01  0.1800E+00
     -5.896  0.4218E-01  0.1839E+00
     -5.803  0.3025E-01  0.1868E+00
     -5.710  0.1413E-01  0.1881E+00
     -5.617  0.1502E-01  0.1895E+00
     -5.524  0.2508E-01  0.1918E+00
     -5.431  0.2612E-01  0.1942E+00
     -5.338  0.1537E-01  0.1957E+00
     -5.245  0.1125E-01  0.1967E+00
     -5.151  0.2019E-01  0.1986E+00
     -5.058  0.3030E-01  0.2014E+00
     -4.965  0.2854E-01  0.2041E+00
     -4.872  0.2445E-01  0.2063E+00
     -4.779  0.2067E-01  0.2083E+00
     -4.686  0.3448E-01  0.2115E+00
     -4.593  0.4178E-01  0.2154E+00
     -4.500  0.3226E-01  0.2184E+00
     -4.407  0.3465E-01  0.2216E+00
     -4.314  0.3820E-01  0.2251E+00
     -4.221  0.2581E-01  0.2275E+00
     -4.128  0.1105E-01  0.2286E+00
     -4.035  0.1198E-01  0.2297E+00
     -3.942  0.1331E-01  0.2309E+00
     -3.849  0.7928E-02  0.2317E+00
     -3.756  0.7764E-02  0.2324E+00
     -3.663  0.9459E-02  0.2333E+00
     -3.570  0.7581E-02  0.2340E+00
     -3.477  0.3609E-02  0.2343E+00
     -3.383  0.7205E-03  0.2344E+00
     -3.290  0.4540E-04  0.2344E+00
     -3.197  0.7384E-06  0.2344E+00
     -3.104  0.5638E-05  0.2344E+00
     -3.011  0.2346E-03  0.2344E+00
     -2.918  0.2246E-02  0.2346E+00
     -2.825  0.5810E-02  0.2351E+00
     -2.732  0.8147E-02  0.2359E+00
     -2.639  0.1486E-01  0.2373E+00
     -2.546  0.1921E-01  0.2391E+00
     -2.453  0.1494E-01  0.2405E+00
     -2.360  0.1383E-01  0.2418E+00
     -2.267  0.1962E-01  0.2436E+00
     -2.174  0.2201E-01  0.2456E+00
     -2.081  0.1297E-01  0.2468E+00
     -1.988  0.4798E-02  0.2473E+00
     -1.895  0.6596E-02  0.2479E+00
     -1.802  0.4974E-02  0.2484E+00
     -1.708  0.4916E-02  0.2488E+00
     -1.615  0.7323E-02  0.2495E+00
     -1.522  0.2856E-02  0.2498E+00
     -1.429  0.2433E-03  0.2498E+00
     -1.336  0.7798E-05  0.2498E+00
     -1.243  0.1452E-03  0.2498E+00
     -1.150  0.1229E-02  0.2499E+00
     -1.057  0.2269E-02  0.2501E+00
     -0.964  0.9333E-03  0.2502E+00
     -0.871  0.8306E-04  0.2502E+00
     -0.778  0.1280E-04  0.2502E+00
     -0.685  0.4530E-03  0.2503E+00
     -0.592  0.3756E-02  0.2506E+00
     -0.499  0.6835E-02  0.2512E+00
     -0.406  0.3515E-02  0.2516E+00
     -0.313  0.3270E-02  0.2519E+00
     -0.220  0.2696E-02  0.2521E+00
     -0.127  0.2490E-02  0.2524E+00
     -0.034  0.1313E-01  0.2536E+00
      0.060  0.2358E-01  0.2558E+00
      0.153  0.1956E-01  0.2576E+00
      0.246  0.1630E-01  0.2591E+00
      0.339  0.1597E-01  0.2606E+00
      0.432  0.1444E-01  0.2619E+00
      0.525  0.1536E-01  0.2634E+00
      0.618  0.1207E-01  0.2645E+00
      0.711  0.7780E-02  0.2652E+00
      0.804  0.1136E-01  0.2663E+00
      0.897  0.1349E-01  0.2675E+00
      0.990  0.9042E-02  0.2684E+00
      1.083  0.8643E-02  0.2692E+00
      1.176  0.1168E-01  0.2703E+00
      1.269  0.1385E-01  0.2716E+00
      1.362  0.1775E-01  0.2732E+00
      1.455  0.1682E-01  0.2748E+00
      1.548  0.1244E-01  0.2759E+00
      1.641  0.1100E-01  0.2770E+00
      1.735  0.2460E-01  0.2792E+00
      1.828  0.2348E-01  0.2814E+00
      1.921  0.1043E-01  0.2824E+00
      2.014  0.1317E-01  0.2836E+00
      2.107  0.2221E-01  0.2857E+00
      2.200  0.2305E-01  0.2878E+00
      2.293  0.2075E-01  0.2898E+00
      2.386  0.1687E-01  0.2913E+00
      2.479  0.2226E-01  0.2934E+00
      2.572  0.2845E-01  0.2961E+00
      2.665  0.2472E-01  0.2984E+00
      2.758  0.1815E-01  0.3000E+00
      2.851  0.2228E-01  0.3021E+00
      2.944  0.3204E-01  0.3051E+00
      3.037  0.3791E-01  0.3086E+00
      3.130  0.3659E-01  0.3120E+00
      3.223  0.2877E-01  0.3147E+00
      3.316  0.1912E-01  0.3165E+00
      3.410  0.2064E-01  0.3184E+00
      3.503  0.3223E-01  0.3214E+00
      3.596  0.4041E-01  0.3252E+00
      3.689  0.3655E-01  0.3286E+00
      3.782  0.2706E-01  0.3311E+00
      3.875  0.2529E-01  0.3334E+00
      3.968  0.2700E-01  0.3359E+00
      4.061  0.2569E-01  0.3383E+00
      4.154  0.2830E-01  0.3410E+00
      4.247  0.3944E-01  0.3446E+00
      4.340  0.3887E-01  0.3483E+00
      4.433  0.2515E-01  0.3506E+00
      4.526  0.1931E-01  0.3524E+00
      4.619  0.1440E-01  0.3537E+00
      4.712  0.2064E-01  0.3557E+00
      4.805  0.2819E-01  0.3583E+00
      4.898  0.1691E-01  0.3599E+00
      4.991  0.1433E-01  0.3612E+00
      5.084  0.1862E-01  0.3629E+00
      5.178  0.1210E-01  0.3640E+00
      5.271  0.1081E-01  0.3651E+00
      5.364  0.1706E-01  0.3666E+00
      5.457  0.1608E-01  0.3681E+00
      5.550  0.1241E-01  0.3693E+00
      5.643  0.1728E-01  0.3709E+00
      5.736  0.2442E-01  0.3732E+00
      5.829  0.1590E-01  0.3747E+00
      5.922  0.3528E-02  0.3750E+00
      6.015  0.2110E-03  0.3750E+00
      6.108  0.2894E-05  0.3750E+00
      6.201  0.8205E-08  0.3750E+00
      6.294  0.4526E-11  0.3750E+00
      6.387  0.4692E-15  0.3750E+00
      6.480  0.0000E+00  0.3750E+00
      6.573  0.0000E+00  0.3750E+00
      6.666  0.0000E+00  0.3750E+00
      6.759  0.0000E+00  0.3750E+00
      6.853  0.0000E+00  0.3750E+00
      6.946  0.0000E+00  0.3750E+00
      7.039  0.0000E+00  0.3750E+00
