    8    8  128    1
  0.5796174E+02  0.5174000E-09  0.5174160E-09  0.2000000E-08  0.5000000E-15
  1.000000000000000E-004
  CAR 
 BC3                                     
     30     43     24
 
  0.0000000E+00  0.0000000E+00  0.0000000E+00  0.6944444E-02
    1      -19.247370   1.000000
    2      -15.355657   1.000000
    3      -15.355632   1.000000
    4      -13.006197   1.000000
    5      -13.004810   1.000000
    6      -11.937390   1.000000
    7      -10.619023   1.000000
    8       -8.053377   1.000000
    9       -7.831835   1.000000
   10       -5.678300   1.000000
   11       -5.676220   1.000000
   12       -3.857525   1.000000
   13       -3.857438   1.000000
   14       -3.175360   0.999997
   15       -3.170920   0.999996
   16       -1.338521   0.000000
   17        0.391203   0.000000
   18        0.393448   0.000000
   19        1.055109   0.000000
   20        1.399204   0.000000
   21        2.880619   0.000000
   22        3.747259   0.000000
   23        5.607597   0.000000
   24        5.612375   0.000000
 
  0.8333333E-01  0.0000000E+00  0.0000000E+00  0.2777778E-01
    1      -19.220278   1.000000
    2      -15.487782   1.000000
    3      -15.397984   1.000000
    4      -13.044941   1.000000
    5      -12.906806   1.000000
    6      -11.802857   1.000000
    7      -10.458779   1.000000
    8       -8.012200   1.000000
    9       -7.889292   1.000000
   10       -5.801232   1.000000
   11       -5.699159   1.000000
   12       -3.982107   1.000000
   13       -3.878027   1.000000
   14       -3.317059   1.000000
   15       -3.240777   1.000000
   16       -1.543276   0.000000
   17        0.452126   0.000000
   18        0.701797   0.000000
   19        1.178164   0.000000
   20        1.450941   0.000000
   21        2.935564   0.000000
   22        3.799648   0.000000
   23        5.681086   0.000000
   24        5.771755   0.000000
 
  0.1666667E+00 -0.1387779E-16  0.0000000E+00  0.2777778E-01
    1      -19.141247   1.000000
    2      -15.812727   1.000000
    3      -15.502129   1.000000
    4      -13.161212   1.000000
    5      -12.637839   1.000000
    6      -11.421647   1.000000
    7      -10.029691   1.000000
    8       -8.071623   1.000000
    9       -7.889821   1.000000
   10       -6.147059   1.000000
   11       -5.735135   1.000000
   12       -4.324202   1.000000
   13       -3.932258   1.000000
   14       -3.724003   1.000000
   15       -3.432469   1.000000
   16       -1.890997   0.000000
   17        0.615571   0.000000
   18        1.169278   0.000000
   19        1.605676   0.000000
   20        1.699417   0.000000
   21        3.103005   0.000000
   22        3.955577   0.000000
   23        5.834555   0.000000
   24        6.238246   0.000000
 
  0.2500000E+00 -0.2775558E-16  0.0000000E+00  0.2777778E-01
    1      -19.018297   1.000000
    2      -16.209167   1.000000
    3      -15.624374   1.000000
    4      -13.308742   1.000000
    5      -12.253467   1.000000
    6      -10.879038   1.000000
    7       -9.420303   1.000000
    8       -8.385293   1.000000
    9       -7.690595   1.000000
   10       -6.653865   1.000000
   11       -5.726092   1.000000
   12       -4.801319   1.000000
   13       -4.341329   1.000000
   14       -4.002308   1.000000
   15       -3.707841   1.000000
   16       -2.177689   0.000000
   17        0.843884   0.000000
   18        1.519544   0.000000
   19        1.862424   0.000000
   20        2.558285   0.000000
   21        3.401178   0.000000
   22        4.212794   0.000000
   23        5.493592   0.000000
   24        5.985574   0.000000
 
  0.3333333E+00  0.0000000E+00  0.0000000E+00  0.2777778E-01
    1      -18.869846   1.000000
    2      -16.586267   1.000000
    3      -15.730417   1.000000
    4      -13.437614   1.000000
    5      -11.815747   1.000000
    6      -10.255750   1.000000
    7       -8.792172   1.000000
    8       -8.717709   1.000000
    9       -7.426105   1.000000
   10       -7.231072   1.000000
   11       -5.647160   1.000000
   12       -5.318369   1.000000
   13       -5.102731   1.000000
   14       -4.068335   1.000000
   15       -4.012123   1.000000
   16       -2.375930   0.000000
   17        1.080474   0.000000
   18        1.843585   0.000000
   19        2.220314   0.000000
   20        3.376887   0.000000
   21        3.940042   0.000000
   22        4.569713   0.000000
   23        4.648641   0.000000
   24        5.948911   0.000000
 
  0.4166667E+00  0.2775558E-16  0.0000000E+00  0.2777778E-01
    1      -18.734641   1.000000
    2      -16.869277   1.000000
    3      -15.800405   1.000000
    4      -13.522024   1.000000
    5      -11.414749   1.000000
    6       -9.610759   1.000000
    7       -9.188358   1.000000
    8       -8.281978   1.000000
    9       -7.498975   1.000000
   10       -7.133826   1.000000
   11       -5.941353   1.000000
   12       -5.781158   1.000000
   13       -5.531085   1.000000
   14       -4.273172   1.000000
   15       -4.114418   1.000000
   16       -2.491689   0.000000
   17        1.260756   0.000000
   18        2.090167   0.000000
   19        2.678732   0.000000
   20        3.894381   0.000000
   21        3.959495   0.000000
   22        4.751799   0.000000
   23        5.025284   0.000000
   24        5.306700   0.000000
 
  0.5000000E+00 -0.5551115E-16  0.0000000E+00  0.1388889E-01
    1      -18.676212   1.000000
    2      -16.978499   1.000000
    3      -15.824681   1.000000
    4      -13.551144   1.000000
    5      -11.230144   1.000000
    6       -9.374060   1.000000
    7       -9.166657   1.000000
    8       -8.561284   1.000000
    9       -6.966590   1.000000
   10       -6.935195   1.000000
   11       -6.682017   1.000000
   12       -6.008017   1.000000
   13       -5.468620   1.000000
   14       -4.385106   1.000000
   15       -4.130821   1.000000
   16       -2.529815   0.000002
   17        1.328577   0.000000
   18        2.184239   0.000000
   19        3.235646   0.000000
   20        3.238497   0.000000
   21        4.487740   0.000000
   22        4.525718   0.000000
   23        5.564495   0.000000
   24        5.591584   0.000000
 
  0.0000000E+00  0.8333333E-01  0.0000000E+00  0.1388889E-01
    1      -19.220256   1.000000
    2      -15.487762   1.000000
    3      -15.398088   1.000000
    4      -13.044227   1.000000
    5      -12.907722   1.000000
    6      -11.802804   1.000000
    7      -10.458447   1.000000
    8       -8.012180   1.000000
    9       -7.889103   1.000000
   10       -5.799760   1.000000
   11       -5.700991   1.000000
   12       -3.981954   1.000000
   13       -3.878135   1.000000
   14       -3.313640   1.000000
   15       -3.244228   1.000000
   16       -1.543526   0.000000
   17        0.450521   0.000000
   18        0.703351   0.000000
   19        1.178474   0.000000
   20        1.450960   0.000000
   21        2.935585   0.000000
   22        3.799657   0.000000
   23        5.676673   0.000000
   24        5.775405   0.000000
 
  0.1666667E+00  0.8333333E-01  0.0000000E+00  0.1388889E-01
    1      -19.167203   1.000000
    2      -15.700854   1.000000
    3      -15.487874   1.000000
    4      -13.073256   1.000000
    5      -12.780328   1.000000
    6      -11.532373   1.000000
    7      -10.167732   1.000000
    8       -8.011769   1.000000
    9       -7.930414   1.000000
   10       -6.011105   1.000000
   11       -5.750622   1.000000
   12       -4.194684   1.000000
   13       -3.942547   1.000000
   14       -3.583312   1.000000
   15       -3.379561   1.000000
   16       -1.783279   0.000000
   17        0.484450   0.000000
   18        1.210144   0.000000
   19        1.430449   0.000000
   20        1.554163   0.000000
   21        3.046295   0.000000
   22        3.903838   0.000000
   23        5.836892   0.000000
   24        6.033677   0.000000
 
  0.2500000E+00  0.8333333E-01  0.0000000E+00  0.2777778E-01
    1      -19.065912   1.000000
    2      -16.036023   1.000000
    3      -15.631378   1.000000
    4      -13.143337   1.000000
    5      -12.528201   1.000000
    6      -11.040568   1.000000
    7       -9.660301   1.000000
    8       -8.274500   1.000000
    9       -7.769442   1.000000
   10       -6.380590   1.000000
   11       -5.808029   1.000000
   12       -4.571777   1.000000
   13       -4.073096   1.000000
   14       -4.065103   1.000000
   15       -3.634979   1.000000
   16       -2.010105   0.000000
   17        0.550929   0.000000
   18        1.701177   0.000000
   19        1.759924   0.000000
   20        2.112023   0.000000
   21        3.273232   0.000000
   22        4.110607   0.000000
   23        5.962176   0.000000
   24        6.066739   0.000000
 
  0.3333333E+00  0.8333333E-01  0.0000000E+00  0.2777778E-01
    1      -18.928865   1.000000
    2      -16.406706   1.000000
    3      -15.768510   1.000000
    4      -13.252685   1.000000
    5      -12.144433   1.000000
    6      -10.436662   1.000000
    7       -9.014355   1.000000
    8       -8.663566   1.000000
    9       -7.536509   1.000000
   10       -6.874462   1.000000
   11       -5.794129   1.000000
   12       -5.052533   1.000000
   13       -4.736125   1.000000
   14       -4.188704   1.000000
   15       -3.948559   1.000000
   16       -2.159918   0.000000
   17        0.681789   0.000000
   18        2.067292   0.000000
   19        2.075814   0.000000
   20        3.002760   0.000000
   21        3.653551   0.000000
   22        4.418054   0.000000
   23        5.099112   0.000000
   24        6.119073   0.000000
 
  0.4166667E+00  0.8333333E-01  0.0000000E+00  0.2777778E-01
    1      -18.783062   1.000000
    2      -16.731467   1.000000
    3      -15.870058   1.000000
    4      -13.346170   1.000000
    5      -11.717909   1.000000
    6       -9.803275   1.000000
    7       -9.103184   1.000000
    8       -8.337960   1.000000
    9       -7.373996   1.000000
   10       -7.251990   1.000000
   11       -5.746315   1.000000
   12       -5.541779   1.000000
   13       -5.471712   1.000000
   14       -4.282411   1.000000
   15       -4.254431   1.000000
   16       -2.250788   0.000000
   17        0.828326   0.000000
   18        2.396278   0.000000
   19        2.475517   0.000000
   20        3.718402   0.000000
   21        4.298364   0.000000
   22        4.339942   0.000000
   23        4.824894   0.000000
   24        5.613186   0.000000
 
  0.5000000E+00  0.8333333E-01  0.0000000E+00  0.2777778E-01
    1      -18.680055   1.000000
    2      -16.929914   1.000000
    3      -15.923268   1.000000
    4      -13.397624   1.000000
    5      -11.390761   1.000000
    6       -9.510596   1.000000
    7       -9.146511   1.000000
    8       -8.277610   1.000000
    9       -7.197674   1.000000
   10       -6.992304   1.000000
   11       -6.371809   1.000000
   12       -5.914310   1.000000
   13       -5.568544   1.000000
   14       -4.463574   1.000000
   15       -4.332123   1.000000
   16       -2.295016   0.000000
   17        0.924512   0.000000
   18        2.588883   0.000000
   19        2.983986   0.000000
   20        3.592254   0.000000
   21        4.267283   0.000000
   22        4.802822   0.000000
   23        5.329899   0.000000
   24        5.423925   0.000000
 
 -0.4166667E+00  0.8333333E-01  0.0000000E+00  0.2777778E-01
    1      -18.680000   1.000000
    2      -16.930063   1.000000
    3      -15.923152   1.000000
    4      -13.397744   1.000000
    5      -11.391134   1.000000
    6       -9.510295   1.000000
    7       -9.145000   1.000000
    8       -8.278905   1.000000
    9       -7.197159   1.000000
   10       -6.992203   1.000000
   11       -6.372128   1.000000
   12       -5.914469   1.000000
   13       -5.568996   1.000000
   14       -4.463405   1.000000
   15       -4.331961   1.000000
   16       -2.295230   0.000000
   17        0.924269   0.000000
   18        2.589273   0.000000
   19        2.984228   0.000000
   20        3.591963   0.000000
   21        4.267504   0.000000
   22        4.802689   0.000000
   23        5.330135   0.000000
   24        5.423930   0.000000
 
 -0.3333333E+00  0.8333333E-01  0.0000000E+00  0.2777778E-01
    1      -18.782937   1.000000
    2      -16.731870   1.000000
    3      -15.869722   1.000000
    4      -13.346518   1.000000
    5      -11.718599   1.000000
    6       -9.802234   1.000000
    7       -9.101672   1.000000
    8       -8.337649   1.000000
    9       -7.375425   1.000000
   10       -7.251829   1.000000
   11       -5.745361   1.000000
   12       -5.542115   1.000000
   13       -5.473481   1.000000
   14       -4.281947   1.000000
   15       -4.254197   1.000000
   16       -2.251395   0.000000
   17        0.827652   0.000000
   18        2.397320   0.000000
   19        2.475713   0.000000
   20        3.718689   0.000000
   21        4.298020   0.000000
   22        4.340135   0.000000
   23        4.825078   0.000000
   24        5.612856   0.000000
 
 -0.2500000E+00  0.8333333E-01  0.0000000E+00  0.2777778E-01
    1      -18.928730   1.000000
    2      -16.407289   1.000000
    3      -15.767997   1.000000
    4      -13.253211   1.000000
    5      -12.145029   1.000000
    6      -10.435807   1.000000
    7       -9.013310   1.000000
    8       -8.662298   1.000000
    9       -7.536368   1.000000
   10       -6.876200   1.000000
   11       -5.794268   1.000000
   12       -5.052960   1.000000
   13       -4.736369   1.000000
   14       -4.188011   1.000000
   15       -3.948730   1.000000
   16       -2.160805   0.000000
   17        0.680796   0.000000
   18        2.067441   0.000000
   19        2.077261   0.000000
   20        3.003188   0.000000
   21        3.653678   0.000000
   22        4.418187   0.000000
   23        5.098695   0.000000
   24        6.119668   0.000000
 
 -0.1666667E+00  0.8333333E-01  0.0000000E+00  0.2777778E-01
    1      -19.065803   1.000000
    2      -16.036676   1.000000
    3      -15.630817   1.000000
    4      -13.143865   1.000000
    5      -12.528628   1.000000
    6      -11.040061   1.000000
    7       -9.659268   1.000000
    8       -8.273472   1.000000
    9       -7.769338   1.000000
   10       -6.381615   1.000000
   11       -5.808669   1.000000
   12       -4.572210   1.000000
   13       -4.072116   1.000000
   14       -4.064381   1.000000
   15       -3.636146   1.000000
   16       -2.011045   0.000000
   17        0.549674   0.000000
   18        1.702900   0.000000
   19        1.760028   0.000000
   20        2.112439   0.000000
   21        3.273330   0.000000
   22        4.110689   0.000000
   23        5.961212   0.000000
   24        6.066895   0.000000
 
 -0.8333333E-01  0.8333333E-01  0.0000000E+00  0.2777778E-01
    1      -19.167135   1.000000
    2      -15.701297   1.000000
    3      -15.487565   1.000000
    4      -13.073212   1.000000
    5      -12.780988   1.000000
    6      -11.532148   1.000000
    7      -10.166901   1.000000
    8       -8.011165   1.000000
    9       -7.930350   1.000000
   10       -6.010597   1.000000
   11       -5.752192   1.000000
   12       -4.194873   1.000000
   13       -3.942181   1.000000
   14       -3.580538   1.000000
   15       -3.382412   1.000000
   16       -1.783975   0.000000
   17        0.482827   0.000000
   18        1.212091   0.000000
   19        1.430798   0.000000
   20        1.554225   0.000000
   21        3.046358   0.000000
   22        3.903878   0.000000
   23        5.833413   0.000000
   24        6.034398   0.000000
 
  0.0000000E+00  0.1666667E+00  0.0000000E+00  0.1388889E-01
    1      -19.141152   1.000000
    2      -15.812748   1.000000
    3      -15.502418   1.000000
    4      -13.161107   1.000000
    5      -12.638442   1.000000
    6      -11.421536   1.000000
    7      -10.028588   1.000000
    8       -8.071013   1.000000
    9       -7.889736   1.000000
   10       -6.145857   1.000000
   11       -5.737583   1.000000
   12       -4.323892   1.000000
   13       -3.932473   1.000000
   14       -3.720516   1.000000
   15       -3.436095   1.000000
   16       -1.891762   0.000000
   17        0.614165   0.000000
   18        1.169970   0.000000
   19        1.605757   0.000000
   20        1.701000   0.000000
   21        3.103097   0.000000
   22        3.955622   0.000000
   23        5.828303   0.000000
   24        6.407573   0.000000
 
  0.3333333E+00  0.1666667E+00  0.0000000E+00  0.1388889E-01
    1      -18.949601   1.000000
    2      -16.300686   1.000000
    3      -15.840596   1.000000
    4      -13.032161   1.000000
    5      -12.424519   1.000000
    6      -10.458686   1.000000
    7       -9.130615   1.000000
    8       -8.637525   1.000000
    9       -7.574095   1.000000
   10       -6.626833   1.000000
   11       -5.951950   1.000000
   12       -4.883911   1.000000
   13       -4.567621   1.000000
   14       -4.340814   1.000000
   15       -3.969005   1.000000
   16       -1.990458   0.000000
   17        0.421814   0.000000
   18        2.016369   0.000000
   19        2.456427   0.000000
   20        2.630102   0.000000
   21        3.559718   0.000000
   22        4.367945   0.000000
   23        5.628320   0.000000
   24        5.656699   0.000000
 
  0.4166667E+00  0.1666667E+00  0.0000000E+00  0.2777778E-01
    1      -18.811118   1.000000
    2      -16.577695   1.000000
    3      -16.024173   1.000000
    4      -13.002256   1.000000
    5      -12.144312   1.000000
    6       -9.828022   1.000000
    7       -9.083765   1.000000
    8       -8.502742   1.000000
    9       -7.316606   1.000000
   10       -6.969399   1.000000
   11       -6.024575   1.000000
   12       -5.279238   1.000000
   13       -5.171016   1.000000
   14       -4.582031   1.000000
   15       -4.344721   1.000000
   16       -1.906256   0.000000
   17        0.354649   0.000000
   18        2.374193   0.000000
   19        2.898236   0.000000
   20        3.455586   0.000000
   21        4.001942   0.000000
   22        4.725881   0.000000
   23        4.802052   0.000000
   24        5.399649   0.000000
 
  0.5000000E+00  0.1666667E+00  0.0000000E+00  0.2777778E-01
    1      -18.687583   1.000000
    2      -16.803663   1.000000
    3      -16.136601   1.000000
    4      -13.026985   1.000000
    5      -11.783639   1.000000
    6       -9.679962   1.000000
    7       -9.040263   1.000000
    8       -7.968596   1.000000
    9       -7.275451   1.000000
   10       -7.036797   1.000000
   11       -6.160741   1.000000
   12       -5.681696   1.000000
   13       -5.681691   1.000000
   14       -4.718171   1.000000
   15       -4.660604   1.000000
   16       -1.837626   0.000000
   17        0.339763   0.000000
   18        2.832631   0.000000
   19        3.205633   0.000000
   20        4.048618   0.000000
   21        4.108555   0.000000
   22        4.719868   0.000000
   23        5.182877   0.000000
   24        5.252762   0.000000
 
 -0.4166667E+00  0.1666667E+00  0.0000000E+00  0.2777778E-01
    1      -18.635194   1.000000
    2      -16.893787   1.000000
    3      -16.173565   1.000000
    4      -13.040949   1.000000
    5      -11.598283   1.000000
    6       -9.863463   1.000000
    7       -8.660714   1.000000
    8       -8.062918   1.000000
    9       -6.944430   1.000000
   10       -6.881717   1.000000
   11       -6.648602   1.000000
   12       -5.884366   1.000000
   13       -5.740757   1.000000
   14       -4.795051   1.000000
   15       -4.761114   1.000000
   16       -1.813514   0.000000
   17        0.341027   0.000000
   18        3.324891   0.000000
   19        3.387317   0.000000
   20        3.395097   0.000000
   21        4.621432   0.000000
   22        4.687692   0.000000
   23        5.203120   0.000000
   24        5.731031   0.000000
 
 -0.3333333E+00  0.1666667E+00  0.0000000E+00  0.2777778E-01
    1      -18.687386   1.000000
    2      -16.804295   1.000000
    3      -16.136145   1.000000
    4      -13.027495   1.000000
    5      -11.784272   1.000000
    6       -9.678537   1.000000
    7       -9.038562   1.000000
    8       -7.968692   1.000000
    9       -7.276420   1.000000
   10       -7.036494   1.000000
   11       -6.159712   1.000000
   12       -5.684178   1.000000
   13       -5.682276   1.000000
   14       -4.717678   1.000000
   15       -4.660263   1.000000
   16       -1.838365   0.000000
   17        0.339531   0.000000
   18        2.833069   0.000000
   19        3.206456   0.000000
   20        4.047984   0.000000
   21        4.109099   0.000000
   22        4.720182   0.000000
   23        5.183299   0.000000
   24        5.253187   0.000000
 
 -0.2500000E+00  0.1666667E+00  0.0000000E+00  0.2777778E-01
    1      -18.810846   1.000000
    2      -16.578749   1.000000
    3      -16.023378   1.000000
    4      -13.003273   1.000000
    5      -12.144807   1.000000
    6       -9.826584   1.000000
    7       -9.081959   1.000000
    8       -8.500873   1.000000
    9       -7.316291   1.000000
   10       -6.972139   1.000000
   11       -6.024434   1.000000
   12       -5.280059   1.000000
   13       -5.172019   1.000000
   14       -4.581120   1.000000
   15       -4.345071   1.000000
   16       -1.907575   0.000000
   17        0.354156   0.000000
   18        2.374538   0.000000
   19        2.899437   0.000000
   20        3.456592   0.000000
   21        4.002181   0.000000
   22        4.726198   0.000000
   23        4.801295   0.000000
   24        5.400500   0.000000
 
 -0.1666667E+00  0.1666667E+00  0.0000000E+00  0.2777778E-01
    1      -18.949350   1.000000
    2      -16.301737   1.000000
    3      -15.839847   1.000000
    4      -13.033384   1.000000
    5      -12.424739   1.000000
    6      -10.457817   1.000000
    7       -9.128533   1.000000
    8       -8.635730   1.000000
    9       -7.573844   1.000000
   10       -6.628605   1.000000
   11       -5.953238   1.000000
   12       -4.884565   1.000000
   13       -4.566363   1.000000
   14       -4.339901   1.000000
   15       -3.970897   1.000000
   16       -1.992036   0.000000
   17        0.420963   0.000000
   18        2.016622   0.000000
   19        2.456890   0.000000
   20        2.632276   0.000000
   21        3.559949   0.000000
   22        4.368157   0.000000
   23        5.628490   0.000000
   24        5.656737   0.000000
 
 -0.8333333E-01  0.1666667E+00  0.0000000E+00  0.2777778E-01
    1      -19.065729   1.000000
    2      -16.036587   1.000000
    3      -15.631173   1.000000
    4      -13.143933   1.000000
    5      -12.528677   1.000000
    6      -11.040137   1.000000
    7       -9.658494   1.000000
    8       -8.273204   1.000000
    9       -7.769271   1.000000
   10       -6.380560   1.000000
   11       -5.810464   1.000000
   12       -4.571859   1.000000
   13       -4.070009   1.000000
   14       -4.064763   1.000000
   15       -3.638382   1.000000
   16       -2.011481   0.000000
   17        0.549566   0.000000
   18        1.701968   0.000000
   19        1.760089   0.000000
   20        2.114074   0.000000
   21        3.273411   0.000000
   22        4.110724   0.000000
   23        5.962656   0.000000
   24        6.061114   0.000000
 
  0.0000000E+00  0.2500000E+00  0.0000000E+00  0.1388889E-01
    1      -19.018079   1.000000
    2      -16.209309   1.000000
    3      -15.624854   1.000000
    4      -13.309124   1.000000
    5      -12.253671   1.000000
    6      -10.878916   1.000000
    7       -9.418271   1.000000
    8       -8.384355   1.000000
    9       -7.690399   1.000000
   10       -6.653086   1.000000
   11       -5.729120   1.000000
   12       -4.800964   1.000000
   13       -4.337793   1.000000
   14       -4.002654   1.000000
   15       -3.711776   1.000000
   16       -2.178912   0.000000
   17        0.842749   0.000000
   18        1.520222   0.000000
   19        1.862609   0.000000
   20        2.560271   0.000000
   21        3.401445   0.000000
   22        4.212914   0.000000
   23        5.495365   0.000000
   24        5.977835   0.000000
 
  0.5000000E+00  0.2500000E+00  0.0000000E+00  0.1388889E-01
    1      -18.691276   1.000000
    2      -16.705692   1.000000
    3      -16.273165   1.000000
    4      -12.730801   1.000000
    5      -12.093111   1.000000
    6       -9.737379   1.000000
    7       -8.975045   1.000000
    8       -7.964316   1.000000
    9       -7.084358   1.000000
   10       -7.056446   1.000000
   11       -6.299599   1.000000
   12       -5.572650   1.000000
   13       -5.493674   1.000000
   14       -4.966131   1.000000
   15       -4.802012   1.000000
   16       -1.572845   0.000000
   17        0.038366   0.000000
   18        2.782284   0.000000
   19        3.614206   0.000000
   20        4.003961   0.000000
   21        4.420288   0.000000
   22        4.592337   0.000000
   23        4.615553   0.000000
   24        5.134728   0.000000
 
 -0.4166667E+00  0.2500000E+00  0.0000000E+00  0.2777778E-01
    1      -18.611055   1.000000
    2      -16.779414   1.000000
    3      -16.420923   1.000000
    4      -12.608833   1.000000
    5      -11.942595   1.000000
    6      -10.079507   1.000000
    7       -8.361197   1.000000
    8       -7.704217   1.000000
    9       -7.189544   1.000000
   10       -6.835962   1.000000
   11       -6.547378   1.000000
   12       -5.786957   1.000000
   13       -5.694385   1.000000
   14       -5.170861   1.000000
   15       -5.153971   1.000000
   16       -1.311065   0.000000
   17       -0.195346   0.000000
   18        3.290583   0.000000
   19        3.899002   0.000000
   20        4.003238   0.000000
   21        4.504947   0.000000
   22        4.559461   0.000000
   23        4.971712   0.000000
   24        5.203541   0.000000
 
 -0.3333333E+00  0.2500000E+00  0.0000000E+00  0.2777778E-01
    1      -18.610898   1.000000
    2      -16.780067   1.000000
    3      -16.420450   1.000000
    4      -12.609493   1.000000
    5      -11.942518   1.000000
    6      -10.078753   1.000000
    7       -8.359724   1.000000
    8       -7.704832   1.000000
    9       -7.189920   1.000000
   10       -6.835670   1.000000
   11       -6.546208   1.000000
   12       -5.789057   1.000000
   13       -5.695000   1.000000
   14       -5.170456   1.000000
   15       -5.153814   1.000000
   16       -1.311792   0.000000
   17       -0.195070   0.000000
   18        3.291310   0.000000
   19        3.898128   0.000000
   20        4.003652   0.000000
   21        4.505139   0.000000
   22        4.560137   0.000000
   23        4.971905   0.000000
   24        5.202977   0.000000
 
 -0.2500000E+00  0.2500000E+00  0.0000000E+00  0.2777778E-01
    1      -18.690906   1.000000
    2      -16.706996   1.000000
    3      -16.272312   1.000000
    4      -12.732524   1.000000
    5      -12.092665   1.000000
    6       -9.735594   1.000000
    7       -8.973784   1.000000
    8       -7.961620   1.000000
    9       -7.087236   1.000000
   10       -7.055944   1.000000
   11       -6.298507   1.000000
   12       -5.574642   1.000000
   13       -5.494713   1.000000
   14       -4.965352   1.000000
   15       -4.803027   1.000000
   16       -1.574427   0.000000
   17        0.038630   0.000000
   18        2.782870   0.000000
   19        3.614601   0.000000
   20        4.005708   0.000000
   21        4.420604   0.000000
   22        4.592108   0.000000
   23        4.615316   0.000000
   24        5.135273   0.000000
 
 -0.1666667E+00  0.2500000E+00  0.0000000E+00  0.2777778E-01
    1      -18.810707   1.000000
    2      -16.578792   1.000000
    3      -16.023668   1.000000
    4      -13.003877   1.000000
    5      -12.144110   1.000000
    6       -9.826826   1.000000
    7       -9.081977   1.000000
    8       -8.499671   1.000000
    9       -7.316160   1.000000
   10       -6.971250   1.000000
   11       -6.026069   1.000000
   12       -5.279765   1.000000
   13       -5.170102   1.000000
   14       -4.581569   1.000000
   15       -4.347357   1.000000
   16       -1.908116   0.000000
   17        0.354424   0.000000
   18        2.374642   0.000000
   19        2.898700   0.000000
   20        3.457694   0.000000
   21        4.002509   0.000000
   22        4.726274   0.000000
   23        4.803013   0.000000
   24        5.398315   0.000000
 
 -0.8333333E-01  0.2500000E+00  0.0000000E+00  0.2777778E-01
    1      -18.928525   1.000000
    2      -16.407315   1.000000
    3      -15.768570   1.000000
    4      -13.253673   1.000000
    5      -12.144611   1.000000
    6      -10.436047   1.000000
    7       -9.011523   1.000000
    8       -8.661953   1.000000
    9       -7.536179   1.000000
   10       -6.875007   1.000000
   11       -5.797003   1.000000
   12       -5.052521   1.000000
   13       -4.733248   1.000000
   14       -4.188632   1.000000
   15       -3.952262   1.000000
   16       -2.161678   0.000000
   17        0.680884   0.000000
   18        2.067606   0.000000
   19        2.076694   0.000000
   20        3.004847   0.000000
   21        3.654042   0.000000
   22        4.418295   0.000000
   23        5.100464   0.000000
   24        6.112825   0.000000
 
  0.0000000E+00  0.3333333E+00  0.0000000E+00  0.1388889E-01
    1      -18.869454   1.000000
    2      -16.586601   1.000000
    3      -15.731043   1.000000
    4      -13.438313   1.000000
    5      -11.815510   1.000000
    6      -10.255561   1.000000
    7       -8.791202   1.000000
    8       -8.714606   1.000000
    9       -7.425729   1.000000
   10       -7.230963   1.000000
   11       -5.650448   1.000000
   12       -5.318103   1.000000
   13       -5.099264   1.000000
   14       -4.068799   1.000000
   15       -4.016444   1.000000
   16       -2.377455   0.000000
   17        1.079614   0.000000
   18        1.844576   0.000000
   19        2.220647   0.000000
   20        3.378371   0.000000