       N       E                     dE             d eps       ncg     rms          rms(c)
DAV:   1     0.208600587493E+03    0.20860E+03   -0.97768E+03  2184   0.793E+02
DAV:   2    -0.394039647234E+02   -0.24800E+03   -0.23363E+03  3360   0.184E+02
DAV:   3    -0.725962618469E+02   -0.33192E+02   -0.32776E+02  2652   0.815E+01
DAV:   4    -0.734155447050E+02   -0.81928E+00   -0.81726E+00  2952   0.159E+01
DAV:   5    -0.734371940524E+02   -0.21649E-01   -0.21621E-01  2676   0.236E+00    0.131E+01
DAV:   6    -0.689780889880E+02    0.44591E+01   -0.52819E+00  2988   0.105E+01    0.740E+00
DAV:   7    -0.673326785540E+02    0.16454E+01   -0.39696E+00  3036   0.910E+00    0.215E+00
