       N       E                     dE             d eps       ncg     rms          rms(c)
DAV:   1     0.208596686129E+03    0.20860E+03   -0.97767E+03  2184   0.793E+02
DAV:   2    -0.394034265742E+02   -0.24800E+03   -0.23363E+03  3360   0.184E+02
DAV:   3    -0.725963848142E+02   -0.33193E+02   -0.32777E+02  2652   0.815E+01
DAV:   4    -0.734156651961E+02   -0.81928E+00   -0.81726E+00  2952   0.159E+01
DAV:   5    -0.734373150415E+02   -0.21650E-01   -0.21621E-01  2676   0.236E+00    0.131E+01
DAV:   6    -0.689783061363E+02    0.44590E+01   -0.52825E+00  2976   0.105E+01    0.740E+00
DAV:   7    -0.673327222416E+02    0.16456E+01   -0.39705E+00  3036   0.910E+00    0.215E+00
DAV:   8    -0.672526005346E+02    0.80122E-01   -0.21618E-01  3192   0.214E+00    0.580E-01
DAV:   9    -0.672347615380E+02    0.17839E-01   -0.16844E-02  2544   0.729E-01    0.175E-01
DAV:  10    -0.672233178649E+02    0.11444E-01   -0.10426E-02  2640   0.410E-01    0.127E-01
DAV:  11    -0.672226420939E+02    0.67577E-03   -0.47842E-03  2364   0.301E-01    0.573E-02
