       N       E                     dE             d eps       ncg     rms          rms(c)
DAV:   1     0.208596686129E+03    0.20860E+03   -0.97767E+03  2184   0.793E+02
DAV:   2    -0.394034265742E+02   -0.24800E+03   -0.23363E+03  3360   0.184E+02
DAV:   3    -0.725963848142E+02   -0.33193E+02   -0.32777E+02  2652   0.815E+01
DAV:   4    -0.734156651961E+02   -0.81928E+00   -0.81726E+00  2952   0.159E+01
DAV:   5    -0.734373150415E+02   -0.21650E-01   -0.21621E-01  2676   0.236E+00    0.131E+01
DAV:   6    -0.689783061363E+02    0.44590E+01   -0.52825E+00  2976   0.105E+01    0.740E+00
DAV:   7    -0.673327222416E+02    0.16456E+01   -0.39705E+00  3036   0.910E+00    0.215E+00
DAV:   8    -0.672526005346E+02    0.80122E-01   -0.21618E-01  3192   0.214E+00    0.580E-01
DAV:   9    -0.672347615380E+02    0.17839E-01   -0.16844E-02  2544   0.729E-01    0.175E-01
DAV:  10    -0.672233178649E+02    0.11444E-01   -0.10426E-02  2640   0.410E-01    0.127E-01
DAV:  11    -0.672226420939E+02    0.67577E-03   -0.47842E-03  2364   0.301E-01    0.573E-02
DAV:  12    -0.672228629145E+02   -0.22082E-03   -0.14216E-03  2304   0.141E-01    0.359E-02
DAV:  13    -0.672271078961E+02   -0.42450E-02   -0.49069E-04  2100   0.906E-02    0.210E-02
DAV:  14    -0.672296778897E+02   -0.25700E-02   -0.36177E-04  2364   0.625E-02    0.127E-02
DAV:  15    -0.672301917579E+02   -0.51387E-03   -0.33744E-05  2244   0.217E-02    0.440E-03
DAV:  16    -0.672305244436E+02   -0.33269E-03   -0.35439E-05  2112   0.167E-02    0.185E-03
DAV:  17    -0.672305758958E+02   -0.51452E-04   -0.31489E-06  2448   0.570E-03    0.148E-03
DAV:  18    -0.672306136574E+02   -0.37762E-04   -0.31462E-06  2232   0.552E-03    0.119E-03
DAV:  19    -0.672306196954E+02   -0.60380E-05   -0.14670E-07  1824   0.177E-03    0.512E-04
DAV:  20    -0.672306325165E+02   -0.12821E-04   -0.83731E-08  1548   0.121E-03    0.371E-04
DAV:  21    -0.672306345169E+02   -0.20004E-05   -0.10498E-08  1716   0.417E-04    0.137E-04
DAV:  22    -0.672306352837E+02   -0.76686E-06   -0.10271E-08  1572   0.390E-04
   1 F= -.67230635E+02 E0= -.67230635E+02  d E =-.672306E+02
       N       E                     dE             d eps       ncg     rms          rms(c)
DAV:   1    -0.672308583291E+02   -0.22381E-03   -0.21976E-02  2304   0.900E-01    0.664E-02
DAV:   2    -0.672307316442E+02    0.12668E-03   -0.42998E-04  2196   0.109E-01    0.413E-02
DAV:   3    -0.672306496513E+02    0.81993E-04   -0.15185E-04  2292   0.566E-02    0.547E-03
DAV:   4    -0.672306479286E+02    0.17228E-05   -0.47036E-06  2364   0.113E-02    0.302E-03
