 vasp.5.4.4.18Apr17-6-g9f103f2a35 (build Mar 30 2023 15:39:25) complex          
  
 executed on             LinuxIFC date 2023.05.26  21:14:22
 running on   12 total cores
 distrk:  each k-point on   12 cores,    1 groups
 distr:  one band on NCORES_PER_BAND=   1 cores,   12 groups


--------------------------------------------------------------------------------------------------------


 INCAR:
 POTCAR:    PAW_PBE B 06Sep2000                   
 POTCAR:    PAW_PBE C 08Apr2002                   

 ----------------------------------------------------------------------------- 
|                                                                             |
|           W    W    AA    RRRRR   N    N  II  N    N   GGGG   !!!           |
|           W    W   A  A   R    R  NN   N  II  NN   N  G    G  !!!           |
|           W    W  A    A  R    R  N N  N  II  N N  N  G       !!!           |
|           W WW W  AAAAAA  RRRRR   N  N N  II  N  N N  G  GGG   !            |
|           WW  WW  A    A  R   R   N   NN  II  N   NN  G    G                |
|           W    W  A    A  R    R  N    N  II  N    N   GGGG   !!!           |
|                                                                             |
|      For optimal performance we recommend to set                            |
|        NCORE= 4 - approx SQRT( number of cores)                             |
|      NCORE specifies how many cores store one orbital (NPAR=cpu/NCORE).     |
|      This setting can  greatly improve the performance of VASP for DFT.     |
|      The default,   NCORE=1            might be grossly inefficient         |
|      on modern multi-core architectures or massively parallel machines.     |
|      Do your own testing !!!!                                               |
|      Unfortunately you need to use the default for GW and RPA calculations. |
|      (for HF NCORE is supported but not extensively tested yet)             |
|                                                                             |
 ----------------------------------------------------------------------------- 

 POTCAR:    PAW_PBE B 06Sep2000                   
   SHA256 =  a32ced30f5ae56fd4d10b4325ff17eb3e4e38ee0f4288bc219fb012fddfa6e97 B/
   COPYR  = (c) Copyright 06Sep2000 Georg Kresse                                
   COPYR  = This file is part of the software VASP. Any use, copying, and all ot
   COPYR  = If you do not have a valid VASP license, you may not use, copy or di
   VRHFIN =B: s2p1                                                              
   LEXCH  = PE                                                                  
   EATOM  =    71.1703 eV,    5.2309 Ry                                         
                                                                                
   TITEL  = PAW_PBE B 06Sep2000                                                 
   LULTRA =        F    use ultrasoft PP ?                                      
   IUNSCR =        1    unscreen: 0-lin 1-nonlin 2-no                           
   RPACOR =    1.200    partial core radius                                     
   POMASS =   10.811; ZVAL   =    3.000    mass and valenz                      
   RCORE  =    1.700    outmost cutoff radius                                   
   RWIGS  =    1.710; RWIGS  =    0.905    wigner-seitz radius (au A)           
   ENMAX  =  318.614; ENMIN  =  238.960 eV                                      
   ICORE  =        2    local potential                                         
   LCOR   =        T    correct aug charges                                     
   LPAW   =        T    paw PP                                                  
   EAUG   =  535.514                                                            
   DEXC   =    0.000                                                            
   RMAX   =    1.732    core radius for proj-oper                               
   RAUG   =    1.300    factor for augmentation sphere                          
   RDEP   =    1.757    radius for radial grids                                 
   RDEPT  =    1.436    core radius for aug-charge                              
                                                                                
   Atomic configuration                                                         
    4 entries                                                                   
     n  l   j            E        occ.                                          
     1  0  0.50      -180.5896   2.0000                                         
     2  0  0.50        -9.4431   2.0000                                         
     2  1  0.50        -3.6068   1.0000                                         
     3  2  1.50        -4.0817   0.0000                                         
   Description                                                                  
     l       E           TYP  RCUT    TYP  RCUT                                 
     0     -9.4430752     23  1.500                                             
     0      0.8675899     23  1.500                                             
     1     -3.6067955     23  1.700                                             
     1      6.1086146     23  1.700                                             
     2     -4.0817478      7  1.700                                             
  local pseudopotential read in
  partial core-charges read in
  partial kinetic energy density read in
  atomic valenz-charges read in
  non local Contribution for L=           0  read in
    real space projection operators read in
  non local Contribution for L=           0  read in
    real space projection operators read in
  non local Contribution for L=           1  read in
    real space projection operators read in
  non local Contribution for L=           1  read in
    real space projection operators read in
    PAW grid and wavefunctions read in
 
   number of l-projection  operators is LMAX  =           4
   number of lm-projection operators is LMMAX =           8
 
 POTCAR:    PAW_PBE C 08Apr2002                   
   SHA256 =  253f7b50bb8d59471dbedb8285d89021f4a42ed1a2c5d38a03a736e69125dd95 C/
   COPYR  = (c) Copyright 08Apr2002 Georg Kresse                                
   COPYR  = This file is part of the software VASP. Any use, copying, and all ot
   COPYR  = If you do not have a valid VASP license, you may not use, copy or di
   VRHFIN =C: s2p2                                                              
   LEXCH  = PE                                                                  
   EATOM  =   147.1560 eV,   10.8157 Ry                                         
                                                                                
   TITEL  = PAW_PBE C 08Apr2002                                                 
   LULTRA =        F    use ultrasoft PP ?                                      
   IUNSCR =        1    unscreen: 0-lin 1-nonlin 2-no                           
   RPACOR =    1.200    partial core radius                                     
   POMASS =   12.011; ZVAL   =    4.000    mass and valenz                      
   RCORE  =    1.500    outmost cutoff radius                                   
   RWIGS  =    1.630; RWIGS  =    0.863    wigner-seitz radius (au A)           
   ENMAX  =  400.000; ENMIN  =  300.000 eV                                      
   ICORE  =        2    local potential                                         
   LCOR   =        T    correct aug charges                                     
   LPAW   =        T    paw PP                                                  
   EAUG   =  644.873                                                            
   DEXC   =    0.000                                                            
   RMAX   =    1.529    core radius for proj-oper                               
   RAUG   =    1.300    factor for augmentation sphere                          
   RDEP   =    1.501    radius for radial grids                                 
   RDEPT  =    1.300    core radius for aug-charge                              
                                                                                
   Atomic configuration                                                         
    4 entries                                                                   
     n  l   j            E        occ.                                          
     1  0  0.50      -273.3789   2.0000                                         
     2  0  0.50       -13.7508   2.0000                                         
     2  1  0.50        -5.2854   2.0000                                         
     3  2  1.50        -5.4423   0.0000                                         
   Description                                                                  
     l       E           TYP  RCUT    TYP  RCUT                                 
     0    -13.7508458     23  1.200                                             
     0     -8.2022199     23  1.200                                             
     1     -5.2854383     23  1.500                                             
     1     34.0145650     23  1.500                                             
     2     -5.4423304      7  1.500                                             
  local pseudopotential read in
  partial core-charges read in
  partial kinetic energy density read in
  atomic valenz-charges read in
  non local Contribution for L=           0  read in
    real space projection operators read in
  non local Contribution for L=           0  read in
    real space projection operators read in
  non local Contribution for L=           1  read in
    real space projection operators read in
  non local Contribution for L=           1  read in
    real space projection operators read in
    PAW grid and wavefunctions read in
 
   number of l-projection  operators is LMAX  =           4
   number of lm-projection operators is LMMAX =           8
 
  PAW_PBE B 06Sep2000                   :
 energy of atom  1       EATOM=  -71.1703
 kinetic energy error for atom=    0.0015 (will be added to EATOM!!)
  PAW_PBE C 08Apr2002                   :
 energy of atom  2       EATOM= -147.1560
 kinetic energy error for atom=    0.0116 (will be added to EATOM!!)
 
 
 POSCAR: BC3 with lattice parameter 5.174Ang, len
  positions in cartesian coordinates
  No initial velocities read in
 exchange correlation table for  LEXCH =        8
   RHO(1)=    0.500       N(1)  =     2000
   RHO(2)=  100.500       N(2)  =     4000
 


--------------------------------------------------------------------------------------------------------


 ion  position               nearest neighbor table
   1  0.175  0.175  0.000-   3 1.56   4 1.56   6 1.57
   2  0.508  0.508  0.000-   8 1.56   7 1.56   5 1.57
   3  0.000  0.000  0.000-   5 1.42   7 1.42   1 1.56
   4  0.524  0.000  0.000-   5 1.42   8 1.42   1 1.56
   5  0.683  0.159  0.000-   4 1.42   3 1.42   2 1.57
   6  1.000  0.524  0.000-   8 1.42   7 1.42   1 1.57
   7  0.159  0.683  0.000-   6 1.42   3 1.42   2 1.56
   8  0.682  0.683  0.000-   6 1.42   4 1.42   2 1.56
 
  LATTYP: Found a base centered orthorhombic cell.
 ALAT       =     5.1740000000
 B/A-ratio  =     1.7321221492
 C/A-ratio  =     3.8654812524
  
  Lattice vectors:
  
 A1 = (   2.5870000000,   4.4810000000,   0.0000000000)
 A2 = (   2.5870000000,  -4.4810000000,   0.0000000000)
 A3 = (   0.0000000000,   0.0000000000, -20.0000000000)


Analysis of symmetry for initial positions (statically):
=====================================================================
 Subroutine PRICEL returns:
 Original cell was already a primitive cell.
 

 Routine SETGRP: Setting up the symmetry group for a 
 base centered orthorhombic supercell.


 Subroutine GETGRP returns: Found  8 space group operations
 (whereof  2 operations were pure point group operations)
 out of a pool of  8 trial point group operations.


The static configuration has the point symmetry C_1h.
 The point group associated with its full space group is D_2h.


Analysis of symmetry for dynamics (positions and initial velocities):
=====================================================================
 Subroutine PRICEL returns:
 Original cell was already a primitive cell.
 

 Routine SETGRP: Setting up the symmetry group for a 
 base centered orthorhombic supercell.


 Subroutine GETGRP returns: Found  8 space group operations
 (whereof  2 operations were pure point group operations)
 out of a pool of  8 trial point group operations.


The dynamic configuration has the point symmetry C_1h.
 The point group associated with its full space group is D_2h.


 Subroutine INISYM returns: Found  8 space group operations
 (whereof  2 operations are pure point group operations),
 and found     1 'primitive' translations

 
 
 KPOINTS: K-points for BC3                        

Automatic generation of k-mesh.
Space group operators:
 irot       det(A)        alpha          n_x          n_y          n_z        tau_x        tau_y        tau_z
    1     1.000000     0.000000     1.000000     0.000000     0.000000     0.000000     0.000000     0.000000
    2    -1.000000   180.000000     0.000000     0.000000     1.000000     0.000000     0.000000     0.000000
    3    -1.000000     0.000000     1.000000     0.000000     0.000000     0.682498    -0.317451     0.000000
    4     1.000000   180.000000     0.000000     0.000000     1.000000     0.682498    -0.317451     0.000000
    5     1.000000   179.999999     0.000000     1.000000     0.000000     0.523773     0.000000     0.000000
    6    -1.000000   179.999999     0.000000     1.000000     0.000000     0.158726     0.682549     0.000000
    7     1.000000   180.000000     1.000000     0.000000     0.000000     0.158726     0.682549     0.000000
    8    -1.000000   180.000000     1.000000     0.000000     0.000000     0.523773     0.000000     0.000000
 
 Subroutine IBZKPT returns following result:
 ===========================================
 
 Found     43 irreducible k-points:
 
 Following reciprocal coordinates:
            Coordinates               Weight
  0.000000  0.000000  0.000000      1.000000
  0.083333  0.000000  0.000000      4.000000
  0.166667 -0.000000  0.000000      4.000000
  0.250000 -0.000000  0.000000      4.000000
  0.333333  0.000000  0.000000      4.000000
  0.416667  0.000000  0.000000      4.000000
  0.500000 -0.000000  0.000000      2.000000
  0.000000  0.083333  0.000000      2.000000
  0.166667  0.083333  0.000000      2.000000
  0.250000  0.083333  0.000000      4.000000
  0.333333  0.083333  0.000000      4.000000
  0.416667  0.083333  0.000000      4.000000
  0.500000  0.083333  0.000000      4.000000
 -0.416667  0.083333  0.000000      4.000000
 -0.333333  0.083333  0.000000      4.000000
 -0.250000  0.083333  0.000000      4.000000
 -0.166667  0.083333  0.000000      4.000000
 -0.083333  0.083333  0.000000      4.000000
  0.000000  0.166667  0.000000      2.000000
  0.333333  0.166667  0.000000      2.000000
  0.416667  0.166667  0.000000      4.000000
  0.500000  0.166667  0.000000      4.000000
 -0.416667  0.166667  0.000000      4.000000
 -0.333333  0.166667  0.000000      4.000000
 -0.250000  0.166667  0.000000      4.000000
 -0.166667  0.166667  0.000000      4.000000
 -0.083333  0.166667  0.000000      4.000000
  0.000000  0.250000  0.000000      2.000000
  0.500000  0.250000  0.000000      2.000000
 -0.416667  0.250000  0.000000      4.000000
 -0.333333  0.250000  0.000000      4.000000
 -0.250000  0.250000  0.000000      4.000000
 -0.166667  0.250000  0.000000      4.000000
 -0.083333  0.250000  0.000000      4.000000
  0.000000  0.333333  0.000000      2.000000
 -0.333333  0.333333  0.000000      2.000000
 -0.250000  0.333333  0.000000      4.000000
 -0.166667  0.333333  0.000000      4.000000
 -0.083333  0.333333  0.000000      4.000000
  0.000000  0.416667  0.000000      2.000000
 -0.166667  0.416667  0.000000      2.000000
 -0.083333  0.416667  0.000000      4.000000
  0.000000  0.500000  0.000000      1.000000
 
 Following cartesian coordinates:
            Coordinates               Weight
  0.000000  0.000000  0.000000      1.000000
  0.016106 -0.009299  0.000000      4.000000
  0.032212 -0.018597  0.000000      4.000000
  0.048319 -0.027896  0.000000      4.000000
  0.064425 -0.037194  0.000000      4.000000
  0.080531 -0.046493  0.000000      4.000000
  0.096637 -0.055791  0.000000      2.000000
  0.000000  0.018597  0.000000      2.000000
  0.032212 -0.000000  0.000000      2.000000
  0.048319 -0.009299  0.000000      4.000000
  0.064425 -0.018597  0.000000      4.000000
  0.080531 -0.027896  0.000000      4.000000
  0.096637 -0.037194  0.000000      4.000000
 -0.080531  0.065090  0.000000      4.000000
 -0.064425  0.055791  0.000000      4.000000
 -0.048319  0.046493  0.000000      4.000000
 -0.032212  0.037194  0.000000      4.000000
 -0.016106  0.027896  0.000000      4.000000
  0.000000  0.037194  0.000000      2.000000
  0.064425  0.000000  0.000000      2.000000
  0.080531 -0.009299  0.000000      4.000000
  0.096637 -0.018597  0.000000      4.000000
 -0.080531  0.083687  0.000000      4.000000
 -0.064425  0.074388  0.000000      4.000000
 -0.048319  0.065090  0.000000      4.000000
 -0.032212  0.055791  0.000000      4.000000
 -0.016106  0.046493  0.000000      4.000000
  0.000000  0.055791  0.000000      2.000000
  0.096637  0.000000  0.000000      2.000000
 -0.080531  0.102284  0.000000      4.000000
 -0.064425  0.092985  0.000000      4.000000
 -0.048319  0.083687  0.000000      4.000000
 -0.032212  0.074388  0.000000      4.000000
 -0.016106  0.065090  0.000000      4.000000
  0.000000  0.074388  0.000000      2.000000
 -0.064425  0.111582  0.000000      2.000000
 -0.048319  0.102284  0.000000      4.000000
 -0.032212  0.092985  0.000000      4.000000
 -0.016106  0.083687  0.000000      4.000000
  0.000000  0.092985  0.000000      2.000000
 -0.032212  0.111582  0.000000      2.000000
 -0.016106  0.102284  0.000000      4.000000
  0.000000  0.111582  0.000000      1.000000
 


--------------------------------------------------------------------------------------------------------




 Dimension of arrays:
   k-points           NKPTS =     43   k-points in BZ     NKDIM =     43   number of bands    NBANDS=     24
   number of dos      NEDOS =    301   number of ions     NIONS =      8
   non local maximal  LDIM  =      4   non local SUM 2l+1 LMDIM =      8
   total plane-waves  NPLWV =  84672
   max r-space proj   IRMAX =      1   max aug-charges    IRDMAX=   3047
   dimension x,y,z NGX =    28 NGY =   28 NGZ =  108
   dimension x,y,z NGXF=    56 NGYF=   56 NGZF=  216
   support grid    NGXF=    56 NGYF=   56 NGZF=  216
   ions per type =               2   6
   NGX,Y,Z   is equivalent  to a cutoff of   9.00,  9.00,  8.98 a.u.
   NGXF,Y,Z  is equivalent  to a cutoff of  17.99, 17.99, 17.95 a.u.

 SYSTEM =  BC3                                     
 POSCAR =  BC3 with lattice parameter 5.174Ang, len

 Startparameter for this run:
   NWRITE =      2    write-flag & timer
   PREC   = normal    normal or accurate (medium, high low for compatibility)
   ISTART =      0    job   : 0-new  1-cont  2-samecut
   ICHARG =      2    charge: 1-file 2-atom 10-const
   ISPIN  =      1    spin polarized calculation?
   LNONCOLLINEAR =      F non collinear calculations
   LSORBIT =      F    spin-orbit coupling
   INIWAV =      1    electr: 0-lowe 1-rand  2-diag
   LASPH  =      F    aspherical Exc in radial PAW
   METAGGA=      F    non-selfconsistent MetaGGA calc.

 Electronic Relaxation 1
   ENCUT  =  450.0 eV  33.07 Ry    5.75 a.u.   8.95  8.95 34.59*2*pi/ulx,y,z
   ENINI  =  450.0     initial cutoff
   ENAUG  =  644.9 eV  augmentation charge cutoff
   NELM   =     60;   NELMIN=  2; NELMDL= -5     # of ELM steps 
   EDIFF  = 0.1E-05   stopping-criterion for ELM
   LREAL  =      F    real-space projection
   NLSPLINE    = F    spline interpolate recip. space projectors
   LCOMPAT=      F    compatible to vasp.4.4
   GGA_COMPAT  = T    GGA compatible to vasp.4.4-vasp.4.6
   LMAXPAW     = -100 max onsite density
   LMAXMIX     =    2 max onsite mixed and CHGCAR
   VOSKOWN=      0    Vosko Wilk Nusair interpolation
   ROPT   =    0.00000   0.00000
 Ionic relaxation
   EDIFFG = -.1E-01   stopping-criterion for IOM
   NSW    =    128    number of steps for IOM
   NBLOCK =      1;   KBLOCK =    128    inner block; outer block 
   IBRION =      2    ionic relax: 0-MD 1-quasi-New 2-CG
   NFREE  =      1    steps in history (QN), initial steepest desc. (CG)
   ISIF   =      3    stress and relaxation
   IWAVPR =     11    prediction:  0-non 1-charg 2-wave 3-comb
   ISYM   =      2    0-nonsym 1-usesym 2-fastsym
   LCORR  =      T    Harris-Foulkes like correction to forces

   POTIM  = 0.5000    time-step for ionic-motion
   TEIN   =    0.0    initial temperature
   TEBEG  =    0.0;   TEEND  =   0.0 temperature during run
   SMASS  =  -3.00    Nose mass-parameter (am)
   estimated Nose-frequenzy (Omega)   =  0.10E-29 period in steps =****** mass=  -0.612E-27a.u.
   SCALEE = 1.0000    scale energy and forces
   NPACO  =    256;   APACO  = 16.0  distance and # of slots for P.C.
   PSTRESS=    0.0 pullay stress

  Mass of Ions in am
   POMASS =  10.81 12.01
  Ionic Valenz
   ZVAL   =   3.00  4.00
  Atomic Wigner-Seitz radii
   RWIGS  =  -1.00 -1.00
  virtual crystal weights 
   VCA    =   1.00  1.00
   NELECT =      30.0000    total number of electrons
   NUPDOWN=      -1.0000    fix difference up-down

 DOS related values:
   EMIN   =  10.00;   EMAX   =-10.00  energy-range for DOS
   EFERMI =   0.00
   ISMEAR =     0;   SIGMA  =   0.10  broadening in eV -4-tet -1-fermi 0-gaus

 Electronic relaxation 2 (details)
   IALGO  =     38    algorithm
   LDIAG  =      T    sub-space diagonalisation (order eigenvalues)
   LSUBROT=      F    optimize rotation matrix (better conditioning)
   TURBO    =      0    0=normal 1=particle mesh
   IRESTART =      0    0=no restart 2=restart with 2 vectors
   NREBOOT  =      0    no. of reboots
   NMIN     =      0    reboot dimension
   EREF     =   0.00    reference energy to select bands
   IMIX   =      4    mixing-type and parameters
     AMIX     =   0.40;   BMIX     =  1.00
     AMIX_MAG =   1.60;   BMIX_MAG =  1.00
     AMIN     =   0.10
     WC   =   100.;   INIMIX=   1;  MIXPRE=   1;  MAXMIX= -45

 Intra band minimization:
   WEIMIN = 0.0010     energy-eigenvalue tresh-hold
   EBREAK =  0.10E-07  absolut break condition
   DEPER  =   0.30     relativ break condition  

   TIME   =   0.40     timestep for ELM

  volume/ion in A,a.u.               =      57.96       391.15
  Fermi-wavevector in a.u.,A,eV,Ry     =   0.657211  1.241949  5.876713  0.431926
  Thomas-Fermi vector in A             =   1.728647
 
 Write flags
   LWAVE        =      T    write WAVECAR
   LDOWNSAMPLE  =      F    k-point downsampling of WAVECAR
   LCHARG       =      T    write CHGCAR
   LVTOT        =      F    write LOCPOT, total local potential
   LVHAR        =      F    write LOCPOT, Hartree potential only
   LELF         =      F    write electronic localiz. function (ELF)
   LORBIT       =      0    0 simple, 1 ext, 2 COOP (PROOUT), +10 PAW based schemes


 Dipole corrections
   LMONO  =      F    monopole corrections only (constant potential shift)
   LDIPOL =      F    correct potential (dipole corrections)
   IDIPOL =      0    1-x, 2-y, 3-z, 4-all directions 
   EPSILON=  1.0000000 bulk dielectric constant

 Exchange correlation treatment:
   GGA     =    --    GGA type
   LEXCH   =     8    internal setting for exchange type
   VOSKOWN=      0    Vosko Wilk Nusair interpolation
   LHFCALC =     F    Hartree Fock is set to
   LHFONE  =     F    Hartree Fock one center treatment
   AEXX    =    0.0000 exact exchange contribution

 Linear response parameters
   LEPSILON=     F    determine dielectric tensor
   LRPA    =     F    only Hartree local field effects (RPA)
   LNABLA  =     F    use nabla operator in PAW spheres
   LVEL    =     F    velocity operator in full k-point grid
   LINTERFAST=   F  fast interpolation
   KINTER  =     0    interpolate to denser k-point grid
   CSHIFT  =0.1000    complex shift for real part using Kramers Kronig
   OMEGAMAX=  -1.0    maximum frequency
   DEG_THRESHOLD= 0.2000000E-02 threshold for treating states as degnerate
   RTIME   =   -0.100 relaxation time in fs
  (WPLASMAI=    0.000 imaginary part of plasma frequency in eV, 0.658/RTIME)
   DFIELD  = 0.0000000 0.0000000 0.0000000 field for delta impulse in time
 
 Orbital magnetization related:
   ORBITALMAG=     F  switch on orbital magnetization
   LCHIMAG   =     F  perturbation theory with respect to B field
   DQ        =  0.001000  dq finite difference perturbation B field
   LLRAUG    =     F  two centre corrections for induced B field



--------------------------------------------------------------------------------------------------------


 conjugate gradient relaxation of ions
 charge density and potential will be updated during run
 non-spin polarized calculation
 Variant of blocked Davidson
 Davidson routine will perform the subspace rotation
 perform sub-space diagonalisation
    after iterative eigenvector-optimisation
 modified Broyden-mixing scheme, WC =      100.0
 initial mixing is a Kerker type mixing with AMIX =  0.4000 and BMIX =      1.0000
 Hartree-type preconditioning will be used
 using additional bands            9
 reciprocal scheme for non local part
 use partial core corrections
 calculate Harris-corrections to forces 
   (improved forces if not selfconsistent)
 use gradient corrections 
 use of overlap-Matrix (Vanderbilt PP)
 Gauss-broadening in eV      SIGMA  =   0.10


--------------------------------------------------------------------------------------------------------


  energy-cutoff  :      450.00
  volume of cell :      463.69
      direct lattice vectors                 reciprocal lattice vectors
     5.174000000  0.000000000  0.000000000     0.193274063 -0.111582236  0.000000000
     2.587000000  4.481000000  0.000000000     0.000000000  0.223164472  0.000000000
     0.000000000  0.000000000 20.000000000     0.000000000  0.000000000  0.050000000

  length of vectors
     5.174000000  5.174159835 20.000000000     0.223171366  0.223164472  0.050000000


 
 k-points in units of 2pi/SCALE and weight: K-points for BC3                        
   0.00000000  0.00000000  0.00000000       0.007
   0.01610617 -0.00929852  0.00000000       0.028
   0.03221234 -0.01859704  0.00000000       0.028
   0.04831852 -0.02789556  0.00000000       0.028
   0.06442469 -0.03719408  0.00000000       0.028
   0.08053086 -0.04649260  0.00000000       0.028
   0.09663703 -0.05579112  0.00000000       0.014
   0.00000000  0.01859704  0.00000000       0.014
   0.03221234 -0.00000000  0.00000000       0.014
   0.04831852 -0.00929852  0.00000000       0.028
   0.06442469 -0.01859704  0.00000000       0.028
   0.08053086 -0.02789556  0.00000000       0.028
   0.09663703 -0.03719408  0.00000000       0.028
  -0.08053086  0.06508964  0.00000000       0.028
  -0.06442469  0.05579112  0.00000000       0.028
  -0.04831852  0.04649260  0.00000000       0.028
  -0.03221234  0.03719408  0.00000000       0.028
  -0.01610617  0.02789556  0.00000000       0.028
   0.00000000  0.03719408  0.00000000       0.014
   0.06442469  0.00000000  0.00000000       0.014
   0.08053086 -0.00929852  0.00000000       0.028
   0.09663703 -0.01859704  0.00000000       0.028
  -0.08053086  0.08368668  0.00000000       0.028
  -0.06442469  0.07438816  0.00000000       0.028
  -0.04831852  0.06508964  0.00000000       0.028
  -0.03221234  0.05579112  0.00000000       0.028
  -0.01610617  0.04649260  0.00000000       0.028
   0.00000000  0.05579112  0.00000000       0.014
   0.09663703  0.00000000  0.00000000       0.014
  -0.08053086  0.10228372  0.00000000       0.028
  -0.06442469  0.09298520  0.00000000       0.028
  -0.04831852  0.08368668  0.00000000       0.028
  -0.03221234  0.07438816  0.00000000       0.028
  -0.01610617  0.06508964  0.00000000       0.028
   0.00000000  0.07438816  0.00000000       0.014
  -0.06442469  0.11158224  0.00000000       0.014
  -0.04831852  0.10228372  0.00000000       0.028
  -0.03221234  0.09298520  0.00000000       0.028
  -0.01610617  0.08368668  0.00000000       0.028
   0.00000000  0.09298520  0.00000000       0.014
  -0.03221234  0.11158224  0.00000000       0.014
  -0.01610617  0.10228372  0.00000000       0.028
   0.00000000  0.11158224  0.00000000       0.007
 
 k-points in reciprocal lattice and weights: K-points for BC3                        
   0.00000000  0.00000000  0.00000000       0.007
   0.08333333  0.00000000  0.00000000       0.028
   0.16666667 -0.00000000  0.00000000       0.028
   0.25000000 -0.00000000  0.00000000       0.028
   0.33333333  0.00000000  0.00000000       0.028
   0.41666667  0.00000000  0.00000000       0.028
   0.50000000 -0.00000000  0.00000000       0.014
   0.00000000  0.08333333  0.00000000       0.014
   0.16666667  0.08333333  0.00000000       0.014
   0.25000000  0.08333333  0.00000000       0.028
   0.33333333  0.08333333  0.00000000       0.028
   0.41666667  0.08333333  0.00000000       0.028
   0.50000000  0.08333333  0.00000000       0.028
  -0.41666667  0.08333333  0.00000000       0.028
  -0.33333333  0.08333333  0.00000000       0.028
  -0.25000000  0.08333333  0.00000000       0.028
  -0.16666667  0.08333333  0.00000000       0.028
  -0.08333333  0.08333333  0.00000000       0.028
   0.00000000  0.16666667  0.00000000       0.014
   0.33333333  0.16666667  0.00000000       0.014
   0.41666667  0.16666667  0.00000000       0.028
   0.50000000  0.16666667  0.00000000       0.028
  -0.41666667  0.16666667  0.00000000       0.028
  -0.33333333  0.16666667  0.00000000       0.028
  -0.25000000  0.16666667  0.00000000       0.028
  -0.16666667  0.16666667  0.00000000       0.028
  -0.08333333  0.16666667  0.00000000       0.028
   0.00000000  0.25000000  0.00000000       0.014
   0.50000000  0.25000000  0.00000000       0.014
  -0.41666667  0.25000000  0.00000000       0.028
  -0.33333333  0.25000000  0.00000000       0.028
  -0.25000000  0.25000000  0.00000000       0.028
  -0.16666667  0.25000000  0.00000000       0.028
  -0.08333333  0.25000000  0.00000000       0.028
   0.00000000  0.33333333  0.00000000       0.014
  -0.33333333  0.33333333  0.00000000       0.014
  -0.25000000  0.33333333  0.00000000       0.028
  -0.16666667  0.33333333  0.00000000       0.028
  -0.08333333  0.33333333  0.00000000       0.028
   0.00000000  0.41666667  0.00000000       0.014
  -0.16666667  0.41666667  0.00000000       0.014
  -0.08333333  0.41666667  0.00000000       0.028
   0.00000000  0.50000000  0.00000000       0.007
 
 position of ions in fractional coordinates (direct lattice) 
   0.17457326  0.17462620  0.00000000
   0.50792519  0.50792234  0.00000000
   0.00000000  0.00000000  0.00000000
   0.52377271  0.00000000  0.00000000
   0.68255138  0.15866994  0.00000000
   0.99994706  0.52387860  0.00000000
   0.15872573  0.68254854  0.00000000
   0.68249844  0.68254854  0.00000000
 
 position of ions in cartesian coordinates  (Angst):
   1.35500000  0.78250000  0.00000000
   3.94200000  2.27600000  0.00000000
   0.00000000  0.00000000  0.00000000
   2.71000000  0.00000000  0.00000000
   3.94200000  0.71100000  0.00000000
   6.52900000  2.34750000  0.00000000
   2.58700000  3.05850000  0.00000000
   5.29700000  3.05850000  0.00000000
 


--------------------------------------------------------------------------------------------------------


 k-point  1 :   0.0000 0.0000 0.0000  plane waves:    9963
 k-point  2 :   0.0833 0.0000 0.0000  plane waves:   10003
 k-point  3 :   0.1667-0.0000 0.0000  plane waves:   10033
 k-point  4 :   0.2500-0.0000 0.0000  plane waves:   10038
 k-point  5 :   0.3333 0.0000 0.0000  plane waves:   10034
 k-point  6 :   0.4167 0.0000 0.0000  plane waves:   10064
 k-point  7 :   0.5000-0.0000 0.0000  plane waves:   10056
 k-point  8 :   0.0000 0.0833 0.0000  plane waves:   10005
 k-point  9 :   0.1667 0.0833 0.0000  plane waves:   10017
 k-point 10 :   0.2500 0.0833 0.0000  plane waves:   10029
 k-point 11 :   0.3333 0.0833 0.0000  plane waves:   10035
 k-point 12 :   0.4167 0.0833 0.0000  plane waves:   10045
 k-point 13 :   0.5000 0.0833 0.0000  plane waves:   10070
 k-point 14 :  -0.4167 0.0833 0.0000  plane waves:   10070
 k-point 15 :  -0.3333 0.0833 0.0000  plane waves:   10045
 k-point 16 :  -0.2500 0.0833 0.0000  plane waves:   10033
 k-point 17 :  -0.1667 0.0833 0.0000  plane waves:   10029
 k-point 18 :  -0.0833 0.0833 0.0000  plane waves:   10013
 k-point 19 :   0.0000 0.1667 0.0000  plane waves:   10033
 k-point 20 :   0.3333 0.1667 0.0000  plane waves:   10035
 k-point 21 :   0.4167 0.1667 0.0000  plane waves:   10077
 k-point 22 :   0.5000 0.1667 0.0000  plane waves:   10073
 k-point 23 :  -0.4167 0.1667 0.0000  plane waves:   10077
 k-point 24 :  -0.3333 0.1667 0.0000  plane waves:   10073
 k-point 25 :  -0.2500 0.1667 0.0000  plane waves:   10075
 k-point 26 :  -0.1667 0.1667 0.0000  plane waves:   10035
 k-point 27 :  -0.0833 0.1667 0.0000  plane waves:   10029
 k-point 28 :   0.0000 0.2500 0.0000  plane waves:   10040
 k-point 29 :   0.5000 0.2500 0.0000  plane waves:   10069
 k-point 30 :  -0.4167 0.2500 0.0000  plane waves:   10098
 k-point 31 :  -0.3333 0.2500 0.0000  plane waves:   10098
 k-point 32 :  -0.2500 0.2500 0.0000  plane waves:   10069
 k-point 33 :  -0.1667 0.2500 0.0000  plane waves:   10075
 k-point 34 :  -0.0833 0.2500 0.0000  plane waves:   10035
 k-point 35 :   0.0000 0.3333 0.0000  plane waves:   10034
 k-point 36 :  -0.3333 0.3333 0.0000  plane waves:   10065
 k-point 37 :  -0.2500 0.3333 0.0000  plane waves:   10098
 k-point 38 :  -0.1667 0.3333 0.0000  plane waves:   10073
 k-point 39 :  -0.0833 0.3333 0.0000  plane waves:   10045
 k-point 40 :   0.0000 0.4167 0.0000  plane waves:   10064
 k-point 41 :  -0.1667 0.4167 0.0000  plane waves:   10075
 k-point 42 :  -0.0833 0.4167 0.0000  plane waves:   10068
 k-point 43 :   0.0000 0.5000 0.0000  plane waves:   10056

 maximum and minimum number of plane-waves per node :     10098     9963

 maximum number of plane-waves:     10098
 maximum index in each direction: 
   IXMAX=    9   IYMAX=    8   IZMAX=   34
   IXMIN=   -9   IYMIN=   -9   IZMIN=  -34


 serial   3D FFT for wavefunctions
 parallel 3D FFT for charge:
    minimum data exchange during FFTs selected (reduces bandwidth)


 total amount of memory used by VASP MPI-rank0   110107. kBytes
=======================================================================

   base      :      30000. kBytes
   nonl-proj :      56905. kBytes
   fftplans  :       2368. kBytes
   grid      :       6808. kBytes
   one-center:         24. kBytes
   wavefun   :      14002. kBytes
 
     INWAV:  cpu time    0.0000: real time    0.0000
 Broyden mixing: mesh for mixing (old mesh)
   NGX = 17   NGY = 17   NGZ = 69
  (NGX  = 56   NGY  = 56   NGZ  =216)
  gives a total of  19941 points

 initial charge density was supplied:
 charge density of overlapping atoms calculated
 number of electron      30.0000000 magnetization 
 keeping initial charge density in first step


--------------------------------------------------------------------------------------------------------


 Maximum index for augmentation-charges          251 (set IRDMAX)


--------------------------------------------------------------------------------------------------------


 First call to EWALD:  gamma=   0.229
 Maximum number of real-space cells 4x 4x 1
 Maximum number of reciprocal cells 2x 2x 6

    FEWALD:  cpu time    0.0020: real time    0.0021


--------------------------------------- Iteration      1(   1)  ---------------------------------------


    POTLOK:  cpu time    0.0663: real time    0.0689
    SETDIJ:  cpu time    0.0020: real time    0.0020
     EDDAV:  cpu time    4.3030: real time    4.3096
       DOS:  cpu time    0.0008: real time    0.0008
    --------------------------------------------
      LOOP:  cpu time    4.3720: real time    4.3813

 eigenvalue-minimisations  :  2184
 total energy-change (2. order) : 0.2086006E+03  (-0.9776763E+03)
 number of electron      30.0000000 magnetization 
 augmentation part       30.0000000 magnetization 

 Free energy of the ion-electron system (eV)
  ---------------------------------------------------
  alpha Z        PSCENC =        10.93933817
  Ewald energy   TEWEN  =      4060.05404224
  -Hartree energ DENC   =     -4796.78910906
  -exchange      EXHF   =         0.00000000
  -V(xc)+E(xc)   XCENC  =        91.14028309
  PAW double counting   =       738.13200929     -739.83780425
  entropy T*S    EENTRO =        -0.02387451
  eigenvalues    EBANDS =      -180.21819701
  atomic energy  EATOM  =      1025.20389953
  Solvation  Ediel_sol  =         0.00000000
  ---------------------------------------------------
  free energy    TOTEN  =       208.60058749 eV

  energy without entropy =      208.62446200  energy(sigma->0) =      208.61252475


--------------------------------------------------------------------------------------------------------




--------------------------------------- Iteration      1(   2)  ---------------------------------------


     EDDAV:  cpu time    5.9992: real time    6.0142
       DOS:  cpu time    0.0007: real time    0.0007
    --------------------------------------------
      LOOP:  cpu time    5.9999: real time    6.0149

 eigenvalue-minimisations  :  3360
 total energy-change (2. order) :-0.2480046E+03  (-0.2336326E+03)
 number of electron      30.0000000 magnetization 
 augmentation part       30.0000000 magnetization 

 Free energy of the ion-electron system (eV)
  ---------------------------------------------------
  alpha Z        PSCENC =        10.93933817
  Ewald energy   TEWEN  =      4060.05404224
  -Hartree energ DENC   =     -4796.78910906
  -exchange      EXHF   =         0.00000000
  -V(xc)+E(xc)   XCENC  =        91.14028309
  PAW double counting   =       738.13200929     -739.83780425
  entropy T*S    EENTRO =        -0.00559766
  eigenvalues    EBANDS =      -428.24102608
  atomic energy  EATOM  =      1025.20389953
  Solvation  Ediel_sol  =         0.00000000
  ---------------------------------------------------
  free energy    TOTEN  =       -39.40396472 eV

  energy without entropy =      -39.39836706  energy(sigma->0) =      -39.40116589


--------------------------------------------------------------------------------------------------------




--------------------------------------- Iteration      1(   3)  ---------------------------------------


     EDDAV:  cpu time    4.9650: real time    4.9737
       DOS:  cpu time    0.0004: real time    0.0004
    --------------------------------------------
      LOOP:  cpu time    4.9654: real time    4.9741

 eigenvalue-minimisations  :  2652
 total energy-change (2. order) :-0.3319230E+02  (-0.3277622E+02)
 number of electron      30.0000000 magnetization 
 augmentation part       30.0000000 magnetization 

 Free energy of the ion-electron system (eV)
  ---------------------------------------------------
  alpha Z        PSCENC =        10.93933817
  Ewald energy   TEWEN  =      4060.05404224
  -Hartree energ DENC   =     -4796.78910906
  -exchange      EXHF   =         0.00000000
  -V(xc)+E(xc)   XCENC  =        91.14028309
  PAW double counting   =       738.13200929     -739.83780425
  entropy T*S    EENTRO =        -0.00000000
  eigenvalues    EBANDS =      -461.43892086
  atomic energy  EATOM  =      1025.20389953
  Solvation  Ediel_sol  =         0.00000000
  ---------------------------------------------------
  free energy    TOTEN  =       -72.59626185 eV

  energy without entropy =      -72.59626185  energy(sigma->0) =      -72.59626185


--------------------------------------------------------------------------------------------------------




--------------------------------------- Iteration      1(   4)  ---------------------------------------


     EDDAV:  cpu time    5.4070: real time    5.4189
       DOS:  cpu time    0.0004: real time    0.0004
    --------------------------------------------
      LOOP:  cpu time    5.4074: real time    5.4192

 eigenvalue-minimisations  :  2952
 total energy-change (2. order) :-0.8192829E+00  (-0.8172579E+00)
 number of electron      30.0000000 magnetization 
 augmentation part       30.0000000 magnetization 

 Free energy of the ion-electron system (eV)
  ---------------------------------------------------
  alpha Z        PSCENC =        10.93933817
  Ewald energy   TEWEN  =      4060.05404224
  -Hartree energ DENC   =     -4796.78910906
  -exchange      EXHF   =         0.00000000
  -V(xc)+E(xc)   XCENC  =        91.14028309
  PAW double counting   =       738.13200929     -739.83780425
  entropy T*S    EENTRO =        -0.00000000
  eigenvalues    EBANDS =      -462.25820372
  atomic energy  EATOM  =      1025.20389953
  Solvation  Ediel_sol  =         0.00000000
  ---------------------------------------------------
  free energy    TOTEN  =       -73.41554471 eV

  energy without entropy =      -73.41554471  energy(sigma->0) =      -73.41554471


--------------------------------------------------------------------------------------------------------




--------------------------------------- Iteration      1(   5)  ---------------------------------------


     EDDAV:  cpu time    4.9994: real time    5.0160
       DOS:  cpu time    0.0004: real time    0.0004
    CHARGE:  cpu time    0.2027: real time    0.2029
    MIXING:  cpu time    0.0016: real time    0.0016
    --------------------------------------------
      LOOP:  cpu time    5.2041: real time    5.2209

 eigenvalue-minimisations  :  2676
 total energy-change (2. order) :-0.2164935E-01  (-0.2162096E-01)
 number of electron      29.9999983 magnetization 
 augmentation part        0.5815857 magnetization 

 Broyden mixing:
  rms(total) = 0.13115E+01    rms(broyden)= 0.13110E+01
  rms(prec ) = 0.14187E+01
  weight for this iteration     100.00

 Free energy of the ion-electron system (eV)
  ---------------------------------------------------
  alpha Z        PSCENC =        10.93933817
  Ewald energy   TEWEN  =      4060.05404224
  -Hartree energ DENC   =     -4796.78910906
  -exchange      EXHF   =         0.00000000
  -V(xc)+E(xc)   XCENC  =        91.14028309
  PAW double counting   =       738.13200929     -739.83780425
  entropy T*S    EENTRO =        -0.00000000
  eigenvalues    EBANDS =      -462.27985307
  atomic energy  EATOM  =      1025.20389953
  Solvation  Ediel_sol  =         0.00000000
  ---------------------------------------------------
  free energy    TOTEN  =       -73.43719405 eV

  energy without entropy =      -73.43719405  energy(sigma->0) =      -73.43719405


--------------------------------------------------------------------------------------------------------




--------------------------------------- Iteration      1(   6)  ---------------------------------------


    POTLOK:  cpu time    0.0599: real time    0.0610
    SETDIJ:  cpu time    0.0020: real time    0.0020
     EDDAV:  cpu time    5.5009: real time    5.5095
       DOS:  cpu time    0.0004: real time    0.0004
    CHARGE:  cpu time    0.2025: real time    0.2033
    MIXING:  cpu time    0.0016: real time    0.0016
    --------------------------------------------
      LOOP:  cpu time    5.7673: real time    5.7777

 eigenvalue-minimisations  :  2988
 total energy-change (2. order) : 0.4459105E+01  (-0.5281890E+00)
 number of electron      29.9999984 magnetization 
 augmentation part        0.5387997 magnetization 

 Broyden mixing:
  rms(total) = 0.73974E+00    rms(broyden)= 0.73969E+00
  rms(prec ) = 0.79300E+00
  weight for this iteration     100.00

 eigenvalues of (default mixing * dielectric matrix)
  average eigenvalue GAMMA=   1.9790
  1.9790

 Free energy of the ion-electron system (eV)
  ---------------------------------------------------
  alpha Z        PSCENC =        10.93933817
  Ewald energy   TEWEN  =      4060.05404224
  -Hartree energ DENC   =     -4843.57842473
  -exchange      EXHF   =         0.00000000
  -V(xc)+E(xc)   XCENC  =        93.15433763
  PAW double counting   =      1378.49027509    -1380.75475312
  entropy T*S    EENTRO =        -0.00000000
  eigenvalues    EBANDS =      -412.48680379
  atomic energy  EATOM  =      1025.20389953
  Solvation  Ediel_sol  =         0.00000000
  ---------------------------------------------------
  free energy    TOTEN  =       -68.97808899 eV

  energy without entropy =      -68.97808899  energy(sigma->0) =      -68.97808899


--------------------------------------------------------------------------------------------------------




--------------------------------------- Iteration      1(   7)  ---------------------------------------


    POTLOK:  cpu time    0.0591: real time    0.0592
    SETDIJ:  cpu time    0.0019: real time    0.0020
     EDDAV:  cpu time    5.5693: real time    5.5767
       DOS:  cpu time    0.0005: real time    0.0005
    CHARGE:  cpu time    0.2035: real time    0.2035
    MIXING:  cpu time    0.0016: real time    0.0016
    --------------------------------------------
      LOOP:  cpu time    5.8360: real time    5.8435

 eigenvalue-minimisations  :  3036
 total energy-change (2. order) : 0.1645410E+01  (-0.3969640E+00)
 number of electron      29.9999985 magnetization 
 augmentation part        0.5030857 magnetization 

 Broyden mixing:
  rms(total) = 0.21532E+00    rms(broyden)= 0.21522E+00
  rms(prec ) = 0.22846E+00
  weight for this iteration     100.00

 eigenvalues of (default mixing * dielectric matrix)
  average eigenvalue GAMMA=   1.9255
  1.4634  2.3876

 Free energy of the ion-electron system (eV)
  ---------------------------------------------------
  alpha Z        PSCENC =        10.93933817
  Ewald energy   TEWEN  =      4060.05404224
  -Hartree energ DENC   =     -4896.45351067
  -exchange      EXHF   =         0.00000000
  -V(xc)+E(xc)   XCENC  =        95.38692965
  PAW double counting   =      2463.87032379    -2466.55098363
  entropy T*S    EENTRO =        -0.00000000
  eigenvalues    EBANDS =      -359.78271765
  atomic energy  EATOM  =      1025.20389953
  Solvation  Ediel_sol  =         0.00000000
  ---------------------------------------------------
  free energy    TOTEN  =       -67.33267855 eV

  energy without entropy =      -67.33267855  energy(sigma->0) =      -67.33267855


--------------------------------------------------------------------------------------------------------




--------------------------------------- Iteration      1(   8)  ---------------------------------------


    POTLOK:  cpu time    0.0593: real time    0.0601
    SETDIJ:  cpu time    0.0020: real time    0.0020
     EDDAV:  cpu time    5.7637: real time    5.7749
       DOS:  cpu time    0.0005: real time    0.0005
    CHARGE:  cpu time    0.2053: real time    0.2053
    MIXING:  cpu time    0.0018: real time    0.0018
    --------------------------------------------
      LOOP:  cpu time    6.0326: real time    6.0446

 eigenvalue-minimisations  :  3180
 total energy-change (2. order) : 0.7938490E-01  (-0.2165800E-01)
 number of electron      29.9999985 magnetization 
 augmentation part        0.4969337 magnetization 

 Broyden mixing:
  rms(total) = 0.58061E-01    rms(broyden)= 0.58045E-01
  rms(prec ) = 0.73067E-01
  weight for this iteration     100.00

 eigenvalues of (default mixing * dielectric matrix)
  average eigenvalue GAMMA=   1.8317
  1.1520  2.1715  2.1715

 Free energy of the ion-electron system (eV)
  ---------------------------------------------------
  alpha Z        PSCENC =        10.93933817
  Ewald energy   TEWEN  =      4060.05404224
  -Hartree energ DENC   =     -4911.02231112
  -exchange      EXHF   =         0.00000000
  -V(xc)+E(xc)   XCENC  =        95.78210262
  PAW double counting   =      2857.43426467    -2860.04865518
  entropy T*S    EENTRO =        -0.00000001
  eigenvalues    EBANDS =      -345.59597456
  atomic energy  EATOM  =      1025.20389953
  Solvation  Ediel_sol  =         0.00000000
  ---------------------------------------------------
  free energy    TOTEN  =       -67.25329365 eV

  energy without entropy =      -67.25329364  energy(sigma->0) =      -67.25329364


--------------------------------------------------------------------------------------------------------




--------------------------------------- Iteration      1(   9)  ---------------------------------------


    POTLOK:  cpu time    0.0600: real time    0.0607
    SETDIJ:  cpu time    0.0020: real time    0.0019
     EDDAV:  cpu time    4.8364: real time    4.8442
       DOS:  cpu time    0.0005: real time    0.0005
    CHARGE:  cpu time    0.2052: real time    0.2059
    MIXING:  cpu time    0.0018: real time    0.0018
    --------------------------------------------
      LOOP:  cpu time    5.1058: real time    5.1150

 eigenvalue-minimisations  :  2532
 total energy-change (2. order) : 0.1768787E-01  (-0.1684767E-02)
 number of electron      29.9999985 magnetization 
 augmentation part        0.4975321 magnetization 

 Broyden mixing:
  rms(total) = 0.17485E-01    rms(broyden)= 0.17481E-01
  rms(prec ) = 0.35836E-01
  weight for this iteration     100.00

 eigenvalues of (default mixing * dielectric matrix)
  average eigenvalue GAMMA=   1.8501
  1.1078  2.3937  2.3937  1.5055

 Free energy of the ion-electron system (eV)
  ---------------------------------------------------
  alpha Z        PSCENC =        10.93933817
  Ewald energy   TEWEN  =      4060.05404224
  -Hartree energ DENC   =     -4917.14292369
  -exchange      EXHF   =         0.00000000
  -V(xc)+E(xc)   XCENC  =        95.82772585
  PAW double counting   =      2907.04953542    -2909.59239434
  entropy T*S    EENTRO =        -0.00000001
  eigenvalues    EBANDS =      -339.57482896
  atomic energy  EATOM  =      1025.20389953
  Solvation  Ediel_sol  =         0.00000000
  ---------------------------------------------------
  free energy    TOTEN  =       -67.23560578 eV

  energy without entropy =      -67.23560577  energy(sigma->0) =      -67.23560578


--------------------------------------------------------------------------------------------------------




--------------------------------------- Iteration      1(  10)  ---------------------------------------


    POTLOK:  cpu time    0.0598: real time    0.0602
    SETDIJ:  cpu time    0.0019: real time    0.0019
     EDDAV:  cpu time    5.0123: real time    5.0167
       DOS:  cpu time    0.0005: real time    0.0005
    CHARGE:  cpu time    0.2047: real time    0.2047
    MIXING:  cpu time    0.0019: real time    0.0019
    --------------------------------------------
      LOOP:  cpu time    5.2812: real time    5.2859

 eigenvalue-minimisations  :  2664
 total energy-change (2. order) : 0.1158082E-01  (-0.1049658E-02)
 number of electron      29.9999985 magnetization 
 augmentation part        0.4963426 magnetization 

 Broyden mixing:
  rms(total) = 0.12662E-01    rms(broyden)= 0.12658E-01
  rms(prec ) = 0.22451E-01
  weight for this iteration     100.00

 eigenvalues of (default mixing * dielectric matrix)
  average eigenvalue GAMMA=   1.9467
  0.9749  1.2923  2.7628  2.7628  1.9409

 Free energy of the ion-electron system (eV)
  ---------------------------------------------------
  alpha Z        PSCENC =        10.93933817
  Ewald energy   TEWEN  =      4060.05404224
  -Hartree energ DENC   =     -4926.01384047
  -exchange      EXHF   =         0.00000000
  -V(xc)+E(xc)   XCENC  =        95.95045381
  PAW double counting   =      2918.31841589    -2920.84345503
  entropy T*S    EENTRO =        -0.00000004
  eigenvalues    EBANDS =      -330.83287906
  atomic energy  EATOM  =      1025.20389953
  Solvation  Ediel_sol  =         0.00000000
  ---------------------------------------------------
  free energy    TOTEN  =       -67.22402497 eV

  energy without entropy =      -67.22402493  energy(sigma->0) =      -67.22402495


--------------------------------------------------------------------------------------------------------




--------------------------------------- Iteration      1(  11)  ---------------------------------------


    POTLOK:  cpu time    0.0603: real time    0.0604
    SETDIJ:  cpu time    0.0019: real time    0.0019
     EDDAV:  cpu time    4.6694: real time    4.6740
       DOS:  cpu time    0.0005: real time    0.0005
    CHARGE:  cpu time    0.2020: real time    0.2021
    MIXING:  cpu time    0.0020: real time    0.0020
    --------------------------------------------
      LOOP:  cpu time    4.9363: real time    4.9411

 eigenvalue-minimisations  :  2436
 total energy-change (2. order) : 0.8602965E-03  (-0.4722523E-03)
 number of electron      29.9999985 magnetization 
 augmentation part        0.4957905 magnetization 

 Broyden mixing:
  rms(total) = 0.57462E-02    rms(broyden)= 0.57421E-02
  rms(prec ) = 0.11210E-01
  weight for this iteration     100.00

 eigenvalues of (default mixing * dielectric matrix)
  average eigenvalue GAMMA=   2.1527
  4.5503  2.4889  2.0730  0.9444  1.2242  1.6353

 Free energy of the ion-electron system (eV)
  ---------------------------------------------------
  alpha Z        PSCENC =        10.93933817
  Ewald energy   TEWEN  =      4060.05404224
  -Hartree energ DENC   =     -4932.50368833
  -exchange      EXHF   =         0.00000000
  -V(xc)+E(xc)   XCENC  =        96.00785174
  PAW double counting   =      2892.93010614    -2895.45911390
  entropy T*S    EENTRO =        -0.00000006
  eigenvalues    EBANDS =      -324.39560020
  atomic energy  EATOM  =      1025.20389953
  Solvation  Ediel_sol  =         0.00000000
  ---------------------------------------------------
  free energy    TOTEN  =       -67.22316467 eV

  energy without entropy =      -67.22316461  energy(sigma->0) =      -67.22316464


--------------------------------------------------------------------------------------------------------




--------------------------------------- Iteration      1(  12)  ---------------------------------------


    POTLOK:  cpu time    0.0604: real time    0.0622
    SETDIJ:  cpu time    0.0019: real time    0.0019
     EDDAV:  cpu time    4.3543: real time    4.3580
       DOS:  cpu time    0.0006: real time    0.0006
    CHARGE:  cpu time    0.2038: real time    0.2038
    MIXING:  cpu time    0.0021: real time    0.0021
    --------------------------------------------
      LOOP:  cpu time    4.6232: real time    4.6285

 eigenvalue-minimisations  :  2220
 total energy-change (2. order) : 0.1123281E-03  (-0.1489006E-03)
 number of electron      29.9999985 magnetization 
 augmentation part        0.4956253 magnetization 

 Broyden mixing:
  rms(total) = 0.35910E-02    rms(broyden)= 0.35887E-02
  rms(prec ) = 0.63359E-02
  weight for this iteration     100.00

 eigenvalues of (default mixing * dielectric matrix)
  average eigenvalue GAMMA=   2.3541
  5.9073  2.8320  2.3514  1.9406  0.9734  1.1562  1.3177

 Free energy of the ion-electron system (eV)
  ---------------------------------------------------
  alpha Z        PSCENC =        10.93933817
  Ewald energy   TEWEN  =      4060.05404224
  -Hartree energ DENC   =     -4936.28681538
  -exchange      EXHF   =         0.00000000
  -V(xc)+E(xc)   XCENC  =        96.03124395
  PAW double counting   =      2891.72282182    -2894.24992080
  entropy T*S    EENTRO =        -0.00000007
  eigenvalues    EBANDS =      -320.63766180
  atomic energy  EATOM  =      1025.20389953
  Solvation  Ediel_sol  =         0.00000000
  ---------------------------------------------------
  free energy    TOTEN  =       -67.22305234 eV

  energy without entropy =      -67.22305227  energy(sigma->0) =      -67.22305231


--------------------------------------------------------------------------------------------------------




--------------------------------------- Iteration      1(  13)  ---------------------------------------


    POTLOK:  cpu time    0.0591: real time    0.0606
    SETDIJ:  cpu time    0.0019: real time    0.0019
     EDDAV:  cpu time    4.2186: real time    4.2223
       DOS:  cpu time    0.0005: real time    0.0005
    CHARGE:  cpu time    0.1966: real time    0.1966
    MIXING:  cpu time    0.0024: real time    0.0024
    --------------------------------------------
      LOOP:  cpu time    4.4792: real time    4.4844

 eigenvalue-minimisations  :  2124
 total energy-change (2. order) :-0.4046620E-02  (-0.4881098E-04)
 number of electron      29.9999985 magnetization 
 augmentation part        0.4954887 magnetization 

 Broyden mixing:
  rms(total) = 0.21115E-02    rms(broyden)= 0.21106E-02
  rms(prec ) = 0.31207E-02
  weight for this iteration     100.00

 eigenvalues of (default mixing * dielectric matrix)
  average eigenvalue GAMMA=   2.4997
  6.6503  3.7313  2.5215  2.1393  1.6208  1.3228  1.0057  1.0057

 Free energy of the ion-electron system (eV)
  ---------------------------------------------------
  alpha Z        PSCENC =        10.93933817
  Ewald energy   TEWEN  =      4060.05404224
  -Hartree energ DENC   =     -4937.73307094
  -exchange      EXHF   =         0.00000000
  -V(xc)+E(xc)   XCENC  =        96.02448609
  PAW double counting   =      2891.19279347    -2893.72133582
  entropy T*S    EENTRO =        -0.00000007
  eigenvalues    EBANDS =      -319.18725164
  atomic energy  EATOM  =      1025.20389953
  Solvation  Ediel_sol  =         0.00000000
  ---------------------------------------------------
  free energy    TOTEN  =       -67.22709896 eV

  energy without entropy =      -67.22709889  energy(sigma->0) =      -67.22709893


--------------------------------------------------------------------------------------------------------




--------------------------------------- Iteration      1(  14)  ---------------------------------------


    POTLOK:  cpu time    0.0594: real time    0.0594
    SETDIJ:  cpu time    0.0019: real time    0.0019
     EDDAV:  cpu time    4.5274: real time    4.5420
       DOS:  cpu time    0.0005: real time    0.0005
    CHARGE:  cpu time    0.2065: real time    0.2066
    MIXING:  cpu time    0.0024: real time    0.0024
    --------------------------------------------
      LOOP:  cpu time    4.7982: real time    4.8129

 eigenvalue-minimisations  :  2340
 total energy-change (2. order) :-0.2653427E-02  (-0.3700204E-04)
 number of electron      29.9999985 magnetization 
 augmentation part        0.4955042 magnetization 

 Broyden mixing:
  rms(total) = 0.12737E-02    rms(broyden)= 0.12735E-02
  rms(prec ) = 0.15863E-02
  weight for this iteration     100.00

 eigenvalues of (default mixing * dielectric matrix)
  average eigenvalue GAMMA=   2.5706
  7.8064  3.7728  2.4845  2.4845  2.0132  0.9819  0.9819  1.3053  1.3053

 Free energy of the ion-electron system (eV)
  ---------------------------------------------------
  alpha Z        PSCENC =        10.93933817
  Ewald energy   TEWEN  =      4060.05404224
  -Hartree energ DENC   =     -4938.06108547
  -exchange      EXHF   =         0.00000000
  -V(xc)+E(xc)   XCENC  =        96.01673516
  PAW double counting   =      2896.18335782    -2898.70981564
  entropy T*S    EENTRO =        -0.00000007
  eigenvalues    EBANDS =      -318.85622413
  atomic energy  EATOM  =      1025.20389953
  Solvation  Ediel_sol  =         0.00000000
  ---------------------------------------------------
  free energy    TOTEN  =       -67.22975239 eV

  energy without entropy =      -67.22975232  energy(sigma->0) =      -67.22975235


--------------------------------------------------------------------------------------------------------




--------------------------------------- Iteration      1(  15)  ---------------------------------------


    POTLOK:  cpu time    0.0596: real time    0.0599
    SETDIJ:  cpu time    0.0019: real time    0.0019
     EDDAV:  cpu time    4.4275: real time    4.4309
       DOS:  cpu time    0.0006: real time    0.0006
    CHARGE:  cpu time    0.2025: real time    0.2025
    MIXING:  cpu time    0.0024: real time    0.0024
    --------------------------------------------
      LOOP:  cpu time    4.6945: real time    4.6982

 eigenvalue-minimisations  :  2268
 total energy-change (2. order) :-0.5401573E-03  (-0.3306618E-05)
 number of electron      29.9999985 magnetization 
 augmentation part        0.4954621 magnetization 

 Broyden mixing:
  rms(total) = 0.44500E-03    rms(broyden)= 0.44462E-03
  rms(prec ) = 0.70055E-03
  weight for this iteration     100.00

 eigenvalues of (default mixing * dielectric matrix)
  average eigenvalue GAMMA=   2.6355
  8.0518  4.6814  2.6338  2.6338  2.1405  1.8325  1.2512  1.1908  0.9694  0.9694

 Free energy of the ion-electron system (eV)
  ---------------------------------------------------
  alpha Z        PSCENC =        10.93933817
  Ewald energy   TEWEN  =      4060.05404224
  -Hartree energ DENC   =     -4938.41461045
  -exchange      EXHF   =         0.00000000
  -V(xc)+E(xc)   XCENC  =        96.02020069
  PAW double counting   =      2893.57709275    -2896.10417946
  entropy T*S    EENTRO =        -0.00000007
  eigenvalues    EBANDS =      -318.50607595
  atomic energy  EATOM  =      1025.20389953
  Solvation  Ediel_sol  =         0.00000000
  ---------------------------------------------------
  free energy    TOTEN  =       -67.23029255 eV

  energy without entropy =      -67.23029248  energy(sigma->0) =      -67.23029251


--------------------------------------------------------------------------------------------------------




--------------------------------------- Iteration      1(  16)  ---------------------------------------


    POTLOK:  cpu time    0.0600: real time    0.0608
    SETDIJ:  cpu time    0.0019: real time    0.0019
     EDDAV:  cpu time    4.1982: real time    4.2021
       DOS:  cpu time    0.0006: real time    0.0006
    CHARGE:  cpu time    0.2039: real time    0.2039
    MIXING:  cpu time    0.0025: real time    0.0025
    --------------------------------------------
      LOOP:  cpu time    4.4670: real time    4.4717

 eigenvalue-minimisations  :  2112
 total energy-change (2. order) :-0.3476157E-03  (-0.3262178E-05)
 number of electron      29.9999985 magnetization 
 augmentation part        0.4954607 magnetization 

 Broyden mixing:
  rms(total) = 0.18347E-03    rms(broyden)= 0.18277E-03
  rms(prec ) = 0.33204E-03
  weight for this iteration     100.00

 eigenvalues of (default mixing * dielectric matrix)
  average eigenvalue GAMMA=   2.5857
  8.3100  5.0223  2.9925  2.4399  2.2711  1.9914  1.2800  1.2800  0.9963  0.9805
  0.8781

 Free energy of the ion-electron system (eV)
  ---------------------------------------------------
  alpha Z        PSCENC =        10.93933817
  Ewald energy   TEWEN  =      4060.05404224
  -Hartree energ DENC   =     -4938.42064066
  -exchange      EXHF   =         0.00000000
  -V(xc)+E(xc)   XCENC  =        96.01882591
  PAW double counting   =      2893.37966066    -2895.90686612
  entropy T*S    EENTRO =        -0.00000007
  eigenvalues    EBANDS =      -318.49889983
  atomic energy  EATOM  =      1025.20389953
  Solvation  Ediel_sol  =         0.00000000
  ---------------------------------------------------
  free energy    TOTEN  =       -67.23064016 eV

  energy without entropy =      -67.23064009  energy(sigma->0) =      -67.23064013


--------------------------------------------------------------------------------------------------------




--------------------------------------- Iteration      1(  17)  ---------------------------------------


    POTLOK:  cpu time    0.0600: real time    0.0601
    SETDIJ:  cpu time    0.0019: real time    0.0019
     EDDAV:  cpu time    4.6880: real time    4.6953
       DOS:  cpu time    0.0006: real time    0.0006
    CHARGE:  cpu time    0.2034: real time    0.2034
    MIXING:  cpu time    0.0026: real time    0.0026
    --------------------------------------------
      LOOP:  cpu time    4.9565: real time    4.9639

 eigenvalue-minimisations  :  2448
 total energy-change (2. order) :-0.5491762E-04  (-0.2948137E-06)
 number of electron      29.9999985 magnetization 
 augmentation part        0.4954645 magnetization 

 Broyden mixing:
  rms(total) = 0.14846E-03    rms(broyden)= 0.14759E-03
  rms(prec ) = 0.25352E-03
  weight for this iteration     100.00

 eigenvalues of (default mixing * dielectric matrix)
  average eigenvalue GAMMA=   2.6570
  8.4011  5.3015  3.3219  3.0062  2.4022  2.0550  1.9709  1.2282  1.2282  0.9701
  0.9993  0.9993

 Free energy of the ion-electron system (eV)
  ---------------------------------------------------
  alpha Z        PSCENC =        10.93933817
  Ewald energy   TEWEN  =      4060.05404224
  -Hartree energ DENC   =     -4938.45315436
  -exchange      EXHF   =         0.00000000
  -V(xc)+E(xc)   XCENC  =        96.01876676
  PAW double counting   =      2893.61178674    -2896.13878592
  entropy T*S    EENTRO =        -0.00000007
  eigenvalues    EBANDS =      -318.46658817
  atomic energy  EATOM  =      1025.20389953
  Solvation  Ediel_sol  =         0.00000000
  ---------------------------------------------------
  free energy    TOTEN  =       -67.23069508 eV

  energy without entropy =      -67.23069501  energy(sigma->0) =      -67.23069504


--------------------------------------------------------------------------------------------------------




--------------------------------------- Iteration      1(  18)  ---------------------------------------


    POTLOK:  cpu time    0.0597: real time    0.0609
    SETDIJ:  cpu time    0.0019: real time    0.0019
     EDDAV:  cpu time    4.3783: real time    4.3821
       DOS:  cpu time    0.0005: real time    0.0005
    CHARGE:  cpu time    0.2000: real time    0.2006
    MIXING:  cpu time    0.0027: real time    0.0027
    --------------------------------------------
      LOOP:  cpu time    4.6432: real time    4.6488

 eigenvalue-minimisations  :  2232
 total energy-change (2. order) :-0.3894112E-04  (-0.2272728E-06)
 number of electron      29.9999985 magnetization 
 augmentation part        0.4954578 magnetization 

 Broyden mixing:
  rms(total) = 0.12088E-03    rms(broyden)= 0.11983E-03
  rms(prec ) = 0.15519E-03
  weight for this iteration     100.00

 eigenvalues of (default mixing * dielectric matrix)
  average eigenvalue GAMMA=   2.5677
  8.3637  5.4568  3.7056  2.8446  2.4719  2.1769  1.8937  1.2542  1.2542  0.9798
  0.9798  0.9997  0.9997

 Free energy of the ion-electron system (eV)
  ---------------------------------------------------
  alpha Z        PSCENC =        10.93933817
  Ewald energy   TEWEN  =      4060.05404224
  -Hartree energ DENC   =     -4938.52351995
  -exchange      EXHF   =         0.00000000
  -V(xc)+E(xc)   XCENC  =        96.01897178
  PAW double counting   =      2893.42347611    -2895.95059288
  entropy T*S    EENTRO =        -0.00000007
  eigenvalues    EBANDS =      -318.39634896
  atomic energy  EATOM  =      1025.20389953
  Solvation  Ediel_sol  =         0.00000000
  ---------------------------------------------------
  free energy    TOTEN  =       -67.23073402 eV

  energy without entropy =      -67.23073395  energy(sigma->0) =      -67.23073399


--------------------------------------------------------------------------------------------------------




--------------------------------------- Iteration      1(  19)  ---------------------------------------


    POTLOK:  cpu time    0.0598: real time    0.0598
    SETDIJ:  cpu time    0.0019: real time    0.0019
     EDDAV:  cpu time    3.8109: real time    3.8238
       DOS:  cpu time    0.0006: real time    0.0006
    CHARGE:  cpu time    0.1994: real time    0.2001
    MIXING:  cpu time    0.0028: real time    0.0028
    --------------------------------------------
      LOOP:  cpu time    4.0753: real time    4.0891

 eigenvalue-minimisations  :  1776
 total energy-change (2. order) :-0.6828748E-05  (-0.1300768E-07)
 number of electron      29.9999985 magnetization 
 augmentation part        0.4954601 magnetization 

 Broyden mixing:
  rms(total) = 0.53708E-04    rms(broyden)= 0.51314E-04
  rms(prec ) = 0.84220E-04
  weight for this iteration     100.00

 eigenvalues of (default mixing * dielectric matrix)
  average eigenvalue GAMMA=   2.7124
  8.3883  6.1681  4.5482  3.3118  2.6907  2.4447  2.1096  1.9087  1.2614  1.1789
  0.9780  0.9850  1.0004  1.0004

 Free energy of the ion-electron system (eV)
  ---------------------------------------------------
  alpha Z        PSCENC =        10.93933817
  Ewald energy   TEWEN  =      4060.05404224
  -Hartree energ DENC   =     -4938.53801279
  -exchange      EXHF   =         0.00000000
  -V(xc)+E(xc)   XCENC  =        96.01893118
  PAW double counting   =      2893.54117641    -2896.06818918
  entropy T*S    EENTRO =        -0.00000007
  eigenvalues    EBANDS =      -318.38192635
  atomic energy  EATOM  =      1025.20389953
  Solvation  Ediel_sol  =         0.00000000
  ---------------------------------------------------
  free energy    TOTEN  =       -67.23074085 eV

  energy without entropy =      -67.23074078  energy(sigma->0) =      -67.23074081


--------------------------------------------------------------------------------------------------------




--------------------------------------- Iteration      1(  20)  ---------------------------------------


    POTLOK:  cpu time    0.0599: real time    0.0607
    SETDIJ:  cpu time    0.0019: real time    0.0019
     EDDAV:  cpu time    3.4318: real time    3.4345
       DOS:  cpu time    0.0006: real time    0.0006
    CHARGE:  cpu time    0.2001: real time    0.2001
    MIXING:  cpu time    0.0031: real time    0.0031
    --------------------------------------------
      LOOP:  cpu time    3.6973: real time    3.7008

 eigenvalue-minimisations  :  1548
 total energy-change (2. order) :-0.1349901E-04  (-0.7749259E-08)
 number of electron      29.9999985 magnetization 
 augmentation part        0.4954605 magnetization 

 Broyden mixing:
  rms(total) = 0.40193E-04    rms(broyden)= 0.36930E-04
  rms(prec ) = 0.39752E-04
  weight for this iteration     100.00

 eigenvalues of (default mixing * dielectric matrix)
  average eigenvalue GAMMA=   2.7642
  8.4622  7.2417  4.9328  3.4485  2.6453  2.6453  2.1901  1.9191  1.4979  1.3177
  0.9654  0.9915  0.9915  1.1070  1.1070

 Free energy of the ion-electron system (eV)
  ---------------------------------------------------
  alpha Z        PSCENC =        10.93933817
  Ewald energy   TEWEN  =      4060.05404224
  -Hartree energ DENC   =     -4938.55620505
  -exchange      EXHF   =         0.00000000
  -V(xc)+E(xc)   XCENC  =        96.01884835
  PAW double counting   =      2893.56159255    -2896.08862617
  entropy T*S    EENTRO =        -0.00000007
  eigenvalues    EBANDS =      -318.36364391
  atomic energy  EATOM  =      1025.20389953
  Solvation  Ediel_sol  =         0.00000000
  ---------------------------------------------------
  free energy    TOTEN  =       -67.23075435 eV

  energy without entropy =      -67.23075428  energy(sigma->0) =      -67.23075431


--------------------------------------------------------------------------------------------------------




--------------------------------------- Iteration      1(  21)  ---------------------------------------


    POTLOK:  cpu time    0.0598: real time    0.0599
    SETDIJ:  cpu time    0.0019: real time    0.0019
     EDDAV:  cpu time    3.4281: real time    3.4321
       DOS:  cpu time    0.0006: real time    0.0006
    CHARGE:  cpu time    0.2008: real time    0.2009
    MIXING:  cpu time    0.0032: real time    0.0032
    --------------------------------------------
      LOOP:  cpu time    3.6944: real time    3.6985

 eigenvalue-minimisations  :  1548
 total energy-change (2. order) :-0.1713606E-05  (-0.1094595E-08)
 number of electron      29.9999985 magnetization 
 augmentation part        0.4954605 magnetization 

 Broyden mixing:
  rms(total) = 0.21107E-04    rms(broyden)= 0.13950E-04
  rms(prec ) = 0.16006E-04
  weight for this iteration     100.00
  WARNING: grid for Broyden might be to small

 eigenvalues of (default mixing * dielectric matrix)
  average eigenvalue GAMMA=   2.8763
  9.2074  8.4468  5.2601  3.7288  2.8421  2.6290  2.4376  2.1344  1.8865  1.2725
  1.1646  0.9636  0.9891  0.9891  1.0347  1.0347

 Free energy of the ion-electron system (eV)
  ---------------------------------------------------
  alpha Z        PSCENC =        10.93933817
  Ewald energy   TEWEN  =      4060.05404224
  -Hartree energ DENC   =     -4938.55758322
  -exchange      EXHF   =         0.00000000
  -V(xc)+E(xc)   XCENC  =        96.01886110
  PAW double counting   =      2893.51112146    -2896.03818110
  entropy T*S    EENTRO =        -0.00000007
  eigenvalues    EBANDS =      -318.36225417
  atomic energy  EATOM  =      1025.20389953
  Solvation  Ediel_sol  =         0.00000000
  ---------------------------------------------------
  free energy    TOTEN  =       -67.23075606 eV

  energy without entropy =      -67.23075599  energy(sigma->0) =      -67.23075603


--------------------------------------------------------------------------------------------------------




--------------------------------------- Iteration      1(  22)  ---------------------------------------


    POTLOK:  cpu time    0.0598: real time    0.0599
    SETDIJ:  cpu time    0.0019: real time    0.0019
     EDDAV:  cpu time    3.4429: real time    3.4545
       DOS:  cpu time    0.0006: real time    0.0006
    --------------------------------------------
      LOOP:  cpu time    3.5052: real time    3.5168

 eigenvalue-minimisations  :  1548
 total energy-change (2. order) :-0.4500323E-06  (-0.7492757E-09)
 number of electron      29.9999985 magnetization 
 augmentation part        0.4954605 magnetization 

 Free energy of the ion-electron system (eV)
  ---------------------------------------------------
  alpha Z        PSCENC =        10.93933817
  Ewald energy   TEWEN  =      4060.05404224
  -Hartree energ DENC   =     -4938.56088857
  -exchange      EXHF   =         0.00000000
  -V(xc)+E(xc)   XCENC  =        96.01889778
  PAW double counting   =      2893.51943946    -2896.04649240
  entropy T*S    EENTRO =        -0.00000007
  eigenvalues    EBANDS =      -318.35899265
  atomic energy  EATOM  =      1025.20389953
  Solvation  Ediel_sol  =         0.00000000
  ---------------------------------------------------
  free energy    TOTEN  =       -67.23075651 eV

  energy without entropy =      -67.23075644  energy(sigma->0) =      -67.23075648


--------------------------------------------------------------------------------------------------------




 average (electrostatic) potential at core
  the test charge radii are     0.7672  0.6991
  (the norm of the test charge is              1.0000)
       1 -35.0198       2 -35.0198       3 -57.5230       4 -57.5231       5 -57.5232
       6 -57.5233       7 -57.5230       8 -57.5231
 
 
 
 E-fermi :  -3.9244     XC(G=0):  -2.1401     alpha+bet : -1.7756


 k-point     1 :       0.0000    0.0000    0.0000
  band No.  band energies     occupation 
      1     -20.3126      2.00000
      2     -16.4219      2.00000
      3     -16.4213      2.00000
      4     -14.0745      2.00000
      5     -14.0741      2.00000
      6     -13.0041      2.00000
      7     -11.6916      2.00000
      8      -9.1190      2.00000
      9      -8.8971      2.00000
     10      -6.7471      2.00000
     11      -6.7461      2.00000
     12      -4.9228      2.00000
     13      -4.9228      2.00000
     14      -4.2431      1.99999
     15      -4.2406      1.99999
     16      -2.4085      0.00000
     17      -0.6759      0.00000
     18      -0.6755      0.00000
     19      -0.0187      0.00000
     20       0.4157      0.00000
     21       1.2586      0.00000
     22       1.4292      0.00000
     23       2.4465      0.00000
     24       2.8350      0.00000

 k-point     2 :       0.0833    0.0000    0.0000
  band No.  band energies     occupation 
      1     -20.2855      2.00000
      2     -16.5540      2.00000
      3     -16.4639      2.00000
      4     -14.1136      2.00000
      5     -13.9757      2.00000
      6     -12.8696      2.00000
      7     -11.5311      2.00000
      8      -9.0778      2.00000
      9      -8.9546      2.00000
     10      -6.8702      2.00000
     11      -6.7689      2.00000
     12      -5.0474      2.00000
     13      -4.9434      2.00000
     14      -4.3853      2.00000
     15      -4.3102      2.00000
     16      -2.6133      0.00000
     17      -0.6163      0.00000
     18      -0.3658      0.00000
     19       0.1031      0.00000
     20       0.4674      0.00000
     21       1.3145      0.00000
     22       1.4812      0.00000
     23       2.4988      0.00000
     24       2.8872      0.00000

 k-point     3 :       0.1667   -0.0000    0.0000
  band No.  band energies     occupation 
      1     -20.2063      2.00000
      2     -16.8793      2.00000
      3     -16.5683      2.00000
      4     -14.2302      2.00000
      5     -13.7063      2.00000
      6     -12.4885      2.00000
      7     -11.1013      2.00000
      8      -9.1371      2.00000
      9      -8.9553      2.00000
     10      -7.2160      2.00000
     11      -6.8048      2.00000
     12      -5.3897      2.00000
     13      -4.9978      2.00000
     14      -4.7925      2.00000
     15      -4.5022      2.00000
     16      -2.9610      0.00000
     17      -0.4529      0.00000
     18       0.0998      0.00000
     19       0.6191      0.00000
     20       0.6221      0.00000
     21       1.4881      0.00000
     22       1.6371      0.00000
     23       2.6560      0.00000
     24       3.0433      0.00000

 k-point     4 :       0.2500   -0.0000    0.0000
  band No.  band energies     occupation 
      1     -20.0831      2.00000
      2     -17.2762      2.00000
      3     -16.6908      2.00000
      4     -14.3779      2.00000
      5     -13.3215      2.00000
      6     -11.9460      2.00000
      7     -10.4911      2.00000
      8      -9.4511      2.00000
      9      -8.7560      2.00000
     10      -7.7228      2.00000
     11      -6.7956      2.00000
     12      -5.8672      2.00000
     13      -5.4101      2.00000
     14      -5.0680      2.00000
     15      -4.7781      2.00000
     16      -3.2477      0.00000
     17      -0.2243      0.00000
     18       0.4486      0.00000
     19       0.8786      0.00000
     20       1.4201      0.00000
     21       1.8427      0.00000
     22       1.8968      0.00000
     23       2.9195      0.00000
     24       3.3020      0.00000

 k-point     5 :       0.3333    0.0000    0.0000
  band No.  band energies     occupation 
      1     -19.9343      2.00000
      2     -17.6539      2.00000
      3     -16.7971      2.00000
      4     -14.5070      2.00000
      5     -12.8832      2.00000
      6     -11.3230      2.00000
      7      -9.8586      2.00000
      8      -9.7872      2.00000
      9      -8.4912      2.00000
     10      -8.3002      2.00000
     11      -6.7161      2.00000
     12      -6.3847      2.00000
     13      -6.1717      2.00000
     14      -5.1341      2.00000
     15      -5.0831      2.00000
     16      -3.4458      0.00000
     17       0.0126      0.00000
     18       0.7735      0.00000
     19       1.2360      0.00000
     20       1.9758      0.00000
     21       2.2600      0.00000
     22       2.6293      0.00000
     23       3.2973      0.00000
     24       3.6621      0.00000

 k-point     6 :       0.4167    0.0000    0.0000
  band No.  band energies     occupation 
[...]
 augmentation part        0.4857524 magnetization 

 Broyden mixing:
  rms(total) = 0.17214E+00    rms(broyden)= 0.17213E+00
  rms(prec ) = 0.21459E+00
  weight for this iteration     100.00

 Free energy of the ion-electron system (eV)
  ---------------------------------------------------
  alpha Z        PSCENC =        15.17984154
  Ewald energy   TEWEN  =      2415.48819960
  -Hartree energ DENC   =     -3338.85896962
  -exchange      EXHF   =         0.00000000
  -V(xc)+E(xc)   XCENC  =        96.81032052
  PAW double counting   =      2856.49686208    -2859.02327922
  entropy T*S    EENTRO =        -0.00070459
  eigenvalues    EBANDS =      -278.73143058
  atomic energy  EATOM  =      1025.20389953
  Solvation  Ediel_sol  =         0.00000000
  ---------------------------------------------------
  free energy    TOTEN  =       -67.43526073 eV

  energy without entropy =      -67.43455614  energy(sigma->0) =      -67.43490843


--------------------------------------------------------------------------------------------------------




--------------------------------------- Iteration     28(   2)  ---------------------------------------


    POTLOK:  cpu time    0.0570: real time    0.0578
    SETDIJ:  cpu time    0.0020: real time    0.0020
     EDDAV:  cpu time    5.5438: real time    5.6120
       DOS:  cpu time    0.0007: real time    0.0007
    CHARGE:  cpu time    0.2001: real time    0.2003
    MIXING:  cpu time    0.0015: real time    0.0015
    --------------------------------------------
      LOOP:  cpu time    5.8051: real time    5.8743

 eigenvalue-minimisations  :  2232
 total energy-change (2. order) : 0.1311218E+00  (-0.1525595E-01)
 number of electron      29.9999990 magnetization 
 augmentation part        0.4877824 magnetization 

 Broyden mixing:
  rms(total) = 0.89134E-01    rms(broyden)= 0.89133E-01
  rms(prec ) = 0.11353E+00
  weight for this iteration     100.00

 eigenvalues of (default mixing * dielectric matrix)
  average eigenvalue GAMMA=   1.9595
  1.9595

 Free energy of the ion-electron system (eV)
  ---------------------------------------------------
  alpha Z        PSCENC =        15.17984154
  Ewald energy   TEWEN  =      2415.48819960
  -Hartree energ DENC   =     -3329.89968554
  -exchange      EXHF   =         0.00000000
  -V(xc)+E(xc)   XCENC  =        96.44220202
  PAW double counting   =      2862.30519670    -2864.80220156
  entropy T*S    EENTRO =        -0.00003701
  eigenvalues    EBANDS =      -287.22155425
  atomic energy  EATOM  =      1025.20389953
  Solvation  Ediel_sol  =         0.00000000
  ---------------------------------------------------
  free energy    TOTEN  =       -67.30413896 eV

  energy without entropy =      -67.30410195  energy(sigma->0) =      -67.30412046


--------------------------------------------------------------------------------------------------------




--------------------------------------- Iteration     28(   3)  ---------------------------------------


    POTLOK:  cpu time    0.0561: real time    0.0562
    SETDIJ:  cpu time    0.0020: real time    0.0020
     EDDAV:  cpu time    5.2580: real time    5.2751
       DOS:  cpu time    0.0006: real time    0.0006
    CHARGE:  cpu time    0.1982: real time    0.1984
    MIXING:  cpu time    0.0016: real time    0.0016
    --------------------------------------------
      LOOP:  cpu time    5.5166: real time    5.5339

 eigenvalue-minimisations  :  2856
 total energy-change (2. order) : 0.5607561E-01  (-0.1507719E-01)
 number of electron      29.9999990 magnetization 
 augmentation part        0.4946024 magnetization 

 Broyden mixing:
  rms(total) = 0.25579E-01    rms(broyden)= 0.25573E-01
  rms(prec ) = 0.32309E-01
  weight for this iteration     100.00

 eigenvalues of (default mixing * dielectric matrix)
  average eigenvalue GAMMA=   1.4046
  1.0513  1.7580

 Free energy of the ion-electron system (eV)
  ---------------------------------------------------
  alpha Z        PSCENC =        15.17984154
  Ewald energy   TEWEN  =      2415.48819960
  -Hartree energ DENC   =     -3319.96946824
  -exchange      EXHF   =         0.00000000
  -V(xc)+E(xc)   XCENC  =        96.06837166
  PAW double counting   =      2870.05898262    -2872.54084782
  entropy T*S    EENTRO =        -0.00000048
  eigenvalues    EBANDS =      -296.73704177
  atomic energy  EATOM  =      1025.20389953
  Solvation  Ediel_sol  =         0.00000000
  ---------------------------------------------------
  free energy    TOTEN  =       -67.24806336 eV

  energy without entropy =      -67.24806288  energy(sigma->0) =      -67.24806312


--------------------------------------------------------------------------------------------------------




--------------------------------------- Iteration     28(   4)  ---------------------------------------


    POTLOK:  cpu time    0.0558: real time    0.0566
    SETDIJ:  cpu time    0.0020: real time    0.0020
     EDDAV:  cpu time    5.0032: real time    5.0145
       DOS:  cpu time    0.0006: real time    0.0006
    CHARGE:  cpu time    0.1990: real time    0.1992
    MIXING:  cpu time    0.0017: real time    0.0017
    --------------------------------------------
      LOOP:  cpu time    5.2623: real time    5.2746

 eigenvalue-minimisations  :  2688
 total energy-change (2. order) : 0.4301207E-03  (-0.6912940E-03)
 number of electron      29.9999990 magnetization 
 augmentation part        0.4944459 magnetization 

 Broyden mixing:
  rms(total) = 0.11051E-01    rms(broyden)= 0.11050E-01
  rms(prec ) = 0.17565E-01
  weight for this iteration     100.00

 eigenvalues of (default mixing * dielectric matrix)
  average eigenvalue GAMMA=   1.6101
  1.3193  1.3193  2.1917

 Free energy of the ion-electron system (eV)
  ---------------------------------------------------
  alpha Z        PSCENC =        15.17984154
  Ewald energy   TEWEN  =      2415.48819960
  -Hartree energ DENC   =     -3319.41201811
  -exchange      EXHF   =         0.00000000
  -V(xc)+E(xc)   XCENC  =        96.07742483
  PAW double counting   =      2861.23647313    -2863.74062273
  entropy T*S    EENTRO =        -0.00000064
  eigenvalues    EBANDS =      -297.28083039
  atomic energy  EATOM  =      1025.20389953
  Solvation  Ediel_sol  =         0.00000000
  ---------------------------------------------------
  free energy    TOTEN  =       -67.24763324 eV

  energy without entropy =      -67.24763259  energy(sigma->0) =      -67.24763292


--------------------------------------------------------------------------------------------------------




--------------------------------------- Iteration     28(   5)  ---------------------------------------


    POTLOK:  cpu time    0.0552: real time    0.0559
    SETDIJ:  cpu time    0.0020: real time    0.0020
     EDDAV:  cpu time    4.8501: real time    4.8636
       DOS:  cpu time    0.0006: real time    0.0006
    CHARGE:  cpu time    0.2015: real time    0.2017
    MIXING:  cpu time    0.0017: real time    0.0017
    --------------------------------------------
      LOOP:  cpu time    5.1112: real time    5.1255

 eigenvalue-minimisations  :  2580
 total energy-change (2. order) : 0.4779045E-03  (-0.2362093E-03)
 number of electron      29.9999990 magnetization 
 augmentation part        0.4949512 magnetization 

 Broyden mixing:
  rms(total) = 0.65602E-02    rms(broyden)= 0.65600E-02
  rms(prec ) = 0.10858E-01
  weight for this iteration     100.00

 eigenvalues of (default mixing * dielectric matrix)
  average eigenvalue GAMMA=   1.7817
  2.4453  2.4453  1.1180  1.1180

 Free energy of the ion-electron system (eV)
  ---------------------------------------------------
  alpha Z        PSCENC =        15.17984154
  Ewald energy   TEWEN  =      2415.48819960
  -Hartree energ DENC   =     -3317.37890727
  -exchange      EXHF   =         0.00000000
  -V(xc)+E(xc)   XCENC  =        96.02619611
  PAW double counting   =      2856.32687813    -2858.84210896
  entropy T*S    EENTRO =        -0.00000034
  eigenvalues    EBANDS =      -299.25115366
  atomic energy  EATOM  =      1025.20389953
  Solvation  Ediel_sol  =         0.00000000
  ---------------------------------------------------
  free energy    TOTEN  =       -67.24715533 eV

  energy without entropy =      -67.24715499  energy(sigma->0) =      -67.24715516


--------------------------------------------------------------------------------------------------------




--------------------------------------- Iteration     28(   6)  ---------------------------------------


    POTLOK:  cpu time    0.0546: real time    0.0547
    SETDIJ:  cpu time    0.0020: real time    0.0020
     EDDAV:  cpu time    4.4813: real time    4.4926
       DOS:  cpu time    0.0006: real time    0.0006
    CHARGE:  cpu time    0.2014: real time    0.2022
    MIXING:  cpu time    0.0018: real time    0.0018
    --------------------------------------------
      LOOP:  cpu time    4.7418: real time    4.7540

 eigenvalue-minimisations  :  2316
 total energy-change (2. order) :-0.1058328E-02  (-0.9626619E-04)
 number of electron      29.9999990 magnetization 
 augmentation part        0.4948415 magnetization 

 Broyden mixing:
  rms(total) = 0.51726E-02    rms(broyden)= 0.51716E-02
  rms(prec ) = 0.71488E-02
  weight for this iteration     100.00

 eigenvalues of (default mixing * dielectric matrix)
  average eigenvalue GAMMA=   1.6842
  2.5524  2.5524  1.2462  1.2462  0.8239

 Free energy of the ion-electron system (eV)
  ---------------------------------------------------
  alpha Z        PSCENC =        15.17984154
  Ewald energy   TEWEN  =      2415.48819960
  -Hartree energ DENC   =     -3315.77749230
  -exchange      EXHF   =         0.00000000
  -V(xc)+E(xc)   XCENC  =        96.01356773
  PAW double counting   =      2850.12911435    -2852.66129059
  entropy T*S    EENTRO =        -0.00000035
  eigenvalues    EBANDS =      -300.82405317
  atomic energy  EATOM  =      1025.20389953
  Solvation  Ediel_sol  =         0.00000000
  ---------------------------------------------------
  free energy    TOTEN  =       -67.24821366 eV

  energy without entropy =      -67.24821331  energy(sigma->0) =      -67.24821348


--------------------------------------------------------------------------------------------------------




--------------------------------------- Iteration     28(   7)  ---------------------------------------


    POTLOK:  cpu time    0.0550: real time    0.0551
    SETDIJ:  cpu time    0.0021: real time    0.0021
     EDDAV:  cpu time    4.8667: real time    4.8757
       DOS:  cpu time    0.0006: real time    0.0006
    CHARGE:  cpu time    0.1993: real time    0.1995
    MIXING:  cpu time    0.0019: real time    0.0019
    --------------------------------------------
      LOOP:  cpu time    5.1256: real time    5.1348

 eigenvalue-minimisations  :  2592
 total energy-change (2. order) :-0.1568802E-03  (-0.1609873E-04)
 number of electron      29.9999990 magnetization 
 augmentation part        0.4949856 magnetization 

 Broyden mixing:
  rms(total) = 0.26183E-02    rms(broyden)= 0.26182E-02
  rms(prec ) = 0.42702E-02
  weight for this iteration     100.00

 eigenvalues of (default mixing * dielectric matrix)
  average eigenvalue GAMMA=   2.0339
  4.1914  2.5835  2.1384  1.1723  1.1723  0.9457

 Free energy of the ion-electron system (eV)
  ---------------------------------------------------
  alpha Z        PSCENC =        15.17984154
  Ewald energy   TEWEN  =      2415.48819960
  -Hartree energ DENC   =     -3315.10320034
  -exchange      EXHF   =         0.00000000
  -V(xc)+E(xc)   XCENC  =        96.00201812
  PAW double counting   =      2852.89450693    -2855.42317186
  entropy T*S    EENTRO =        -0.00000032
  eigenvalues    EBANDS =      -301.49046374
  atomic energy  EATOM  =      1025.20389953
  Solvation  Ediel_sol  =         0.00000000
  ---------------------------------------------------
  free energy    TOTEN  =       -67.24837054 eV

  energy without entropy =      -67.24837022  energy(sigma->0) =      -67.24837038


--------------------------------------------------------------------------------------------------------




--------------------------------------- Iteration     28(   8)  ---------------------------------------


    POTLOK:  cpu time    0.0564: real time    0.0565
    SETDIJ:  cpu time    0.0020: real time    0.0021
     EDDAV:  cpu time    4.3530: real time    4.3605
       DOS:  cpu time    0.0005: real time    0.0005
    CHARGE:  cpu time    0.2031: real time    0.2032
    MIXING:  cpu time    0.0020: real time    0.0020
    --------------------------------------------
      LOOP:  cpu time    4.6171: real time    4.6249

 eigenvalue-minimisations  :  2232
 total energy-change (2. order) :-0.1275537E-03  (-0.3835155E-04)
 number of electron      29.9999990 magnetization 
 augmentation part        0.4952414 magnetization 

 Broyden mixing:
  rms(total) = 0.23287E-02    rms(broyden)= 0.23284E-02
  rms(prec ) = 0.29398E-02
  weight for this iteration     100.00

 eigenvalues of (default mixing * dielectric matrix)
  average eigenvalue GAMMA=   2.0761
  5.0138  2.4029  2.4029  1.3986  1.3986  0.9581  0.9581

 Free energy of the ion-electron system (eV)
  ---------------------------------------------------
  alpha Z        PSCENC =        15.17984154
  Ewald energy   TEWEN  =      2415.48819960
  -Hartree energ DENC   =     -3313.96628771
  -exchange      EXHF   =         0.00000000
  -V(xc)+E(xc)   XCENC  =        95.98525911
  PAW double counting   =      2857.52783247    -2860.05074501
  entropy T*S    EENTRO =        -0.00000028
  eigenvalues    EBANDS =      -302.61649735
  atomic energy  EATOM  =      1025.20389953
  Solvation  Ediel_sol  =         0.00000000
  ---------------------------------------------------
  free energy    TOTEN  =       -67.24849809 eV

  energy without entropy =      -67.24849782  energy(sigma->0) =      -67.24849795


--------------------------------------------------------------------------------------------------------




--------------------------------------- Iteration     28(   9)  ---------------------------------------


    POTLOK:  cpu time    0.0571: real time    0.0573
    SETDIJ:  cpu time    0.0021: real time    0.0021
     EDDAV:  cpu time    5.1320: real time    5.1488
       DOS:  cpu time    0.0006: real time    0.0006
    CHARGE:  cpu time    0.2031: real time    0.2033
    MIXING:  cpu time    0.0021: real time    0.0021
    --------------------------------------------
      LOOP:  cpu time    5.3970: real time    5.4141

 eigenvalue-minimisations  :  2760
 total energy-change (2. order) : 0.3535102E-04  (-0.2440652E-05)
 number of electron      29.9999990 magnetization 
 augmentation part        0.4952214 magnetization 

 Broyden mixing:
  rms(total) = 0.82078E-03    rms(broyden)= 0.82053E-03
  rms(prec ) = 0.13518E-02
  weight for this iteration     100.00

 eigenvalues of (default mixing * dielectric matrix)
  average eigenvalue GAMMA=   2.2139
  5.5761  3.1848  2.2680  2.2680  1.2350  1.2350  0.9722  0.9722

 Free energy of the ion-electron system (eV)
  ---------------------------------------------------
  alpha Z        PSCENC =        15.17984154
  Ewald energy   TEWEN  =      2415.48819960
  -Hartree energ DENC   =     -3313.83175181
  -exchange      EXHF   =         0.00000000
  -V(xc)+E(xc)   XCENC  =        95.98763178
  PAW double counting   =      2856.09981556    -2858.62462604
  entropy T*S    EENTRO =        -0.00000029
  eigenvalues    EBANDS =      -302.75147263
  atomic energy  EATOM  =      1025.20389953
  Solvation  Ediel_sol  =         0.00000000
  ---------------------------------------------------
  free energy    TOTEN  =       -67.24846274 eV

  energy without entropy =      -67.24846246  energy(sigma->0) =      -67.24846260


--------------------------------------------------------------------------------------------------------




--------------------------------------- Iteration     28(  10)  ---------------------------------------


    POTLOK:  cpu time    0.0586: real time    0.0588
    SETDIJ:  cpu time    0.0021: real time    0.0021
     EDDAV:  cpu time    4.6592: real time    4.6671
       DOS:  cpu time    0.0006: real time    0.0006
    CHARGE:  cpu time    0.2019: real time    0.2021
    MIXING:  cpu time    0.0022: real time    0.0022
    --------------------------------------------
      LOOP:  cpu time    4.9245: real time    4.9327

 eigenvalue-minimisations  :  2448
 total energy-change (2. order) : 0.3867821E-04  (-0.3564978E-05)
 number of electron      29.9999990 magnetization 
 augmentation part        0.4951341 magnetization 

 Broyden mixing:
  rms(total) = 0.11145E-02    rms(broyden)= 0.11142E-02
  rms(prec ) = 0.13128E-02
  weight for this iteration     100.00

 eigenvalues of (default mixing * dielectric matrix)
  average eigenvalue GAMMA=   2.3275
  6.4808  3.8056  2.3900  2.3900  1.4536  1.4536  1.0163  1.0163  0.9413

 Free energy of the ion-electron system (eV)
  ---------------------------------------------------
  alpha Z        PSCENC =        15.17984154
  Ewald energy   TEWEN  =      2415.48819960
  -Hartree energ DENC   =     -3313.70767275
  -exchange      EXHF   =         0.00000000
  -V(xc)+E(xc)   XCENC  =        95.99107696
  PAW double counting   =      2854.65803279    -2857.18482117
  entropy T*S    EENTRO =        -0.00000030
  eigenvalues    EBANDS =      -302.87698026
  atomic energy  EATOM  =      1025.20389953
  Solvation  Ediel_sol  =         0.00000000
  ---------------------------------------------------
  free energy    TOTEN  =       -67.24842406 eV

  energy without entropy =      -67.24842376  energy(sigma->0) =      -67.24842391


--------------------------------------------------------------------------------------------------------




--------------------------------------- Iteration     28(  11)  ---------------------------------------


    POTLOK:  cpu time    0.0592: real time    0.0593
    SETDIJ:  cpu time    0.0021: real time    0.0021
     EDDAV:  cpu time    4.6286: real time    4.6395
       DOS:  cpu time    0.0006: real time    0.0006
    CHARGE:  cpu time    0.1999: real time    0.2008
    MIXING:  cpu time    0.0023: real time    0.0023
    --------------------------------------------
      LOOP:  cpu time    4.8928: real time    4.9046

 eigenvalue-minimisations  :  2424
 total energy-change (2. order) :-0.1492956E-04  (-0.1020482E-05)
 number of electron      29.9999990 magnetization 
 augmentation part        0.4951648 magnetization 

 Broyden mixing:
  rms(total) = 0.30418E-03    rms(broyden)= 0.30355E-03
  rms(prec ) = 0.37587E-03
  weight for this iteration     100.00

 eigenvalues of (default mixing * dielectric matrix)
  average eigenvalue GAMMA=   2.3634
  7.1700  4.2682  2.4070  2.1612  1.9335  1.4689  1.2270  1.0318  1.0318  0.9348

 Free energy of the ion-electron system (eV)
  ---------------------------------------------------
  alpha Z        PSCENC =        15.17984154
  Ewald energy   TEWEN  =      2415.48819960
  -Hartree energ DENC   =     -3313.63333619
  -exchange      EXHF   =         0.00000000
  -V(xc)+E(xc)   XCENC  =        95.98980410
  PAW double counting   =      2855.12903757    -2857.65504036
  entropy T*S    EENTRO =        -0.00000029
  eigenvalues    EBANDS =      -302.95084449
  atomic energy  EATOM  =      1025.20389953
  Solvation  Ediel_sol  =         0.00000000
  ---------------------------------------------------
  free energy    TOTEN  =       -67.24843899 eV

  energy without entropy =      -67.24843870  energy(sigma->0) =      -67.24843885


--------------------------------------------------------------------------------------------------------




--------------------------------------- Iteration     28(  12)  ---------------------------------------


    POTLOK:  cpu time    0.0599: real time    0.0607
    SETDIJ:  cpu time    0.0021: real time    0.0021
