 running on   12 total cores
 distrk:  each k-point on   12 cores,    1 groups
 distr:  one band on    1 cores,   12 groups
 using from now: INCAR     
 vasp.5.4.4.18Apr17-6-g9f103f2a35 (build Mar 30 2023 15:39:25) complex          
  
 POSCAR found type information on POSCAR  B  C 
 POSCAR found :  2 types and       8 ions
 scaLAPACK will be used

 ----------------------------------------------------------------------------- 
|                                                                             |
|           W    W    AA    RRRRR   N    N  II  N    N   GGGG   !!!           |
|           W    W   A  A   R    R  NN   N  II  NN   N  G    G  !!!           |
|           W    W  A    A  R    R  N N  N  II  N N  N  G       !!!           |
|           W WW W  AAAAAA  RRRRR   N  N N  II  N  N N  G  GGG   !            |
|           WW  WW  A    A  R   R   N   NN  II  N   NN  G    G                |
|           W    W  A    A  R    R  N    N  II  N    N   GGGG   !!!           |
|                                                                             |
|      For optimal performance we recommend to set                            |
|        NCORE= 4 - approx SQRT( number of cores)                             |
|      NCORE specifies how many cores store one orbital (NPAR=cpu/NCORE).     |
|      This setting can  greatly improve the performance of VASP for DFT.     |
|      The default,   NCORE=1            might be grossly inefficient         |
|      on modern multi-core architectures or massively parallel machines.     |
|      Do your own testing !!!!                                               |
|      Unfortunately you need to use the default for GW and RPA calculations. |
|      (for HF NCORE is supported but not extensively tested yet)             |
|                                                                             |
 ----------------------------------------------------------------------------- 

 LDA part: xc-table for Pade appr. of Perdew
 POSCAR, INCAR and KPOINTS ok, starting setup
 FFT: planning ...
 WAVECAR not read
 entering main loop
       N       E                     dE             d eps       ncg     rms          rms(c)
DAV:   1     0.208596686129E+03    0.20860E+03   -0.97767E+03  2184   0.793E+02
DAV:   2    -0.394034265742E+02   -0.24800E+03   -0.23363E+03  3360   0.184E+02
DAV:   3    -0.725963848142E+02   -0.33193E+02   -0.32777E+02  2652   0.815E+01
DAV:   4    -0.734156651961E+02   -0.81928E+00   -0.81726E+00  2952   0.159E+01
DAV:   5    -0.734373150415E+02   -0.21650E-01   -0.21621E-01  2676   0.236E+00    0.131E+01
DAV:   6    -0.689783061363E+02    0.44590E+01   -0.52825E+00  2976   0.105E+01    0.740E+00
DAV:   7    -0.673327222416E+02    0.16456E+01   -0.39705E+00  3036   0.910E+00    0.215E+00
DAV:   8    -0.672526005346E+02    0.80122E-01   -0.21618E-01  3192   0.214E+00    0.580E-01
