<?xml version="1.0" encoding="ISO-8859-1"?>
<modeling>
 <generator>
  <i name="program" type="string">vasp </i>
  <i name="version" type="string">5.4.4.18Apr17-6-g9f103f2a35  </i>
  <i name="subversion" type="string">(build Mar 30 2023 15:39:25) complex            parallel </i>
  <i name="platform" type="string">LinuxIFC </i>
  <i name="date" type="string">2023 05 26 </i>
  <i name="time" type="string">21:14:22 </i>
 </generator>
 <incar>
  <i type="string" name="SYSTEM"> BC3</i>
  <i type="int" name="ISTART">     0</i>
  <i type="string" name="PREC">normal</i>
  <i type="string" name="ALGO">  Normal</i>
  <i type="int" name="ICHARG">     2</i>
  <i type="int" name="IBRION">     2</i>
  <i name="EDIFF">      0.00000100</i>
  <i name="EDIFFG">     -0.01000000</i>
  <i type="int" name="NSW">   128</i>
  <i type="int" name="ISIF">     3</i>
  <i name="ENCUT">    450.00000000</i>
  <i type="int" name="ISMEAR">     0</i>
  <i name="SIGMA">      0.10000000</i>
  <v type="int" name="KPOINT_BSE">    -1     0     0     0</v>
 </incar>
 <structure name="primitive_cell" >
  <crystal>
   <varray name="basis" >
    <v>       5.17400000       0.00000000       0.00000000 </v>
    <v>       2.58700000       4.48100000       0.00000000 </v>
    <v>       0.00000000       0.00000000      20.00000000 </v>
   </varray>
   <i name="volume">    463.69388000 </i>
   <varray name="rec_basis" >
    <v>       0.19327406      -0.11158224       0.00000000 </v>
    <v>       0.00000000       0.22316447       0.00000000 </v>
    <v>       0.00000000       0.00000000       0.05000000 </v>
   </varray>
  </crystal>
  <varray name="positions" >
   <v>       0.17457326       0.17462620       0.00000000 </v>
   <v>       0.00000000       0.00000000       0.00000000 </v>
   <v>      -0.47622729       0.00000000       0.00000000 </v>
   <v>      -0.00005294      -0.47612140       0.00000000 </v>
   <v>      -0.31744862       0.15866994       0.00000000 </v>
   <v>      -0.31750156      -0.31745146       0.00000000 </v>
   <v>       0.15872573      -0.31745146       0.00000000 </v>
   <v>      -0.49207481      -0.49207766       0.00000000 </v>
  </varray>
 </structure>
 <varray name="primitive_index" >
  <v type="int" >        1 </v>
  <v type="int" >        3 </v>
  <v type="int" >        4 </v>
  <v type="int" >        6 </v>
  <v type="int" >        5 </v>
  <v type="int" >        8 </v>
  <v type="int" >        7 </v>
  <v type="int" >        2 </v>
 </varray>
 <kpoints>
  <generation param="Gamma">
   <v type="int" name="divisions">      12       12        1 </v>
   <v name="usershift">      0.00000000       0.00000000       0.00000000 </v>
   <v name="genvec1">      0.08333333       0.00000000       0.00000000 </v>
   <v name="genvec2">      0.00000000       0.08333333       0.00000000 </v>
   <v name="genvec3">      0.00000000       0.00000000       1.00000000 </v>
   <v name="shift">      0.00000000       0.00000000       0.00000000 </v>
  </generation>
  <varray name="kpointlist" >
   <v>       0.00000000       0.00000000       0.00000000 </v>
   <v>       0.08333333       0.00000000       0.00000000 </v>
   <v>       0.16666667      -0.00000000       0.00000000 </v>
   <v>       0.25000000      -0.00000000       0.00000000 </v>
   <v>       0.33333333       0.00000000       0.00000000 </v>
   <v>       0.41666667       0.00000000       0.00000000 </v>
   <v>       0.50000000      -0.00000000       0.00000000 </v>
   <v>       0.00000000       0.08333333       0.00000000 </v>
   <v>       0.16666667       0.08333333       0.00000000 </v>
   <v>       0.25000000       0.08333333       0.00000000 </v>
   <v>       0.33333333       0.08333333       0.00000000 </v>
   <v>       0.41666667       0.08333333       0.00000000 </v>
   <v>       0.50000000       0.08333333       0.00000000 </v>
   <v>      -0.41666667       0.08333333       0.00000000 </v>
   <v>      -0.33333333       0.08333333       0.00000000 </v>
   <v>      -0.25000000       0.08333333       0.00000000 </v>
   <v>      -0.16666667       0.08333333       0.00000000 </v>
   <v>      -0.08333333       0.08333333       0.00000000 </v>
   <v>       0.00000000       0.16666667       0.00000000 </v>
   <v>       0.33333333       0.16666667       0.00000000 </v>
   <v>       0.41666667       0.16666667       0.00000000 </v>
   <v>       0.50000000       0.16666667       0.00000000 </v>
   <v>      -0.41666667       0.16666667       0.00000000 </v>
   <v>      -0.33333333       0.16666667       0.00000000 </v>
   <v>      -0.25000000       0.16666667       0.00000000 </v>
   <v>      -0.16666667       0.16666667       0.00000000 </v>
   <v>      -0.08333333       0.16666667       0.00000000 </v>
   <v>       0.00000000       0.25000000       0.00000000 </v>
   <v>       0.50000000       0.25000000       0.00000000 </v>
   <v>      -0.41666667       0.25000000       0.00000000 </v>
   <v>      -0.33333333       0.25000000       0.00000000 </v>
   <v>      -0.25000000       0.25000000       0.00000000 </v>
   <v>      -0.16666667       0.25000000       0.00000000 </v>
   <v>      -0.08333333       0.25000000       0.00000000 </v>
   <v>       0.00000000       0.33333333       0.00000000 </v>
   <v>      -0.33333333       0.33333333       0.00000000 </v>
   <v>      -0.25000000       0.33333333       0.00000000 </v>
   <v>      -0.16666667       0.33333333       0.00000000 </v>
   <v>      -0.08333333       0.33333333       0.00000000 </v>
   <v>       0.00000000       0.41666667       0.00000000 </v>
   <v>      -0.16666667       0.41666667       0.00000000 </v>
   <v>      -0.08333333       0.41666667       0.00000000 </v>
   <v>       0.00000000       0.50000000       0.00000000 </v>
  </varray>
  <varray name="weights" >
   <v>       0.00694444 </v>
   <v>       0.02777778 </v>
   <v>       0.02777778 </v>
   <v>       0.02777778 </v>
   <v>       0.02777778 </v>
   <v>       0.02777778 </v>
   <v>       0.01388889 </v>
   <v>       0.01388889 </v>
   <v>       0.01388889 </v>
   <v>       0.02777778 </v>
   <v>       0.02777778 </v>
   <v>       0.02777778 </v>
   <v>       0.02777778 </v>
   <v>       0.02777778 </v>
   <v>       0.02777778 </v>
   <v>       0.02777778 </v>
   <v>       0.02777778 </v>
   <v>       0.02777778 </v>
   <v>       0.01388889 </v>
   <v>       0.01388889 </v>
   <v>       0.02777778 </v>
   <v>       0.02777778 </v>
   <v>       0.02777778 </v>
   <v>       0.02777778 </v>
   <v>       0.02777778 </v>
   <v>       0.02777778 </v>
   <v>       0.02777778 </v>
   <v>       0.01388889 </v>
   <v>       0.01388889 </v>
   <v>       0.02777778 </v>
   <v>       0.02777778 </v>
   <v>       0.02777778 </v>
   <v>       0.02777778 </v>
   <v>       0.02777778 </v>
   <v>       0.01388889 </v>
   <v>       0.01388889 </v>
   <v>       0.02777778 </v>
   <v>       0.02777778 </v>
   <v>       0.02777778 </v>
   <v>       0.01388889 </v>
   <v>       0.01388889 </v>
   <v>       0.02777778 </v>
   <v>       0.00694444 </v>
  </varray>
 </kpoints>
 <parameters>
  <separator name="general" >
   <i type="string" name="SYSTEM">BC3</i>
   <i type="logical" name="LCOMPAT"> F  </i>
  </separator>
  <separator name="electronic" >
   <i type="string" name="PREC">normal</i>
   <i name="ENMAX">    450.00000000</i>
   <i name="ENAUG">    644.87300000</i>
   <i name="EDIFF">      0.00000100</i>
   <i type="int" name="IALGO">    38</i>
   <i type="int" name="IWAVPR">    11</i>
   <i type="int" name="NBANDS">    24</i>
   <i name="NELECT">     30.00000000</i>
   <i type="int" name="TURBO">     0</i>
   <i type="int" name="IRESTART">     0</i>
   <i type="int" name="NREBOOT">     0</i>
   <i type="int" name="NMIN">     0</i>
   <i name="EREF">      0.00000000</i>
   <separator name="electronic smearing" >
    <i type="int" name="ISMEAR">     0</i>
    <i name="SIGMA">      0.10000000</i>
    <i name="KSPACING">      0.50000000</i>
    <i type="logical" name="KGAMMA"> T  </i>
   </separator>
   <separator name="electronic projectors" >
    <i type="logical" name="LREAL"> F  </i>
    <v name="ROPT">      0.00000000      0.00000000</v>
    <i type="int" name="LMAXPAW">  -100</i>
    <i type="int" name="LMAXMIX">     2</i>
    <i type="logical" name="NLSPLINE"> F  </i>
   </separator>
   <separator name="electronic startup" >
    <i type="int" name="ISTART">     0</i>
    <i type="int" name="ICHARG">     2</i>
    <i type="int" name="INIWAV">     1</i>
   </separator>
   <separator name="electronic spin" >
    <i type="int" name="ISPIN">     1</i>
    <i type="logical" name="LNONCOLLINEAR"> F  </i>
    <v name="MAGMOM">      1.00000000      1.00000000      1.00000000      1.00000000      1.00000000      1.00000000      1.00000000      1.00000000</v>
    <i name="NUPDOWN">     -1.00000000</i>
    <i type="logical" name="LSORBIT"> F  </i>
    <v name="SAXIS">      0.00000000      0.00000000      1.00000000</v>
    <i type="logical" name="LSPIRAL"> F  </i>
    <v name="QSPIRAL">      0.00000000      0.00000000      0.00000000</v>
    <i type="logical" name="LZEROZ"> F  </i>
   </separator>
   <separator name="electronic exchange-correlation" >
    <i type="logical" name="LASPH"> F  </i>
    <i type="logical" name="LMETAGGA"> F  </i>
   </separator>
   <separator name="electronic convergence" >
    <i type="int" name="NELM">    60</i>
    <i type="int" name="NELMDL">    -5</i>
    <i type="int" name="NELMIN">     2</i>
    <i name="ENINI">    450.00000000</i>
    <separator name="electronic convergence detail" >
     <i type="logical" name="LDIAG"> T  </i>
     <i type="logical" name="LSUBROT"> F  </i>
     <i name="WEIMIN">      0.00100000</i>
     <i name="EBREAK">      0.00000001</i>
     <i name="DEPER">      0.30000000</i>
     <i type="int" name="NRMM">     4</i>
     <i name="TIME">      0.40000000</i>
    </separator>
   </separator>
   <separator name="electronic mixer" >
    <i name="AMIX">      0.40000000</i>
    <i name="BMIX">      1.00000000</i>
    <i name="AMIN">      0.10000000</i>
    <i name="AMIX_MAG">      1.60000000</i>
    <i name="BMIX_MAG">      1.00000000</i>
    <separator name="electronic mixer details" >
     <i type="int" name="IMIX">     4</i>
     <i type="logical" name="MIXFIRST"> F  </i>
     <i type="int" name="MAXMIX">   -45</i>
     <i name="WC">    100.00000000</i>
     <i type="int" name="INIMIX">     1</i>
     <i type="int" name="MIXPRE">     1</i>
     <i type="int" name="MREMOVE">     5</i>
    </separator>
   </separator>
   <separator name="electronic dipolcorrection" >
    <i type="logical" name="LDIPOL"> F  </i>
    <i type="logical" name="LMONO"> F  </i>
    <i type="int" name="IDIPOL">     0</i>
    <i name="EPSILON">      1.00000000</i>
    <v name="DIPOL">   -100.00000000   -100.00000000   -100.00000000</v>
    <i name="EFIELD">      0.00000000</i>
   </separator>
  </separator>
  <separator name="grids" >
   <i type="int" name="NGX">    28</i>
   <i type="int" name="NGY">    28</i>
   <i type="int" name="NGZ">   108</i>
   <i type="int" name="NGXF">    56</i>
   <i type="int" name="NGYF">    56</i>
   <i type="int" name="NGZF">   216</i>
   <i type="logical" name="ADDGRID"> F  </i>
  </separator>
  <separator name="ionic" >
   <i type="int" name="NSW">   128</i>
   <i type="int" name="IBRION">     2</i>
   <i type="int" name="MDALGO">     0</i>
   <i type="int" name="ISIF">     3</i>
   <i name="PSTRESS">      0.00000000</i>
   <i name="EDIFFG">     -0.01000000</i>
   <i type="int" name="NFREE">     1</i>
   <i name="POTIM">      0.50000000</i>
   <i name="SMASS">     -3.00000000</i>
   <i name="SCALEE">      1.00000000</i>
  </separator>
  <separator name="ionic md" >
   <i name="TEBEG">      0.00010000</i>
   <i name="TEEND">      0.00010000</i>
   <i type="int" name="NBLOCK">     1</i>
   <i type="int" name="KBLOCK">   128</i>
   <i type="int" name="NPACO">   256</i>
   <i name="APACO">     16.00000000</i>
  </separator>
  <separator name="symmetry" >
   <i type="int" name="ISYM">     2</i>
   <i name="SYMPREC">      0.00001000</i>
  </separator>
  <separator name="dos" >
   <i type="int" name="LORBIT">     0</i>
   <v name="RWIGS">     -1.00000000     -1.00000000</v>
   <i type="int" name="NEDOS">   301</i>
   <i name="EMIN">     10.00000000</i>
   <i name="EMAX">    -10.00000000</i>
   <i name="EFERMI">      0.00000000</i>
  </separator>
  <separator name="writing" >
   <i type="int" name="NWRITE">     2</i>
   <i type="logical" name="LWAVE"> T  </i>
   <i type="logical" name="LDOWNSAMPLE"> F  </i>
   <i type="logical" name="LCHARG"> T  </i>
   <i type="logical" name="LPARD"> F  </i>
   <i type="logical" name="LVTOT"> F  </i>
   <i type="logical" name="LVHAR"> F  </i>
   <i type="logical" name="LELF"> F  </i>
   <i type="logical" name="LOPTICS"> F  </i>
   <v name="STM">      0.00000000      0.00000000      0.00000000      0.00000000      0.00000000      0.00000000      0.00000000</v>
  </separator>
  <separator name="performance" >
   <i type="int" name="NPAR">    12</i>
   <i type="int" name="NSIM">     4</i>
   <i type="int" name="NBLK">    -1</i>
   <i type="logical" name="LPLANE"> T  </i>
   <i type="logical" name="LSCALAPACK"> T  </i>
   <i type="logical" name="LSCAAWARE"> F  </i>
   <i type="logical" name="LSCALU"> F  </i>
   <i type="logical" name="LASYNC"> F  </i>
   <i type="logical" name="LORBITALREAL"> F  </i>
  </separator>
  <separator name="miscellaneous" >
   <i type="int" name="IDIOT">     3</i>
   <i type="int" name="ISPECIAL">     0</i>
   <i type="logical" name="LMUSIC"> F  </i>
   <v name="POMASS">     10.81100000     12.01100000</v>
   <v name="DARWINR">      0.00000000      0.00000000</v>
   <v name="DARWINV">      1.00000000      1.00000000</v>
   <i type="logical" name="LCORR"> T  </i>
  </separator>
  <i type="logical" name="GGA_COMPAT"> T  </i>
  <i type="logical" name="LBERRY"> F  </i>
  <i type="int" name="ICORELEVEL">     0</i>
  <i type="logical" name="LDAU"> F  </i>
  <i type="int" name="I_CONSTRAINED_M">     0</i>
  <separator name="electronic exchange-correlation" >
   <i type="string" name="GGA">--</i>
   <i type="int" name="VOSKOWN">     0</i>
   <i type="logical" name="LHFCALC"> F  </i>
   <i type="string" name="PRECFOCK"></i>
   <i type="logical" name="LSYMGRAD"> F  </i>
   <i type="logical" name="LHFONE"> F  </i>
   <i type="logical" name="LRHFCALC"> F  </i>
   <i type="logical" name="LTHOMAS"> F  </i>
   <i type="logical" name="LMODELHF"> F  </i>
   <i name="ENCUT4O">     -1.00000000</i>
   <i type="int" name="EXXOEP">     0</i>
   <i type="int" name="FOURORBIT">     0</i>
   <i name="AEXX">      0.00000000</i>
   <i name="HFALPHA">      0.00000000</i>
   <i name="MCALPHA">      0.00000000</i>
   <i name="ALDAX">      1.00000000</i>
   <i name="AGGAX">      1.00000000</i>
   <i name="ALDAC">      1.00000000</i>
   <i name="AGGAC">      1.00000000</i>
   <i type="int" name="NKREDX">     1</i>
   <i type="int" name="NKREDY">     1</i>
   <i type="int" name="NKREDZ">     1</i>
   <i type="logical" name="SHIFTRED"> F  </i>
   <i type="logical" name="ODDONLY"> F  </i>
   <i type="logical" name="EVENONLY"> F  </i>
   <i type="int" name="LMAXFOCK">     0</i>
   <i type="int" name="NMAXFOCKAE">     0</i>
   <i type="logical" name="LFOCKAEDFT"> F  </i>
   <i name="HFSCREEN">      0.00000000</i>
   <i name="HFSCREENC">      0.00000000</i>
   <i type="int" name="NBANDSGWLOW">     0</i>
  </separator>
  <separator name="vdW DFT" >
   <i type="logical" name="LUSE_VDW"> F  </i>
   <i name="Zab_VDW">     -0.84910000</i>
   <i name="PARAM1">      0.12340000</i>
   <i name="PARAM2">      1.00000000</i>
   <i name="PARAM3">      0.00000000</i>
  </separator>
  <separator name="model GW" >
   <i type="int" name="MODEL_GW">     0</i>
   <i name="MODEL_EPS0">     34.77704100</i>
   <i name="MODEL_ALPHA">      1.00000000</i>
  </separator>
  <separator name="linear response parameters" >
   <i type="logical" name="LEPSILON"> F  </i>
   <i type="logical" name="LRPA"> F  </i>
   <i type="logical" name="LNABLA"> F  </i>
   <i type="logical" name="LVEL"> F  </i>
   <i type="int" name="KINTER">     0</i>
   <i name="CSHIFT">      0.10000000</i>
   <i name="OMEGAMAX">     -1.00000000</i>
   <i name="DEG_THRESHOLD">      0.00200000</i>
   <i name="RTIME">     -0.10000000</i>
   <i name="WPLASMAI">      0.00000000</i>
   <v name="DFIELD">      0.00000000      0.00000000      0.00000000</v>
   <v name="WPLASMA">      0.00000000      0.00000000      0.00000000      0.00000000      0.00000000      0.00000000      0.00000000      0.00000000      0.00000000</v>
  </separator>
  <separator name="orbital magnetization" >
   <i type="logical" name="NUCIND"> F  </i>
   <v name="MAGPOS">      0.00000000      0.00000000      0.00000000</v>
   <i type="logical" name="LNICSALL"> T  </i>
   <i type="logical" name="ORBITALMAG"> F  </i>
   <i type="logical" name="LMAGBLOCH"> F  </i>
   <i type="logical" name="LCHIMAG"> F  </i>
   <i type="logical" name="LGAUGE"> T  </i>
   <i type="int" name="MAGATOM">     0</i>
   <v name="MAGDIPOL">      0.00000000      0.00000000      0.00000000</v>
   <v name="AVECCONST">      0.00000000      0.00000000      0.00000000</v>
  </separator>
  <separator name="response functions" >
   <i type="logical" name="LADDER"> F  </i>
   <i type="logical" name="LRPAFORCE"> F  </i>
   <i type="logical" name="LFXC"> F  </i>
   <i type="logical" name="LHARTREE"> T  </i>
   <i type="int" name="IBSE">     0</i>
   <v type="int" name="KPOINT">    -1     0     0     0</v>
   <i type="logical" name="LTCTE"> F  </i>
   <i type="logical" name="LTETE"> F  </i>
   <i type="logical" name="LTRIPLET"> F  </i>
   <i type="logical" name="LFXCEPS"> F  </i>
   <i type="logical" name="LFXHEG"> F  </i>
   <i type="int" name="NATURALO">     2</i>
   <i type="logical" name="L2ORDER"> F  </i>
   <i type="logical" name="LMP2LT"> F  </i>
   <i type="logical" name="LUSEW"> F  </i>
   <i name="ENCUTGW">     -2.00000000</i>
   <i name="ENCUTGWSOFT">     -2.00000000</i>
   <i name="ENCUTLF">     -1.00000000</i>
   <i type="int" name="LMAXMP2">    -1</i>
   <i name="SCISSOR">      0.00000000</i>
   <i type="int" name="NOMEGA">     0</i>
   <i type="int" name="NOMEGAR">     0</i>
   <i type="int" name="NBANDSGW">    -1</i>
   <i type="int" name="NBANDSO">    -1</i>
   <i type="int" name="NBANDSV">    -1</i>
   <i type="int" name="NELM">     1</i>
   <i type="int" name="NELMHF">     1</i>
   <i type="int" name="DIM">     3</i>
   <i type="int" name="ANTIRES">     0</i>
   <i name="OMEGAMAX">    -30.00000000</i>
   <i name="OMEGAMIN">    -30.00000000</i>
   <i name="OMEGATL">   -200.00000000</i>
   <i type="int" name="OMEGAGRID">   140</i>
   <i name="CSHIFT">     -0.10000000</i>
   <i type="logical" name="SELFENERGY"> F  </i>
   <i type="logical" name="LSPECTRAL"> F  </i>
   <i type="logical" name="LSPECTRALGW"> F  </i>
   <i type="logical" name="LSINGLES"> F  </i>
   <i type="logical" name="LFERMIGW"> F  </i>
   <i type="logical" name="ODDONLYGW"> F  </i>
   <i type="logical" name="EVENONLYGW"> F  </i>
   <i type="int" name="NKREDLFX">     1</i>
   <i type="int" name="NKREDLFY">     1</i>
   <i type="int" name="NKREDLFZ">     1</i>
   <i type="int" name="MAXMEM">  2800</i>
   <i type="int" name="TELESCOPE">     0</i>
   <i type="int" name="TAUPAR">     1</i>
   <i type="int" name="OMEGAPAR">    -1</i>
   <i name="LAMBDA">      1.00000000</i>
  </separator>
  <separator name="External order field" >
   <i name="OFIELD_KAPPA">      0.00000000</i>
   <v name="OFIELD_K">      0.00000000      0.00000000      0.00000000</v>
   <i name="OFIELD_Q6_NEAR">      0.00000000</i>
   <i name="OFIELD_Q6_FAR">      0.00000000</i>
   <i name="OFIELD_A">      0.00000000</i>
  </separator>
 </parameters>
 <atominfo>
  <atoms>       8 </atoms>
  <types>       2 </types>
  <array name="atoms" >
   <dimension dim="1">ion</dimension>
   <field type="string">element</field>
   <field type="int">atomtype</field>
   <set>
    <rc><c>B </c><c>   1</c></rc>
    <rc><c>B </c><c>   1</c></rc>
    <rc><c>C </c><c>   2</c></rc>
    <rc><c>C </c><c>   2</c></rc>
    <rc><c>C </c><c>   2</c></rc>
    <rc><c>C </c><c>   2</c></rc>
    <rc><c>C </c><c>   2</c></rc>
    <rc><c>C </c><c>   2</c></rc>
   </set>
  </array>
  <array name="atomtypes" >
   <dimension dim="1">type</dimension>
   <field type="int">atomspertype</field>
   <field type="string">element</field>
   <field>mass</field>
   <field>valence</field>
   <field type="string">pseudopotential</field>
   <set>
    <rc><c>   2</c><c>B </c><c>     10.81100000</c><c>      3.00000000</c><c>  PAW_PBE B 06Sep2000                   </c></rc>
    <rc><c>   6</c><c>C </c><c>     12.01100000</c><c>      4.00000000</c><c>  PAW_PBE C 08Apr2002                   </c></rc>
   </set>
  </array>
 </atominfo>
 <structure name="initialpos" >
  <crystal>
   <varray name="basis" >
    <v>       5.17400000       0.00000000       0.00000000 </v>
    <v>       2.58700000       4.48100000       0.00000000 </v>
    <v>       0.00000000       0.00000000      20.00000000 </v>
   </varray>
   <i name="volume">    463.69388000 </i>
   <varray name="rec_basis" >
    <v>       0.19327406      -0.11158224       0.00000000 </v>
    <v>       0.00000000       0.22316447       0.00000000 </v>
    <v>       0.00000000       0.00000000       0.05000000 </v>
   </varray>
  </crystal>
  <varray name="positions" >
   <v>       0.17457326       0.17462620       0.00000000 </v>
   <v>       0.50792519       0.50792234       0.00000000 </v>
   <v>       0.00000000       0.00000000       0.00000000 </v>
   <v>       0.52377271       0.00000000       0.00000000 </v>
   <v>       0.68255138       0.15866994       0.00000000 </v>
   <v>       0.99994706       0.52387860       0.00000000 </v>
   <v>       0.15872573       0.68254854       0.00000000 </v>
   <v>       0.68249844       0.68254854       0.00000000 </v>
  </varray>
 </structure>
 <calculation>
  <scstep>
   <time name="dav">    4.30    4.31</time>
   <time name="total">    4.37    4.38</time>
   <energy>
    <i name="alphaZ">     10.93933817 </i>
    <i name="ewald">   4060.05404224 </i>
    <i name="hartreedc">  -4796.78910906 </i>
    <i name="XCdc">     91.14028309 </i>
    <i name="pawpsdc">    738.13200929 </i>
    <i name="pawaedc">   -739.83780425 </i>
    <i name="eentropy">     -0.02387451 </i>
    <i name="bandstr">   -180.21819701 </i>
    <i name="atom">   1025.20389953 </i>
    <i name="e_fr_energy">    208.60058749 </i>
    <i name="e_wo_entrp">    208.62446200 </i>
    <i name="e_0_energy">    208.61252475 </i>
   </energy>
  </scstep>
  <scstep>
   <time name="dav">    6.00    6.01</time>
   <time name="total">    6.00    6.01</time>
   <energy>
    <i name="e_fr_energy">    -39.40396472 </i>
    <i name="e_wo_entrp">    -39.39836706 </i>
    <i name="e_0_energy">    -39.40116589 </i>
   </energy>
  </scstep>
  <scstep>
   <time name="dav">    4.96    4.97</time>
   <time name="total">    4.97    4.97</time>
   <energy>
    <i name="e_fr_energy">    -72.59626185 </i>
    <i name="e_wo_entrp">    -72.59626185 </i>
    <i name="e_0_energy">    -72.59626185 </i>
   </energy>
  </scstep>
  <scstep>
   <time name="dav">    5.41    5.42</time>
   <time name="total">    5.41    5.42</time>
   <energy>
    <i name="e_fr_energy">    -73.41554471 </i>
    <i name="e_wo_entrp">    -73.41554471 </i>
    <i name="e_0_energy">    -73.41554471 </i>
   </energy>
  </scstep>
  <scstep>
   <time name="dav">    5.00    5.02</time>
   <time name="total">    5.20    5.22</time>
   <energy>
    <i name="e_fr_energy">    -73.43719405 </i>
    <i name="e_wo_entrp">    -73.43719405 </i>
    <i name="e_0_energy">    -73.43719405 </i>
   </energy>
  </scstep>
  <scstep>
   <time name="dav">    5.50    5.51</time>
   <time name="total">    5.77    5.78</time>
   <energy>
    <i name="e_fr_energy">    -68.97808899 </i>
    <i name="e_wo_entrp">    -68.97808899 </i>
    <i name="e_0_energy">    -68.97808899 </i>
   </energy>
  </scstep>
  <scstep>
   <time name="dav">    5.57    5.58</time>
   <time name="total">    5.84    5.84</time>
   <energy>
    <i name="e_fr_energy">    -67.33267855 </i>
    <i name="e_wo_entrp">    -67.33267855 </i>
    <i name="e_0_energy">    -67.33267855 </i>
   </energy>
  </scstep>
  <scstep>
   <time name="dav">    5.76    5.77</time>
   <time name="total">    6.03    6.04</time>
   <energy>
    <i name="e_fr_energy">    -67.25329365 </i>
    <i name="e_wo_entrp">    -67.25329364 </i>
    <i name="e_0_energy">    -67.25329364 </i>
   </energy>
  </scstep>
  <scstep>
   <time name="dav">    4.84    4.84</time>
   <time name="total">    5.11    5.11</time>
   <energy>
    <i name="e_fr_energy">    -67.23560578 </i>
    <i name="e_wo_entrp">    -67.23560577 </i>
    <i name="e_0_energy">    -67.23560578 </i>
   </energy>
  </scstep>
  <scstep>
   <time name="dav">    5.01    5.02</time>
   <time name="total">    5.28    5.29</time>
   <energy>
    <i name="e_fr_energy">    -67.22402497 </i>
    <i name="e_wo_entrp">    -67.22402493 </i>
    <i name="e_0_energy">    -67.22402495 </i>
   </energy>
  </scstep>
  <scstep>
   <time name="dav">    4.67    4.67</time>
   <time name="total">    4.94    4.94</time>
   <energy>
    <i name="e_fr_energy">    -67.22316467 </i>
    <i name="e_wo_entrp">    -67.22316461 </i>
    <i name="e_0_energy">    -67.22316464 </i>
   </energy>
  </scstep>
  <scstep>
   <time name="dav">    4.35    4.36</time>
   <time name="total">    4.62    4.63</time>
   <energy>
    <i name="e_fr_energy">    -67.22305234 </i>
    <i name="e_wo_entrp">    -67.22305227 </i>
    <i name="e_0_energy">    -67.22305231 </i>
   </energy>
  </scstep>
  <scstep>
   <time name="dav">    4.22    4.22</time>
   <time name="total">    4.48    4.48</time>
   <energy>
    <i name="e_fr_energy">    -67.22709896 </i>
    <i name="e_wo_entrp">    -67.22709889 </i>
    <i name="e_0_energy">    -67.22709893 </i>
   </energy>
  </scstep>
  <scstep>
   <time name="dav">    4.53    4.54</time>
   <time name="total">    4.80    4.81</time>
   <energy>
    <i name="e_fr_energy">    -67.22975239 </i>
    <i name="e_wo_entrp">    -67.22975232 </i>
    <i name="e_0_energy">    -67.22975235 </i>
   </energy>
  </scstep>
  <scstep>
   <time name="dav">    4.43    4.43</time>
   <time name="total">    4.69    4.70</time>
   <energy>
    <i name="e_fr_energy">    -67.23029255 </i>
    <i name="e_wo_entrp">    -67.23029248 </i>
    <i name="e_0_energy">    -67.23029251 </i>
   </energy>
  </scstep>
  <scstep>
   <time name="dav">    4.20    4.20</time>
   <time name="total">    4.47    4.47</time>
   <energy>
    <i name="e_fr_energy">    -67.23064016 </i>
    <i name="e_wo_entrp">    -67.23064009 </i>
    <i name="e_0_energy">    -67.23064013 </i>
   </energy>
  </scstep>
  <scstep>
   <time name="dav">    4.69    4.70</time>
   <time name="total">    4.96    4.96</time>
   <energy>
    <i name="e_fr_energy">    -67.23069508 </i>
    <i name="e_wo_entrp">    -67.23069501 </i>
    <i name="e_0_energy">    -67.23069504 </i>
   </energy>
  </scstep>
  <scstep>
   <time name="dav">    4.38    4.38</time>
   <time name="total">    4.64    4.65</time>
   <energy>
    <i name="e_fr_energy">    -67.23073402 </i>
    <i name="e_wo_entrp">    -67.23073395 </i>
    <i name="e_0_energy">    -67.23073399 </i>
   </energy>
  </scstep>
  <scstep>
   <time name="dav">    3.81    3.82</time>
   <time name="total">    4.08    4.09</time>
   <energy>
    <i name="e_fr_energy">    -67.23074085 </i>
    <i name="e_wo_entrp">    -67.23074078 </i>
    <i name="e_0_energy">    -67.23074081 </i>
   </energy>
  </scstep>
  <scstep>
   <time name="dav">    3.43    3.43</time>
   <time name="total">    3.70    3.70</time>
   <energy>
    <i name="e_fr_energy">    -67.23075435 </i>
    <i name="e_wo_entrp">    -67.23075428 </i>
    <i name="e_0_energy">    -67.23075431 </i>
   </energy>
  </scstep>
  <scstep>
   <time name="dav">    3.43    3.43</time>
   <time name="total">    3.69    3.70</time>
   <energy>
    <i name="e_fr_energy">    -67.23075606 </i>
    <i name="e_wo_entrp">    -67.23075599 </i>
    <i name="e_0_energy">    -67.23075603 </i>
   </energy>
  </scstep>
  <scstep>
   <time name="dav">    3.44    3.45</time>
   <time name="total">    3.51    3.52</time>
   <energy>
    <i name="alphaZ">     10.93933817 </i>
    <i name="ewald">   4060.05404224 </i>
    <i name="hartreedc">  -4938.56088857 </i>
    <i name="XCdc">     96.01889778 </i>
    <i name="pawpsdc">   2893.51943946 </i>
    <i name="pawaedc">  -2896.04649240 </i>
    <i name="eentropy">     -0.00000007 </i>
    <i name="bandstr">   -318.35899265 </i>
    <i name="atom">   1025.20389953 </i>
    <i name="e_fr_energy">    -67.23075651 </i>
    <i name="e_wo_entrp">    -67.23075644 </i>
    <i name="e_0_energy">    -67.23075648 </i>
   </energy>
  </scstep>
  <structure>
   <crystal>
    <varray name="basis" >
     <v>       5.17400000       0.00000000       0.00000000 </v>
     <v>       2.58700000       4.48100000       0.00000000 </v>
     <v>       0.00000000       0.00000000      20.00000000 </v>
    </varray>
    <i name="volume">    463.69388000 </i>
    <varray name="rec_basis" >
     <v>       0.19327406      -0.11158224       0.00000000 </v>
     <v>       0.00000000       0.22316447       0.00000000 </v>
     <v>       0.00000000       0.00000000       0.05000000 </v>
    </varray>
   </crystal>
   <varray name="positions" >
    <v>       0.17457326       0.17462620       0.00000000 </v>
    <v>       0.50792519       0.50792234       0.00000000 </v>
    <v>       0.00000000       0.00000000       0.00000000 </v>
    <v>       0.52377271       0.00000000       0.00000000 </v>
    <v>       0.68255138       0.15866994       0.00000000 </v>
    <v>       0.99994706       0.52387860       0.00000000 </v>
    <v>       0.15872573       0.68254854       0.00000000 </v>
    <v>       0.68249844       0.68254854       0.00000000 </v>
   </varray>
  </structure>
  <varray name="forces" >
   <v>       0.00000000       0.00449650       0.00000000 </v>
   <v>       0.00000000      -0.00449650       0.00000000 </v>
   <v>      -0.01792549      -0.01154348      -0.00000000 </v>
   <v>       0.01792549      -0.01154348      -0.00000000 </v>
   <v>       0.00000000      -0.00891054       0.00000000 </v>
   <v>       0.00000000       0.00891054       0.00000000 </v>
   <v>      -0.01792549       0.01154348       0.00000000 </v>
   <v>       0.01792549       0.01154348       0.00000000 </v>
  </varray>
  <varray name="stress" >
   <v>      -0.26373911       0.00000000       0.00000000 </v>
   <v>      -0.00000000      -0.31848048       0.00000000 </v>
   <v>       0.00000000       0.00000000      -0.59953564 </v>
  </varray>
  <energy>
   <i name="e_fr_energy">    -67.23075651 </i>
   <i name="e_wo_entrp">    -67.23075648 </i>
   <i name="e_0_energy">     -0.00000007 </i>
  </energy>
  <time name="totalsc">  113.78  114.22</time>
 </calculation>
 <calculation>
  <scstep>
   <time name="dav">    4.49    4.50</time>
   <time name="total">    4.76    4.77</time>
   <energy>
    <i name="alphaZ">     10.96193247 </i>
    <i name="ewald">   4059.23894036 </i>
    <i name="hartreedc">  -4938.66909584 </i>
    <i name="XCdc">     96.08636729 </i>
    <i name="pawpsdc">   2893.52089422 </i>
    <i name="pawaedc">  -2896.04794511 </i>
    <i name="eentropy">     -0.00000010 </i>
    <i name="bandstr">   -317.52596117 </i>
    <i name="atom">   1025.20389953 </i>
    <i name="e_fr_energy">    -67.23096835 </i>
    <i name="e_wo_entrp">    -67.23096825 </i>
    <i name="e_0_energy">    -67.23096830 </i>
   </energy>
  </scstep>
  <scstep>
   <time name="dav">    4.25    4.26</time>
   <time name="total">    4.52    4.53</time>
   <energy>
    <i name="e_fr_energy">    -67.23085320 </i>
    <i name="e_wo_entrp">    -67.23085312 </i>
    <i name="e_0_energy">    -67.23085316 </i>
   </energy>
  </scstep>
  <scstep>
   <time name="dav">    4.48    4.50</time>
   <time name="total">    4.75    4.77</time>
   <energy>
    <i name="e_fr_energy">    -67.23077471 </i>
    <i name="e_wo_entrp">    -67.23077464 </i>
    <i name="e_0_energy">    -67.23077468 </i>
   </energy>
  </scstep>
  <scstep>
   <time name="dav">    4.87    4.87</time>
   <time name="total">    5.14    5.15</time>
   <energy>
    <i name="e_fr_energy">    -67.23077249 </i>
    <i name="e_wo_entrp">    -67.23077242 </i>
    <i name="e_0_energy">    -67.23077245 </i>
   </energy>
  </scstep>
  <scstep>
   <time name="dav">    4.00    4.01</time>
   <time name="total">    4.27    4.28</time>
   <energy>
    <i name="e_fr_energy">    -67.23077572 </i>
    <i name="e_wo_entrp">    -67.23077565 </i>
    <i name="e_0_energy">    -67.23077568 </i>
   </energy>
  </scstep>
  <scstep>
   <time name="dav">    3.99    4.00</time>
   <time name="total">    4.26    4.27</time>
   <energy>
    <i name="e_fr_energy">    -67.23077907 </i>
    <i name="e_wo_entrp">    -67.23077900 </i>
    <i name="e_0_energy">    -67.23077903 </i>
   </energy>
  </scstep>
  <scstep>
   <time name="dav">    4.47    4.49</time>
   <time name="total">    4.74    4.76</time>
   <energy>
    <i name="e_fr_energy">    -67.23078675 </i>
    <i name="e_wo_entrp">    -67.23078668 </i>
    <i name="e_0_energy">    -67.23078672 </i>
   </energy>
  </scstep>
  <scstep>
   <time name="dav">    3.86    3.86</time>
   <time name="total">    4.12    4.13</time>
   <energy>
    <i name="e_fr_energy">    -67.23078950 </i>
    <i name="e_wo_entrp">    -67.23078943 </i>
    <i name="e_0_energy">    -67.23078946 </i>
   </energy>
  </scstep>
  <scstep>
   <time name="dav">    3.75    3.76</time>
   <time name="total">    4.02    4.03</time>
   <energy>
    <i name="e_fr_energy">    -67.23079153 </i>
    <i name="e_wo_entrp">    -67.23079146 </i>
    <i name="e_0_energy">    -67.23079149 </i>
   </energy>
  </scstep>
  <scstep>
   <time name="dav">    3.54    3.55</time>
   <time name="total">    3.81    3.82</time>
   <energy>
    <i name="e_fr_energy">    -67.23079263 </i>
    <i name="e_wo_entrp">    -67.23079256 </i>
    <i name="e_0_energy">    -67.23079260 </i>
   </energy>
  </scstep>
  <scstep>
   <time name="dav">    4.08    4.09</time>
   <time name="total">    4.15    4.15</time>
   <energy>
    <i name="alphaZ">     10.96193247 </i>
    <i name="ewald">   4059.23894036 </i>
    <i name="hartreedc">  -4937.84032165 </i>
    <i name="XCdc">     96.05856697 </i>
    <i name="pawpsdc">   2901.28820824 </i>
    <i name="pawaedc">  -2903.81900029 </i>
    <i name="eentropy">     -0.00000007 </i>
    <i name="bandstr">   -318.32301826 </i>
    <i name="atom">   1025.20389953 </i>
    <i name="e_fr_energy">    -67.23079270 </i>
    <i name="e_wo_entrp">    -67.23079263 </i>
    <i name="e_0_energy">    -67.23079267 </i>
   </energy>
  </scstep>
  <structure>
   <crystal>
    <varray name="basis" >
     <v>       5.17161843       0.00000000       0.00000000 </v>
     <v>       2.58580922       4.47850931       0.00000000 </v>
     <v>       0.00000000       0.00000000      19.97907300 </v>
    </varray>
    <i name="volume">    462.73813266 </i>
    <varray name="rec_basis" >
     <v>       0.19336307      -0.11164429       0.00000000 </v>
     <v>      -0.00000000       0.22328858       0.00000000 </v>
     <v>       0.00000000       0.00000000       0.05005237 </v>
    </varray>
   </crystal>
   <varray name="positions" >
    <v>       0.17454905       0.17467461       0.00000000 </v>
    <v>       0.50794939       0.50787393       0.00000000 </v>
    <v>      -0.00010500      -0.00012428      -0.00000000 </v>
    <v>       0.52400199      -0.00012428      -0.00000000 </v>
    <v>       0.68259935       0.15857401       0.00000000 </v>
    <v>       0.99989909       0.52397453       0.00000000 </v>
    <v>       0.15849645       0.68267282       0.00000000 </v>
    <v>       0.68260344       0.68267282       0.00000000 </v>
   </varray>
  </structure>
  <varray name="forces" >
   <v>      -0.00000000      -0.01788608      -0.00000000 </v>
   <v>       0.00000000       0.01788608      -0.00000000 </v>
   <v>       0.04002035       0.03986169       0.00000000 </v>
   <v>      -0.04002035       0.03986169      -0.00000000 </v>
   <v>       0.00000000       0.02712031      -0.00000000 </v>
   <v>       0.00000000      -0.02712031      -0.00000000 </v>
   <v>       0.04002035      -0.03986169      -0.00000000 </v>
   <v>      -0.04002035      -0.03986169      -0.00000000 </v>
  </varray>
  <varray name="stress" >
   <v>       0.64626975      -0.00000000       0.00000000 </v>
   <v>       0.00000000       0.83068406       0.00000000 </v>
   <v>       0.00000000       0.00000000      -0.58478299 </v>
  </varray>
  <energy>
   <i name="e_fr_energy">    -67.23079270 </i>
   <i name="e_wo_entrp">    -67.23079267 </i>
   <i name="e_0_energy">     -0.00000007 </i>
  </energy>
  <time name="totalsc">   54.89   55.07</time>
 </calculation>
 <calculation>
  <scstep>
   <time name="dav">    4.28    4.29</time>
   <time name="total">    4.56    4.57</time>
   <energy>
    <i name="alphaZ">     10.95171967 </i>
    <i name="ewald">   4059.60725821 </i>
    <i name="hartreedc">  -4937.79017674 </i>
    <i name="XCdc">     96.02808271 </i>
    <i name="pawpsdc">   2901.28643799 </i>
    <i name="pawaedc">  -2903.81722658 </i>
    <i name="eentropy">     -0.00000006 </i>
    <i name="bandstr">   -318.70089179 </i>
    <i name="atom">   1025.20389953 </i>
    <i name="e_fr_energy">    -67.23089706 </i>
    <i name="e_wo_entrp">    -67.23089700 </i>
    <i name="e_0_energy">    -67.23089703 </i>
   </energy>
  </scstep>
  <scstep>
   <time name="dav">    4.21    4.21</time>
   <time name="total">    4.48    4.48</time>
   <energy>
    <i name="e_fr_energy">    -67.23087301 </i>
    <i name="e_wo_entrp">    -67.23087295 </i>
    <i name="e_0_energy">    -67.23087298 </i>
   </energy>
  </scstep>
  <scstep>
   <time name="dav">    4.56    4.57</time>
   <time name="total">    4.82    4.83</time>
   <energy>
    <i name="e_fr_energy">    -67.23085630 </i>
    <i name="e_wo_entrp">    -67.23085623 </i>
    <i name="e_0_energy">    -67.23085626 </i>
   </energy>
  </scstep>
  <scstep>
   <time name="dav">    4.17    4.17</time>
   <time name="total">    4.44    4.44</time>
   <energy>
    <i name="e_fr_energy">    -67.23085515 </i>
    <i name="e_wo_entrp">    -67.23085509 </i>
    <i name="e_0_energy">    -67.23085512 </i>
   </energy>
  </scstep>
  <scstep>
   <time name="dav">    4.07    4.08</time>
   <time name="total">    4.13    4.14</time>
   <energy>
    <i name="alphaZ">     10.95171967 </i>
    <i name="ewald">   4059.60725821 </i>
    <i name="hartreedc">  -4938.11390778 </i>
    <i name="XCdc">     96.04018223 </i>
    <i name="pawpsdc">   2897.79491493 </i>
    <i name="pawaedc">  -2900.32401352 </i>
    <i name="eentropy">     -0.00000007 </i>
    <i name="bandstr">   -318.39090786 </i>
    <i name="atom">   1025.20389953 </i>
    <i name="e_fr_energy">    -67.23085466 </i>
    <i name="e_wo_entrp">    -67.23085459 </i>
    <i name="e_0_energy">    -67.23085462 </i>
   </energy>
  </scstep>
  <structure>
   <crystal>
    <varray name="basis" >
     <v>       5.17269408       0.00000000       0.00000000 </v>
     <v>       2.58634704       4.47963424       0.00000000 </v>
     <v>       0.00000000       0.00000000      19.98852479 </v>
    </varray>
    <i name="volume">    463.16964951 </i>
    <varray name="rec_basis" >
     <v>       0.19332286      -0.11161626       0.00000000 </v>
     <v>      -0.00000000       0.22323251       0.00000000 </v>
     <v>       0.00000000       0.00000000       0.05002870 </v>
    </varray>
   </crystal>
   <varray name="positions" >
    <v>       0.17455999       0.17465273       0.00000000 </v>
    <v>       0.50793845       0.50789581       0.00000000 </v>
    <v>      -0.00005756      -0.00006812      -0.00000000 </v>
    <v>       0.52389838      -0.00006812      -0.00000000 </v>
    <v>       0.68257767       0.15861736       0.00000000 </v>
    <v>       0.99992077       0.52393118       0.00000000 </v>
    <v>       0.15860006       0.68261665       0.00000000 </v>
    <v>       0.68255600       0.68261665       0.00000000 </v>
   </varray>
  </structure>
  <varray name="forces" >
   <v>      -0.00000000      -0.00782772       0.00000000 </v>
   <v>      -0.00000000       0.00782772       0.00000000 </v>
   <v>       0.01371346       0.01647615       0.00000000 </v>
   <v>      -0.01371346       0.01647615       0.00000000 </v>
   <v>      -0.00000000       0.01067018       0.00000000 </v>
   <v>      -0.00000000      -0.01067018       0.00000000 </v>
   <v>       0.01371346      -0.01647615      -0.00000000 </v>
   <v>      -0.01371346      -0.01647615      -0.00000000 </v>
  </varray>
  <varray name="stress" >
   <v>       0.23399493       0.00000000       0.00000000 </v>
   <v>       0.00000000       0.30996938       0.00000000 </v>
   <v>       0.00000000       0.00000000      -0.57351953 </v>
  </varray>
  <energy>
   <i name="e_fr_energy">    -67.23085466 </i>
   <i name="e_wo_entrp">    -67.23085462 </i>
   <i name="e_0_energy">     -0.00000007 </i>
  </energy>
  <time name="totalsc">   28.81   28.94</time>
 </calculation>
 <calculation>
  <scstep>
   <time name="dav">    4.76    4.77</time>
   <time name="total">    5.03    5.04</time>
   <energy>
    <i name="alphaZ">     10.96266603 </i>
    <i name="ewald">   4053.91584207 </i>
    <i name="hartreedc">  -4933.45048547 </i>
    <i name="XCdc">     96.07044735 </i>
    <i name="pawpsdc">   2897.80097938 </i>
    <i name="pawaedc">  -2900.33006337 </i>
    <i name="eentropy">     -0.00000011 </i>
    <i name="bandstr">   -317.40455646 </i>
    <i name="atom">   1025.20389953 </i>
    <i name="e_fr_energy">    -67.23127105 </i>
    <i name="e_wo_entrp">    -67.23127095 </i>
    <i name="e_0_energy">    -67.23127100 </i>
   </energy>
  </scstep>
  <scstep>
   <time name="dav">    4.29    4.29</time>
   <time name="total">    4.56    4.57</time>
   <energy>
    <i name="e_fr_energy">    -67.23110100 </i>
    <i name="e_wo_entrp">    -67.23110091 </i>
    <i name="e_0_energy">    -67.23110096 </i>
   </energy>
  </scstep>
  <scstep>
   <time name="dav">    4.22    4.22</time>
   <time name="total">    4.49    4.49</time>
   <energy>
    <i name="e_fr_energy">    -67.23100992 </i>
    <i name="e_wo_entrp">    -67.23100985 </i>
    <i name="e_0_energy">    -67.23100988 </i>
   </energy>
  </scstep>
  <scstep>
   <time name="dav">    4.83    4.84</time>
   <time name="total">    5.10    5.11</time>
   <energy>
    <i name="e_fr_energy">    -67.23100879 </i>
    <i name="e_wo_entrp">    -67.23100872 </i>
    <i name="e_0_energy">    -67.23100875 </i>
   </energy>
  </scstep>
  <scstep>
   <time name="dav">    4.29    4.29</time>
   <time name="total">    4.55    4.56</time>
   <energy>
    <i name="e_fr_energy">    -67.23100715 </i>
    <i name="e_wo_entrp">    -67.23100708 </i>
    <i name="e_0_energy">    -67.23100712 </i>
   </energy>
  </scstep>
  <scstep>
   <time name="dav">    4.01    4.01</time>
   <time name="total">    4.28    4.28</time>
   <energy>
    <i name="e_fr_energy">    -67.23101318 </i>
    <i name="e_wo_entrp">    -67.23101311 </i>
    <i name="e_0_energy">    -67.23101314 </i>
   </energy>
  </scstep>
  <scstep>
   <time name="dav">    3.89    3.89</time>
   <time name="total">    4.16    4.17</time>
   <energy>
    <i name="e_fr_energy">    -67.23101695 </i>
    <i name="e_wo_entrp">    -67.23101688 </i>
    <i name="e_0_energy">    -67.23101692 </i>
   </energy>
  </scstep>
  <scstep>
   <time name="dav">    4.38    4.39</time>
   <time name="total">    4.65    4.66</time>
   <energy>
    <i name="e_fr_energy">    -67.23102396 </i>
    <i name="e_wo_entrp">    -67.23102389 </i>
    <i name="e_0_energy">    -67.23102393 </i>
   </energy>
  </scstep>
  <scstep>
   <time name="dav">    3.61    3.61</time>
   <time name="total">    3.88    3.88</time>
   <energy>
    <i name="e_fr_energy">    -67.23102564 </i>
    <i name="e_wo_entrp">    -67.23102557 </i>
    <i name="e_0_energy">    -67.23102561 </i>
   </energy>
  </scstep>
  <scstep>
   <time name="dav">    3.57    3.58</time>
   <time name="total">    3.63    3.64</time>
   <energy>
    <i name="alphaZ">     10.96266603 </i>
    <i name="ewald">   4053.91584207 </i>
    <i name="hartreedc">  -4932.52833470 </i>
    <i name="XCdc">     96.04100888 </i>
    <i name="pawpsdc">   2897.64344016 </i>
    <i name="pawaedc">  -2900.17270701 </i>
    <i name="eentropy">     -0.00000007 </i>
    <i name="bandstr">   -318.29684136 </i>
    <i name="atom">   1025.20389953 </i>
    <i name="e_fr_energy">    -67.23102647 </i>
    <i name="e_wo_entrp">    -67.23102640 </i>
    <i name="e_0_energy">    -67.23102644 </i>
   </energy>
  </scstep>
  <structure>
   <crystal>
    <varray name="basis" >
     <v>       5.17260514       0.00000000       0.00000000 </v>
     <v>       2.58630257       4.47964618       0.00000000 </v>
     <v>       0.00000000       0.00000000      19.96885616 </v>
    </varray>
    <i name="volume">    462.70716883 </i>
    <varray name="rec_basis" >
     <v>       0.19332618      -0.11161596       0.00000000 </v>
     <v>      -0.00000000       0.22323192       0.00000000 </v>
     <v>       0.00000000       0.00000000       0.05007798 </v>
    </varray>
   </crystal>
   <varray name="positions" >
    <v>       0.17456923       0.17463425       0.00000000 </v>
    <v>       0.50792921       0.50791429       0.00000000 </v>
    <v>      -0.00008791      -0.00003978      -0.00000000 </v>
    <v>       0.52390039      -0.00003978      -0.00000000 </v>
    <v>       0.68257214       0.15862842       0.00000000 </v>
    <v>       0.99992630       0.52392012       0.00000000 </v>
    <v>       0.15859805       0.68258832       0.00000000 </v>
    <v>       0.68258635       0.68258832       0.00000000 </v>
   </varray>
  </structure>
  <varray name="forces" >
   <v>       0.00000000      -0.00512194       0.00000000 </v>
   <v>      -0.00000000       0.00512194       0.00000000 </v>
   <v>       0.01746310       0.00454641       0.00000000 </v>
   <v>      -0.01746310       0.00454641      -0.00000000 </v>
   <v>       0.00000000       0.01498469       0.00000000 </v>
   <v>      -0.00000000      -0.01498469      -0.00000000 </v>
   <v>       0.01746310      -0.00454641       0.00000000 </v>
   <v>      -0.01746310      -0.00454641       0.00000000 </v>
  </varray>
  <varray name="stress" >
   <v>       0.30233519       0.00000000       0.00000000 </v>
   <v>       0.00000000       0.26960638       0.00000000 </v>
   <v>       0.00000000       0.00000000      -0.58096189 </v>
  </varray>
  <energy>
   <i name="e_fr_energy">    -67.23102647 </i>
   <i name="e_wo_entrp">    -67.23102644 </i>
   <i name="e_0_energy">     -0.00000007 </i>
  </energy>
  <time name="totalsc">   50.70   50.83</time>
 </calculation>
 <calculation>
  <scstep>
   <time name="dav">    4.78    4.79</time>
   <time name="total">    5.05    5.05</time>
   <energy>
    <i name="alphaZ">     10.99563490 </i>
    <i name="ewald">   4036.84082021 </i>
    <i name="hartreedc">  -4918.50387137 </i>
    <i name="XCdc">     96.13164846 </i>
    <i name="pawpsdc">   2897.63478397 </i>
    <i name="pawaedc">  -2900.16405619 </i>
    <i name="eentropy">     -0.00000026 </i>
    <i name="bandstr">   -315.37258981 </i>
    <i name="atom">   1025.20389953 </i>
    <i name="e_fr_energy">    -67.23373058 </i>
    <i name="e_wo_entrp">    -67.23373031 </i>
    <i name="e_0_energy">    -67.23373044 </i>
   </energy>
  </scstep>
  <scstep>
   <time name="dav">    4.41    4.41</time>
   <time name="total">    4.67    4.68</time>
   <energy>
    <i name="e_fr_energy">    -67.23211523 </i>
    <i name="e_wo_entrp">    -67.23211509 </i>
    <i name="e_0_energy">    -67.23211516 </i>
   </energy>
  </scstep>
  <scstep>
   <time name="dav">    4.83    4.84</time>
   <time name="total">    5.10    5.11</time>
   <energy>
    <i name="e_fr_energy">    -67.23131986 </i>
    <i name="e_wo_entrp">    -67.23131978 </i>
    <i name="e_0_energy">    -67.23131982 </i>
   </energy>
  </scstep>
  <scstep>
   <time name="dav">    4.70    4.71</time>
   <time name="total">    4.97    4.98</time>
   <energy>
    <i name="e_fr_energy">    -67.23132483 </i>
    <i name="e_wo_entrp">    -67.23132475 </i>
    <i name="e_0_energy">    -67.23132479 </i>
   </energy>
  </scstep>
  <scstep>
   <time name="dav">    4.75    4.76</time>
   <time name="total">    5.02    5.03</time>
   <energy>
    <i name="e_fr_energy">    -67.23133006 </i>
    <i name="e_wo_entrp">    -67.23132999 </i>
    <i name="e_0_energy">    -67.23133002 </i>
   </energy>
  </scstep>
  <scstep>
   <time name="dav">    4.81    4.82</time>
   <time name="total">    5.08    5.08</time>
   <energy>
    <i name="e_fr_energy">    -67.23138152 </i>
    <i name="e_wo_entrp">    -67.23138145 </i>
    <i name="e_0_energy">    -67.23138148 </i>
   </energy>
  </scstep>
  <scstep>
   <time name="dav">    4.73    4.74</time>
   <time name="total">    4.99    5.01</time>
   <energy>
    <i name="e_fr_energy">    -67.23140818 </i>
    <i name="e_wo_entrp">    -67.23140811 </i>
    <i name="e_0_energy">    -67.23140815 </i>
   </energy>
  </scstep>
  <scstep>
   <time name="dav">    4.62    4.65</time>
   <time name="total">    4.89    4.92</time>
   <energy>
    <i name="e_fr_energy">    -67.23144815 </i>
    <i name="e_wo_entrp">    -67.23144808 </i>
    <i name="e_0_energy">    -67.23144811 </i>
   </energy>
  </scstep>
  <scstep>
   <time name="dav">    4.35    4.36</time>
   <time name="total">    4.62    4.63</time>
   <energy>
    <i name="e_fr_energy">    -67.23145934 </i>
    <i name="e_wo_entrp">    -67.23145927 </i>
    <i name="e_0_energy">    -67.23145930 </i>
   </energy>
  </scstep>
  <scstep>
   <time name="dav">    3.66    3.66</time>
   <time name="total">    3.92    3.93</time>
   <energy>
    <i name="e_fr_energy">    -67.23146350 </i>
    <i name="e_wo_entrp">    -67.23146342 </i>
    <i name="e_0_energy">    -67.23146346 </i>
   </energy>
  </scstep>
  <scstep>
   <time name="dav">    3.59    3.59</time>
   <time name="total">    3.85    3.87</time>
   <energy>
    <i name="e_fr_energy">    -67.23146480 </i>
    <i name="e_wo_entrp">    -67.23146473 </i>
    <i name="e_0_energy">    -67.23146477 </i>
   </energy>
  </scstep>
  <scstep>
   <time name="dav">    3.82    3.82</time>
   <time name="total">    3.88    3.89</time>
   <energy>
    <i name="alphaZ">     10.99563490 </i>
    <i name="ewald">   4036.84082021 </i>
    <i name="hartreedc">  -4915.60526855 </i>
    <i name="XCdc">     96.04212381 </i>
    <i name="pawpsdc">   2897.27513976 </i>
    <i name="pawaedc">  -2899.80486412 </i>
    <i name="eentropy">     -0.00000007 </i>
    <i name="bandstr">   -318.17895048 </i>
    <i name="atom">   1025.20389953 </i>
    <i name="e_fr_energy">    -67.23146501 </i>
    <i name="e_wo_entrp">    -67.23146494 </i>
    <i name="e_0_energy">    -67.23146498 </i>
   </energy>
  </scstep>
  <structure>
   <crystal>
    <varray name="basis" >
     <v>       5.17233832       0.00000000       0.00000000 </v>
     <v>       2.58616916       4.47968197       0.00000000 </v>
     <v>       0.00000000       0.00000000      19.90985026 </v>
    </varray>
    <i name="volume">    461.31980602 </i>
    <varray name="rec_basis" >
     <v>       0.19333615      -0.11161507       0.00000000 </v>
     <v>      -0.00000000       0.22323013       0.00000000 </v>
     <v>       0.00000000       0.00000000       0.05022639 </v>
    </varray>
   </crystal>
   <varray name="positions" >
    <v>       0.17459695       0.17457880       0.00000000 </v>
    <v>       0.50790149       0.50796974       0.00000000 </v>
    <v>      -0.00017895       0.00004524      -0.00000000 </v>
    <v>       0.52390642       0.00004524      -0.00000000 </v>
    <v>       0.68255555       0.15866160       0.00000000 </v>
    <v>       0.99994289       0.52388693       0.00000000 </v>
    <v>       0.15859202       0.68250330       0.00000000 </v>
    <v>       0.68267739       0.68250330       0.00000000 </v>
   </varray>
  </structure>
  <varray name="forces" >
   <v>       0.00000000       0.00280621       0.00000000 </v>
   <v>       0.00000000      -0.00280621      -0.00000000 </v>
   <v>       0.02841619      -0.03149031       0.00000000 </v>
   <v>      -0.02841619      -0.03149031      -0.00000000 </v>
   <v>       0.00000000       0.02750001      -0.00000000 </v>
   <v>       0.00000000      -0.02750001      -0.00000000 </v>
   <v>       0.02841619       0.03149031      -0.00000000 </v>
   <v>      -0.02841619       0.03149031      -0.00000000 </v>
  </varray>
  <varray name="stress" >
   <v>       0.50830823      -0.00000000       0.00000000 </v>
   <v>       0.00000000       0.14934232       0.00000000 </v>
   <v>       0.00000000       0.00000000      -0.54868984 </v>
  </varray>
  <energy>
   <i name="e_fr_energy">    -67.23146501 </i>
   <i name="e_wo_entrp">    -67.23146498 </i>
   <i name="e_0_energy">     -0.00000007 </i>
  </energy>
  <time name="totalsc">   62.42   62.64</time>
 </calculation>
 <calculation>
  <scstep>
   <time name="dav">    4.69    4.70</time>
   <time name="total">    4.96    4.97</time>
   <energy>
    <i name="alphaZ">     11.06216255 </i>
    <i name="ewald">   4002.68729570 </i>
    <i name="hartreedc">  -4887.57326902 </i>
    <i name="XCdc">     96.22427278 </i>
    <i name="pawpsdc">   2897.28129022 </i>
    <i name="pawaedc">  -2899.81102349 </i>
    <i name="eentropy">     -0.00000108 </i>
    <i name="bandstr">   -312.31580617 </i>
    <i name="atom">   1025.20389953 </i>
    <i name="e_fr_energy">    -67.24117898 </i>
    <i name="e_wo_entrp">    -67.24117790 </i>
    <i name="e_0_energy">    -67.24117844 </i>
   </energy>
  </scstep>
  <scstep>
   <time name="dav">    4.40    4.40</time>
   <time name="total">    4.67    4.67</time>
   <energy>
    <i name="e_fr_energy">    -67.23469562 </i>
    <i name="e_wo_entrp">    -67.23469527 </i>
    <i name="e_0_energy">    -67.23469545 </i>
   </energy>
  </scstep>
  <scstep>
   <time name="dav">    4.87    4.88</time>
   <time name="total">    5.14    5.15</time>
   <energy>
    <i name="e_fr_energy">    -67.23165138 </i>
    <i name="e_wo_entrp">    -67.23165128 </i>
    <i name="e_0_energy">    -67.23165133 </i>
   </energy>
  </scstep>
  <scstep>
   <time name="dav">    4.64    4.65</time>
   <time name="total">    4.91    4.92</time>
   <energy>
    <i name="e_fr_energy">    -67.23166968 </i>
    <i name="e_wo_entrp">    -67.23166957 </i>
    <i name="e_0_energy">    -67.23166962 </i>
   </energy>
  </scstep>
  <scstep>
   <time name="dav">    4.82    4.83</time>
   <time name="total">    5.09    5.10</time>
   <energy>
    <i name="e_fr_energy">    -67.23167068 </i>
    <i name="e_wo_entrp">    -67.23167058 </i>
    <i name="e_0_energy">    -67.23167063 </i>
   </energy>
  </scstep>
  <scstep>
   <time name="dav">    4.64    4.65</time>
   <time name="total">    4.91    4.92</time>
   <energy>
    <i name="e_fr_energy">    -67.23184581 </i>
    <i name="e_wo_entrp">    -67.23184572 </i>
    <i name="e_0_energy">    -67.23184576 </i>
   </energy>
  </scstep>
  <scstep>
   <time name="dav">    4.74    4.75</time>
   <time name="total">    5.00    5.01</time>
   <energy>
    <i name="e_fr_energy">    -67.23191402 </i>
    <i name="e_wo_entrp">    -67.23191393 </i>
    <i name="e_0_energy">    -67.23191397 </i>
   </energy>
  </scstep>
  <scstep>
   <time name="dav">    4.54    4.56</time>
   <time name="total">    4.80    4.82</time>
   <energy>
    <i name="e_fr_energy">    -67.23201392 </i>
    <i name="e_wo_entrp">    -67.23201383 </i>
    <i name="e_0_energy">    -67.23201388 </i>
   </energy>
  </scstep>
  <scstep>
   <time name="dav">    4.52    4.52</time>
   <time name="total">    4.78    4.79</time>
   <energy>
    <i name="e_fr_energy">    -67.23204016 </i>
    <i name="e_wo_entrp">    -67.23204007 </i>
    <i name="e_0_energy">    -67.23204012 </i>
   </energy>
  </scstep>
  <scstep>
   <time name="dav">    3.66    3.66</time>
   <time name="total">    3.93    3.93</time>
   <energy>
    <i name="e_fr_energy">    -67.23205074 </i>
    <i name="e_wo_entrp">    -67.23205065 </i>
    <i name="e_0_energy">    -67.23205069 </i>
   </energy>
  </scstep>
  <scstep>
   <time name="dav">    3.64    3.65</time>
   <time name="total">    3.90    3.92</time>
   <energy>
    <i name="e_fr_energy">    -67.23205448 </i>
    <i name="e_wo_entrp">    -67.23205439 </i>
    <i name="e_0_energy">    -67.23205443 </i>
   </energy>
  </scstep>
  <scstep>
   <time name="dav">    3.63    3.64</time>
   <time name="total">    3.89    3.90</time>
   <energy>
    <i name="e_fr_energy">    -67.23205550 </i>
    <i name="e_wo_entrp">    -67.23205541 </i>
    <i name="e_0_energy">    -67.23205546 </i>
   </energy>
  </scstep>
  <scstep>
   <time name="dav">    3.43    3.44</time>
   <time name="total">    3.50    3.50</time>
   <energy>
    <i name="alphaZ">     11.06216255 </i>
    <i name="ewald">   4002.68729570 </i>
    <i name="hartreedc">  -4881.75974009 </i>
    <i name="XCdc">     96.04441808 </i>
    <i name="pawpsdc">   2896.55579563 </i>
    <i name="pawaedc">  -2899.08643970 </i>
    <i name="eentropy">     -0.00000009 </i>
    <i name="bandstr">   -317.93944720 </i>
    <i name="atom">   1025.20389953 </i>
    <i name="e_fr_energy">    -67.23205559 </i>
    <i name="e_wo_entrp">    -67.23205551 </i>
    <i name="e_0_energy">    -67.23205555 </i>
   </energy>
  </scstep>
  <structure>
   <crystal>
    <varray name="basis" >
     <v>       5.17180467       0.00000000       0.00000000 </v>
     <v>       2.58590234       4.47975357       0.00000000 </v>
     <v>       0.00000000       0.00000000      19.79183847 </v>
    </varray>
    <i name="volume">    458.54543688 </i>
    <varray name="rec_basis" >
     <v>       0.19335610      -0.11161328       0.00000000 </v>
     <v>      -0.00000000       0.22322656       0.00000000 </v>
     <v>       0.00000000       0.00000000       0.05052588 </v>
    </varray>
   </crystal>
   <varray name="positions" >
    <v>       0.17465240       0.17446790       0.00000000 </v>
    <v>       0.50784604       0.50808064       0.00000000 </v>
    <v>      -0.00036105       0.00021527      -0.00000000 </v>
    <v>       0.52391849       0.00021527      -0.00000000 </v>
    <v>       0.68252237       0.15872797       0.00000000 </v>
    <v>       0.99997607       0.52382057       0.00000000 </v>
    <v>       0.15857995       0.68233327       0.00000000 </v>
    <v>       0.68285949       0.68233327       0.00000000 </v>
   </varray>
  </structure>
  <varray name="forces" >
   <v>       0.00000000       0.01867381      -0.00000000 </v>
   <v>       0.00000000      -0.01867381       0.00000000 </v>
   <v>       0.05045830      -0.10320203       0.00000000 </v>
   <v>      -0.05045830      -0.10320203      -0.00000000 </v>
   <v>       0.00000000       0.05270653      -0.00000000 </v>
   <v>       0.00000000      -0.05270653      -0.00000000 </v>
   <v>       0.05045830       0.10320203       0.00000000 </v>
   <v>      -0.05045830       0.10320203      -0.00000000 </v>
  </varray>
  <varray name="stress" >
   <v>       0.92325567       0.00000000       0.00000000 </v>
   <v>       0.00000000      -0.09268796       0.00000000 </v>
   <v>       0.00000000       0.00000000      -0.48873360 </v>
  </varray>
  <energy>
   <i name="e_fr_energy">    -67.23205559 </i>
   <i name="e_wo_entrp">    -67.23205555 </i>
   <i name="e_0_energy">     -0.00000009 </i>
  </energy>
  <time name="totalsc">   65.84   66.06</time>
 </calculation>
 <calculation>
  <scstep>
   <time name="dav">    4.65    4.66</time>
   <time name="total">    4.92    4.93</time>
   <energy>
    <i name="alphaZ">     11.19762728 </i>
    <i name="ewald">   3934.36630942 </i>
    <i name="hartreedc">  -4825.75476687 </i>
    <i name="XCdc">     96.41229100 </i>
    <i name="pawpsdc">   2896.55760128 </i>
    <i name="pawaedc">  -2899.08824224 </i>
    <i name="eentropy">     -0.00001499 </i>
    <i name="bandstr">   -306.16385658 </i>
    <i name="atom">   1025.20389953 </i>
    <i name="e_fr_energy">    -67.26915218 </i>
    <i name="e_wo_entrp">    -67.26913718 </i>
    <i name="e_0_energy">    -67.26914468 </i>
   </energy>
  </scstep>
  <scstep>
   <time name="dav">    4.62    4.64</time>
   <time name="total">    4.89    4.90</time>
   <energy>
    <i name="e_fr_energy">    -67.24293020 </i>
    <i name="e_wo_entrp">    -67.24292808 </i>
    <i name="e_0_energy">    -67.24292914 </i>
   </energy>
  </scstep>
  <scstep>
   <time name="dav">    4.71    4.72</time>
   <time name="total">    4.98    4.99</time>
   <energy>
    <i name="e_fr_energy">    -67.23132036 </i>
    <i name="e_wo_entrp">    -67.23132014 </i>
    <i name="e_0_energy">    -67.23132025 </i>
   </energy>
  </scstep>
  <scstep>
   <time name="dav">    4.85    4.86</time>
   <time name="total">    5.12    5.13</time>
   <energy>
    <i name="e_fr_energy">    -67.23131349 </i>
    <i name="e_wo_entrp">    -67.23131324 </i>
    <i name="e_0_energy">    -67.23131336 </i>
   </energy>
  </scstep>
  <scstep>
   <time name="dav">    4.62    4.63</time>
   <time name="total">    4.89    4.89</time>
   <energy>
    <i name="e_fr_energy">    -67.23131176 </i>
    <i name="e_wo_entrp">    -67.23131157 </i>
    <i name="e_0_energy">    -67.23131167 </i>
   </energy>
  </scstep>
  <scstep>
   <time name="dav">    4.51    4.52</time>
   <time name="total">    4.77    4.78</time>
   <energy>
    <i name="e_fr_energy">    -67.23165049 </i>
    <i name="e_wo_entrp">    -67.23165030 </i>
    <i name="e_0_energy">    -67.23165039 </i>
   </energy>
  </scstep>
  <scstep>
   <time name="dav">    4.70    4.72</time>
   <time name="total">    4.97    4.99</time>
   <energy>
    <i name="e_fr_energy">    -67.23183088 </i>
    <i name="e_wo_entrp">    -67.23183070 </i>
    <i name="e_0_energy">    -67.23183079 </i>
   </energy>
  </scstep>
  <scstep>
   <time name="dav">    4.59    4.60</time>
   <time name="total">    4.86    4.87</time>
   <energy>
    <i name="e_fr_energy">    -67.23204081 </i>
    <i name="e_wo_entrp">    -67.23204064 </i>
    <i name="e_0_energy">    -67.23204073 </i>
   </energy>
  </scstep>
  <scstep>
   <time name="dav">    4.42    4.42</time>
   <time name="total">    4.68    4.69</time>
   <energy>
    <i name="e_fr_energy">    -67.23209550 </i>
    <i name="e_wo_entrp">    -67.23209533 </i>
    <i name="e_0_energy">    -67.23209541 </i>
   </energy>
  </scstep>
  <scstep>
   <time name="dav">    4.36    4.37</time>
   <time name="total">    4.63    4.64</time>
   <energy>
    <i name="e_fr_energy">    -67.23211943 </i>
    <i name="e_wo_entrp">    -67.23211926 </i>
    <i name="e_0_energy">    -67.23211934 </i>
   </energy>
  </scstep>
  <scstep>
   <time name="dav">    3.53    3.54</time>
   <time name="total">    3.80    3.81</time>
   <energy>
    <i name="e_fr_energy">    -67.23212761 </i>
    <i name="e_wo_entrp">    -67.23212743 </i>
    <i name="e_0_energy">    -67.23212752 </i>
   </energy>
  </scstep>
  <scstep>
   <time name="dav">    3.49    3.49</time>
   <time name="total">    3.75    3.76</time>
   <energy>
    <i name="e_fr_energy">    -67.23213082 </i>
    <i name="e_wo_entrp">    -67.23213065 </i>
    <i name="e_0_energy">    -67.23213073 </i>
   </energy>
  </scstep>
  <scstep>
   <time name="dav">    3.83    3.85</time>
   <time name="total">    3.89    3.91</time>
   <energy>
    <i name="alphaZ">     11.19762728 </i>
    <i name="ewald">   3934.36630942 </i>
    <i name="hartreedc">  -4814.06731998 </i>
    <i name="XCdc">     96.04905133 </i>
    <i name="pawpsdc">   2895.18761670 </i>
    <i name="pawaedc">  -2897.71992048 </i>
    <i name="eentropy">     -0.00000017 </i>
    <i name="bandstr">   -317.44939526 </i>
    <i name="atom">   1025.20389953 </i>
    <i name="e_fr_energy">    -67.23213163 </i>
    <i name="e_wo_entrp">    -67.23213146 </i>
    <i name="e_0_energy">    -67.23213154 </i>
   </energy>
  </scstep>
  <structure>
   <crystal>
    <varray name="basis" >
     <v>       5.17073739       0.00000000       0.00000000 </v>
     <v>       2.58536869       4.47989676       0.00000000 </v>
     <v>       0.00000000       0.00000000      19.55581488 </v>
    </varray>
    <i name="volume">    452.99812463 </i>
    <varray name="rec_basis" >
     <v>       0.19339601      -0.11160971       0.00000000 </v>
     <v>      -0.00000000       0.22321943       0.00000000 </v>
     <v>       0.00000000       0.00000000       0.05113569 </v>
    </varray>
   </crystal>
   <varray name="positions" >
    <v>       0.17476330       0.17424611       0.00000000 </v>
    <v>       0.50773514       0.50830243       0.00000000 </v>
    <v>      -0.00072527       0.00055532      -0.00000000 </v>
    <v>       0.52394265       0.00055532      -0.00000000 </v>
    <v>       0.68245601       0.15886069       0.00000000 </v>
    <v>       0.00004243       0.52368784       0.00000000 </v>
    <v>       0.15855579       0.68199321       0.00000000 </v>
    <v>       0.68322371       0.68199321       0.00000000 </v>
   </varray>
  </structure>
  <varray name="forces" >
   <v>       0.00000000       0.05035106       0.00000000 </v>
   <v>       0.00000000      -0.05035106      -0.00000000 </v>
   <v>       0.09484626      -0.24540504       0.00000000 </v>
   <v>      -0.09484626      -0.24540504      -0.00000000 </v>
   <v>       0.00000000       0.10348053       0.00000000 </v>
   <v>       0.00000000      -0.10348053       0.00000000 </v>
   <v>       0.09484626       0.24540504       0.00000000 </v>
   <v>      -0.09484626       0.24540504       0.00000000 </v>
  </varray>
  <varray name="stress" >
   <v>       1.77029419       0.00000000       0.00000000 </v>
   <v>       0.00000000      -0.57676979       0.00000000 </v>
   <v>       0.00000000       0.00000000      -0.38737718 </v>
  </varray>
  <energy>
   <i name="e_fr_energy">    -67.23213163 </i>
   <i name="e_wo_entrp">    -67.23213154 </i>
   <i name="e_0_energy">     -0.00000017 </i>
  </energy>
  <time name="totalsc">   66.55   66.76</time>
 </calculation>
 <calculation>
  <scstep>
   <time name="dav">    4.46    4.47</time>
   <time name="total">    4.73    4.74</time>
   <energy>
    <i name="alphaZ">     11.13514222 </i>
    <i name="ewald">   3965.67900363 </i>
    <i name="hartreedc">  -4839.67018692 </i>
    <i name="XCdc">     95.88033016 </i>
    <i name="pawpsdc">   2895.15323874 </i>
    <i name="pawaedc">  -2897.68559058 </i>
    <i name="eentropy">     -0.00000001 </i>
    <i name="bandstr">   -322.93600326 </i>
    <i name="atom">   1025.20389953 </i>
    <i name="e_fr_energy">    -67.24016649 </i>
    <i name="e_wo_entrp">    -67.24016648 </i>
    <i name="e_0_energy">    -67.24016649 </i>
   </energy>
  </scstep>
  <scstep>
   <time name="dav">    4.42    4.43</time>
   <time name="total">    4.69    4.70</time>
   <energy>
    <i name="e_fr_energy">    -67.23466700 </i>
    <i name="e_wo_entrp">    -67.23466697 </i>
    <i name="e_0_energy">    -67.23466699 </i>
   </energy>
  </scstep>
  <scstep>
   <time name="dav">    4.88    4.89</time>
   <time name="total">    5.15    5.15</time>
   <energy>
    <i name="e_fr_energy">    -67.23213158 </i>
    <i name="e_wo_entrp">    -67.23213147 </i>
    <i name="e_0_energy">    -67.23213153 </i>
   </energy>
  </scstep>
  <scstep>
   <time name="dav">    4.56    4.57</time>
   <time name="total">    4.83    4.84</time>
   <energy>
    <i name="e_fr_energy">    -67.23206685 </i>
    <i name="e_wo_entrp">    -67.23206675 </i>
    <i name="e_0_energy">    -67.23206680 </i>
   </energy>
  </scstep>
  <scstep>
   <time name="dav">    4.62    4.64</time>
   <time name="total">    4.89    4.91</time>
   <energy>
    <i name="e_fr_energy">    -67.23198649 </i>
    <i name="e_wo_entrp">    -67.23198637 </i>
    <i name="e_0_energy">    -67.23198643 </i>
   </energy>
  </scstep>
  <scstep>
   <time name="dav">    4.66    4.67</time>
   <time name="total">    4.93    4.94</time>
   <energy>
    <i name="e_fr_energy">    -67.23203766 </i>
    <i name="e_wo_entrp">    -67.23203754 </i>
    <i name="e_0_energy">    -67.23203760 </i>
   </energy>
  </scstep>
  <scstep>
   <time name="dav">    4.64    4.65</time>
   <time name="total">    4.91    4.92</time>
   <energy>
    <i name="e_fr_energy">    -67.23208584 </i>
    <i name="e_wo_entrp">    -67.23208572 </i>
    <i name="e_0_energy">    -67.23208578 </i>
   </energy>
  </scstep>
  <scstep>
   <time name="dav">    4.43    4.44</time>
   <time name="total">    4.70    4.71</time>
   <energy>
    <i name="e_fr_energy">    -67.23219347 </i>
    <i name="e_wo_entrp">    -67.23219335 </i>
    <i name="e_0_energy">    -67.23219341 </i>
   </energy>
  </scstep>
  <scstep>
   <time name="dav">    4.44    4.46</time>
   <time name="total">    4.70    4.72</time>
   <energy>
    <i name="e_fr_energy">    -67.23223895 </i>
    <i name="e_wo_entrp">    -67.23223883 </i>
    <i name="e_0_energy">    -67.23223889 </i>
   </energy>
  </scstep>
  <scstep>
   <time name="dav">    3.78    3.79</time>
   <time name="total">    4.05    4.06</time>
   <energy>
    <i name="e_fr_energy">    -67.23226109 </i>
    <i name="e_wo_entrp">    -67.23226096 </i>
    <i name="e_0_energy">    -67.23226103 </i>
   </energy>
  </scstep>
  <scstep>
   <time name="dav">    3.53    3.54</time>
   <time name="total">    3.79    3.80</time>
   <energy>
    <i name="e_fr_energy">    -67.23227091 </i>
    <i name="e_wo_entrp">    -67.23227079 </i>
    <i name="e_0_energy">    -67.23227085 </i>
   </energy>
  </scstep>
  <scstep>
   <time name="dav">    4.01    4.02</time>
   <time name="total">    4.28    4.29</time>
   <energy>
    <i name="e_fr_energy">    -67.23227362 </i>
    <i name="e_wo_entrp">    -67.23227349 </i>
    <i name="e_0_energy">    -67.23227356 </i>
   </energy>
  </scstep>
  <scstep>
   <time name="dav">    3.43    3.44</time>
   <time name="total">    3.70    3.71</time>
   <energy>
    <i name="e_fr_energy">    -67.23227538 </i>
    <i name="e_wo_entrp">    -67.23227526 </i>
    <i name="e_0_energy">    -67.23227532 </i>
   </energy>
  </scstep>
  <scstep>
   <time name="dav">    4.14    4.15</time>
   <time name="total">    4.20    4.21</time>
   <energy>
    <i name="alphaZ">     11.13514222 </i>
    <i name="ewald">   3965.67900363 </i>
    <i name="hartreedc">  -4845.07968805 </i>
    <i name="XCdc">     96.04693939 </i>
    <i name="pawpsdc">   2895.77215929 </i>
    <i name="pawaedc">  -2898.30375863 </i>
    <i name="eentropy">     -0.00000012 </i>
    <i name="bandstr">   -317.68597299 </i>
    <i name="atom">   1025.20389953 </i>
    <i name="e_fr_energy">    -67.23227573 </i>
    <i name="e_wo_entrp">    -67.23227561 </i>
    <i name="e_0_energy">    -67.23227567 </i>
   </energy>
  </scstep>
  <structure>
   <crystal>
    <varray name="basis" >
     <v>       5.17122651       0.00000000       0.00000000 </v>
     <v>       2.58561325       4.47983114       0.00000000 </v>
     <v>       0.00000000       0.00000000      19.66398068 </v>
    </varray>
    <i name="volume">    455.54013216 </i>
    <varray name="rec_basis" >
     <v>       0.19337772      -0.11161135       0.00000000 </v>
     <v>      -0.00000000       0.22322270       0.00000000 </v>
     <v>       0.00000000       0.00000000       0.05085440 </v>
    </varray>
   </crystal>
   <varray name="positions" >
    <v>       0.17471248       0.17434775       0.00000000 </v>
    <v>       0.50778596       0.50820079       0.00000000 </v>
    <v>      -0.00055834       0.00039949      -0.00000000 </v>
    <v>       0.52393156       0.00039949      -0.00000000 </v>
    <v>       0.68248642       0.15879987       0.00000000 </v>
    <v>       0.00001202       0.52374867       0.00000000 </v>
    <v>       0.15856688       0.68214905       0.00000000 </v>
    <v>       0.68305678       0.68214905       0.00000000 </v>
   </varray>
  </structure>
  <varray name="forces" >
   <v>      -0.00000000       0.03585139      -0.00000000 </v>
   <v>      -0.00000000      -0.03585139       0.00000000 </v>
   <v>       0.07448469      -0.18040740      -0.00000000 </v>
   <v>      -0.07448469      -0.18040740      -0.00000000 </v>
   <v>      -0.00000000       0.08019149      -0.00000000 </v>
   <v>      -0.00000000      -0.08019149      -0.00000000 </v>
   <v>       0.07448469       0.18040740       0.00000000 </v>
   <v>      -0.07448469       0.18040740      -0.00000000 </v>
  </varray>
  <varray name="stress" >
   <v>       1.37838258       0.00000000       0.00000000 </v>
   <v>       0.00000000      -0.35559987       0.00000000 </v>
   <v>       0.00000000       0.00000000      -0.43228236 </v>
  </varray>
  <energy>
   <i name="e_fr_energy">    -67.23227573 </i>
   <i name="e_wo_entrp">    -67.23227567 </i>
   <i name="e_0_energy">     -0.00000012 </i>
  </energy>
  <time name="totalsc">   69.92   70.15</time>
 </calculation>
 <calculation>
  <scstep>
   <time name="dav">    4.39    4.40</time>
   <time name="total">    4.66    4.67</time>
   <energy>
    <i name="alphaZ">     11.13678823 </i>
    <i name="ewald">   3964.79836085 </i>
    <i name="hartreedc">  -4844.35664483 </i>
    <i name="XCdc">     96.05138044 </i>
    <i name="pawpsdc">   2895.78545595 </i>
    <i name="pawaedc">  -2898.31704185 </i>
    <i name="eentropy">     -0.00000013 </i>
    <i name="bandstr">   -317.53450547 </i>
    <i name="atom">   1025.20389953 </i>
    <i name="e_fr_energy">    -67.23230729 </i>
    <i name="e_wo_entrp">    -67.23230715 </i>
    <i name="e_0_energy">    -67.23230722 </i>
   </energy>
  </scstep>
  <scstep>
   <time name="dav">    4.42    4.43</time>
   <time name="total">    4.68    4.69</time>
   <energy>
    <i name="e_fr_energy">    -67.23230291 </i>
    <i name="e_wo_entrp">    -67.23230278 </i>
    <i name="e_0_energy">    -67.23230284 </i>
   </energy>
  </scstep>
  <scstep>
   <time name="dav">    4.52    4.54</time>
   <time name="total">    4.79    4.81</time>
   <energy>
    <i name="e_fr_energy">    -67.23230043 </i>
    <i name="e_wo_entrp">    -67.23230030 </i>
    <i name="e_0_energy">    -67.23230037 </i>
   </energy>
  </scstep>
  <scstep>
   <time name="dav">    4.21    4.22</time>
   <time name="total">    4.27    4.28</time>
   <energy>
    <i name="alphaZ">     11.13678823 </i>
    <i name="ewald">   3964.79836085 </i>
    <i name="hartreedc">  -4844.24664342 </i>
    <i name="XCdc">     96.04732123 </i>
    <i name="pawpsdc">   2895.76969216 </i>
    <i name="pawaedc">  -2898.30114163 </i>
    <i name="eentropy">     -0.00000012 </i>
    <i name="bandstr">   -317.64057727 </i>
    <i name="atom">   1025.20389953 </i>
    <i name="e_fr_energy">    -67.23230045 </i>
    <i name="e_wo_entrp">    -67.23230032 </i>
    <i name="e_0_energy">    -67.23230039 </i>
   </energy>
  </scstep>
  <structure>
   <crystal>
    <varray name="basis" >
     <v>       5.17124697       0.00000000       0.00000000 </v>
     <v>       2.58562349       4.47982536       0.00000000 </v>
     <v>       0.00000000       0.00000000      19.66102188 </v>
    </varray>
    <i name="volume">    455.47280369 </i>
    <varray name="rec_basis" >
     <v>       0.19337696      -0.11161149       0.00000000 </v>
     <v>      -0.00000000       0.22322299       0.00000000 </v>
     <v>       0.00000000       0.00000000       0.05086206 </v>
    </varray>
   </crystal>
   <varray name="positions" >
    <v>       0.17471334       0.17434603      -0.00000000 </v>
    <v>       0.50778510       0.50820250       0.00000000 </v>
    <v>      -0.00055830       0.00039838      -0.00000000 </v>
    <v>       0.52393263       0.00039838      -0.00000000 </v>
    <v>       0.68248439       0.15880393      -0.00000000 </v>
    <v>       0.00001405       0.52374461      -0.00000000 </v>
    <v>       0.15856581       0.68215016       0.00000000 </v>
    <v>       0.68305674       0.68215016       0.00000000 </v>
   </varray>
  </structure>
  <varray name="forces" >
   <v>       0.00000000       0.03563082      -0.00000000 </v>
   <v>       0.00000000      -0.03563082       0.00000000 </v>
   <v>       0.07413325      -0.17981063      -0.00000000 </v>
   <v>      -0.07413325      -0.17981063      -0.00000000 </v>
   <v>       0.00000000       0.07909805      -0.00000000 </v>
   <v>       0.00000000      -0.07909805      -0.00000000 </v>
   <v>       0.07413325       0.17981063       0.00000000 </v>
   <v>      -0.07413325       0.17981063      -0.00000000 </v>
  </varray>
  <varray name="stress" >
   <v>       1.37551763       0.00000000       0.00000000 </v>
   <v>      -0.00000000      -0.34837364       0.00000000 </v>
   <v>       0.00000000       0.00000000      -0.45366782 </v>
  </varray>
  <energy>
   <i name="e_fr_energy">    -67.23230045 </i>
   <i name="e_wo_entrp">    -67.23230039 </i>
   <i name="e_0_energy">     -0.00000012 </i>
  </energy>
  <time name="totalsc">   24.73   24.85</time>
 </calculation>
 <calculation>
  <scstep>
   <time name="dav">    4.40    4.40</time>
   <time name="total">    4.67    4.67</time>
   <energy>
    <i name="alphaZ">     11.14172923 </i>
    <i name="ewald">   3962.15646185 </i>
    <i name="hartreedc">  -4842.05957620 </i>
    <i name="XCdc">     96.06039920 </i>
    <i name="pawpsdc">   2895.72852031 </i>
    <i name="pawaedc">  -2898.26006361 </i>
    <i name="eentropy">     -0.00000015 </i>
    <i name="bandstr">   -317.20379992 </i>
    <i name="atom">   1025.20389953 </i>
    <i name="e_fr_energy">    -67.23242977 </i>
    <i name="e_wo_entrp">    -67.23242962 </i>
    <i name="e_0_energy">    -67.23242969 </i>
   </energy>
  </scstep>
  <scstep>
   <time name="dav">    4.29    4.29</time>
   <time name="total">    4.55    4.56</time>
   <energy>
    <i name="e_fr_energy">    -67.23238922 </i>
    <i name="e_wo_entrp">    -67.23238908 </i>
    <i name="e_0_energy">    -67.23238915 </i>
   </energy>
  </scstep>
  <scstep>
   <time name="dav">    4.46    4.47</time>
   <time name="total">    4.73    4.73</time>
   <energy>
    <i name="e_fr_energy">    -67.23236670 </i>
    <i name="e_wo_entrp">    -67.23236657 </i>
    <i name="e_0_energy">    -67.23236663 </i>
   </energy>
  </scstep>
  <scstep>
   <time name="dav">    4.02    4.03</time>
   <time name="total">    4.08    4.09</time>
   <energy>
    <i name="alphaZ">     11.14172923 </i>
    <i name="ewald">   3962.15646185 </i>
    <i name="hartreedc">  -4841.71812726 </i>
    <i name="XCdc">     96.04812079 </i>
    <i name="pawpsdc">   2895.68459910 </i>
    <i name="pawaedc">  -2898.21576565 </i>
    <i name="eentropy">     -0.00000012 </i>
    <i name="bandstr">   -317.53328460 </i>
    <i name="atom">   1025.20389953 </i>
    <i name="e_fr_energy">    -67.23236713 </i>
    <i name="e_wo_entrp">    -67.23236701 </i>
    <i name="e_0_energy">    -67.23236707 </i>
   </energy>
  </scstep>
  <structure>
   <crystal>
    <varray name="basis" >
     <v>       5.17130837       0.00000000       0.00000000 </v>
     <v>       2.58565418       4.47980805       0.00000000 </v>
     <v>       0.00000000       0.00000000      19.65214547 </v>
    </varray>
    <i name="volume">    455.27081604 </i>
    <varray name="rec_basis" >
     <v>       0.19337466      -0.11161192       0.00000000 </v>
     <v>      -0.00000000       0.22322385       0.00000000 </v>
     <v>       0.00000000       0.00000000       0.05088503 </v>
    </varray>
   </crystal>
   <varray name="positions" >
    <v>       0.17471591       0.17434088      -0.00000000 </v>
    <v>       0.50778253       0.50820766       0.00000000 </v>
    <v>      -0.00055817       0.00039504      -0.00000000 </v>
[...]
    <i name="e_fr_energy">    -67.24763324 </i>
    <i name="e_wo_entrp">    -67.24763259 </i>
    <i name="e_0_energy">    -67.24763292 </i>
   </energy>
  </scstep>
  <scstep>
   <time name="dav">    4.85    4.86</time>
   <time name="total">    5.11    5.13</time>
   <energy>
    <i name="e_fr_energy">    -67.24715533 </i>
    <i name="e_wo_entrp">    -67.24715499 </i>
    <i name="e_0_energy">    -67.24715516 </i>
   </energy>
  </scstep>
  <scstep>
   <time name="dav">    4.48    4.49</time>
   <time name="total">    4.74    4.75</time>
   <energy>
    <i name="e_fr_energy">    -67.24821366 </i>
    <i name="e_wo_entrp">    -67.24821331 </i>
    <i name="e_0_energy">    -67.24821348 </i>
   </energy>
  </scstep>
  <scstep>
   <time name="dav">    4.87    4.88</time>
   <time name="total">    5.13    5.13</time>
   <energy>
    <i name="e_fr_energy">    -67.24837054 </i>
    <i name="e_wo_entrp">    -67.24837022 </i>
    <i name="e_0_energy">    -67.24837038 </i>
   </energy>
  </scstep>
  <scstep>
   <time name="dav">    4.35    4.36</time>
   <time name="total">    4.62    4.62</time>
   <energy>
    <i name="e_fr_energy">    -67.24849809 </i>
    <i name="e_wo_entrp">    -67.24849782 </i>
    <i name="e_0_energy">    -67.24849795 </i>
   </energy>
  </scstep>
  <scstep>
   <time name="dav">    5.13    5.15</time>
   <time name="total">    5.40    5.41</time>
   <energy>
    <i name="e_fr_energy">    -67.24846274 </i>
    <i name="e_wo_entrp">    -67.24846246 </i>
    <i name="e_0_energy">    -67.24846260 </i>
   </energy>
  </scstep>
  <scstep>
   <time name="dav">    4.66    4.67</time>
   <time name="total">    4.92    4.93</time>
   <energy>
    <i name="e_fr_energy">    -67.24842406 </i>
    <i name="e_wo_entrp">    -67.24842376 </i>
    <i name="e_0_energy">    -67.24842391 </i>
   </energy>
  </scstep>
  <scstep>
   <time name="dav">    4.63    4.64</time>
   <time name="total">    4.89    4.90</time>
   <energy>
    <i name="e_fr_energy">    -67.24843899 </i>
    <i name="e_wo_entrp">    -67.24843870 </i>
    <i name="e_0_energy">    -67.24843885 </i>
   </energy>
  </scstep>
  <scstep>
   <time name="dav">    4.70    4.71</time>
   <time name="total">    4.96    4.97</time>
   <energy>
    <i name="e_fr_energy">    -67.24845526 </i>
    <i name="e_wo_entrp">    -67.24845497 </i>
    <i name="e_0_energy">    -67.24845511 </i>
   </energy>
  </scstep>
  <scstep>
   <time name="dav">    4.29    4.29</time>
   <time name="total">    4.55    4.56</time>
   <energy>
    <i name="e_fr_energy">    -67.24846810 </i>
    <i name="e_wo_entrp">    -67.24846781 </i>
    <i name="e_0_energy">    -67.24846796 </i>
   </energy>
  </scstep>
  <scstep>
   <time name="dav">    4.33    4.34</time>
   <time name="total">    4.60    4.61</time>
   <energy>
    <i name="e_fr_energy">    -67.24846981 </i>
    <i name="e_wo_entrp">    -67.24846952 </i>
    <i name="e_0_energy">    -67.24846967 </i>
   </energy>
  </scstep>
  <scstep>
   <time name="dav">    3.64    3.65</time>
   <time name="total">    3.71    3.71</time>
   <energy>
    <i name="alphaZ">     15.17984154 </i>
    <i name="ewald">   2415.48819960 </i>
    <i name="hartreedc">  -3313.59074480 </i>
    <i name="XCdc">     95.98907367 </i>
    <i name="pawpsdc">   2855.45049897 </i>
    <i name="pawaedc">  -2857.97622117 </i>
    <i name="eentropy">     -0.00000029 </i>
    <i name="bandstr">   -302.99301720 </i>
    <i name="atom">   1025.20389953 </i>
    <i name="e_fr_energy">    -67.24847014 </i>
    <i name="e_wo_entrp">    -67.24846985 </i>
    <i name="e_0_energy">    -67.24846999 </i>
   </energy>
  </scstep>
  <structure>
   <crystal>
    <varray name="basis" >
     <v>       5.16988539       0.00000000       0.00000000 </v>
     <v>       2.58494270       4.49036783       0.00000000 </v>
     <v>       0.00000000       0.00000000      14.39435935 </v>
    </varray>
    <i name="volume">    334.16054743 </i>
    <varray name="rec_basis" >
     <v>       0.19342789      -0.11134945       0.00000000 </v>
     <v>      -0.00000000       0.22269891       0.00000000 </v>
     <v>       0.00000000       0.00000000       0.06947166 </v>
    </varray>
   </crystal>
   <varray name="positions" >
    <v>       0.17367983       0.17641305      -0.00000000 </v>
    <v>       0.50881861       0.50613549       0.00000000 </v>
    <v>       0.00115884      -0.00094470       0.00000000 </v>
    <v>       0.52355857      -0.00094470      -0.00000000 </v>
    <v>       0.68315297       0.15746676       0.00000000 </v>
    <v>      -0.00065453       0.52508178      -0.00000000 </v>
    <v>       0.15893987       0.68349323       0.00000000 </v>
    <v>       0.68133960       0.68349323       0.00000000 </v>
   </varray>
  </structure>
  <varray name="forces" >
   <v>      -0.00000000      -0.18107108       0.00000000 </v>
   <v>       0.00000000       0.18107108      -0.00000000 </v>
   <v>      -0.07323733       0.31556918       0.00000000 </v>
   <v>       0.07323733       0.31556918       0.00000000 </v>
   <v>       0.00000000      -0.05241731       0.00000000 </v>
   <v>      -0.00000000       0.05241731       0.00000000 </v>
   <v>      -0.07323733      -0.31556918       0.00000000 </v>
   <v>       0.07323733      -0.31556918       0.00000000 </v>
  </varray>
  <varray name="stress" >
   <v>      -0.84509613       0.00000000       0.00000000 </v>
   <v>       0.00000000      -1.81685998       0.00000000 </v>
   <v>       0.00000000       0.00000000      -0.29848486 </v>
  </varray>
  <energy>
   <i name="e_fr_energy">    -67.24847014 </i>
   <i name="e_wo_entrp">    -67.24846999 </i>
   <i name="e_0_energy">     -0.00000029 </i>
  </energy>
  <time name="totalsc">   80.46   80.77</time>
 </calculation>
 <calculation>
  <scstep>
   <time name="dav">    4.56    4.57</time>
   <time name="total">    4.83    4.84</time>
   <energy>
    <i name="alphaZ">     16.06052633 </i>
    <i name="ewald">   2184.04840881 </i>
    <i name="hartreedc">  -3137.85294604 </i>
    <i name="XCdc">     97.70358593 </i>
    <i name="pawpsdc">   2855.45430122 </i>
    <i name="pawaedc">  -2857.98001877 </i>
    <i name="eentropy">     -0.00821496 </i>
    <i name="bandstr">   -250.68954097 </i>
    <i name="atom">   1025.20389953 </i>
    <i name="e_fr_energy">    -68.05999893 </i>
    <i name="e_wo_entrp">    -68.05178396 </i>
    <i name="e_0_energy">    -68.05589145 </i>
   </energy>
  </scstep>
  <scstep>
   <time name="dav">    4.30    4.31</time>
   <time name="total">    4.57    4.58</time>
   <energy>
    <i name="e_fr_energy">    -67.47174051 </i>
    <i name="e_wo_entrp">    -67.47100084 </i>
    <i name="e_0_energy">    -67.47137067 </i>
   </energy>
  </scstep>
  <scstep>
   <time name="dav">    4.92    4.93</time>
   <time name="total">    5.18    5.19</time>
   <energy>
    <i name="e_fr_energy">    -67.26242930 </i>
    <i name="e_wo_entrp">    -67.26242753 </i>
    <i name="e_0_energy">    -67.26242842 </i>
   </energy>
  </scstep>
  <scstep>
   <time name="dav">    5.08    5.09</time>
   <time name="total">    5.34    5.35</time>
   <energy>
    <i name="e_fr_energy">    -67.25204844 </i>
    <i name="e_wo_entrp">    -67.25204748 </i>
    <i name="e_0_energy">    -67.25204796 </i>
   </energy>
  </scstep>
  <scstep>
   <time name="dav">    5.07    5.09</time>
   <time name="total">    5.33    5.35</time>
   <energy>
    <i name="e_fr_energy">    -67.25019531 </i>
    <i name="e_wo_entrp">    -67.25019484 </i>
    <i name="e_0_energy">    -67.25019507 </i>
   </energy>
  </scstep>
  <scstep>
   <time name="dav">    4.77    4.78</time>
   <time name="total">    5.04    5.04</time>
   <energy>
    <i name="e_fr_energy">    -67.25072904 </i>
    <i name="e_wo_entrp">    -67.25072873 </i>
    <i name="e_0_energy">    -67.25072889 </i>
   </energy>
  </scstep>
  <scstep>
   <time name="dav">    4.59    4.60</time>
   <time name="total">    4.85    4.86</time>
   <energy>
    <i name="e_fr_energy">    -67.25078538 </i>
    <i name="e_wo_entrp">    -67.25078508 </i>
    <i name="e_0_energy">    -67.25078523 </i>
   </energy>
  </scstep>
  <scstep>
   <time name="dav">    4.30    4.31</time>
   <time name="total">    4.56    4.57</time>
   <energy>
    <i name="e_fr_energy">    -67.25044319 </i>
    <i name="e_wo_entrp">    -67.25044292 </i>
    <i name="e_0_energy">    -67.25044305 </i>
   </energy>
  </scstep>
  <scstep>
   <time name="dav">    4.64    4.65</time>
   <time name="total">    4.91    4.91</time>
   <energy>
    <i name="e_fr_energy">    -67.25022061 </i>
    <i name="e_wo_entrp">    -67.25022034 </i>
    <i name="e_0_energy">    -67.25022047 </i>
   </energy>
  </scstep>
  <scstep>
   <time name="dav">    4.55    4.57</time>
   <time name="total">    4.82    4.83</time>
   <energy>
    <i name="e_fr_energy">    -67.25018684 </i>
    <i name="e_wo_entrp">    -67.25018657 </i>
    <i name="e_0_energy">    -67.25018670 </i>
   </energy>
  </scstep>
  <scstep>
   <time name="dav">    4.41    4.41</time>
   <time name="total">    4.67    4.68</time>
   <energy>
    <i name="e_fr_energy">    -67.25025590 </i>
    <i name="e_wo_entrp">    -67.25025563 </i>
    <i name="e_0_energy">    -67.25025576 </i>
   </energy>
  </scstep>
  <scstep>
   <time name="dav">    4.58    4.59</time>
   <time name="total">    4.85    4.86</time>
   <energy>
    <i name="e_fr_energy">    -67.25030892 </i>
    <i name="e_wo_entrp">    -67.25030865 </i>
    <i name="e_0_energy">    -67.25030879 </i>
   </energy>
  </scstep>
  <scstep>
   <time name="dav">    4.30    4.31</time>
   <time name="total">    4.57    4.58</time>
   <energy>
    <i name="e_fr_energy">    -67.25031561 </i>
    <i name="e_wo_entrp">    -67.25031534 </i>
    <i name="e_0_energy">    -67.25031548 </i>
   </energy>
  </scstep>
  <scstep>
   <time name="dav">    3.93    3.94</time>
   <time name="total">    4.19    4.20</time>
   <energy>
    <i name="e_fr_energy">    -67.25031883 </i>
    <i name="e_wo_entrp">    -67.25031856 </i>
    <i name="e_0_energy">    -67.25031869 </i>
   </energy>
  </scstep>
  <scstep>
   <time name="dav">    4.11    4.13</time>
   <time name="total">    4.18    4.19</time>
   <energy>
    <i name="alphaZ">     16.06052633 </i>
    <i name="ewald">   2184.04840881 </i>
    <i name="hartreedc">  -3086.21480007 </i>
    <i name="XCdc">     95.98454894 </i>
    <i name="pawpsdc">   2853.42202577 </i>
    <i name="pawaedc">  -2855.94646773 </i>
    <i name="eentropy">     -0.00000027 </i>
    <i name="bandstr">   -299.80846026 </i>
    <i name="atom">   1025.20389953 </i>
    <i name="e_fr_energy">    -67.25031894 </i>
    <i name="e_wo_entrp">    -67.25031867 </i>
    <i name="e_0_energy">    -67.25031881 </i>
   </energy>
  </scstep>
  <structure>
   <crystal>
    <varray name="basis" >
     <v>       5.16778884       0.00000000       0.00000000 </v>
     <v>       2.58389442       4.49261368       0.00000000 </v>
     <v>       0.00000000       0.00000000      13.60375505 </v>
    </varray>
    <i name="volume">    315.83673256 </i>
    <varray name="rec_basis" >
     <v>       0.19350636      -0.11129379       0.00000000 </v>
     <v>      -0.00000000       0.22258758       0.00000000 </v>
     <v>       0.00000000       0.00000000       0.07350912 </v>
    </varray>
   </crystal>
   <varray name="positions" >
    <v>       0.17333636       0.17709999      -0.00000000 </v>
    <v>       0.50916208       0.50544855       0.00000000 </v>
    <v>       0.00137416      -0.00085685       0.00000000 </v>
    <v>       0.52325540      -0.00085685      -0.00000000 </v>
    <v>       0.68341052       0.15695167       0.00000000 </v>
    <v>      -0.00091208       0.52559687      -0.00000000 </v>
    <v>       0.15924304       0.68340539       0.00000000 </v>
    <v>       0.68112428       0.68340539       0.00000000 </v>
   </varray>
  </structure>
  <varray name="forces" >
   <v>       0.00000000      -0.22283177      -0.00000000 </v>
   <v>      -0.00000000       0.22283177      -0.00000000 </v>
   <v>      -0.08307631       0.26027926       0.00000000 </v>
   <v>       0.08307631       0.26027926       0.00000000 </v>
   <v>      -0.00000000      -0.01096154      -0.00000000 </v>
   <v>       0.00000000       0.01096154      -0.00000000 </v>
   <v>      -0.08307631      -0.26027926      -0.00000000 </v>
   <v>       0.08307631      -0.26027926      -0.00000000 </v>
  </varray>
  <varray name="stress" >
   <v>      -0.27263308      -0.00000000       0.00000000 </v>
   <v>      -0.00000000      -2.93453212       0.00000000 </v>
   <v>       0.00000000       0.00000000      -0.25116769 </v>
  </varray>
  <energy>
   <i name="e_fr_energy">    -67.25031894 </i>
   <i name="e_wo_entrp">    -67.25031881 </i>
   <i name="e_0_energy">     -0.00000027 </i>
  </energy>
  <time name="totalsc">   78.28   78.50</time>
 </calculation>
 <calculation>
  <scstep>
   <time name="dav">    4.66    4.67</time>
   <time name="total">    4.93    4.94</time>
   <energy>
    <i name="alphaZ">     18.16940270 </i>
    <i name="ewald">   1721.30091073 </i>
    <i name="hartreedc">  -2741.06514574 </i>
    <i name="XCdc">     99.76899484 </i>
    <i name="pawpsdc">   2853.42237059 </i>
    <i name="pawaedc">  -2855.94680978 </i>
    <i name="eentropy">     -0.01668049 </i>
    <i name="bandstr">   -192.02361776 </i>
    <i name="atom">   1025.20389953 </i>
    <i name="e_fr_energy">    -71.18667537 </i>
    <i name="e_wo_entrp">    -71.16999489 </i>
    <i name="e_0_energy">    -71.17833513 </i>
   </energy>
  </scstep>
  <scstep>
   <time name="dav">    4.36    4.37</time>
   <time name="total">    4.62    4.63</time>
   <energy>
    <i name="e_fr_energy">    -68.08345076 </i>
    <i name="e_wo_entrp">    -68.07584983 </i>
    <i name="e_0_energy">    -68.07965029 </i>
   </energy>
  </scstep>
  <scstep>
   <time name="dav">    5.03    5.04</time>
   <time name="total">    5.29    5.30</time>
   <energy>
    <i name="e_fr_energy">    -67.36292925 </i>
    <i name="e_wo_entrp">    -67.36288853 </i>
    <i name="e_0_energy">    -67.36290889 </i>
   </energy>
  </scstep>
  <scstep>
   <time name="dav">    5.08    5.09</time>
   <time name="total">    5.34    5.35</time>
   <energy>
    <i name="e_fr_energy">    -67.27796464 </i>
    <i name="e_wo_entrp">    -67.27796254 </i>
    <i name="e_0_energy">    -67.27796359 </i>
   </energy>
  </scstep>
  <scstep>
   <time name="dav">    5.24    5.24</time>
   <time name="total">    5.50    5.51</time>
   <energy>
    <i name="e_fr_energy">    -67.26625510 </i>
    <i name="e_wo_entrp">    -67.26625428 </i>
    <i name="e_0_energy">    -67.26625469 </i>
   </energy>
  </scstep>
  <scstep>
   <time name="dav">    4.77    4.79</time>
   <time name="total">    5.04    5.05</time>
   <energy>
    <i name="e_fr_energy">    -67.25836652 </i>
    <i name="e_wo_entrp">    -67.25836620 </i>
    <i name="e_0_energy">    -67.25836636 </i>
   </energy>
  </scstep>
  <scstep>
   <time name="dav">    4.30    4.31</time>
   <time name="total">    4.57    4.58</time>
   <energy>
    <i name="e_fr_energy">    -67.25306434 </i>
    <i name="e_wo_entrp">    -67.25306403 </i>
    <i name="e_0_energy">    -67.25306418 </i>
   </energy>
  </scstep>
  <scstep>
   <time name="dav">    4.35    4.36</time>
   <time name="total">    4.62    4.63</time>
   <energy>
    <i name="e_fr_energy">    -67.25097338 </i>
    <i name="e_wo_entrp">    -67.25097313 </i>
    <i name="e_0_energy">    -67.25097325 </i>
   </energy>
  </scstep>
  <scstep>
   <time name="dav">    4.28    4.29</time>
   <time name="total">    4.55    4.56</time>
   <energy>
    <i name="e_fr_energy">    -67.25015701 </i>
    <i name="e_wo_entrp">    -67.25015676 </i>
    <i name="e_0_energy">    -67.25015688 </i>
   </energy>
  </scstep>
  <scstep>
   <time name="dav">    4.81    4.82</time>
   <time name="total">    5.08    5.08</time>
   <energy>
    <i name="e_fr_energy">    -67.25016565 </i>
    <i name="e_wo_entrp">    -67.25016541 </i>
    <i name="e_0_energy">    -67.25016553 </i>
   </energy>
  </scstep>
  <scstep>
   <time name="dav">    4.29    4.29</time>
   <time name="total">    4.55    4.56</time>
   <energy>
    <i name="e_fr_energy">    -67.25030660 </i>
    <i name="e_wo_entrp">    -67.25030635 </i>
    <i name="e_0_energy">    -67.25030648 </i>
   </energy>
  </scstep>
  <scstep>
   <time name="dav">    4.98    4.99</time>
   <time name="total">    5.24    5.25</time>
   <energy>
    <i name="e_fr_energy">    -67.25035770 </i>
    <i name="e_wo_entrp">    -67.25035745 </i>
    <i name="e_0_energy">    -67.25035758 </i>
   </energy>
  </scstep>
  <scstep>
   <time name="dav">    4.23    4.24</time>
   <time name="total">    4.50    4.51</time>
   <energy>
    <i name="e_fr_energy">    -67.25036360 </i>
    <i name="e_wo_entrp">    -67.25036335 </i>
    <i name="e_0_energy">    -67.25036348 </i>
   </energy>
  </scstep>
  <scstep>
   <time name="dav">    4.32    4.34</time>
   <time name="total">    4.59    4.60</time>
   <energy>
    <i name="e_fr_energy">    -67.25036471 </i>
    <i name="e_wo_entrp">    -67.25036446 </i>
    <i name="e_0_energy">    -67.25036458 </i>
   </energy>
  </scstep>
  <scstep>
   <time name="dav">    3.62    3.63</time>
   <time name="total">    3.69    3.70</time>
   <energy>
    <i name="alphaZ">     18.16940270 </i>
    <i name="ewald">   1721.30091073 </i>
    <i name="hartreedc">  -2633.19605707 </i>
    <i name="XCdc">     95.97536523 </i>
    <i name="pawpsdc">   2849.41592217 </i>
    <i name="pawaedc">  -2851.93819532 </i>
    <i name="eentropy">     -0.00000025 </i>
    <i name="bandstr">   -292.18161257 </i>
    <i name="atom">   1025.20389953 </i>
    <i name="e_fr_energy">    -67.25036483 </i>
    <i name="e_wo_entrp">    -67.25036458 </i>
    <i name="e_0_energy">    -67.25036471 </i>
   </energy>
  </scstep>
  <structure>
   <crystal>
    <varray name="basis" >
     <v>       5.16359574       0.00000000       0.00000000 </v>
     <v>       2.58179787       4.49710538       0.00000000 </v>
     <v>       0.00000000       0.00000000      12.02254643 </v>
    </varray>
    <i name="volume">    279.17836611 </i>
    <varray name="rec_basis" >
     <v>       0.19366350      -0.11118263       0.00000000 </v>
     <v>      -0.00000000       0.22236526       0.00000000 </v>
     <v>       0.00000000       0.00000000       0.08317705 </v>
    </varray>
   </crystal>
   <varray name="positions" >
    <v>       0.17264977       0.17847318      -0.00000000 </v>
    <v>       0.50984867       0.50407536       0.00000000 </v>
    <v>       0.00180507      -0.00068125       0.00000000 </v>
    <v>       0.52264889      -0.00068125      -0.00000000 </v>
    <v>       0.68392535       0.15592201       0.00000000 </v>
    <v>      -0.00142691       0.52662653      -0.00000000 </v>
    <v>       0.15984955       0.68322979       0.00000000 </v>
    <v>       0.68069337       0.68322979       0.00000000 </v>
   </varray>
  </structure>
  <varray name="forces" >
   <v>       0.00000000      -0.30636956      -0.00000000 </v>
   <v>      -0.00000000       0.30636956       0.00000000 </v>
   <v>      -0.10278681       0.15137085       0.00000000 </v>
   <v>       0.10278681       0.15137085       0.00000000 </v>
   <v>      -0.00000000       0.07151585       0.00000000 </v>
   <v>       0.00000000      -0.07151585       0.00000000 </v>
   <v>      -0.10278681      -0.15137085       0.00000000 </v>
   <v>       0.10278681      -0.15137085       0.00000000 </v>
  </varray>
  <varray name="stress" >
   <v>       1.12068407      -0.00000000       0.00000000 </v>
   <v>      -0.00000000      -5.57725245       0.00000000 </v>
   <v>       0.00000000       0.00000000      -0.17870078 </v>
  </varray>
  <energy>
   <i name="e_fr_energy">    -67.25036483 </i>
   <i name="e_wo_entrp">    -67.25036471 </i>
   <i name="e_0_energy">     -0.00000025 </i>
  </energy>
  <time name="totalsc">   78.47   78.71</time>
 </calculation>
