<?xml version="1.0" encoding="ISO-8859-1"?>
<modeling>
 <generator>
  <i name="program" type="string">vasp </i>
  <i name="version" type="string">5.4.4.18Apr17-6-g9f103f2a35  </i>
  <i name="subversion" type="string">(build Mar 30 2023 15:39:25) complex            parallel </i>
  <i name="platform" type="string">LinuxIFC </i>
  <i name="date" type="string">2023 05 26 </i>
  <i name="time" type="string">22:29:53 </i>
 </generator>
 <incar>
  <i type="string" name="SYSTEM"> BC3</i>
  <i type="int" name="ISTART">     0</i>
  <i type="string" name="PREC">accurate</i>
  <i type="string" name="ALGO">  Normal</i>
  <i type="int" name="ICHARG">     2</i>
  <i type="int" name="IBRION">     2</i>
  <i name="EDIFF">      0.00000100</i>
  <i name="EDIFFG">     -0.01000000</i>
  <i type="int" name="NSW">   128</i>
  <i type="int" name="ISIF">     3</i>
  <i name="ENCUT">    450.00000000</i>
  <i type="int" name="ISMEAR">     0</i>
  <i name="SIGMA">      0.10000000</i>
  <v type="int" name="KPOINT_BSE">    -1     0     0     0</v>
 </incar>
 <structure name="primitive_cell" >
  <crystal>
   <varray name="basis" >
    <v>       5.17400000       0.00000000       0.00000000 </v>
    <v>       2.58700000       4.48100000       0.00000000 </v>
    <v>       0.00000000       0.00000000      20.00000000 </v>
   </varray>
   <i name="volume">    463.69388000 </i>
   <varray name="rec_basis" >
    <v>       0.19327406      -0.11158224       0.00000000 </v>
    <v>       0.00000000       0.22316447       0.00000000 </v>
    <v>       0.00000000       0.00000000       0.05000000 </v>
   </varray>
  </crystal>
  <varray name="positions" >
   <v>       0.17457326       0.17462620       0.00000000 </v>
   <v>       0.00000000       0.00000000       0.00000000 </v>
   <v>      -0.47622729       0.00000000       0.00000000 </v>
   <v>      -0.00005294      -0.47612140       0.00000000 </v>
   <v>      -0.31744862       0.15866994       0.00000000 </v>
   <v>      -0.31750156      -0.31745146       0.00000000 </v>
   <v>       0.15872573      -0.31745146       0.00000000 </v>
   <v>      -0.49207481      -0.49207766       0.00000000 </v>
  </varray>
 </structure>
 <varray name="primitive_index" >
  <v type="int" >        1 </v>
  <v type="int" >        3 </v>
  <v type="int" >        4 </v>
  <v type="int" >        6 </v>
  <v type="int" >        5 </v>
  <v type="int" >        8 </v>
  <v type="int" >        7 </v>
  <v type="int" >        2 </v>
 </varray>
 <kpoints>
  <generation param="Gamma">
   <v type="int" name="divisions">      12       12        1 </v>
   <v name="usershift">      0.00000000       0.00000000       0.00000000 </v>
   <v name="genvec1">      0.08333333       0.00000000       0.00000000 </v>
   <v name="genvec2">      0.00000000       0.08333333       0.00000000 </v>
   <v name="genvec3">      0.00000000       0.00000000       1.00000000 </v>
   <v name="shift">      0.00000000       0.00000000       0.00000000 </v>
  </generation>
  <varray name="kpointlist" >
   <v>       0.00000000       0.00000000       0.00000000 </v>
   <v>       0.08333333       0.00000000       0.00000000 </v>
   <v>       0.16666667      -0.00000000       0.00000000 </v>
   <v>       0.25000000      -0.00000000       0.00000000 </v>
   <v>       0.33333333       0.00000000       0.00000000 </v>
   <v>       0.41666667       0.00000000       0.00000000 </v>
   <v>       0.50000000      -0.00000000       0.00000000 </v>
   <v>       0.00000000       0.08333333       0.00000000 </v>
   <v>       0.16666667       0.08333333       0.00000000 </v>
   <v>       0.25000000       0.08333333       0.00000000 </v>
   <v>       0.33333333       0.08333333       0.00000000 </v>
   <v>       0.41666667       0.08333333       0.00000000 </v>
   <v>       0.50000000       0.08333333       0.00000000 </v>
   <v>      -0.41666667       0.08333333       0.00000000 </v>
   <v>      -0.33333333       0.08333333       0.00000000 </v>
   <v>      -0.25000000       0.08333333       0.00000000 </v>
   <v>      -0.16666667       0.08333333       0.00000000 </v>
   <v>      -0.08333333       0.08333333       0.00000000 </v>
   <v>       0.00000000       0.16666667       0.00000000 </v>
   <v>       0.33333333       0.16666667       0.00000000 </v>
   <v>       0.41666667       0.16666667       0.00000000 </v>
   <v>       0.50000000       0.16666667       0.00000000 </v>
   <v>      -0.41666667       0.16666667       0.00000000 </v>
   <v>      -0.33333333       0.16666667       0.00000000 </v>
   <v>      -0.25000000       0.16666667       0.00000000 </v>
   <v>      -0.16666667       0.16666667       0.00000000 </v>
   <v>      -0.08333333       0.16666667       0.00000000 </v>
   <v>       0.00000000       0.25000000       0.00000000 </v>
   <v>       0.50000000       0.25000000       0.00000000 </v>
   <v>      -0.41666667       0.25000000       0.00000000 </v>
   <v>      -0.33333333       0.25000000       0.00000000 </v>
   <v>      -0.25000000       0.25000000       0.00000000 </v>
   <v>      -0.16666667       0.25000000       0.00000000 </v>
   <v>      -0.08333333       0.25000000       0.00000000 </v>
   <v>       0.00000000       0.33333333       0.00000000 </v>
   <v>      -0.33333333       0.33333333       0.00000000 </v>
   <v>      -0.25000000       0.33333333       0.00000000 </v>
   <v>      -0.16666667       0.33333333       0.00000000 </v>
   <v>      -0.08333333       0.33333333       0.00000000 </v>
   <v>       0.00000000       0.41666667       0.00000000 </v>
   <v>      -0.16666667       0.41666667       0.00000000 </v>
   <v>      -0.08333333       0.41666667       0.00000000 </v>
   <v>       0.00000000       0.50000000       0.00000000 </v>
  </varray>
  <varray name="weights" >
   <v>       0.00694444 </v>
   <v>       0.02777778 </v>
   <v>       0.02777778 </v>
   <v>       0.02777778 </v>
   <v>       0.02777778 </v>
   <v>       0.02777778 </v>
   <v>       0.01388889 </v>
   <v>       0.01388889 </v>
   <v>       0.01388889 </v>
   <v>       0.02777778 </v>
   <v>       0.02777778 </v>
   <v>       0.02777778 </v>
   <v>       0.02777778 </v>
   <v>       0.02777778 </v>
   <v>       0.02777778 </v>
   <v>       0.02777778 </v>
   <v>       0.02777778 </v>
   <v>       0.02777778 </v>
   <v>       0.01388889 </v>
   <v>       0.01388889 </v>
   <v>       0.02777778 </v>
   <v>       0.02777778 </v>
   <v>       0.02777778 </v>
   <v>       0.02777778 </v>
   <v>       0.02777778 </v>
   <v>       0.02777778 </v>
   <v>       0.02777778 </v>
   <v>       0.01388889 </v>
   <v>       0.01388889 </v>
   <v>       0.02777778 </v>
   <v>       0.02777778 </v>
   <v>       0.02777778 </v>
   <v>       0.02777778 </v>
   <v>       0.02777778 </v>
   <v>       0.01388889 </v>
   <v>       0.01388889 </v>
   <v>       0.02777778 </v>
   <v>       0.02777778 </v>
   <v>       0.02777778 </v>
   <v>       0.01388889 </v>
   <v>       0.01388889 </v>
   <v>       0.02777778 </v>
   <v>       0.00694444 </v>
  </varray>
 </kpoints>
 <parameters>
  <separator name="general" >
   <i type="string" name="SYSTEM">BC3</i>
   <i type="logical" name="LCOMPAT"> F  </i>
  </separator>
  <separator name="electronic" >
   <i type="string" name="PREC">accura</i>
   <i name="ENMAX">    450.00000000</i>
   <i name="ENAUG">    644.87300000</i>
   <i name="EDIFF">      0.00000100</i>
   <i type="int" name="IALGO">    38</i>
   <i type="int" name="IWAVPR">    11</i>
   <i type="int" name="NBANDS">    24</i>
   <i name="NELECT">     30.00000000</i>
   <i type="int" name="TURBO">     0</i>
   <i type="int" name="IRESTART">     0</i>
   <i type="int" name="NREBOOT">     0</i>
   <i type="int" name="NMIN">     0</i>
   <i name="EREF">      0.00000000</i>
   <separator name="electronic smearing" >
    <i type="int" name="ISMEAR">     0</i>
    <i name="SIGMA">      0.10000000</i>
    <i name="KSPACING">      0.50000000</i>
    <i type="logical" name="KGAMMA"> T  </i>
   </separator>
   <separator name="electronic projectors" >
    <i type="logical" name="LREAL"> F  </i>
    <v name="ROPT">      0.00000000      0.00000000</v>
    <i type="int" name="LMAXPAW">  -100</i>
    <i type="int" name="LMAXMIX">     2</i>
    <i type="logical" name="NLSPLINE"> F  </i>
   </separator>
   <separator name="electronic startup" >
    <i type="int" name="ISTART">     0</i>
    <i type="int" name="ICHARG">     2</i>
    <i type="int" name="INIWAV">     1</i>
   </separator>
   <separator name="electronic spin" >
    <i type="int" name="ISPIN">     1</i>
    <i type="logical" name="LNONCOLLINEAR"> F  </i>
    <v name="MAGMOM">      1.00000000      1.00000000      1.00000000      1.00000000      1.00000000      1.00000000      1.00000000      1.00000000</v>
    <i name="NUPDOWN">     -1.00000000</i>
    <i type="logical" name="LSORBIT"> F  </i>
    <v name="SAXIS">      0.00000000      0.00000000      1.00000000</v>
    <i type="logical" name="LSPIRAL"> F  </i>
    <v name="QSPIRAL">      0.00000000      0.00000000      0.00000000</v>
    <i type="logical" name="LZEROZ"> F  </i>
   </separator>
   <separator name="electronic exchange-correlation" >
    <i type="logical" name="LASPH"> F  </i>
    <i type="logical" name="LMETAGGA"> F  </i>
   </separator>
   <separator name="electronic convergence" >
    <i type="int" name="NELM">    60</i>
    <i type="int" name="NELMDL">    -5</i>
    <i type="int" name="NELMIN">     2</i>
    <i name="ENINI">    450.00000000</i>
    <separator name="electronic convergence detail" >
     <i type="logical" name="LDIAG"> T  </i>
     <i type="logical" name="LSUBROT"> F  </i>
     <i name="WEIMIN">      0.00100000</i>
     <i name="EBREAK">      0.00000001</i>
     <i name="DEPER">      0.30000000</i>
     <i type="int" name="NRMM">     4</i>
     <i name="TIME">      0.40000000</i>
    </separator>
   </separator>
   <separator name="electronic mixer" >
    <i name="AMIX">      0.40000000</i>
    <i name="BMIX">      1.00000000</i>
    <i name="AMIN">      0.10000000</i>
    <i name="AMIX_MAG">      1.60000000</i>
    <i name="BMIX_MAG">      1.00000000</i>
    <separator name="electronic mixer details" >
     <i type="int" name="IMIX">     4</i>
     <i type="logical" name="MIXFIRST"> F  </i>
     <i type="int" name="MAXMIX">   -45</i>
     <i name="WC">    100.00000000</i>
     <i type="int" name="INIMIX">     1</i>
     <i type="int" name="MIXPRE">     1</i>
     <i type="int" name="MREMOVE">     5</i>
    </separator>
   </separator>
   <separator name="electronic dipolcorrection" >
    <i type="logical" name="LDIPOL"> F  </i>
    <i type="logical" name="LMONO"> F  </i>
    <i type="int" name="IDIPOL">     0</i>
    <i name="EPSILON">      1.00000000</i>
    <v name="DIPOL">   -100.00000000   -100.00000000   -100.00000000</v>
    <i name="EFIELD">      0.00000000</i>
   </separator>
  </separator>
  <separator name="grids" >
   <i type="int" name="NGX">    36</i>
   <i type="int" name="NGY">    36</i>
   <i type="int" name="NGZ">   140</i>
   <i type="int" name="NGXF">    72</i>
   <i type="int" name="NGYF">    72</i>
   <i type="int" name="NGZF">   280</i>
   <i type="logical" name="ADDGRID"> F  </i>
  </separator>
  <separator name="ionic" >
   <i type="int" name="NSW">   128</i>
   <i type="int" name="IBRION">     2</i>
   <i type="int" name="MDALGO">     0</i>
   <i type="int" name="ISIF">     3</i>
   <i name="PSTRESS">      0.00000000</i>
   <i name="EDIFFG">     -0.01000000</i>
   <i type="int" name="NFREE">     1</i>
   <i name="POTIM">      0.50000000</i>
   <i name="SMASS">     -3.00000000</i>
   <i name="SCALEE">      1.00000000</i>
  </separator>
  <separator name="ionic md" >
   <i name="TEBEG">      0.00010000</i>
   <i name="TEEND">      0.00010000</i>
   <i type="int" name="NBLOCK">     1</i>
   <i type="int" name="KBLOCK">   128</i>
   <i type="int" name="NPACO">   256</i>
   <i name="APACO">     16.00000000</i>
  </separator>
  <separator name="symmetry" >
   <i type="int" name="ISYM">     2</i>
   <i name="SYMPREC">      0.00001000</i>
  </separator>
  <separator name="dos" >
   <i type="int" name="LORBIT">     0</i>
   <v name="RWIGS">     -1.00000000     -1.00000000</v>
   <i type="int" name="NEDOS">   301</i>
   <i name="EMIN">     10.00000000</i>
   <i name="EMAX">    -10.00000000</i>
   <i name="EFERMI">      0.00000000</i>
  </separator>
  <separator name="writing" >
   <i type="int" name="NWRITE">     2</i>
   <i type="logical" name="LWAVE"> T  </i>
   <i type="logical" name="LDOWNSAMPLE"> F  </i>
   <i type="logical" name="LCHARG"> T  </i>
   <i type="logical" name="LPARD"> F  </i>
   <i type="logical" name="LVTOT"> F  </i>
   <i type="logical" name="LVHAR"> F  </i>
   <i type="logical" name="LELF"> F  </i>
   <i type="logical" name="LOPTICS"> F  </i>
   <v name="STM">      0.00000000      0.00000000      0.00000000      0.00000000      0.00000000      0.00000000      0.00000000</v>
  </separator>
  <separator name="performance" >
   <i type="int" name="NPAR">    12</i>
   <i type="int" name="NSIM">     4</i>
   <i type="int" name="NBLK">    -1</i>
   <i type="logical" name="LPLANE"> T  </i>
   <i type="logical" name="LSCALAPACK"> T  </i>
   <i type="logical" name="LSCAAWARE"> F  </i>
   <i type="logical" name="LSCALU"> F  </i>
   <i type="logical" name="LASYNC"> F  </i>
   <i type="logical" name="LORBITALREAL"> F  </i>
  </separator>
  <separator name="miscellaneous" >
   <i type="int" name="IDIOT">     3</i>
   <i type="int" name="ISPECIAL">     0</i>
   <i type="logical" name="LMUSIC"> F  </i>
   <v name="POMASS">     10.81100000     12.01100000</v>
   <v name="DARWINR">      0.00000000      0.00000000</v>
   <v name="DARWINV">      1.00000000      1.00000000</v>
   <i type="logical" name="LCORR"> T  </i>
  </separator>
  <i type="logical" name="GGA_COMPAT"> T  </i>
  <i type="logical" name="LBERRY"> F  </i>
  <i type="int" name="ICORELEVEL">     0</i>
  <i type="logical" name="LDAU"> F  </i>
  <i type="int" name="I_CONSTRAINED_M">     0</i>
  <separator name="electronic exchange-correlation" >
   <i type="string" name="GGA">--</i>
   <i type="int" name="VOSKOWN">     0</i>
   <i type="logical" name="LHFCALC"> F  </i>
   <i type="string" name="PRECFOCK"></i>
   <i type="logical" name="LSYMGRAD"> F  </i>
   <i type="logical" name="LHFONE"> F  </i>
   <i type="logical" name="LRHFCALC"> F  </i>
   <i type="logical" name="LTHOMAS"> F  </i>
   <i type="logical" name="LMODELHF"> F  </i>
   <i name="ENCUT4O">     -1.00000000</i>
   <i type="int" name="EXXOEP">     0</i>
   <i type="int" name="FOURORBIT">     0</i>
   <i name="AEXX">      0.00000000</i>
   <i name="HFALPHA">      0.00000000</i>
   <i name="MCALPHA">      0.00000000</i>
   <i name="ALDAX">      1.00000000</i>
   <i name="AGGAX">      1.00000000</i>
   <i name="ALDAC">      1.00000000</i>
   <i name="AGGAC">      1.00000000</i>
   <i type="int" name="NKREDX">     1</i>
   <i type="int" name="NKREDY">     1</i>
   <i type="int" name="NKREDZ">     1</i>
   <i type="logical" name="SHIFTRED"> F  </i>
   <i type="logical" name="ODDONLY"> F  </i>
   <i type="logical" name="EVENONLY"> F  </i>
   <i type="int" name="LMAXFOCK">     0</i>
   <i type="int" name="NMAXFOCKAE">     0</i>
   <i type="logical" name="LFOCKAEDFT"> F  </i>
   <i name="HFSCREEN">      0.00000000</i>
   <i name="HFSCREENC">      0.00000000</i>
   <i type="int" name="NBANDSGWLOW">     0</i>
  </separator>
  <separator name="vdW DFT" >
   <i type="logical" name="LUSE_VDW"> F  </i>
   <i name="Zab_VDW">     -0.84910000</i>
   <i name="PARAM1">      0.12340000</i>
   <i name="PARAM2">      1.00000000</i>
   <i name="PARAM3">      0.00000000</i>
  </separator>
  <separator name="model GW" >
   <i type="int" name="MODEL_GW">     0</i>
   <i name="MODEL_EPS0">     34.77704100</i>
   <i name="MODEL_ALPHA">      1.00000000</i>
  </separator>
  <separator name="linear response parameters" >
   <i type="logical" name="LEPSILON"> F  </i>
   <i type="logical" name="LRPA"> F  </i>
   <i type="logical" name="LNABLA"> F  </i>
   <i type="logical" name="LVEL"> F  </i>
   <i type="int" name="KINTER">     0</i>
   <i name="CSHIFT">      0.10000000</i>
   <i name="OMEGAMAX">     -1.00000000</i>
   <i name="DEG_THRESHOLD">      0.00200000</i>
   <i name="RTIME">     -0.10000000</i>
   <i name="WPLASMAI">      0.00000000</i>
   <v name="DFIELD">      0.00000000      0.00000000      0.00000000</v>
   <v name="WPLASMA">      0.00000000      0.00000000      0.00000000      0.00000000      0.00000000      0.00000000      0.00000000      0.00000000      0.00000000</v>
  </separator>
  <separator name="orbital magnetization" >
   <i type="logical" name="NUCIND"> F  </i>
   <v name="MAGPOS">      0.00000000      0.00000000      0.00000000</v>
   <i type="logical" name="LNICSALL"> T  </i>
   <i type="logical" name="ORBITALMAG"> F  </i>
   <i type="logical" name="LMAGBLOCH"> F  </i>
   <i type="logical" name="LCHIMAG"> F  </i>
   <i type="logical" name="LGAUGE"> T  </i>
   <i type="int" name="MAGATOM">     0</i>
   <v name="MAGDIPOL">      0.00000000      0.00000000      0.00000000</v>
   <v name="AVECCONST">      0.00000000      0.00000000      0.00000000</v>
  </separator>
  <separator name="response functions" >
   <i type="logical" name="LADDER"> F  </i>
   <i type="logical" name="LRPAFORCE"> F  </i>
   <i type="logical" name="LFXC"> F  </i>
   <i type="logical" name="LHARTREE"> T  </i>
   <i type="int" name="IBSE">     0</i>
   <v type="int" name="KPOINT">    -1     0     0     0</v>
   <i type="logical" name="LTCTE"> F  </i>
   <i type="logical" name="LTETE"> F  </i>
   <i type="logical" name="LTRIPLET"> F  </i>
   <i type="logical" name="LFXCEPS"> F  </i>
   <i type="logical" name="LFXHEG"> F  </i>
   <i type="int" name="NATURALO">     2</i>
   <i type="logical" name="L2ORDER"> F  </i>
   <i type="logical" name="LMP2LT"> F  </i>
   <i type="logical" name="LUSEW"> F  </i>
   <i name="ENCUTGW">     -2.00000000</i>
   <i name="ENCUTGWSOFT">     -2.00000000</i>
   <i name="ENCUTLF">     -1.00000000</i>
   <i type="int" name="LMAXMP2">    -1</i>
   <i name="SCISSOR">      0.00000000</i>
   <i type="int" name="NOMEGA">     0</i>
   <i type="int" name="NOMEGAR">     0</i>
   <i type="int" name="NBANDSGW">    -1</i>
   <i type="int" name="NBANDSO">    -1</i>
   <i type="int" name="NBANDSV">    -1</i>
   <i type="int" name="NELM">     1</i>
   <i type="int" name="NELMHF">     1</i>
   <i type="int" name="DIM">     3</i>
   <i type="int" name="ANTIRES">     0</i>
   <i name="OMEGAMAX">    -30.00000000</i>
   <i name="OMEGAMIN">    -30.00000000</i>
   <i name="OMEGATL">   -200.00000000</i>
   <i type="int" name="OMEGAGRID">   140</i>
   <i name="CSHIFT">     -0.10000000</i>
   <i type="logical" name="SELFENERGY"> F  </i>
   <i type="logical" name="LSPECTRAL"> F  </i>
   <i type="logical" name="LSPECTRALGW"> F  </i>
   <i type="logical" name="LSINGLES"> F  </i>
   <i type="logical" name="LFERMIGW"> F  </i>
   <i type="logical" name="ODDONLYGW"> F  </i>
   <i type="logical" name="EVENONLYGW"> F  </i>
   <i type="int" name="NKREDLFX">     1</i>
   <i type="int" name="NKREDLFY">     1</i>
   <i type="int" name="NKREDLFZ">     1</i>
   <i type="int" name="MAXMEM">  2800</i>
   <i type="int" name="TELESCOPE">     0</i>
   <i type="int" name="TAUPAR">     1</i>
   <i type="int" name="OMEGAPAR">    -1</i>
   <i name="LAMBDA">      1.00000000</i>
  </separator>
  <separator name="External order field" >
   <i name="OFIELD_KAPPA">      0.00000000</i>
   <v name="OFIELD_K">      0.00000000      0.00000000      0.00000000</v>
   <i name="OFIELD_Q6_NEAR">      0.00000000</i>
   <i name="OFIELD_Q6_FAR">      0.00000000</i>
   <i name="OFIELD_A">      0.00000000</i>
  </separator>
 </parameters>
 <atominfo>
  <atoms>       8 </atoms>
  <types>       2 </types>
  <array name="atoms" >
   <dimension dim="1">ion</dimension>
   <field type="string">element</field>
   <field type="int">atomtype</field>
   <set>
    <rc><c>B </c><c>   1</c></rc>
    <rc><c>B </c><c>   1</c></rc>
    <rc><c>C </c><c>   2</c></rc>
    <rc><c>C </c><c>   2</c></rc>
    <rc><c>C </c><c>   2</c></rc>
    <rc><c>C </c><c>   2</c></rc>
    <rc><c>C </c><c>   2</c></rc>
    <rc><c>C </c><c>   2</c></rc>
   </set>
  </array>
  <array name="atomtypes" >
   <dimension dim="1">type</dimension>
   <field type="int">atomspertype</field>
   <field type="string">element</field>
   <field>mass</field>
   <field>valence</field>
   <field type="string">pseudopotential</field>
   <set>
    <rc><c>   2</c><c>B </c><c>     10.81100000</c><c>      3.00000000</c><c>  PAW_PBE B 06Sep2000                   </c></rc>
    <rc><c>   6</c><c>C </c><c>     12.01100000</c><c>      4.00000000</c><c>  PAW_PBE C 08Apr2002                   </c></rc>
   </set>
  </array>
 </atominfo>
 <structure name="initialpos" >
  <crystal>
   <varray name="basis" >
    <v>       5.17400000       0.00000000       0.00000000 </v>
    <v>       2.58700000       4.48100000       0.00000000 </v>
    <v>       0.00000000       0.00000000      20.00000000 </v>
   </varray>
   <i name="volume">    463.69388000 </i>
   <varray name="rec_basis" >
    <v>       0.19327406      -0.11158224       0.00000000 </v>
    <v>       0.00000000       0.22316447       0.00000000 </v>
    <v>       0.00000000       0.00000000       0.05000000 </v>
   </varray>
  </crystal>
  <varray name="positions" >
   <v>       0.17457326       0.17462620       0.00000000 </v>
   <v>       0.50792519       0.50792234       0.00000000 </v>
   <v>       0.00000000       0.00000000       0.00000000 </v>
   <v>       0.52377271       0.00000000       0.00000000 </v>
   <v>       0.68255138       0.15866994       0.00000000 </v>
   <v>       0.99994706       0.52387860       0.00000000 </v>
   <v>       0.15872573       0.68254854       0.00000000 </v>
   <v>       0.68249844       0.68254854       0.00000000 </v>
  </varray>
 </structure>
 <calculation>
  <scstep>
   <time name="dav">    6.90    6.91</time>
   <time name="total">    7.05    7.06</time>
   <energy>
    <i name="alphaZ">     10.93933817 </i>
    <i name="ewald">   4060.05404224 </i>
    <i name="hartreedc">  -4796.78910906 </i>
    <i name="XCdc">     91.14028263 </i>
    <i name="pawpsdc">    738.13200929 </i>
    <i name="pawaedc">   -739.83780425 </i>
    <i name="eentropy">     -0.02384867 </i>
    <i name="bandstr">   -180.22212375 </i>
    <i name="atom">   1025.20389953 </i>
    <i name="e_fr_energy">    208.59668613 </i>
    <i name="e_wo_entrp">    208.62053480 </i>
    <i name="e_0_energy">    208.60861046 </i>
   </energy>
  </scstep>
  <scstep>
   <time name="dav">    9.53    9.53</time>
   <time name="total">    9.53    9.53</time>
   <energy>
    <i name="e_fr_energy">    -39.40342657 </i>
    <i name="e_wo_entrp">    -39.39784375 </i>
    <i name="e_0_energy">    -39.40063516 </i>
   </energy>
  </scstep>
  <scstep>
   <time name="dav">    7.95    7.97</time>
   <time name="total">    7.95    7.97</time>
   <energy>
    <i name="e_fr_energy">    -72.59638481 </i>
    <i name="e_wo_entrp">    -72.59638481 </i>
    <i name="e_0_energy">    -72.59638481 </i>
   </energy>
  </scstep>
  <scstep>
   <time name="dav">    8.62    8.63</time>
   <time name="total">    8.62    8.63</time>
   <energy>
    <i name="e_fr_energy">    -73.41566520 </i>
    <i name="e_wo_entrp">    -73.41566520 </i>
    <i name="e_0_energy">    -73.41566520 </i>
   </energy>
  </scstep>
  <scstep>
   <time name="dav">    7.99    8.00</time>
   <time name="total">    8.58    8.58</time>
   <energy>
    <i name="e_fr_energy">    -73.43731504 </i>
    <i name="e_wo_entrp">    -73.43731504 </i>
    <i name="e_0_energy">    -73.43731504 </i>
   </energy>
  </scstep>
  <scstep>
   <time name="dav">    8.67    8.68</time>
   <time name="total">    9.38    9.39</time>
   <energy>
    <i name="e_fr_energy">    -68.97830614 </i>
    <i name="e_wo_entrp">    -68.97830614 </i>
    <i name="e_0_energy">    -68.97830614 </i>
   </energy>
  </scstep>
  <scstep>
   <time name="dav">    8.76    8.77</time>
   <time name="total">    9.47    9.48</time>
   <energy>
    <i name="e_fr_energy">    -67.33272224 </i>
    <i name="e_wo_entrp">    -67.33272224 </i>
    <i name="e_0_energy">    -67.33272224 </i>
   </energy>
  </scstep>
  <scstep>
   <time name="dav">    9.07    9.08</time>
   <time name="total">    9.79    9.80</time>
   <energy>
    <i name="e_fr_energy">    -67.25260053 </i>
    <i name="e_wo_entrp">    -67.25260052 </i>
    <i name="e_0_energy">    -67.25260053 </i>
   </energy>
  </scstep>
  <scstep>
   <time name="dav">    7.65    7.66</time>
   <time name="total">    8.36    8.37</time>
   <energy>
    <i name="e_fr_energy">    -67.23476154 </i>
    <i name="e_wo_entrp">    -67.23476152 </i>
    <i name="e_0_energy">    -67.23476153 </i>
   </energy>
  </scstep>
  <scstep>
   <time name="dav">    7.85    7.87</time>
   <time name="total">    8.57    8.59</time>
   <energy>
    <i name="e_fr_energy">    -67.22331786 </i>
    <i name="e_wo_entrp">    -67.22331783 </i>
    <i name="e_0_energy">    -67.22331785 </i>
   </energy>
  </scstep>
  <scstep>
   <time name="dav">    7.25    7.25</time>
   <time name="total">    7.98    7.99</time>
   <energy>
    <i name="e_fr_energy">    -67.22264209 </i>
    <i name="e_wo_entrp">    -67.22264204 </i>
    <i name="e_0_energy">    -67.22264207 </i>
   </energy>
  </scstep>
  <scstep>
   <time name="dav">    7.12    7.13</time>
   <time name="total">    7.87    7.88</time>
   <energy>
    <i name="e_fr_energy">    -67.22286291 </i>
    <i name="e_wo_entrp">    -67.22286285 </i>
    <i name="e_0_energy">    -67.22286288 </i>
   </energy>
  </scstep>
  <scstep>
   <time name="dav">    6.67    6.67</time>
   <time name="total">    7.41    7.42</time>
   <energy>
    <i name="e_fr_energy">    -67.22710790 </i>
    <i name="e_wo_entrp">    -67.22710782 </i>
    <i name="e_0_energy">    -67.22710786 </i>
   </energy>
  </scstep>
  <scstep>
   <time name="dav">    7.22    7.23</time>
   <time name="total">    7.95    7.96</time>
   <energy>
    <i name="e_fr_energy">    -67.22967789 </i>
    <i name="e_wo_entrp">    -67.22967782 </i>
    <i name="e_0_energy">    -67.22967786 </i>
   </energy>
  </scstep>
  <scstep>
   <time name="dav">    6.97    6.98</time>
   <time name="total">    7.71    7.71</time>
   <energy>
    <i name="e_fr_energy">    -67.23019176 </i>
    <i name="e_wo_entrp">    -67.23019169 </i>
    <i name="e_0_energy">    -67.23019172 </i>
   </energy>
  </scstep>
  <scstep>
   <time name="dav">    6.67    6.68</time>
   <time name="total">    7.43    7.44</time>
   <energy>
    <i name="e_fr_energy">    -67.23052444 </i>
    <i name="e_wo_entrp">    -67.23052438 </i>
    <i name="e_0_energy">    -67.23052441 </i>
   </energy>
  </scstep>
  <scstep>
   <time name="dav">    7.41    7.42</time>
   <time name="total">    8.15    8.15</time>
   <energy>
    <i name="e_fr_energy">    -67.23057590 </i>
    <i name="e_wo_entrp">    -67.23057583 </i>
    <i name="e_0_energy">    -67.23057586 </i>
   </energy>
  </scstep>
  <scstep>
   <time name="dav">    6.93    6.94</time>
   <time name="total">    7.67    7.67</time>
   <energy>
    <i name="e_fr_energy">    -67.23061366 </i>
    <i name="e_wo_entrp">    -67.23061359 </i>
    <i name="e_0_energy">    -67.23061362 </i>
   </energy>
  </scstep>
  <scstep>
   <time name="dav">    6.08    6.08</time>
   <time name="total">    6.81    6.82</time>
   <energy>
    <i name="e_fr_energy">    -67.23061970 </i>
    <i name="e_wo_entrp">    -67.23061963 </i>
    <i name="e_0_energy">    -67.23061966 </i>
   </energy>
  </scstep>
  <scstep>
   <time name="dav">    5.47    5.48</time>
   <time name="total">    6.20    6.21</time>
   <energy>
    <i name="e_fr_energy">    -67.23063252 </i>
    <i name="e_wo_entrp">    -67.23063245 </i>
    <i name="e_0_energy">    -67.23063248 </i>
   </energy>
  </scstep>
  <scstep>
   <time name="dav">    5.83    5.84</time>
   <time name="total">    6.56    6.56</time>
   <energy>
    <i name="e_fr_energy">    -67.23063452 </i>
    <i name="e_wo_entrp">    -67.23063445 </i>
    <i name="e_0_energy">    -67.23063448 </i>
   </energy>
  </scstep>
  <scstep>
   <time name="dav">    5.51    5.52</time>
   <time name="total">    5.65    5.66</time>
   <energy>
    <i name="alphaZ">     10.93933817 </i>
    <i name="ewald">   4060.05404224 </i>
    <i name="hartreedc">  -4938.55780291 </i>
    <i name="XCdc">     96.01879661 </i>
    <i name="pawpsdc">   2893.56536640 </i>
    <i name="pawaedc">  -2896.09237600 </i>
    <i name="eentropy">     -0.00000007 </i>
    <i name="bandstr">   -318.36189926 </i>
    <i name="atom">   1025.20389953 </i>
    <i name="e_fr_energy">    -67.23063528 </i>
    <i name="e_wo_entrp">    -67.23063522 </i>
    <i name="e_0_energy">    -67.23063525 </i>
   </energy>
  </scstep>
  <structure>
   <crystal>
    <varray name="basis" >
     <v>       5.17400000       0.00000000       0.00000000 </v>
     <v>       2.58700000       4.48100000       0.00000000 </v>
     <v>       0.00000000       0.00000000      20.00000000 </v>
    </varray>
    <i name="volume">    463.69388000 </i>
    <varray name="rec_basis" >
     <v>       0.19327406      -0.11158224       0.00000000 </v>
     <v>       0.00000000       0.22316447       0.00000000 </v>
     <v>       0.00000000       0.00000000       0.05000000 </v>
    </varray>
   </crystal>
   <varray name="positions" >
    <v>       0.17457326       0.17462620       0.00000000 </v>
    <v>       0.50792519       0.50792234       0.00000000 </v>
    <v>       0.00000000       0.00000000       0.00000000 </v>
    <v>       0.52377271       0.00000000       0.00000000 </v>
    <v>       0.68255138       0.15866994       0.00000000 </v>
    <v>       0.99994706       0.52387860       0.00000000 </v>
    <v>       0.15872573       0.68254854       0.00000000 </v>
    <v>       0.68249844       0.68254854       0.00000000 </v>
   </varray>
  </structure>
  <varray name="forces" >
   <v>      -0.00000000       0.00448289      -0.00000000 </v>
   <v>      -0.00000000      -0.00448289      -0.00000000 </v>
   <v>      -0.01821629      -0.01143951      -0.00000000 </v>
   <v>       0.01821629      -0.01143951      -0.00000000 </v>
   <v>      -0.00000000      -0.00894973      -0.00000000 </v>
   <v>      -0.00000000       0.00894973       0.00000000 </v>
   <v>      -0.01821629       0.01143951      -0.00000000 </v>
   <v>       0.01821629       0.01143951       0.00000000 </v>
  </varray>
  <varray name="stress" >
   <v>      -0.27518842       0.00000000       0.00000000 </v>
   <v>      -0.00000000      -0.32636908       0.00000000 </v>
   <v>       0.00000000       0.00000000      -0.61262373 </v>
  </varray>
  <energy>
   <i name="e_fr_energy">    -67.23063528 </i>
   <i name="e_wo_entrp">    -67.23063525 </i>
   <i name="e_0_energy">     -0.00000007 </i>
  </energy>
  <time name="totalsc">  183.62  184.09</time>
 </calculation>
 <calculation>
  <scstep>
   <time name="dav">    7.10    7.11</time>
   <time name="total">    7.84    7.85</time>
   <energy>
    <i name="alphaZ">     10.96255330 </i>
    <i name="ewald">   4059.27480449 </i>
    <i name="hartreedc">  -4938.72218940 </i>
    <i name="XCdc">     96.08803974 </i>
    <i name="pawpsdc">   2893.56777066 </i>
    <i name="pawaedc">  -2896.09477729 </i>
    <i name="eentropy">     -0.00000010 </i>
    <i name="bandstr">   -317.51095925 </i>
    <i name="atom">   1025.20389953 </i>
    <i name="e_fr_energy">    -67.23085833 </i>
    <i name="e_wo_entrp">    -67.23085823 </i>
    <i name="e_0_energy">    -67.23085828 </i>
   </energy>
  </scstep>
  <scstep>
   <time name="dav">    6.85    6.86</time>
   <time name="total">    7.57    7.58</time>
   <energy>
    <i name="e_fr_energy">    -67.23073164 </i>
    <i name="e_wo_entrp">    -67.23073156 </i>
    <i name="e_0_energy">    -67.23073160 </i>
   </energy>
  </scstep>
  <scstep>
   <time name="dav">    7.09    7.10</time>
   <time name="total">    7.81    7.81</time>
   <energy>
    <i name="e_fr_energy">    -67.23064965 </i>
    <i name="e_wo_entrp">    -67.23064958 </i>
    <i name="e_0_energy">    -67.23064961 </i>
   </energy>
  </scstep>
  <scstep>
   <time name="dav">    7.22    7.23</time>
   <time name="total">    7.94    7.95</time>
   <energy>
    <i name="e_fr_energy">    -67.23064793 </i>
    <i name="e_wo_entrp">    -67.23064786 </i>
    <i name="e_0_energy">    -67.23064789 </i>
   </energy>
  </scstep>
  <scstep>
   <time name="dav">    5.94    5.95</time>
   <time name="total">    6.65    6.66</time>
   <energy>
    <i name="e_fr_energy">    -67.23065206 </i>
    <i name="e_wo_entrp">    -67.23065199 </i>
    <i name="e_0_energy">    -67.23065203 </i>
   </energy>
  </scstep>
  <scstep>
   <time name="dav">    6.32    6.32</time>
   <time name="total">    7.03    7.04</time>
   <energy>
    <i name="e_fr_energy">    -67.23065641 </i>
    <i name="e_wo_entrp">    -67.23065634 </i>
    <i name="e_0_energy">    -67.23065637 </i>
   </energy>
  </scstep>
  <scstep>
   <time name="dav">    7.02    7.03</time>
   <time name="total">    7.74    7.75</time>
   <energy>
    <i name="e_fr_energy">    -67.23066595 </i>
    <i name="e_wo_entrp">    -67.23066588 </i>
    <i name="e_0_energy">    -67.23066592 </i>
   </energy>
  </scstep>
  <scstep>
   <time name="dav">    6.27    6.27</time>
   <time name="total">    6.99    6.99</time>
   <energy>
    <i name="e_fr_energy">    -67.23066939 </i>
    <i name="e_wo_entrp">    -67.23066932 </i>
    <i name="e_0_energy">    -67.23066935 </i>
   </energy>
  </scstep>
  <scstep>
   <time name="dav">    5.80    5.81</time>
   <time name="total">    6.52    6.53</time>
   <energy>
    <i name="e_fr_energy">    -67.23067189 </i>
    <i name="e_wo_entrp">    -67.23067182 </i>
    <i name="e_0_energy">    -67.23067185 </i>
   </energy>
  </scstep>
  <scstep>
   <time name="dav">    5.48    5.48</time>
   <time name="total">    6.21    6.21</time>
   <energy>
    <i name="e_fr_energy">    -67.23067365 </i>
    <i name="e_wo_entrp">    -67.23067358 </i>
    <i name="e_0_energy">    -67.23067362 </i>
   </energy>
  </scstep>
  <scstep>
   <time name="dav">    6.09    6.10</time>
   <time name="total">    6.23    6.24</time>
   <energy>
    <i name="alphaZ">     10.96255330 </i>
    <i name="ewald">   4059.27480449 </i>
    <i name="hartreedc">  -4937.87561942 </i>
    <i name="XCdc">     96.05959956 </i>
    <i name="pawpsdc">   2901.55875812 </i>
    <i name="pawaedc">  -2904.08961825 </i>
    <i name="eentropy">     -0.00000007 </i>
    <i name="bandstr">   -318.32505113 </i>
    <i name="atom">   1025.20389953 </i>
    <i name="e_fr_energy">    -67.23067386 </i>
    <i name="e_wo_entrp">    -67.23067379 </i>
    <i name="e_0_energy">    -67.23067383 </i>
   </energy>
  </scstep>
  <structure>
   <crystal>
    <varray name="basis" >
     <v>       5.17151504       0.00000000       0.00000000 </v>
     <v>       2.58575752       4.47844762       0.00000000 </v>
     <v>       0.00000000       0.00000000      19.97861615 </v>
    </varray>
    <i name="volume">    462.71192698 </i>
    <varray name="rec_basis" >
     <v>       0.19336693      -0.11164583       0.00000000 </v>
     <v>       0.00000000       0.22329166       0.00000000 </v>
     <v>       0.00000000       0.00000000       0.05005352 </v>
    </varray>
   </crystal>
   <varray name="positions" >
    <v>       0.17454912       0.17467446      -0.00000000 </v>
    <v>       0.50794932       0.50787408      -0.00000000 </v>
    <v>      -0.00010827      -0.00012316      -0.00000000 </v>
    <v>       0.52400414      -0.00012316      -0.00000000 </v>
    <v>       0.68259956       0.15857359      -0.00000000 </v>
    <v>       0.99989888       0.52397495       0.00000000 </v>
    <v>       0.15849430       0.68267170      -0.00000000 </v>
    <v>       0.68260671       0.68267170       0.00000000 </v>
   </varray>
  </structure>
  <varray name="forces" >
   <v>       0.00000000      -0.01796915       0.00000000 </v>
   <v>       0.00000000       0.01796915      -0.00000000 </v>
   <v>       0.04085769       0.03952774      -0.00000000 </v>
   <v>      -0.04085769       0.03952774      -0.00000000 </v>
   <v>      -0.00000000       0.02806569      -0.00000000 </v>
   <v>       0.00000000      -0.02806569       0.00000000 </v>
   <v>       0.04085769      -0.03952774       0.00000000 </v>
   <v>      -0.04085769      -0.03952774       0.00000000 </v>
  </varray>
  <varray name="stress" >
   <v>       0.67185572      -0.00000000       0.00000000 </v>
   <v>       0.00000000       0.84668953       0.00000000 </v>
   <v>       0.00000000       0.00000000      -0.59713934 </v>
  </varray>
  <energy>
   <i name="e_fr_energy">    -67.23067386 </i>
   <i name="e_wo_entrp">    -67.23067383 </i>
   <i name="e_0_energy">     -0.00000007 </i>
  </energy>
  <time name="totalsc">   85.64   85.78</time>
 </calculation>
 <calculation>
  <scstep>
   <time name="dav">    6.63    6.63</time>
   <time name="total">    7.36    7.37</time>
   <energy>
    <i name="alphaZ">     10.95210566 </i>
    <i name="ewald">   4059.62539134 </i>
    <i name="hartreedc">  -4937.80035711 </i>
    <i name="XCdc">     96.02845114 </i>
    <i name="pawpsdc">   2901.55646920 </i>
    <i name="pawaedc">  -2904.08732630 </i>
    <i name="eentropy">     -0.00000006 </i>
    <i name="bandstr">   -318.70941517 </i>
    <i name="atom">   1025.20389953 </i>
    <i name="e_fr_energy">    -67.23078178 </i>
    <i name="e_wo_entrp">    -67.23078172 </i>
    <i name="e_0_energy">    -67.23078175 </i>
   </energy>
  </scstep>
  <scstep>
   <time name="dav">    6.59    6.59</time>
   <time name="total">    7.29    7.30</time>
   <energy>
    <i name="e_fr_energy">    -67.23075569 </i>
    <i name="e_wo_entrp">    -67.23075563 </i>
    <i name="e_0_energy">    -67.23075566 </i>
   </energy>
  </scstep>
  <scstep>
   <time name="dav">    6.79    6.80</time>
   <time name="total">    7.50    7.51</time>
   <energy>
    <i name="e_fr_energy">    -67.23073888 </i>
    <i name="e_wo_entrp">    -67.23073882 </i>
    <i name="e_0_energy">    -67.23073885 </i>
   </energy>
  </scstep>
  <scstep>
   <time name="dav">    6.61    6.62</time>
   <time name="total">    7.32    7.33</time>
   <energy>
    <i name="e_fr_energy">    -67.23073758 </i>
    <i name="e_wo_entrp">    -67.23073751 </i>
    <i name="e_0_energy">    -67.23073754 </i>
   </energy>
  </scstep>
  <scstep>
   <time name="dav">    6.00    6.00</time>
   <time name="total">    6.13    6.14</time>
   <energy>
    <i name="alphaZ">     10.95210566 </i>
    <i name="ewald">   4059.62539134 </i>
    <i name="hartreedc">  -4938.12913606 </i>
    <i name="XCdc">     96.04076928 </i>
    <i name="pawpsdc">   2897.98117238 </i>
    <i name="pawaedc">  -2900.51030490 </i>
    <i name="eentropy">     -0.00000007 </i>
    <i name="bandstr">   -318.39463397 </i>
    <i name="atom">   1025.20389953 </i>
    <i name="e_fr_energy">    -67.23073682 </i>
    <i name="e_wo_entrp">    -67.23073676 </i>
    <i name="e_0_energy">    -67.23073679 </i>
   </energy>
  </scstep>
