<?xml version="1.0" encoding="ISO-8859-1"?>
<modeling>
 <generator>
  <i name="program" type="string">vasp </i>
  <i name="version" type="string">5.4.4.18Apr17-6-g9f103f2a35  </i>
  <i name="subversion" type="string">(build Mar 30 2023 15:39:25) complex            parallel </i>
  <i name="platform" type="string">LinuxIFC </i>
  <i name="date" type="string">2023 05 26 </i>
  <i name="time" type="string">22:29:53 </i>
 </generator>
 <incar>
  <i type="string" name="SYSTEM"> BC3</i>
  <i type="int" name="ISTART">     0</i>
  <i type="string" name="PREC">accurate</i>
  <i type="string" name="ALGO">  Normal</i>
  <i type="int" name="ICHARG">     2</i>
  <i type="int" name="IBRION">     2</i>
  <i name="EDIFF">      0.00000100</i>
  <i name="EDIFFG">     -0.01000000</i>
  <i type="int" name="NSW">   128</i>
  <i type="int" name="ISIF">     3</i>
  <i name="ENCUT">    450.00000000</i>
  <i type="int" name="ISMEAR">     0</i>
  <i name="SIGMA">      0.10000000</i>
  <v type="int" name="KPOINT_BSE">    -1     0     0     0</v>
 </incar>
 <structure name="primitive_cell" >
  <crystal>
   <varray name="basis" >
    <v>       5.17400000       0.00000000       0.00000000 </v>
    <v>       2.58700000       4.48100000       0.00000000 </v>
    <v>       0.00000000       0.00000000      20.00000000 </v>
   </varray>
   <i name="volume">    463.69388000 </i>
   <varray name="rec_basis" >
    <v>       0.19327406      -0.11158224       0.00000000 </v>
    <v>       0.00000000       0.22316447       0.00000000 </v>
    <v>       0.00000000       0.00000000       0.05000000 </v>
   </varray>
  </crystal>
  <varray name="positions" >
   <v>       0.17457326       0.17462620       0.00000000 </v>
   <v>       0.00000000       0.00000000       0.00000000 </v>
   <v>      -0.47622729       0.00000000       0.00000000 </v>
   <v>      -0.00005294      -0.47612140       0.00000000 </v>
   <v>      -0.31744862       0.15866994       0.00000000 </v>
   <v>      -0.31750156      -0.31745146       0.00000000 </v>
   <v>       0.15872573      -0.31745146       0.00000000 </v>
   <v>      -0.49207481      -0.49207766       0.00000000 </v>
  </varray>
 </structure>
 <varray name="primitive_index" >
  <v type="int" >        1 </v>
  <v type="int" >        3 </v>
  <v type="int" >        4 </v>
  <v type="int" >        6 </v>
  <v type="int" >        5 </v>
  <v type="int" >        8 </v>
  <v type="int" >        7 </v>
  <v type="int" >        2 </v>
 </varray>
 <kpoints>
  <generation param="Gamma">
   <v type="int" name="divisions">      12       12        1 </v>
   <v name="usershift">      0.00000000       0.00000000       0.00000000 </v>
   <v name="genvec1">      0.08333333       0.00000000       0.00000000 </v>
   <v name="genvec2">      0.00000000       0.08333333       0.00000000 </v>
   <v name="genvec3">      0.00000000       0.00000000       1.00000000 </v>
   <v name="shift">      0.00000000       0.00000000       0.00000000 </v>
  </generation>
  <varray name="kpointlist" >
   <v>       0.00000000       0.00000000       0.00000000 </v>
   <v>       0.08333333       0.00000000       0.00000000 </v>
   <v>       0.16666667      -0.00000000       0.00000000 </v>
   <v>       0.25000000      -0.00000000       0.00000000 </v>
   <v>       0.33333333       0.00000000       0.00000000 </v>
   <v>       0.41666667       0.00000000       0.00000000 </v>
   <v>       0.50000000      -0.00000000       0.00000000 </v>
   <v>       0.00000000       0.08333333       0.00000000 </v>
   <v>       0.16666667       0.08333333       0.00000000 </v>
   <v>       0.25000000       0.08333333       0.00000000 </v>
   <v>       0.33333333       0.08333333       0.00000000 </v>
   <v>       0.41666667       0.08333333       0.00000000 </v>
   <v>       0.50000000       0.08333333       0.00000000 </v>
   <v>      -0.41666667       0.08333333       0.00000000 </v>
   <v>      -0.33333333       0.08333333       0.00000000 </v>
   <v>      -0.25000000       0.08333333       0.00000000 </v>
   <v>      -0.16666667       0.08333333       0.00000000 </v>
   <v>      -0.08333333       0.08333333       0.00000000 </v>
   <v>       0.00000000       0.16666667       0.00000000 </v>
   <v>       0.33333333       0.16666667       0.00000000 </v>
   <v>       0.41666667       0.16666667       0.00000000 </v>
   <v>       0.50000000       0.16666667       0.00000000 </v>
   <v>      -0.41666667       0.16666667       0.00000000 </v>
   <v>      -0.33333333       0.16666667       0.00000000 </v>
   <v>      -0.25000000       0.16666667       0.00000000 </v>
   <v>      -0.16666667       0.16666667       0.00000000 </v>
   <v>      -0.08333333       0.16666667       0.00000000 </v>
   <v>       0.00000000       0.25000000       0.00000000 </v>
   <v>       0.50000000       0.25000000       0.00000000 </v>
   <v>      -0.41666667       0.25000000       0.00000000 </v>
   <v>      -0.33333333       0.25000000       0.00000000 </v>
   <v>      -0.25000000       0.25000000       0.00000000 </v>
   <v>      -0.16666667       0.25000000       0.00000000 </v>
   <v>      -0.08333333       0.25000000       0.00000000 </v>
   <v>       0.00000000       0.33333333       0.00000000 </v>
   <v>      -0.33333333       0.33333333       0.00000000 </v>
   <v>      -0.25000000       0.33333333       0.00000000 </v>
   <v>      -0.16666667       0.33333333       0.00000000 </v>
   <v>      -0.08333333       0.33333333       0.00000000 </v>
   <v>       0.00000000       0.41666667       0.00000000 </v>
   <v>      -0.16666667       0.41666667       0.00000000 </v>
   <v>      -0.08333333       0.41666667       0.00000000 </v>
   <v>       0.00000000       0.50000000       0.00000000 </v>
  </varray>
  <varray name="weights" >
   <v>       0.00694444 </v>
   <v>       0.02777778 </v>
   <v>       0.02777778 </v>
   <v>       0.02777778 </v>
   <v>       0.02777778 </v>
   <v>       0.02777778 </v>
   <v>       0.01388889 </v>
   <v>       0.01388889 </v>
   <v>       0.01388889 </v>
   <v>       0.02777778 </v>
   <v>       0.02777778 </v>
   <v>       0.02777778 </v>
   <v>       0.02777778 </v>
   <v>       0.02777778 </v>
   <v>       0.02777778 </v>
   <v>       0.02777778 </v>
   <v>       0.02777778 </v>
   <v>       0.02777778 </v>
   <v>       0.01388889 </v>
   <v>       0.01388889 </v>
   <v>       0.02777778 </v>
   <v>       0.02777778 </v>
   <v>       0.02777778 </v>
   <v>       0.02777778 </v>
   <v>       0.02777778 </v>
   <v>       0.02777778 </v>
   <v>       0.02777778 </v>
   <v>       0.01388889 </v>
   <v>       0.01388889 </v>
   <v>       0.02777778 </v>
   <v>       0.02777778 </v>
   <v>       0.02777778 </v>
   <v>       0.02777778 </v>
   <v>       0.02777778 </v>
   <v>       0.01388889 </v>
   <v>       0.01388889 </v>
   <v>       0.02777778 </v>
   <v>       0.02777778 </v>
   <v>       0.02777778 </v>
   <v>       0.01388889 </v>
   <v>       0.01388889 </v>
   <v>       0.02777778 </v>
   <v>       0.00694444 </v>
  </varray>
 </kpoints>
 <parameters>
  <separator name="general" >
   <i type="string" name="SYSTEM">BC3</i>
   <i type="logical" name="LCOMPAT"> F  </i>
  </separator>
  <separator name="electronic" >
   <i type="string" name="PREC">accura</i>
   <i name="ENMAX">    450.00000000</i>
   <i name="ENAUG">    644.87300000</i>
   <i name="EDIFF">      0.00000100</i>
   <i type="int" name="IALGO">    38</i>
   <i type="int" name="IWAVPR">    11</i>
   <i type="int" name="NBANDS">    24</i>
   <i name="NELECT">     30.00000000</i>
   <i type="int" name="TURBO">     0</i>
   <i type="int" name="IRESTART">     0</i>
   <i type="int" name="NREBOOT">     0</i>
   <i type="int" name="NMIN">     0</i>
   <i name="EREF">      0.00000000</i>
   <separator name="electronic smearing" >
    <i type="int" name="ISMEAR">     0</i>
    <i name="SIGMA">      0.10000000</i>
    <i name="KSPACING">      0.50000000</i>
    <i type="logical" name="KGAMMA"> T  </i>
   </separator>
   <separator name="electronic projectors" >
    <i type="logical" name="LREAL"> F  </i>
    <v name="ROPT">      0.00000000      0.00000000</v>
    <i type="int" name="LMAXPAW">  -100</i>
    <i type="int" name="LMAXMIX">     2</i>
    <i type="logical" name="NLSPLINE"> F  </i>
   </separator>
   <separator name="electronic startup" >
    <i type="int" name="ISTART">     0</i>
    <i type="int" name="ICHARG">     2</i>
    <i type="int" name="INIWAV">     1</i>
   </separator>
   <separator name="electronic spin" >
    <i type="int" name="ISPIN">     1</i>
    <i type="logical" name="LNONCOLLINEAR"> F  </i>
    <v name="MAGMOM">      1.00000000      1.00000000      1.00000000      1.00000000      1.00000000      1.00000000      1.00000000      1.00000000</v>
    <i name="NUPDOWN">     -1.00000000</i>
    <i type="logical" name="LSORBIT"> F  </i>
    <v name="SAXIS">      0.00000000      0.00000000      1.00000000</v>
    <i type="logical" name="LSPIRAL"> F  </i>
    <v name="QSPIRAL">      0.00000000      0.00000000      0.00000000</v>
    <i type="logical" name="LZEROZ"> F  </i>
   </separator>
   <separator name="electronic exchange-correlation" >
    <i type="logical" name="LASPH"> F  </i>
    <i type="logical" name="LMETAGGA"> F  </i>
   </separator>
   <separator name="electronic convergence" >
    <i type="int" name="NELM">    60</i>
    <i type="int" name="NELMDL">    -5</i>
    <i type="int" name="NELMIN">     2</i>
    <i name="ENINI">    450.00000000</i>
    <separator name="electronic convergence detail" >
     <i type="logical" name="LDIAG"> T  </i>
     <i type="logical" name="LSUBROT"> F  </i>
     <i name="WEIMIN">      0.00100000</i>
     <i name="EBREAK">      0.00000001</i>
     <i name="DEPER">      0.30000000</i>
     <i type="int" name="NRMM">     4</i>
     <i name="TIME">      0.40000000</i>
    </separator>
   </separator>
   <separator name="electronic mixer" >
    <i name="AMIX">      0.40000000</i>
    <i name="BMIX">      1.00000000</i>
    <i name="AMIN">      0.10000000</i>
    <i name="AMIX_MAG">      1.60000000</i>
    <i name="BMIX_MAG">      1.00000000</i>
    <separator name="electronic mixer details" >
     <i type="int" name="IMIX">     4</i>
     <i type="logical" name="MIXFIRST"> F  </i>
     <i type="int" name="MAXMIX">   -45</i>
     <i name="WC">    100.00000000</i>
     <i type="int" name="INIMIX">     1</i>
     <i type="int" name="MIXPRE">     1</i>
     <i type="int" name="MREMOVE">     5</i>
    </separator>
   </separator>
   <separator name="electronic dipolcorrection" >
    <i type="logical" name="LDIPOL"> F  </i>
    <i type="logical" name="LMONO"> F  </i>
    <i type="int" name="IDIPOL">     0</i>
    <i name="EPSILON">      1.00000000</i>
    <v name="DIPOL">   -100.00000000   -100.00000000   -100.00000000</v>
    <i name="EFIELD">      0.00000000</i>
   </separator>
  </separator>
  <separator name="grids" >
   <i type="int" name="NGX">    36</i>
   <i type="int" name="NGY">    36</i>
   <i type="int" name="NGZ">   140</i>
   <i type="int" name="NGXF">    72</i>
   <i type="int" name="NGYF">    72</i>
   <i type="int" name="NGZF">   280</i>
   <i type="logical" name="ADDGRID"> F  </i>
  </separator>
  <separator name="ionic" >
   <i type="int" name="NSW">   128</i>
   <i type="int" name="IBRION">     2</i>
   <i type="int" name="MDALGO">     0</i>
   <i type="int" name="ISIF">     3</i>
   <i name="PSTRESS">      0.00000000</i>
   <i name="EDIFFG">     -0.01000000</i>
   <i type="int" name="NFREE">     1</i>
   <i name="POTIM">      0.50000000</i>
   <i name="SMASS">     -3.00000000</i>
   <i name="SCALEE">      1.00000000</i>
  </separator>
  <separator name="ionic md" >
   <i name="TEBEG">      0.00010000</i>
   <i name="TEEND">      0.00010000</i>
   <i type="int" name="NBLOCK">     1</i>
   <i type="int" name="KBLOCK">   128</i>
   <i type="int" name="NPACO">   256</i>
   <i name="APACO">     16.00000000</i>
  </separator>
  <separator name="symmetry" >
   <i type="int" name="ISYM">     2</i>
   <i name="SYMPREC">      0.00001000</i>
  </separator>
  <separator name="dos" >
   <i type="int" name="LORBIT">     0</i>
   <v name="RWIGS">     -1.00000000     -1.00000000</v>
   <i type="int" name="NEDOS">   301</i>
   <i name="EMIN">     10.00000000</i>
   <i name="EMAX">    -10.00000000</i>
   <i name="EFERMI">      0.00000000</i>
  </separator>
  <separator name="writing" >
   <i type="int" name="NWRITE">     2</i>
   <i type="logical" name="LWAVE"> T  </i>
   <i type="logical" name="LDOWNSAMPLE"> F  </i>
   <i type="logical" name="LCHARG"> T  </i>
   <i type="logical" name="LPARD"> F  </i>
   <i type="logical" name="LVTOT"> F  </i>
   <i type="logical" name="LVHAR"> F  </i>
   <i type="logical" name="LELF"> F  </i>
   <i type="logical" name="LOPTICS"> F  </i>
   <v name="STM">      0.00000000      0.00000000      0.00000000      0.00000000      0.00000000      0.00000000      0.00000000</v>
  </separator>
  <separator name="performance" >
   <i type="int" name="NPAR">    12</i>
   <i type="int" name="NSIM">     4</i>
   <i type="int" name="NBLK">    -1</i>
   <i type="logical" name="LPLANE"> T  </i>
   <i type="logical" name="LSCALAPACK"> T  </i>
   <i type="logical" name="LSCAAWARE"> F  </i>
   <i type="logical" name="LSCALU"> F  </i>
   <i type="logical" name="LASYNC"> F  </i>
   <i type="logical" name="LORBITALREAL"> F  </i>
  </separator>
  <separator name="miscellaneous" >
   <i type="int" name="IDIOT">     3</i>
   <i type="int" name="ISPECIAL">     0</i>
   <i type="logical" name="LMUSIC"> F  </i>
   <v name="POMASS">     10.81100000     12.01100000</v>
   <v name="DARWINR">      0.00000000      0.00000000</v>
   <v name="DARWINV">      1.00000000      1.00000000</v>
   <i type="logical" name="LCORR"> T  </i>
  </separator>
  <i type="logical" name="GGA_COMPAT"> T  </i>
  <i type="logical" name="LBERRY"> F  </i>
  <i type="int" name="ICORELEVEL">     0</i>
  <i type="logical" name="LDAU"> F  </i>
  <i type="int" name="I_CONSTRAINED_M">     0</i>
  <separator name="electronic exchange-correlation" >
   <i type="string" name="GGA">--</i>
   <i type="int" name="VOSKOWN">     0</i>
   <i type="logical" name="LHFCALC"> F  </i>
   <i type="string" name="PRECFOCK"></i>
   <i type="logical" name="LSYMGRAD"> F  </i>
   <i type="logical" name="LHFONE"> F  </i>
   <i type="logical" name="LRHFCALC"> F  </i>
   <i type="logical" name="LTHOMAS"> F  </i>
   <i type="logical" name="LMODELHF"> F  </i>
   <i name="ENCUT4O">     -1.00000000</i>
   <i type="int" name="EXXOEP">     0</i>
   <i type="int" name="FOURORBIT">     0</i>
   <i name="AEXX">      0.00000000</i>
   <i name="HFALPHA">      0.00000000</i>
   <i name="MCALPHA">      0.00000000</i>
   <i name="ALDAX">      1.00000000</i>
   <i name="AGGAX">      1.00000000</i>
   <i name="ALDAC">      1.00000000</i>
   <i name="AGGAC">      1.00000000</i>
   <i type="int" name="NKREDX">     1</i>
   <i type="int" name="NKREDY">     1</i>
   <i type="int" name="NKREDZ">     1</i>
   <i type="logical" name="SHIFTRED"> F  </i>
   <i type="logical" name="ODDONLY"> F  </i>
   <i type="logical" name="EVENONLY"> F  </i>
   <i type="int" name="LMAXFOCK">     0</i>
   <i type="int" name="NMAXFOCKAE">     0</i>
   <i type="logical" name="LFOCKAEDFT"> F  </i>
   <i name="HFSCREEN">      0.00000000</i>
   <i name="HFSCREENC">      0.00000000</i>
   <i type="int" name="NBANDSGWLOW">     0</i>
  </separator>
  <separator name="vdW DFT" >
   <i type="logical" name="LUSE_VDW"> F  </i>
   <i name="Zab_VDW">     -0.84910000</i>
   <i name="PARAM1">      0.12340000</i>
   <i name="PARAM2">      1.00000000</i>
   <i name="PARAM3">      0.00000000</i>
  </separator>
  <separator name="model GW" >
   <i type="int" name="MODEL_GW">     0</i>
   <i name="MODEL_EPS0">     34.77704100</i>
   <i name="MODEL_ALPHA">      1.00000000</i>
  </separator>
  <separator name="linear response parameters" >
   <i type="logical" name="LEPSILON"> F  </i>
   <i type="logical" name="LRPA"> F  </i>
   <i type="logical" name="LNABLA"> F  </i>
   <i type="logical" name="LVEL"> F  </i>
   <i type="int" name="KINTER">     0</i>
   <i name="CSHIFT">      0.10000000</i>
   <i name="OMEGAMAX">     -1.00000000</i>
   <i name="DEG_THRESHOLD">      0.00200000</i>
   <i name="RTIME">     -0.10000000</i>
   <i name="WPLASMAI">      0.00000000</i>
   <v name="DFIELD">      0.00000000      0.00000000      0.00000000</v>
   <v name="WPLASMA">      0.00000000      0.00000000      0.00000000      0.00000000      0.00000000      0.00000000      0.00000000      0.00000000      0.00000000</v>
  </separator>
  <separator name="orbital magnetization" >
   <i type="logical" name="NUCIND"> F  </i>
   <v name="MAGPOS">      0.00000000      0.00000000      0.00000000</v>
   <i type="logical" name="LNICSALL"> T  </i>
   <i type="logical" name="ORBITALMAG"> F  </i>
   <i type="logical" name="LMAGBLOCH"> F  </i>
   <i type="logical" name="LCHIMAG"> F  </i>
   <i type="logical" name="LGAUGE"> T  </i>
   <i type="int" name="MAGATOM">     0</i>
   <v name="MAGDIPOL">      0.00000000      0.00000000      0.00000000</v>
   <v name="AVECCONST">      0.00000000      0.00000000      0.00000000</v>
  </separator>
  <separator name="response functions" >
   <i type="logical" name="LADDER"> F  </i>
   <i type="logical" name="LRPAFORCE"> F  </i>
   <i type="logical" name="LFXC"> F  </i>
   <i type="logical" name="LHARTREE"> T  </i>
   <i type="int" name="IBSE">     0</i>
   <v type="int" name="KPOINT">    -1     0     0     0</v>
   <i type="logical" name="LTCTE"> F  </i>
   <i type="logical" name="LTETE"> F  </i>
   <i type="logical" name="LTRIPLET"> F  </i>
   <i type="logical" name="LFXCEPS"> F  </i>
   <i type="logical" name="LFXHEG"> F  </i>
   <i type="int" name="NATURALO">     2</i>
   <i type="logical" name="L2ORDER"> F  </i>
   <i type="logical" name="LMP2LT"> F  </i>
   <i type="logical" name="LUSEW"> F  </i>
   <i name="ENCUTGW">     -2.00000000</i>
   <i name="ENCUTGWSOFT">     -2.00000000</i>
   <i name="ENCUTLF">     -1.00000000</i>
   <i type="int" name="LMAXMP2">    -1</i>
   <i name="SCISSOR">      0.00000000</i>
   <i type="int" name="NOMEGA">     0</i>
   <i type="int" name="NOMEGAR">     0</i>
   <i type="int" name="NBANDSGW">    -1</i>
   <i type="int" name="NBANDSO">    -1</i>
   <i type="int" name="NBANDSV">    -1</i>
   <i type="int" name="NELM">     1</i>
   <i type="int" name="NELMHF">     1</i>
   <i type="int" name="DIM">     3</i>
   <i type="int" name="ANTIRES">     0</i>
   <i name="OMEGAMAX">    -30.00000000</i>
   <i name="OMEGAMIN">    -30.00000000</i>
   <i name="OMEGATL">   -200.00000000</i>
   <i type="int" name="OMEGAGRID">   140</i>
   <i name="CSHIFT">     -0.10000000</i>
   <i type="logical" name="SELFENERGY"> F  </i>
   <i type="logical" name="LSPECTRAL"> F  </i>
   <i type="logical" name="LSPECTRALGW"> F  </i>
   <i type="logical" name="LSINGLES"> F  </i>
   <i type="logical" name="LFERMIGW"> F  </i>
   <i type="logical" name="ODDONLYGW"> F  </i>
   <i type="logical" name="EVENONLYGW"> F  </i>
   <i type="int" name="NKREDLFX">     1</i>
   <i type="int" name="NKREDLFY">     1</i>
   <i type="int" name="NKREDLFZ">     1</i>
   <i type="int" name="MAXMEM">  2800</i>
   <i type="int" name="TELESCOPE">     0</i>
   <i type="int" name="TAUPAR">     1</i>
   <i type="int" name="OMEGAPAR">    -1</i>
   <i name="LAMBDA">      1.00000000</i>
  </separator>
  <separator name="External order field" >
   <i name="OFIELD_KAPPA">      0.00000000</i>
   <v name="OFIELD_K">      0.00000000      0.00000000      0.00000000</v>
   <i name="OFIELD_Q6_NEAR">      0.00000000</i>
   <i name="OFIELD_Q6_FAR">      0.00000000</i>
   <i name="OFIELD_A">      0.00000000</i>
  </separator>
 </parameters>
 <atominfo>
  <atoms>       8 </atoms>
  <types>       2 </types>
  <array name="atoms" >
   <dimension dim="1">ion</dimension>
   <field type="string">element</field>
   <field type="int">atomtype</field>
   <set>
    <rc><c>B </c><c>   1</c></rc>
    <rc><c>B </c><c>   1</c></rc>
    <rc><c>C </c><c>   2</c></rc>
    <rc><c>C </c><c>   2</c></rc>
    <rc><c>C </c><c>   2</c></rc>
    <rc><c>C </c><c>   2</c></rc>
    <rc><c>C </c><c>   2</c></rc>
    <rc><c>C </c><c>   2</c></rc>
   </set>
  </array>
  <array name="atomtypes" >
   <dimension dim="1">type</dimension>
   <field type="int">atomspertype</field>
   <field type="string">element</field>
   <field>mass</field>
   <field>valence</field>
   <field type="string">pseudopotential</field>
   <set>
    <rc><c>   2</c><c>B </c><c>     10.81100000</c><c>      3.00000000</c><c>  PAW_PBE B 06Sep2000                   </c></rc>
    <rc><c>   6</c><c>C </c><c>     12.01100000</c><c>      4.00000000</c><c>  PAW_PBE C 08Apr2002                   </c></rc>
   </set>
  </array>
 </atominfo>
 <structure name="initialpos" >
  <crystal>
   <varray name="basis" >
    <v>       5.17400000       0.00000000       0.00000000 </v>
    <v>       2.58700000       4.48100000       0.00000000 </v>
    <v>       0.00000000       0.00000000      20.00000000 </v>
   </varray>
   <i name="volume">    463.69388000 </i>
   <varray name="rec_basis" >
    <v>       0.19327406      -0.11158224       0.00000000 </v>
    <v>       0.00000000       0.22316447       0.00000000 </v>
    <v>       0.00000000       0.00000000       0.05000000 </v>
   </varray>
  </crystal>
  <varray name="positions" >
   <v>       0.17457326       0.17462620       0.00000000 </v>
   <v>       0.50792519       0.50792234       0.00000000 </v>
   <v>       0.00000000       0.00000000       0.00000000 </v>
   <v>       0.52377271       0.00000000       0.00000000 </v>
   <v>       0.68255138       0.15866994       0.00000000 </v>
   <v>       0.99994706       0.52387860       0.00000000 </v>
   <v>       0.15872573       0.68254854       0.00000000 </v>
   <v>       0.68249844       0.68254854       0.00000000 </v>
  </varray>
 </structure>
 <calculation>
  <scstep>
   <time name="dav">    6.90    6.91</time>
   <time name="total">    7.05    7.06</time>
   <energy>
    <i name="alphaZ">     10.93933817 </i>
    <i name="ewald">   4060.05404224 </i>
    <i name="hartreedc">  -4796.78910906 </i>
    <i name="XCdc">     91.14028263 </i>
    <i name="pawpsdc">    738.13200929 </i>
    <i name="pawaedc">   -739.83780425 </i>
    <i name="eentropy">     -0.02384867 </i>
    <i name="bandstr">   -180.22212375 </i>
    <i name="atom">   1025.20389953 </i>
    <i name="e_fr_energy">    208.59668613 </i>
    <i name="e_wo_entrp">    208.62053480 </i>
    <i name="e_0_energy">    208.60861046 </i>
   </energy>
  </scstep>
  <scstep>
   <time name="dav">    9.53    9.53</time>
   <time name="total">    9.53    9.53</time>
   <energy>
    <i name="e_fr_energy">    -39.40342657 </i>
    <i name="e_wo_entrp">    -39.39784375 </i>
    <i name="e_0_energy">    -39.40063516 </i>
   </energy>
  </scstep>
  <scstep>
   <time name="dav">    7.95    7.97</time>
   <time name="total">    7.95    7.97</time>
   <energy>
    <i name="e_fr_energy">    -72.59638481 </i>
    <i name="e_wo_entrp">    -72.59638481 </i>
    <i name="e_0_energy">    -72.59638481 </i>
   </energy>
  </scstep>
  <scstep>
   <time name="dav">    8.62    8.63</time>
   <time name="total">    8.62    8.63</time>
   <energy>
    <i name="e_fr_energy">    -73.41566520 </i>
    <i name="e_wo_entrp">    -73.41566520 </i>
    <i name="e_0_energy">    -73.41566520 </i>
   </energy>
  </scstep>
  <scstep>
   <time name="dav">    7.99    8.00</time>
   <time name="total">    8.58    8.58</time>
   <energy>
    <i name="e_fr_energy">    -73.43731504 </i>
    <i name="e_wo_entrp">    -73.43731504 </i>
    <i name="e_0_energy">    -73.43731504 </i>
   </energy>
  </scstep>
  <scstep>
   <time name="dav">    8.67    8.68</time>
   <time name="total">    9.38    9.39</time>
   <energy>
    <i name="e_fr_energy">    -68.97830614 </i>
    <i name="e_wo_entrp">    -68.97830614 </i>
    <i name="e_0_energy">    -68.97830614 </i>
   </energy>
  </scstep>
  <scstep>
   <time name="dav">    8.76    8.77</time>
   <time name="total">    9.47    9.48</time>
   <energy>
    <i name="e_fr_energy">    -67.33272224 </i>
    <i name="e_wo_entrp">    -67.33272224 </i>
    <i name="e_0_energy">    -67.33272224 </i>
   </energy>
  </scstep>
  <scstep>
   <time name="dav">    9.07    9.08</time>
   <time name="total">    9.79    9.80</time>
   <energy>
    <i name="e_fr_energy">    -67.25260053 </i>
    <i name="e_wo_entrp">    -67.25260052 </i>
    <i name="e_0_energy">    -67.25260053 </i>
   </energy>
  </scstep>
  <scstep>
   <time name="dav">    7.65    7.66</time>
   <time name="total">    8.36    8.37</time>
   <energy>
    <i name="e_fr_energy">    -67.23476154 </i>
    <i name="e_wo_entrp">    -67.23476152 </i>
    <i name="e_0_energy">    -67.23476153 </i>
   </energy>
  </scstep>
  <scstep>
   <time name="dav">    7.85    7.87</time>
   <time name="total">    8.57    8.59</time>
   <energy>
    <i name="e_fr_energy">    -67.22331786 </i>
    <i name="e_wo_entrp">    -67.22331783 </i>
    <i name="e_0_energy">    -67.22331785 </i>
   </energy>
  </scstep>
  <scstep>
   <time name="dav">    7.25    7.25</time>
   <time name="total">    7.98    7.99</time>
   <energy>
    <i name="e_fr_energy">    -67.22264209 </i>
    <i name="e_wo_entrp">    -67.22264204 </i>
    <i name="e_0_energy">    -67.22264207 </i>
   </energy>
  </scstep>
  <scstep>
   <time name="dav">    7.12    7.13</time>
   <time name="total">    7.87    7.88</time>
   <energy>
    <i name="e_fr_energy">    -67.22286291 </i>
    <i name="e_wo_entrp">    -67.22286285 </i>
    <i name="e_0_energy">    -67.22286288 </i>
   </energy>
  </scstep>
  <scstep>
   <time name="dav">    6.67    6.67</time>
   <time name="total">    7.41    7.42</time>
   <energy>
    <i name="e_fr_energy">    -67.22710790 </i>
    <i name="e_wo_entrp">    -67.22710782 </i>
    <i name="e_0_energy">    -67.22710786 </i>
   </energy>
  </scstep>
  <scstep>
   <time name="dav">    7.22    7.23</time>
   <time name="total">    7.95    7.96</time>
   <energy>
    <i name="e_fr_energy">    -67.22967789 </i>
    <i name="e_wo_entrp">    -67.22967782 </i>
    <i name="e_0_energy">    -67.22967786 </i>
   </energy>
  </scstep>
  <scstep>
   <time name="dav">    6.97    6.98</time>
   <time name="total">    7.71    7.71</time>
   <energy>
    <i name="e_fr_energy">    -67.23019176 </i>
    <i name="e_wo_entrp">    -67.23019169 </i>
    <i name="e_0_energy">    -67.23019172 </i>
   </energy>
  </scstep>
  <scstep>
   <time name="dav">    6.67    6.68</time>
   <time name="total">    7.43    7.44</time>
   <energy>
    <i name="e_fr_energy">    -67.23052444 </i>
    <i name="e_wo_entrp">    -67.23052438 </i>
    <i name="e_0_energy">    -67.23052441 </i>
   </energy>
  </scstep>
  <scstep>
   <time name="dav">    7.41    7.42</time>
   <time name="total">    8.15    8.15</time>
   <energy>
    <i name="e_fr_energy">    -67.23057590 </i>
    <i name="e_wo_entrp">    -67.23057583 </i>
    <i name="e_0_energy">    -67.23057586 </i>
   </energy>
  </scstep>
  <scstep>
   <time name="dav">    6.93    6.94</time>
   <time name="total">    7.67    7.67</time>
   <energy>
    <i name="e_fr_energy">    -67.23061366 </i>
    <i name="e_wo_entrp">    -67.23061359 </i>
    <i name="e_0_energy">    -67.23061362 </i>
   </energy>
  </scstep>
  <scstep>
   <time name="dav">    6.08    6.08</time>
   <time name="total">    6.81    6.82</time>
   <energy>
    <i name="e_fr_energy">    -67.23061970 </i>
    <i name="e_wo_entrp">    -67.23061963 </i>
    <i name="e_0_energy">    -67.23061966 </i>
   </energy>
  </scstep>
  <scstep>
   <time name="dav">    5.47    5.48</time>
   <time name="total">    6.20    6.21</time>
   <energy>
    <i name="e_fr_energy">    -67.23063252 </i>
    <i name="e_wo_entrp">    -67.23063245 </i>
    <i name="e_0_energy">    -67.23063248 </i>
   </energy>
  </scstep>
  <scstep>
   <time name="dav">    5.83    5.84</time>
   <time name="total">    6.56    6.56</time>
   <energy>
    <i name="e_fr_energy">    -67.23063452 </i>
    <i name="e_wo_entrp">    -67.23063445 </i>
    <i name="e_0_energy">    -67.23063448 </i>
   </energy>
  </scstep>
  <scstep>
   <time name="dav">    5.51    5.52</time>
   <time name="total">    5.65    5.66</time>
   <energy>
    <i name="alphaZ">     10.93933817 </i>
    <i name="ewald">   4060.05404224 </i>
    <i name="hartreedc">  -4938.55780291 </i>
    <i name="XCdc">     96.01879661 </i>
    <i name="pawpsdc">   2893.56536640 </i>
    <i name="pawaedc">  -2896.09237600 </i>
    <i name="eentropy">     -0.00000007 </i>
    <i name="bandstr">   -318.36189926 </i>
    <i name="atom">   1025.20389953 </i>
    <i name="e_fr_energy">    -67.23063528 </i>
    <i name="e_wo_entrp">    -67.23063522 </i>
    <i name="e_0_energy">    -67.23063525 </i>
   </energy>
  </scstep>
  <structure>
   <crystal>
    <varray name="basis" >
     <v>       5.17400000       0.00000000       0.00000000 </v>
     <v>       2.58700000       4.48100000       0.00000000 </v>
     <v>       0.00000000       0.00000000      20.00000000 </v>
    </varray>
    <i name="volume">    463.69388000 </i>
    <varray name="rec_basis" >
     <v>       0.19327406      -0.11158224       0.00000000 </v>
     <v>       0.00000000       0.22316447       0.00000000 </v>
     <v>       0.00000000       0.00000000       0.05000000 </v>
    </varray>
   </crystal>
   <varray name="positions" >
    <v>       0.17457326       0.17462620       0.00000000 </v>
    <v>       0.50792519       0.50792234       0.00000000 </v>
    <v>       0.00000000       0.00000000       0.00000000 </v>
    <v>       0.52377271       0.00000000       0.00000000 </v>
    <v>       0.68255138       0.15866994       0.00000000 </v>
    <v>       0.99994706       0.52387860       0.00000000 </v>
    <v>       0.15872573       0.68254854       0.00000000 </v>
    <v>       0.68249844       0.68254854       0.00000000 </v>
   </varray>
  </structure>
  <varray name="forces" >
   <v>      -0.00000000       0.00448289      -0.00000000 </v>
   <v>      -0.00000000      -0.00448289      -0.00000000 </v>
   <v>      -0.01821629      -0.01143951      -0.00000000 </v>
   <v>       0.01821629      -0.01143951      -0.00000000 </v>
   <v>      -0.00000000      -0.00894973      -0.00000000 </v>
   <v>      -0.00000000       0.00894973       0.00000000 </v>
   <v>      -0.01821629       0.01143951      -0.00000000 </v>
   <v>       0.01821629       0.01143951       0.00000000 </v>
  </varray>
  <varray name="stress" >
   <v>      -0.27518842       0.00000000       0.00000000 </v>
   <v>      -0.00000000      -0.32636908       0.00000000 </v>
   <v>       0.00000000       0.00000000      -0.61262373 </v>
  </varray>
  <energy>
   <i name="e_fr_energy">    -67.23063528 </i>
   <i name="e_wo_entrp">    -67.23063525 </i>
   <i name="e_0_energy">     -0.00000007 </i>
  </energy>
  <time name="totalsc">  183.62  184.09</time>
 </calculation>
 <calculation>
  <scstep>
   <time name="dav">    7.10    7.11</time>
   <time name="total">    7.84    7.85</time>
   <energy>
    <i name="alphaZ">     10.96255330 </i>
    <i name="ewald">   4059.27480449 </i>
    <i name="hartreedc">  -4938.72218940 </i>
    <i name="XCdc">     96.08803974 </i>
    <i name="pawpsdc">   2893.56777066 </i>
    <i name="pawaedc">  -2896.09477729 </i>
    <i name="eentropy">     -0.00000010 </i>
    <i name="bandstr">   -317.51095925 </i>
    <i name="atom">   1025.20389953 </i>
    <i name="e_fr_energy">    -67.23085833 </i>
    <i name="e_wo_entrp">    -67.23085823 </i>
    <i name="e_0_energy">    -67.23085828 </i>
   </energy>
  </scstep>
  <scstep>
   <time name="dav">    6.85    6.86</time>
   <time name="total">    7.57    7.58</time>
   <energy>
    <i name="e_fr_energy">    -67.23073164 </i>
    <i name="e_wo_entrp">    -67.23073156 </i>
    <i name="e_0_energy">    -67.23073160 </i>
   </energy>
  </scstep>
  <scstep>
   <time name="dav">    7.09    7.10</time>
   <time name="total">    7.81    7.81</time>
   <energy>
    <i name="e_fr_energy">    -67.23064965 </i>
    <i name="e_wo_entrp">    -67.23064958 </i>
    <i name="e_0_energy">    -67.23064961 </i>
   </energy>
  </scstep>
  <scstep>
   <time name="dav">    7.22    7.23</time>
   <time name="total">    7.94    7.95</time>
   <energy>
    <i name="e_fr_energy">    -67.23064793 </i>
    <i name="e_wo_entrp">    -67.23064786 </i>
    <i name="e_0_energy">    -67.23064789 </i>
   </energy>
  </scstep>
  <scstep>
   <time name="dav">    5.94    5.95</time>
   <time name="total">    6.65    6.66</time>
   <energy>
    <i name="e_fr_energy">    -67.23065206 </i>
    <i name="e_wo_entrp">    -67.23065199 </i>
    <i name="e_0_energy">    -67.23065203 </i>
   </energy>
  </scstep>
  <scstep>
   <time name="dav">    6.32    6.32</time>
   <time name="total">    7.03    7.04</time>
   <energy>
    <i name="e_fr_energy">    -67.23065641 </i>
    <i name="e_wo_entrp">    -67.23065634 </i>
    <i name="e_0_energy">    -67.23065637 </i>
   </energy>
  </scstep>
  <scstep>
   <time name="dav">    7.02    7.03</time>
   <time name="total">    7.74    7.75</time>
   <energy>
    <i name="e_fr_energy">    -67.23066595 </i>
    <i name="e_wo_entrp">    -67.23066588 </i>
    <i name="e_0_energy">    -67.23066592 </i>
   </energy>
  </scstep>
  <scstep>
   <time name="dav">    6.27    6.27</time>
   <time name="total">    6.99    6.99</time>
   <energy>
    <i name="e_fr_energy">    -67.23066939 </i>
    <i name="e_wo_entrp">    -67.23066932 </i>
    <i name="e_0_energy">    -67.23066935 </i>
   </energy>
  </scstep>
  <scstep>
   <time name="dav">    5.80    5.81</time>
   <time name="total">    6.52    6.53</time>
   <energy>
    <i name="e_fr_energy">    -67.23067189 </i>
    <i name="e_wo_entrp">    -67.23067182 </i>
    <i name="e_0_energy">    -67.23067185 </i>
   </energy>
  </scstep>
  <scstep>
   <time name="dav">    5.48    5.48</time>
   <time name="total">    6.21    6.21</time>
   <energy>
    <i name="e_fr_energy">    -67.23067365 </i>
    <i name="e_wo_entrp">    -67.23067358 </i>
    <i name="e_0_energy">    -67.23067362 </i>
   </energy>
  </scstep>
  <scstep>
   <time name="dav">    6.09    6.10</time>
   <time name="total">    6.23    6.24</time>
   <energy>
    <i name="alphaZ">     10.96255330 </i>
    <i name="ewald">   4059.27480449 </i>
    <i name="hartreedc">  -4937.87561942 </i>
    <i name="XCdc">     96.05959956 </i>
    <i name="pawpsdc">   2901.55875812 </i>
    <i name="pawaedc">  -2904.08961825 </i>
    <i name="eentropy">     -0.00000007 </i>
    <i name="bandstr">   -318.32505113 </i>
    <i name="atom">   1025.20389953 </i>
    <i name="e_fr_energy">    -67.23067386 </i>
    <i name="e_wo_entrp">    -67.23067379 </i>
    <i name="e_0_energy">    -67.23067383 </i>
   </energy>
  </scstep>
  <structure>
   <crystal>
    <varray name="basis" >
     <v>       5.17151504       0.00000000       0.00000000 </v>
     <v>       2.58575752       4.47844762       0.00000000 </v>
     <v>       0.00000000       0.00000000      19.97861615 </v>
    </varray>
    <i name="volume">    462.71192698 </i>
    <varray name="rec_basis" >
     <v>       0.19336693      -0.11164583       0.00000000 </v>
     <v>       0.00000000       0.22329166       0.00000000 </v>
     <v>       0.00000000       0.00000000       0.05005352 </v>
    </varray>
   </crystal>
   <varray name="positions" >
    <v>       0.17454912       0.17467446      -0.00000000 </v>
    <v>       0.50794932       0.50787408      -0.00000000 </v>
    <v>      -0.00010827      -0.00012316      -0.00000000 </v>
    <v>       0.52400414      -0.00012316      -0.00000000 </v>
    <v>       0.68259956       0.15857359      -0.00000000 </v>
    <v>       0.99989888       0.52397495       0.00000000 </v>
    <v>       0.15849430       0.68267170      -0.00000000 </v>
    <v>       0.68260671       0.68267170       0.00000000 </v>
   </varray>
  </structure>
  <varray name="forces" >
   <v>       0.00000000      -0.01796915       0.00000000 </v>
   <v>       0.00000000       0.01796915      -0.00000000 </v>
   <v>       0.04085769       0.03952774      -0.00000000 </v>
   <v>      -0.04085769       0.03952774      -0.00000000 </v>
   <v>      -0.00000000       0.02806569      -0.00000000 </v>
   <v>       0.00000000      -0.02806569       0.00000000 </v>
   <v>       0.04085769      -0.03952774       0.00000000 </v>
   <v>      -0.04085769      -0.03952774       0.00000000 </v>
  </varray>
  <varray name="stress" >
   <v>       0.67185572      -0.00000000       0.00000000 </v>
   <v>       0.00000000       0.84668953       0.00000000 </v>
   <v>       0.00000000       0.00000000      -0.59713934 </v>
  </varray>
  <energy>
   <i name="e_fr_energy">    -67.23067386 </i>
   <i name="e_wo_entrp">    -67.23067383 </i>
   <i name="e_0_energy">     -0.00000007 </i>
  </energy>
  <time name="totalsc">   85.64   85.78</time>
 </calculation>
 <calculation>
  <scstep>
   <time name="dav">    6.63    6.63</time>
   <time name="total">    7.36    7.37</time>
   <energy>
    <i name="alphaZ">     10.95210566 </i>
    <i name="ewald">   4059.62539134 </i>
    <i name="hartreedc">  -4937.80035711 </i>
    <i name="XCdc">     96.02845114 </i>
    <i name="pawpsdc">   2901.55646920 </i>
    <i name="pawaedc">  -2904.08732630 </i>
    <i name="eentropy">     -0.00000006 </i>
    <i name="bandstr">   -318.70941517 </i>
    <i name="atom">   1025.20389953 </i>
    <i name="e_fr_energy">    -67.23078178 </i>
    <i name="e_wo_entrp">    -67.23078172 </i>
    <i name="e_0_energy">    -67.23078175 </i>
   </energy>
  </scstep>
  <scstep>
   <time name="dav">    6.59    6.59</time>
   <time name="total">    7.29    7.30</time>
   <energy>
    <i name="e_fr_energy">    -67.23075569 </i>
    <i name="e_wo_entrp">    -67.23075563 </i>
    <i name="e_0_energy">    -67.23075566 </i>
   </energy>
  </scstep>
  <scstep>
   <time name="dav">    6.79    6.80</time>
   <time name="total">    7.50    7.51</time>
   <energy>
    <i name="e_fr_energy">    -67.23073888 </i>
    <i name="e_wo_entrp">    -67.23073882 </i>
    <i name="e_0_energy">    -67.23073885 </i>
   </energy>
  </scstep>
  <scstep>
   <time name="dav">    6.61    6.62</time>
   <time name="total">    7.32    7.33</time>
   <energy>
    <i name="e_fr_energy">    -67.23073758 </i>
    <i name="e_wo_entrp">    -67.23073751 </i>
    <i name="e_0_energy">    -67.23073754 </i>
   </energy>
  </scstep>
  <scstep>
   <time name="dav">    6.00    6.00</time>
   <time name="total">    6.13    6.14</time>
   <energy>
    <i name="alphaZ">     10.95210566 </i>
    <i name="ewald">   4059.62539134 </i>
    <i name="hartreedc">  -4938.12913606 </i>
    <i name="XCdc">     96.04076928 </i>
    <i name="pawpsdc">   2897.98117238 </i>
    <i name="pawaedc">  -2900.51030490 </i>
    <i name="eentropy">     -0.00000007 </i>
    <i name="bandstr">   -318.39463397 </i>
    <i name="atom">   1025.20389953 </i>
    <i name="e_fr_energy">    -67.23073682 </i>
    <i name="e_wo_entrp">    -67.23073676 </i>
    <i name="e_0_energy">    -67.23073679 </i>
   </energy>
  </scstep>
  <structure>
   <crystal>
    <varray name="basis" >
     <v>       5.17263247       0.00000000       0.00000000 </v>
     <v>       2.58631623       4.47959536       0.00000000 </v>
     <v>       0.00000000       0.00000000      19.98823192 </v>
    </varray>
    <i name="volume">    463.15332588 </i>
    <varray name="rec_basis" >
     <v>       0.19332516      -0.11161722       0.00000000 </v>
     <v>       0.00000000       0.22323445       0.00000000 </v>
     <v>       0.00000000       0.00000000       0.05002944 </v>
    </varray>
   </crystal>
   <varray name="positions" >
    <v>       0.17455998       0.17465275      -0.00000000 </v>
    <v>       0.50793846       0.50789579      -0.00000000 </v>
    <v>      -0.00005956      -0.00006775      -0.00000000 </v>
    <v>       0.52390002      -0.00006775      -0.00000000 </v>
    <v>       0.68257789       0.15861694      -0.00000000 </v>
    <v>       0.99992056       0.52393160       0.00000000 </v>
    <v>       0.15859842       0.68261628      -0.00000000 </v>
    <v>       0.68255800       0.68261628       0.00000000 </v>
   </varray>
  </structure>
  <varray name="forces" >
   <v>      -0.00000000      -0.00792595      -0.00000000 </v>
   <v>       0.00000000       0.00792595      -0.00000000 </v>
   <v>       0.01415441       0.01643636      -0.00000000 </v>
   <v>      -0.01415441       0.01643636      -0.00000000 </v>
   <v>      -0.00000000       0.01123746      -0.00000000 </v>
   <v>       0.00000000      -0.01123746       0.00000000 </v>
   <v>       0.01415441      -0.01643636      -0.00000000 </v>
   <v>      -0.01415441      -0.01643636      -0.00000000 </v>
  </varray>
  <varray name="stress" >
   <v>       0.24467493       0.00000000       0.00000000 </v>
   <v>       0.00000000       0.31749174       0.00000000 </v>
   <v>       0.00000000       0.00000000      -0.58577374 </v>
  </varray>
  <energy>
   <i name="e_fr_energy">    -67.23073682 </i>
   <i name="e_wo_entrp">    -67.23073679 </i>
   <i name="e_0_energy">     -0.00000007 </i>
  </energy>
  <time name="totalsc">   42.75   42.86</time>
 </calculation>
 <calculation>
  <scstep>
   <time name="dav">    7.67    7.68</time>
   <time name="total">    8.39    8.39</time>
   <energy>
    <i name="alphaZ">     10.96327934 </i>
    <i name="ewald">   4053.82935345 </i>
    <i name="hartreedc">  -4933.38172773 </i>
    <i name="XCdc">     96.07163766 </i>
    <i name="pawpsdc">   2897.98747747 </i>
    <i name="pawaedc">  -2900.51659009 </i>
    <i name="eentropy">     -0.00000011 </i>
    <i name="bandstr">   -317.38850000 </i>
    <i name="atom">   1025.20389953 </i>
    <i name="e_fr_energy">    -67.23117048 </i>
    <i name="e_wo_entrp">    -67.23117037 </i>
    <i name="e_0_energy">    -67.23117042 </i>
   </energy>
  </scstep>
  <scstep>
   <time name="dav">    6.72    6.73</time>
   <time name="total">    7.44    7.45</time>
   <energy>
    <i name="e_fr_energy">    -67.23099099 </i>
    <i name="e_wo_entrp">    -67.23099090 </i>
    <i name="e_0_energy">    -67.23099095 </i>
   </energy>
  </scstep>
  <scstep>
   <time name="dav">    6.68    6.69</time>
   <time name="total">    7.39    7.40</time>
   <energy>
    <i name="e_fr_energy">    -67.23089368 </i>
    <i name="e_wo_entrp">    -67.23089361 </i>
    <i name="e_0_energy">    -67.23089365 </i>
   </energy>
  </scstep>
  <scstep>
   <time name="dav">    7.52    7.53</time>
   <time name="total">    7.66    7.67</time>
   <energy>
    <i name="alphaZ">     10.96327934 </i>
    <i name="ewald">   4053.82935345 </i>
    <i name="hartreedc">  -4932.66278549 </i>
    <i name="XCdc">     96.04473717 </i>
    <i name="pawpsdc">   2898.05466082 </i>
    <i name="pawaedc">  -2900.58297653 </i>
    <i name="eentropy">     -0.00000007 </i>
    <i name="bandstr">   -318.08106142 </i>
    <i name="atom">   1025.20389953 </i>
    <i name="e_fr_energy">    -67.23089320 </i>
    <i name="e_wo_entrp">    -67.23089313 </i>
    <i name="e_0_energy">    -67.23089317 </i>
   </energy>
  </scstep>
  <structure>
   <crystal>
    <varray name="basis" >
     <v>       5.17253902       0.00000000       0.00000000 </v>
     <v>       2.58626951       4.47960358       0.00000000 </v>
     <v>       0.00000000       0.00000000      19.96818417 </v>
    </varray>
    <i name="volume">    462.68128398 </i>
    <varray name="rec_basis" >
     <v>       0.19332865      -0.11161702       0.00000000 </v>
     <v>      -0.00000000       0.22323404       0.00000000 </v>
     <v>       0.00000000       0.00000000       0.05007967 </v>
    </varray>
   </crystal>
   <varray name="positions" >
    <v>       0.17456945       0.17463381      -0.00000000 </v>
    <v>       0.50792899       0.50791473      -0.00000000 </v>
    <v>      -0.00008937      -0.00003935      -0.00000000 </v>
    <v>       0.52390143      -0.00003935      -0.00000000 </v>
    <v>       0.68257104       0.15863062      -0.00000000 </v>
    <v>       0.99992740       0.52391792       0.00000000 </v>
    <v>       0.15859701       0.68258789      -0.00000000 </v>
    <v>       0.68258781       0.68258789       0.00000000 </v>
   </varray>
  </structure>
  <varray name="forces" >
   <v>      -0.00000000      -0.00535136       0.00000000 </v>
   <v>       0.00000000       0.00535136      -0.00000000 </v>
   <v>       0.01747754       0.00450939       0.00000000 </v>
   <v>      -0.01747754       0.00450939      -0.00000000 </v>
   <v>       0.00000000       0.01473305       0.00000000 </v>
   <v>      -0.00000000      -0.01473305      -0.00000000 </v>
   <v>       0.01747754      -0.00450939       0.00000000 </v>
   <v>      -0.01747754      -0.00450939       0.00000000 </v>
  </varray>
  <varray name="stress" >
   <v>       0.34064936      -0.00000000       0.00000000 </v>
   <v>       0.00000000       0.30634369       0.00000000 </v>
   <v>       0.00000000       0.00000000      -0.74275546 </v>
  </varray>
  <energy>
   <i name="e_fr_energy">    -67.23089320 </i>
   <i name="e_wo_entrp">    -67.23089317 </i>
   <i name="e_0_energy">     -0.00000007 </i>
  </energy>
  <time name="totalsc">   37.99   38.10</time>
 </calculation>
 <calculation>
  <scstep>
   <time name="dav">    6.90    6.90</time>
   <time name="total">    7.62    7.62</time>
   <energy>
    <i name="alphaZ">     10.99693544 </i>
    <i name="ewald">   4036.44032392 </i>
    <i name="hartreedc">  -4918.30727812 </i>
    <i name="XCdc">     96.13543497 </i>
    <i name="pawpsdc">   2897.82026239 </i>
    <i name="pawaedc">  -2900.34919920 </i>
    <i name="eentropy">     -0.00000027 </i>
    <i name="bandstr">   -315.17411832 </i>
    <i name="atom">   1025.20389953 </i>
    <i name="e_fr_energy">    -67.23373966 </i>
    <i name="e_wo_entrp">    -67.23373939 </i>
    <i name="e_0_energy">    -67.23373952 </i>
   </energy>
  </scstep>
  <scstep>
   <time name="dav">    7.36    7.36</time>
   <time name="total">    8.07    8.07</time>
   <energy>
    <i name="e_fr_energy">    -67.23201012 </i>
    <i name="e_wo_entrp">    -67.23200997 </i>
    <i name="e_0_energy">    -67.23201004 </i>
   </energy>
  </scstep>
  <scstep>
   <time name="dav">    7.11    7.11</time>
   <time name="total">    7.82    7.82</time>
   <energy>
    <i name="e_fr_energy">    -67.23117004 </i>
    <i name="e_wo_entrp">    -67.23116996 </i>
    <i name="e_0_energy">    -67.23117000 </i>
   </energy>
  </scstep>
  <scstep>
   <time name="dav">    7.18    7.18</time>
   <time name="total">    7.89    7.90</time>
   <energy>
    <i name="e_fr_energy">    -67.23118839 </i>
    <i name="e_wo_entrp">    -67.23118831 </i>
    <i name="e_0_energy">    -67.23118835 </i>
   </energy>
  </scstep>
  <scstep>
   <time name="dav">    7.26    7.26</time>
   <time name="total">    7.97    7.97</time>
   <energy>
    <i name="e_fr_energy">    -67.23120791 </i>
    <i name="e_wo_entrp">    -67.23120783 </i>
    <i name="e_0_energy">    -67.23120787 </i>
   </energy>
  </scstep>
  <scstep>
   <time name="dav">    7.27    7.27</time>
   <time name="total">    7.99    8.00</time>
   <energy>
    <i name="e_fr_energy">    -67.23128585 </i>
    <i name="e_wo_entrp">    -67.23128578 </i>
    <i name="e_0_energy">    -67.23128581 </i>
   </energy>
  </scstep>
  <scstep>
   <time name="dav">    7.55    7.55</time>
   <time name="total">    8.27    8.27</time>
   <energy>
    <i name="e_fr_energy">    -67.23131744 </i>
    <i name="e_wo_entrp">    -67.23131737 </i>
    <i name="e_0_energy">    -67.23131740 </i>
   </energy>
  </scstep>
  <scstep>
   <time name="dav">    7.03    7.03</time>
   <time name="total">    7.74    7.75</time>
   <energy>
    <i name="e_fr_energy">    -67.23136154 </i>
    <i name="e_wo_entrp">    -67.23136147 </i>
    <i name="e_0_energy">    -67.23136150 </i>
   </energy>
  </scstep>
  <scstep>
   <time name="dav">    7.06    7.06</time>
   <time name="total">    7.77    7.78</time>
   <energy>
    <i name="e_fr_energy">    -67.23137151 </i>
    <i name="e_wo_entrp">    -67.23137144 </i>
    <i name="e_0_energy">    -67.23137147 </i>
   </energy>
  </scstep>
  <scstep>
   <time name="dav">    5.46    5.46</time>
   <time name="total">    6.18    6.18</time>
   <energy>
    <i name="e_fr_energy">    -67.23137527 </i>
    <i name="e_wo_entrp">    -67.23137519 </i>
    <i name="e_0_energy">    -67.23137523 </i>
   </energy>
  </scstep>
  <scstep>
   <time name="dav">    5.69    5.70</time>
   <time name="total">    6.41    6.41</time>
   <energy>
    <i name="e_fr_energy">    -67.23137659 </i>
    <i name="e_wo_entrp">    -67.23137652 </i>
    <i name="e_0_energy">    -67.23137655 </i>
   </energy>
  </scstep>
  <scstep>
   <time name="dav">    5.62    5.63</time>
   <time name="total">    5.76    5.76</time>
   <energy>
    <i name="alphaZ">     10.99693544 </i>
    <i name="ewald">   4036.44032392 </i>
    <i name="hartreedc">  -4915.20766163 </i>
    <i name="XCdc">     96.04273587 </i>
    <i name="pawpsdc">   2897.45648656 </i>
    <i name="pawaedc">  -2899.98624926 </i>
    <i name="eentropy">     -0.00000007 </i>
    <i name="bandstr">   -318.17784728 </i>
    <i name="atom">   1025.20389953 </i>
    <i name="e_fr_energy">    -67.23137692 </i>
    <i name="e_wo_entrp">    -67.23137685 </i>
    <i name="e_0_energy">    -67.23137689 </i>
   </energy>
  </scstep>
  <structure>
   <crystal>
    <varray name="basis" >
     <v>       5.17225869       0.00000000       0.00000000 </v>
     <v>       2.58612935       4.47962823       0.00000000 </v>
     <v>       0.00000000       0.00000000      19.90804093 </v>
    </varray>
    <i name="volume">    461.26524856 </i>
    <varray name="rec_basis" >
     <v>       0.19333913      -0.11161641       0.00000000 </v>
     <v>      -0.00000000       0.22323281       0.00000000 </v>
     <v>       0.00000000       0.00000000       0.05023096 </v>
    </varray>
   </crystal>
   <varray name="positions" >
    <v>       0.17459786       0.17457699      -0.00000000 </v>
    <v>       0.50790058       0.50797155      -0.00000000 </v>
    <v>      -0.00017878       0.00004582      -0.00000000 </v>
    <v>       0.52390567       0.00004582      -0.00000000 </v>
    <v>       0.68255052       0.15867166      -0.00000000 </v>
    <v>       0.99994792       0.52387687       0.00000000 </v>
    <v>       0.15859277       0.68250271      -0.00000000 </v>
    <v>       0.68267722       0.68250271       0.00000000 </v>
   </varray>
  </structure>
  <varray name="forces" >
   <v>       0.00000000       0.00224986       0.00000000 </v>
   <v>       0.00000000      -0.00224986      -0.00000000 </v>
   <v>       0.02770454      -0.03111282      -0.00000000 </v>
   <v>      -0.02770454      -0.03111282       0.00000000 </v>
   <v>       0.00000000       0.02553650      -0.00000000 </v>
   <v>       0.00000000      -0.02553650       0.00000000 </v>
   <v>       0.02770454       0.03111282       0.00000000 </v>
   <v>      -0.02770454       0.03111282       0.00000000 </v>
  </varray>
  <varray name="stress" >
   <v>       0.51744394       0.00000000       0.00000000 </v>
   <v>       0.00000000       0.16122463       0.00000000 </v>
   <v>       0.00000000       0.00000000      -0.55922614 </v>
  </varray>
  <energy>
   <i name="e_fr_energy">    -67.23137692 </i>
   <i name="e_wo_entrp">    -67.23137689 </i>
   <i name="e_0_energy">     -0.00000007 </i>
  </energy>
  <time name="totalsc">   96.56   96.70</time>
 </calculation>
 <calculation>
  <scstep>
   <time name="dav">    7.53    7.54</time>
   <time name="total">    8.26    8.27</time>
   <energy>
    <i name="alphaZ">     11.06486160 </i>
    <i name="ewald">   4001.65814297 </i>
    <i name="hartreedc">  -4886.66844498 </i>
    <i name="XCdc">     96.22852230 </i>
    <i name="pawpsdc">   2897.45872266 </i>
    <i name="pawaedc">  -2899.98849819 </i>
    <i name="eentropy">     -0.00000112 </i>
    <i name="bandstr">   -312.19870976 </i>
    <i name="atom">   1025.20389953 </i>
    <i name="e_fr_energy">    -67.24150500 </i>
    <i name="e_wo_entrp">    -67.24150387 </i>
    <i name="e_0_energy">    -67.24150443 </i>
   </energy>
  </scstep>
  <scstep>
   <time name="dav">    6.90    6.91</time>
   <time name="total">    7.62    7.63</time>
   <energy>
    <i name="e_fr_energy">    -67.23473903 </i>
    <i name="e_wo_entrp">    -67.23473868 </i>
    <i name="e_0_energy">    -67.23473886 </i>
   </energy>
  </scstep>
  <scstep>
   <time name="dav">    7.59    7.60</time>
   <time name="total">    8.31    8.32</time>
   <energy>
    <i name="e_fr_energy">    -67.23162701 </i>
    <i name="e_wo_entrp">    -67.23162691 </i>
    <i name="e_0_energy">    -67.23162696 </i>
   </energy>
  </scstep>
  <scstep>
   <time name="dav">    7.32    7.34</time>
   <time name="total">    8.04    8.05</time>
   <energy>
    <i name="e_fr_energy">    -67.23163780 </i>
    <i name="e_wo_entrp">    -67.23163769 </i>
    <i name="e_0_energy">    -67.23163774 </i>
   </energy>
  </scstep>
  <scstep>
   <time name="dav">    7.40    7.41</time>
   <time name="total">    8.11    8.13</time>
   <energy>
    <i name="e_fr_energy">    -67.23166009 </i>
    <i name="e_wo_entrp">    -67.23166000 </i>
    <i name="e_0_energy">    -67.23166005 </i>
   </energy>
  </scstep>
  <scstep>
   <time name="dav">    7.29    7.31</time>
   <time name="total">    8.00    8.02</time>
   <energy>
    <i name="e_fr_energy">    -67.23182149 </i>
    <i name="e_wo_entrp">    -67.23182139 </i>
    <i name="e_0_energy">    -67.23182144 </i>
   </energy>
  </scstep>
  <scstep>
   <time name="dav">    7.50    7.51</time>
   <time name="total">    8.21    8.23</time>
   <energy>
    <i name="e_fr_energy">    -67.23188751 </i>
    <i name="e_wo_entrp">    -67.23188742 </i>
    <i name="e_0_energy">    -67.23188747 </i>
   </energy>
  </scstep>
  <scstep>
   <time name="dav">    7.21    7.22</time>
   <time name="total">    7.93    7.94</time>
   <energy>
    <i name="e_fr_energy">    -67.23197986 </i>
    <i name="e_wo_entrp">    -67.23197978 </i>
    <i name="e_0_energy">    -67.23197982 </i>
   </energy>
  </scstep>
  <scstep>
   <time name="dav">    7.39    7.40</time>
   <time name="total">    8.11    8.13</time>
   <energy>
    <i name="e_fr_energy">    -67.23199990 </i>
    <i name="e_wo_entrp">    -67.23199981 </i>
    <i name="e_0_energy">    -67.23199985 </i>
   </energy>
  </scstep>
  <scstep>
   <time name="dav">    5.49    5.50</time>
   <time name="total">    6.21    6.22</time>
   <energy>
    <i name="e_fr_energy">    -67.23200759 </i>
    <i name="e_wo_entrp">    -67.23200750 </i>
    <i name="e_0_energy">    -67.23200755 </i>
   </energy>
  </scstep>
  <scstep>
   <time name="dav">    5.66    5.67</time>
   <time name="total">    6.39    6.40</time>
   <energy>
    <i name="e_fr_energy">    -67.23201013 </i>
    <i name="e_wo_entrp">    -67.23201005 </i>
    <i name="e_0_energy">    -67.23201009 </i>
   </energy>
  </scstep>
  <scstep>
   <time name="dav">    5.61    5.62</time>
   <time name="total">    5.74    5.75</time>
   <energy>
    <i name="alphaZ">     11.06486160 </i>
    <i name="ewald">   4001.65814297 </i>
    <i name="hartreedc">  -4880.74253904 </i>
    <i name="XCdc">     96.04501465 </i>
    <i name="pawpsdc">   2896.71894208 </i>
    <i name="pawaedc">  -2899.24962611 </i>
    <i name="eentropy">     -0.00000009 </i>
    <i name="bandstr">   -317.93070661 </i>
    <i name="atom">   1025.20389953 </i>
    <i name="e_fr_energy">    -67.23201101 </i>
    <i name="e_wo_entrp">    -67.23201092 </i>
    <i name="e_0_energy">    -67.23201097 </i>
   </energy>
  </scstep>
  <structure>
   <crystal>
    <varray name="basis" >
     <v>       5.17169803       0.00000000       0.00000000 </v>
     <v>       2.58584902       4.47967755       0.00000000 </v>
     <v>       0.00000000       0.00000000      19.78775445 </v>
    </varray>
    <i name="volume">    458.43358404 </i>
    <varray name="rec_basis" >
     <v>       0.19336009      -0.11161518       0.00000000 </v>
     <v>      -0.00000000       0.22323035       0.00000000 </v>
     <v>       0.00000000       0.00000000       0.05053631 </v>
    </varray>
   </crystal>
   <varray name="positions" >
    <v>       0.17465468       0.17446336      -0.00000000 </v>
    <v>       0.50784377       0.50808518      -0.00000000 </v>
    <v>      -0.00035762       0.00021618      -0.00000000 </v>
    <v>       0.52391415       0.00021618      -0.00000000 </v>
    <v>       0.68250948       0.15875375      -0.00000000 </v>
    <v>       0.99998896       0.52379479       0.00000000 </v>
    <v>       0.15858429       0.68233236      -0.00000000 </v>
    <v>       0.68285606       0.68233236       0.00000000 </v>
   </varray>
  </structure>
  <varray name="forces" >
   <v>       0.00000000       0.01741881       0.00000000 </v>
   <v>      -0.00000000      -0.01741881      -0.00000000 </v>
   <v>       0.04798993      -0.10222516      -0.00000000 </v>
   <v>      -0.04798993      -0.10222516      -0.00000000 </v>
   <v>      -0.00000000       0.04690580      -0.00000000 </v>
   <v>       0.00000000      -0.04690580       0.00000000 </v>
   <v>       0.04798993       0.10222516      -0.00000000 </v>
   <v>      -0.04798993       0.10222516      -0.00000000 </v>
  </varray>
  <varray name="stress" >
   <v>       0.93036505      -0.00000000       0.00000000 </v>
   <v>       0.00000000      -0.07373992       0.00000000 </v>
   <v>       0.00000000       0.00000000      -0.49683749 </v>
  </varray>
  <energy>
   <i name="e_fr_energy">    -67.23201101 </i>
   <i name="e_wo_entrp">    -67.23201097 </i>
   <i name="e_0_energy">     -0.00000009 </i>
  </energy>
  <time name="totalsc">   98.00   98.23</time>
 </calculation>
 <calculation>
  <scstep>
   <time name="dav">    7.45    7.46</time>
   <time name="total">    8.17    8.18</time>
   <energy>
    <i name="alphaZ">     11.20322259 </i>
    <i name="ewald">   3932.07727797 </i>
    <i name="hartreedc">  -4823.72186741 </i>
    <i name="XCdc">     96.42033788 </i>
    <i name="pawpsdc">   2896.71953480 </i>
    <i name="pawaedc">  -2899.25024742 </i>
    <i name="eentropy">     -0.00001592 </i>
    <i name="bandstr">   -305.92285878 </i>
    <i name="atom">   1025.20389953 </i>
    <i name="e_fr_energy">    -67.27071676 </i>
    <i name="e_wo_entrp">    -67.27070084 </i>
    <i name="e_0_energy">    -67.27070880 </i>
   </energy>
  </scstep>
  <scstep>
   <time name="dav">    7.27    7.28</time>
   <time name="total">    7.98    7.99</time>
   <energy>
    <i name="e_fr_energy">    -67.24348160 </i>
    <i name="e_wo_entrp">    -67.24347943 </i>
    <i name="e_0_energy">    -67.24348051 </i>
   </energy>
  </scstep>
  <scstep>
   <time name="dav">    7.45    7.48</time>
   <time name="total">    8.15    8.19</time>
   <energy>
    <i name="e_fr_energy">    -67.23138304 </i>
    <i name="e_wo_entrp">    -67.23138283 </i>
    <i name="e_0_energy">    -67.23138294 </i>
   </energy>
  </scstep>
  <scstep>
   <time name="dav">    7.40    7.42</time>
   <time name="total">    8.11    8.12</time>
   <energy>
    <i name="e_fr_energy">    -67.23138800 </i>
    <i name="e_wo_entrp">    -67.23138775 </i>
    <i name="e_0_energy">    -67.23138788 </i>
   </energy>
  </scstep>
  <scstep>
   <time name="dav">    7.14    7.15</time>
   <time name="total">    7.85    7.86</time>
   <energy>
    <i name="e_fr_energy">    -67.23138061 </i>
    <i name="e_wo_entrp">    -67.23138042 </i>
    <i name="e_0_energy">    -67.23138051 </i>
   </energy>
  </scstep>
  <scstep>
   <time name="dav">    7.13    7.14</time>
   <time name="total">    7.83    7.85</time>
   <energy>
    <i name="e_fr_energy">    -67.23178497 </i>
    <i name="e_wo_entrp">    -67.23178479 </i>
    <i name="e_0_energy">    -67.23178488 </i>
   </energy>
  </scstep>
  <scstep>
   <time name="dav">    7.33    7.34</time>
   <time name="total">    8.04    8.06</time>
   <energy>
    <i name="e_fr_energy">    -67.23192285 </i>
    <i name="e_wo_entrp">    -67.23192267 </i>
    <i name="e_0_energy">    -67.23192276 </i>
   </energy>
  </scstep>
  <scstep>
   <time name="dav">    7.25    7.26</time>
   <time name="total">    7.97    7.98</time>
   <energy>
    <i name="e_fr_energy">    -67.23211900 </i>
    <i name="e_wo_entrp">    -67.23211884 </i>
    <i name="e_0_energy">    -67.23211892 </i>
   </energy>
  </scstep>
  <scstep>
   <time name="dav">    7.03    7.04</time>
   <time name="total">    7.75    7.76</time>
   <energy>
    <i name="e_fr_energy">    -67.23215691 </i>
    <i name="e_wo_entrp">    -67.23215675 </i>
    <i name="e_0_energy">    -67.23215683 </i>
   </energy>
  </scstep>
  <scstep>
   <time name="dav">    6.92    6.93</time>
   <time name="total">    7.64    7.65</time>
   <energy>
    <i name="e_fr_energy">    -67.23217129 </i>
    <i name="e_wo_entrp">    -67.23217112 </i>
    <i name="e_0_energy">    -67.23217120 </i>
   </energy>
  </scstep>
  <scstep>
   <time name="dav">    5.66    5.67</time>
   <time name="total">    6.39    6.39</time>
   <energy>
    <i name="e_fr_energy">    -67.23217535 </i>
    <i name="e_wo_entrp">    -67.23217518 </i>
    <i name="e_0_energy">    -67.23217526 </i>
   </energy>
  </scstep>
  <scstep>
   <time name="dav">    5.72    5.73</time>
   <time name="total">    6.44    6.45</time>
   <energy>
    <i name="e_fr_energy">    -67.23217763 </i>
    <i name="e_wo_entrp">    -67.23217746 </i>
    <i name="e_0_energy">    -67.23217754 </i>
   </energy>
  </scstep>
  <scstep>
   <time name="dav">    5.95    5.96</time>
   <time name="total">    6.09    6.09</time>
   <energy>
    <i name="alphaZ">     11.20322259 </i>
    <i name="ewald">   3932.07727797 </i>
    <i name="hartreedc">  -4811.80104977 </i>
    <i name="XCdc">     96.04972980 </i>
    <i name="pawpsdc">   2895.31901964 </i>
    <i name="pawaedc">  -2897.85143831 </i>
    <i name="eentropy">     -0.00000017 </i>
    <i name="bandstr">   -317.43283919 </i>
    <i name="atom">   1025.20389953 </i>
    <i name="e_fr_energy">    -67.23217790 </i>
    <i name="e_wo_entrp">    -67.23217773 </i>
    <i name="e_0_energy">    -67.23217782 </i>
   </energy>
  </scstep>
  <structure>
   <crystal>
    <varray name="basis" >
     <v>       5.17057671       0.00000000       0.00000000 </v>
     <v>       2.58528836       4.47977618       0.00000000 </v>
     <v>       0.00000000       0.00000000      19.54718149 </v>
    </varray>
    <i name="volume">    452.77188033 </i>
    <varray name="rec_basis" >
     <v>       0.19340202      -0.11161272       0.00000000 </v>
     <v>      -0.00000000       0.22322544       0.00000000 </v>
     <v>       0.00000000       0.00000000       0.05115827 </v>
    </varray>
   </crystal>
   <varray name="positions" >
    <v>       0.17476831       0.17423610      -0.00000000 </v>
    <v>       0.50773013       0.50831244      -0.00000000 </v>
    <v>      -0.00071531       0.00055688      -0.00000000 </v>
    <v>       0.52393114       0.00055688      -0.00000000 </v>
    <v>       0.68242739       0.15891792      -0.00000000 </v>
    <v>       0.00007105       0.52363062       0.00000000 </v>
    <v>       0.15856730       0.68199166      -0.00000000 </v>
    <v>       0.68321375       0.68199166       0.00000000 </v>
   </varray>
  </structure>
  <varray name="forces" >
   <v>      -0.00000000       0.04775126       0.00000000 </v>
   <v>      -0.00000000      -0.04775126      -0.00000000 </v>
   <v>       0.08891312      -0.24312848       0.00000000 </v>
   <v>      -0.08891312      -0.24312848       0.00000000 </v>
   <v>       0.00000000       0.09011224       0.00000000 </v>
   <v>      -0.00000000      -0.09011224      -0.00000000 </v>
   <v>       0.08891312       0.24312848      -0.00000000 </v>
   <v>      -0.08891312       0.24312848      -0.00000000 </v>
  </varray>
  <varray name="stress" >
   <v>       1.77092396      -0.00000000       0.00000000 </v>
   <v>      -0.00000000      -0.54619652       0.00000000 </v>
   <v>       0.00000000       0.00000000      -0.39047656 </v>
  </varray>
  <energy>
   <i name="e_fr_energy">    -67.23217790 </i>
   <i name="e_wo_entrp">    -67.23217782 </i>
   <i name="e_0_energy">     -0.00000017 </i>
  </energy>
  <time name="totalsc">  105.56  105.80</time>
 </calculation>
 <calculation>
  <scstep>
   <time name="dav">    7.04    7.06</time>
   <time name="total">    7.77    7.78</time>
   <energy>
    <i name="alphaZ">     11.14786545 </i>
    <i name="ewald">   3959.71456350 </i>
    <i name="hartreedc">  -4834.38981538 </i>
    <i name="XCdc">     95.90051129 </i>
    <i name="pawpsdc">   2895.28534004 </i>
    <i name="pawaedc">  -2897.81780596 </i>
    <i name="eentropy">     -0.00000001 </i>
    <i name="bandstr">   -322.28301566 </i>
    <i name="atom">   1025.20389953 </i>
    <i name="e_fr_energy">    -67.23845719 </i>
    <i name="e_wo_entrp">    -67.23845718 </i>
    <i name="e_0_energy">    -67.23845718 </i>
   </energy>
  </scstep>
  <scstep>
   <time name="dav">    7.01    7.02</time>
   <time name="total">    7.72    7.73</time>
   <energy>
    <i name="e_fr_energy">    -67.23416066 </i>
    <i name="e_wo_entrp">    -67.23416062 </i>
    <i name="e_0_energy">    -67.23416064 </i>
   </energy>
  </scstep>
  <scstep>
   <time name="dav">    7.44    7.45</time>
   <time name="total">    8.15    8.17</time>
   <energy>
    <i name="e_fr_energy">    -67.23217477 </i>
    <i name="e_wo_entrp">    -67.23217465 </i>
    <i name="e_0_energy">    -67.23217471 </i>
   </energy>
  </scstep>
  <scstep>
   <time name="dav">    7.33    7.35</time>
   <time name="total">    8.04    8.06</time>
   <energy>
    <i name="e_fr_energy">    -67.23212678 </i>
    <i name="e_wo_entrp">    -67.23212667 </i>
    <i name="e_0_energy">    -67.23212673 </i>
   </energy>
  </scstep>
  <scstep>
   <time name="dav">    7.31    7.31</time>
   <time name="total">    8.02    8.03</time>
   <energy>
    <i name="e_fr_energy">    -67.23207066 </i>
    <i name="e_wo_entrp">    -67.23207054 </i>
    <i name="e_0_energy">    -67.23207060 </i>
   </energy>
  </scstep>
  <scstep>
   <time name="dav">    7.16    7.18</time>
   <time name="total">    7.87    7.89</time>
   <energy>
    <i name="e_fr_energy">    -67.23211884 </i>
    <i name="e_wo_entrp">    -67.23211871 </i>
    <i name="e_0_energy">    -67.23211878 </i>
   </energy>
  </scstep>
  <scstep>
   <time name="dav">    7.30    7.31</time>
   <time name="total">    8.03    8.04</time>
   <energy>
    <i name="e_fr_energy">    -67.23215288 </i>
    <i name="e_wo_entrp">    -67.23215276 </i>
    <i name="e_0_energy">    -67.23215282 </i>
   </energy>
  </scstep>
  <scstep>
   <time name="dav">    6.99    7.00</time>
   <time name="total">    7.71    7.72</time>
   <energy>
    <i name="e_fr_energy">    -67.23222053 </i>
    <i name="e_wo_entrp">    -67.23222040 </i>
    <i name="e_0_energy">    -67.23222046 </i>
   </energy>
  </scstep>
  <scstep>
   <time name="dav">    7.09    7.11</time>
   <time name="total">    7.81    7.83</time>
   <energy>
    <i name="e_fr_energy">    -67.23225144 </i>
    <i name="e_wo_entrp">    -67.23225132 </i>
    <i name="e_0_energy">    -67.23225138 </i>
   </energy>
  </scstep>
  <scstep>
   <time name="dav">    5.85    5.86</time>
   <time name="total">    6.59    6.59</time>
   <energy>
    <i name="e_fr_energy">    -67.23226957 </i>
    <i name="e_wo_entrp">    -67.23226945 </i>
    <i name="e_0_energy">    -67.23226951 </i>
   </energy>
  </scstep>
  <scstep>
   <time name="dav">    5.50    5.51</time>
   <time name="total">    6.22    6.23</time>
   <energy>
    <i name="e_fr_energy">    -67.23227846 </i>
    <i name="e_wo_entrp">    -67.23227833 </i>
    <i name="e_0_energy">    -67.23227839 </i>
   </energy>
  </scstep>
  <scstep>
   <time name="dav">    6.20    6.20</time>
   <time name="total">    6.93    6.93</time>
   <energy>
    <i name="e_fr_energy">    -67.23228104 </i>
    <i name="e_wo_entrp">    -67.23228091 </i>
    <i name="e_0_energy">    -67.23228097 </i>
   </energy>
  </scstep>
  <scstep>
   <time name="dav">    5.45    5.47</time>
   <time name="total">    6.18    6.19</time>
   <energy>
    <i name="e_fr_energy">    -67.23228286 </i>
    <i name="e_wo_entrp">    -67.23228274 </i>
    <i name="e_0_energy">    -67.23228280 </i>
   </energy>
  </scstep>
  <scstep>
   <time name="dav">    6.41    6.42</time>
   <time name="total">    6.55    6.56</time>
   <energy>
    <i name="alphaZ">     11.14786545 </i>
    <i name="ewald">   3959.71456350 </i>
    <i name="hartreedc">  -4839.17091993 </i>
    <i name="XCdc">     96.04788936 </i>
    <i name="pawpsdc">   2895.83398279 </i>
    <i name="pawaedc">  -2898.36577999 </i>
    <i name="eentropy">     -0.00000013 </i>
    <i name="bandstr">   -317.64378389 </i>
    <i name="atom">   1025.20389953 </i>
    <i name="e_fr_energy">    -67.23228331 </i>
    <i name="e_wo_entrp">    -67.23228319 </i>
    <i name="e_0_energy">    -67.23228325 </i>
   </energy>
  </scstep>
  <structure>
   <crystal>
    <varray name="basis" >
     <v>       5.17102205       0.00000000       0.00000000 </v>
     <v>       2.58551103       4.47973701       0.00000000 </v>
     <v>       0.00000000       0.00000000      19.64272720 </v>
    </varray>
    <i name="volume">    455.02021729 </i>
    <varray name="rec_basis" >
     <v>       0.19338537      -0.11161370       0.00000000 </v>
     <v>      -0.00000000       0.22322739       0.00000000 </v>
     <v>       0.00000000       0.00000000       0.05090943 </v>
    </varray>
   </crystal>
   <varray name="positions" >
    <v>       0.17472318       0.17432635      -0.00000000 </v>
    <v>       0.50777526       0.50822218      -0.00000000 </v>
    <v>      -0.00057323       0.00042157      -0.00000000 </v>
    <v>       0.52392437       0.00042157      -0.00000000 </v>
    <v>       0.68245999       0.15885272      -0.00000000 </v>
    <v>       0.00003845       0.52369582       0.00000000 </v>
    <v>       0.15857407       0.68212697      -0.00000000 </v>
    <v>       0.68307167       0.68212697       0.00000000 </v>
   </varray>
  </structure>
  <varray name="forces" >
   <v>      -0.00000000       0.03572598      -0.00000000 </v>
   <v>      -0.00000000      -0.03572598       0.00000000 </v>
   <v>       0.07267251      -0.18731552       0.00000000 </v>
   <v>      -0.07267251      -0.18731552       0.00000000 </v>
   <v>      -0.00000000       0.07296691       0.00000000 </v>
   <v>      -0.00000000      -0.07296691      -0.00000000 </v>
   <v>       0.07267251       0.18731552       0.00000000 </v>
   <v>      -0.07267251       0.18731552       0.00000000 </v>
  </varray>
  <varray name="stress" >
   <v>       1.43318850       0.00000000       0.00000000 </v>
   <v>       0.00000000      -0.35957728       0.00000000 </v>
   <v>       0.00000000       0.00000000      -0.43156393 </v>
  </varray>
  <energy>
   <i name="e_fr_energy">    -67.23228331 </i>
   <i name="e_wo_entrp">    -67.23228325 </i>
   <i name="e_0_energy">     -0.00000013 </i>
  </energy>
  <time name="totalsc">  110.73  110.98</time>
 </calculation>
 <calculation>
  <scstep>
   <time name="dav">    6.93    6.95</time>
   <time name="total">    7.65    7.67</time>
   <energy>
    <i name="alphaZ">     11.14960601 </i>
    <i name="ewald">   3958.78633416 </i>
    <i name="hartreedc">  -4838.40847856 </i>
    <i name="XCdc">     96.05257545 </i>
    <i name="pawpsdc">   2895.84670256 </i>
    <i name="pawaedc">  -2898.37848645 </i>
    <i name="eentropy">     -0.00000014 </i>
    <i name="bandstr">   -317.48447029 </i>
    <i name="atom">   1025.20389953 </i>
    <i name="e_fr_energy">    -67.23231773 </i>
    <i name="e_wo_entrp">    -67.23231759 </i>
    <i name="e_0_energy">    -67.23231766 </i>
   </energy>
  </scstep>
  <scstep>
   <time name="dav">    6.99    7.00</time>
   <time name="total">    7.71    7.73</time>
   <energy>
    <i name="e_fr_energy">    -67.23231250 </i>
    <i name="e_wo_entrp">    -67.23231237 </i>
    <i name="e_0_energy">    -67.23231243 </i>
   </energy>
  </scstep>
  <scstep>
   <time name="dav">    7.10    7.11</time>
   <time name="total">    7.81    7.83</time>
   <energy>
    <i name="e_fr_energy">    -67.23230937 </i>
    <i name="e_wo_entrp">    -67.23230924 </i>
    <i name="e_0_energy">    -67.23230931 </i>
   </energy>
  </scstep>
  <scstep>
   <time name="dav">    6.60    6.61</time>
   <time name="total">    6.73    6.74</time>
   <energy>
    <i name="alphaZ">     11.14960601 </i>
    <i name="ewald">   3958.78633416 </i>
    <i name="hartreedc">  -4838.29233193 </i>
    <i name="XCdc">     96.04829204 </i>
    <i name="pawpsdc">   2895.83127580 </i>
    <i name="pawaedc">  -2898.36291520 </i>
    <i name="eentropy">     -0.00000013 </i>
    <i name="bandstr">   -317.59646963 </i>
    <i name="atom">   1025.20389953 </i>
    <i name="e_fr_energy">    -67.23230936 </i>
    <i name="e_wo_entrp">    -67.23230923 </i>
    <i name="e_0_energy">    -67.23230929 </i>
   </energy>
  </scstep>
  <structure>
   <crystal>
    <varray name="basis" >
     <v>       5.17104378       0.00000000       0.00000000 </v>
     <v>       2.58552189       4.47973040       0.00000000 </v>
     <v>       0.00000000       0.00000000      19.63960725 </v>
    </varray>
    <i name="volume">    454.94918437 </i>
    <varray name="rec_basis" >
     <v>       0.19338455      -0.11161386       0.00000000 </v>
     <v>      -0.00000000       0.22322772       0.00000000 </v>
     <v>       0.00000000       0.00000000       0.05091752 </v>
    </varray>
   </crystal>
   <varray name="positions" >
    <v>       0.17472411       0.17432450      -0.00000000 </v>
    <v>       0.50777433       0.50822404      -0.00000000 </v>
    <v>      -0.00057306       0.00042023      -0.00000000 </v>
    <v>       0.52392554       0.00042023      -0.00000000 </v>
    <v>       0.68245780       0.15885711      -0.00000000 </v>
    <v>       0.00004064       0.52369143       0.00000000 </v>
    <v>       0.15857290       0.68212830      -0.00000000 </v>
    <v>       0.68307151       0.68212830       0.00000000 </v>
   </varray>
  </structure>
  <varray name="forces" >
   <v>      -0.00000000       0.03548361       0.00000000 </v>
   <v>       0.00000000      -0.03548361      -0.00000000 </v>
   <v>       0.07228323      -0.18660925       0.00000000 </v>
   <v>      -0.07228323      -0.18660925       0.00000000 </v>
   <v>      -0.00000000       0.07177475       0.00000000 </v>
   <v>       0.00000000      -0.07177475       0.00000000 </v>
   <v>       0.07228323       0.18660925       0.00000000 </v>
   <v>      -0.07228323       0.18660925       0.00000000 </v>
  </varray>
  <varray name="stress" >
   <v>       1.42984526       0.00000000       0.00000000 </v>
   <v>       0.00000000      -0.35160580       0.00000000 </v>
   <v>       0.00000000       0.00000000      -0.45403466 </v>
  </varray>
  <energy>
   <i name="e_fr_energy">    -67.23230936 </i>
   <i name="e_wo_entrp">    -67.23230929 </i>
   <i name="e_0_energy">     -0.00000013 </i>
  </energy>
  <time name="totalsc">   37.00   37.14</time>
 </calculation>
 <calculation>
  <scstep>
   <time name="dav">    6.93    6.95</time>
   <time name="total">    7.66    7.67</time>
   <energy>
    <i name="alphaZ">     11.15483100 </i>
    <i name="ewald">   3956.00167794 </i>
    <i name="hartreedc">  -4835.98779647 </i>
    <i name="XCdc">     96.06210623 </i>
    <i name="pawpsdc">   2895.78809032 </i>
    <i name="pawaedc">  -2898.31982876 </i>
    <i name="eentropy">     -0.00000015 </i>
    <i name="bandstr">   -317.13543022 </i>
    <i name="atom">   1025.20389953 </i>
    <i name="e_fr_energy">    -67.23245059 </i>
    <i name="e_wo_entrp">    -67.23245043 </i>
    <i name="e_0_energy">    -67.23245051 </i>
   </energy>
  </scstep>
  <scstep>
   <time name="dav">    7.04    7.05</time>
   <time name="total">    7.76    7.77</time>
   <energy>
    <i name="e_fr_energy">    -67.23240373 </i>
    <i name="e_wo_entrp">    -67.23240359 </i>
    <i name="e_0_energy">    -67.23240366 </i>
   </energy>
  </scstep>
  <scstep>
   <time name="dav">    6.96    6.98</time>
   <time name="total">    7.68    7.70</time>
   <energy>
    <i name="e_fr_energy">    -67.23237781 </i>
    <i name="e_wo_entrp">    -67.23237769 </i>
    <i name="e_0_energy">    -67.23237775 </i>
   </energy>
  </scstep>
  <scstep>
   <time name="dav">    6.01    6.02</time>
   <time name="total">    6.15    6.16</time>
   <energy>
    <i name="alphaZ">     11.15483100 </i>
    <i name="ewald">   3956.00167794 </i>
    <i name="hartreedc">  -4835.62737074 </i>
    <i name="XCdc">     96.04914555 </i>
    <i name="pawpsdc">   2895.74343134 </i>
    <i name="pawaedc">  -2898.27477226 </i>
    <i name="eentropy">     -0.00000013 </i>
    <i name="bandstr">   -317.48322083 </i>
    <i name="atom">   1025.20389953 </i>
    <i name="e_fr_energy">    -67.23237859 </i>
    <i name="e_wo_entrp">    -67.23237846 </i>
    <i name="e_0_energy">    -67.23237853 </i>
   </energy>
  </scstep>
  <structure>
   <crystal>
    <varray name="basis" >
     <v>       5.17110896       0.00000000       0.00000000 </v>
     <v>       2.58555448       4.47971056       0.00000000 </v>
     <v>       0.00000000       0.00000000      19.63024741 </v>
    </varray>
    <i name="volume">    454.73608321 </i>
    <varray name="rec_basis" >
     <v>       0.19338212      -0.11161435       0.00000000 </v>
     <v>      -0.00000000       0.22322871       0.00000000 </v>
     <v>       0.00000000       0.00000000       0.05094179 </v>
    </varray>
   </crystal>
   <varray name="positions" >
    <v>       0.17472689       0.17431892      -0.00000000 </v>
    <v>       0.50777155       0.50822962      -0.00000000 </v>
    <v>      -0.00057256       0.00041622      -0.00000000 </v>
    <v>       0.52392904       0.00041622      -0.00000000 </v>
    <v>       0.68245122       0.15887027      -0.00000000 </v>
    <v>       0.00004722       0.52367827       0.00000000 </v>
    <v>       0.15856940       0.68213231      -0.00000000 </v>
    <v>       0.68307100       0.68213231       0.00000000 </v>
   </varray>
  </structure>
  <varray name="forces" >
   <v>       0.00000000       0.03476625      -0.00000000 </v>
   <v>      -0.00000000      -0.03476625      -0.00000000 </v>
   <v>       0.07129408      -0.18438418      -0.00000000 </v>
   <v>      -0.07129408      -0.18438418       0.00000000 </v>
   <v>       0.00000000       0.06841104       0.00000000 </v>
   <v>      -0.00000000      -0.06841104      -0.00000000 </v>
   <v>       0.07129408       0.18438418      -0.00000000 </v>
   <v>      -0.07129408       0.18438418      -0.00000000 </v>
  </varray>
  <varray name="stress" >
   <v>       1.41463895       0.00000000       0.00000000 </v>
   <v>       0.00000000      -0.33275692       0.00000000 </v>
   <v>       0.00000000       0.00000000      -0.50356269 </v>
  </varray>
  <energy>
   <i name="e_fr_energy">    -67.23237859 </i>
   <i name="e_wo_entrp">    -67.23237853 </i>
   <i name="e_0_energy">     -0.00000013 </i>
  </energy>
  <time name="totalsc">   36.32   36.45</time>
 </calculation>
 <calculation>
  <scstep>
   <time name="dav">    6.91    6.92</time>
   <time name="total">    7.63    7.65</time>
   <energy>
    <i name="alphaZ">     11.16529597 </i>
    <i name="ewald">   3950.43250866 </i>
    <i name="hartreedc">  -4831.00056666 </i>
    <i name="XCdc">     96.07646346 </i>
    <i name="pawpsdc">   2895.61505206 </i>
    <i name="pawaedc">  -2898.14670022 </i>
    <i name="eentropy">     -0.00000018 </i>
    <i name="bandstr">   -316.57873517 </i>
    <i name="atom">   1025.20389953 </i>
    <i name="e_fr_energy">    -67.23278257 </i>
    <i name="e_wo_entrp">    -67.23278238 </i>
[...]
       <r>  -15.8011    1.0000 </r>
       <r>  -13.5229    1.0000 </r>
       <r>  -11.4141    1.0000 </r>
       <r>   -9.6104    1.0000 </r>
       <r>   -9.1876    1.0000 </r>
       <r>   -8.2787    1.0000 </r>
       <r>   -7.4988    1.0000 </r>
       <r>   -7.1332    1.0000 </r>
       <r>   -5.9381    1.0000 </r>
       <r>   -5.7811    1.0000 </r>
       <r>   -5.5343    1.0000 </r>
       <r>   -4.2779    1.0000 </r>
       <r>   -4.1150    1.0000 </r>
       <r>   -2.4934    0.0000 </r>
       <r>    1.2601    0.0000 </r>
       <r>    2.0915    0.0000 </r>
       <r>    2.6793    0.0000 </r>
       <r>    3.8954    0.0000 </r>
       <r>    3.9604    0.0000 </r>
       <r>    4.7535    0.0000 </r>
       <r>    5.0257    0.0000 </r>
       <r>    5.3075    0.0000 </r>
      </set>
      <set comment="kpoint 41">
       <r>  -18.6347    1.0000 </r>
       <r>  -16.8945    1.0000 </r>
       <r>  -16.1737    1.0000 </r>
       <r>  -13.0424    1.0000 </r>
       <r>  -11.5970    1.0000 </r>
       <r>   -9.8629    1.0000 </r>
       <r>   -8.6608    1.0000 </r>
       <r>   -8.0604    1.0000 </r>
       <r>   -6.9445    1.0000 </r>
       <r>   -6.8810    1.0000 </r>
       <r>   -6.6458    1.0000 </r>
       <r>   -5.8847    1.0000 </r>
       <r>   -5.7425    1.0000 </r>
       <r>   -4.7992    1.0000 </r>
       <r>   -4.7615    1.0000 </r>
       <r>   -1.8151    0.0000 </r>
       <r>    0.3416    0.0000 </r>
       <r>    3.3252    0.0000 </r>
       <r>    3.3880    0.0000 </r>
       <r>    3.3958    0.0000 </r>
       <r>    4.6221    0.0000 </r>
       <r>    4.6889    0.0000 </r>
       <r>    5.2013    0.0000 </r>
       <r>    5.7316    0.0000 </r>
      </set>
      <set comment="kpoint 42">
       <r>  -18.6794    1.0000 </r>
       <r>  -16.9306    1.0000 </r>
       <r>  -15.9238    1.0000 </r>
       <r>  -13.3988    1.0000 </r>
       <r>  -11.3900    1.0000 </r>
       <r>   -9.5098    1.0000 </r>
       <r>   -9.1454    1.0000 </r>
       <r>   -8.2760    1.0000 </r>
       <r>   -7.1963    1.0000 </r>
       <r>   -6.9915    1.0000 </r>
       <r>   -6.3691    1.0000 </r>
       <r>   -5.9146    1.0000 </r>
       <r>   -5.5716    1.0000 </r>
       <r>   -4.4682    1.0000 </r>
       <r>   -4.3326    1.0000 </r>
       <r>   -2.2968    0.0000 </r>
       <r>    0.9245    0.0000 </r>
       <r>    2.5898    0.0000 </r>
       <r>    2.9847    0.0000 </r>
       <r>    3.5930    0.0000 </r>
       <r>    4.2683    0.0000 </r>
       <r>    4.8040    0.0000 </r>
       <r>    5.3305    0.0000 </r>
       <r>    5.4249    0.0000 </r>
      </set>
      <set comment="kpoint 43">
       <r>  -18.6755    1.0000 </r>
       <r>  -16.9792    1.0000 </r>
       <r>  -15.8254    1.0000 </r>
       <r>  -13.5521    1.0000 </r>
       <r>  -11.2292    1.0000 </r>
       <r>   -9.3735    1.0000 </r>
       <r>   -9.1662    1.0000 </r>
       <r>   -8.5595    1.0000 </r>
       <r>   -6.9657    1.0000 </r>
       <r>   -6.9336    1.0000 </r>
       <r>   -6.6787    1.0000 </r>
       <r>   -6.0083    1.0000 </r>
       <r>   -5.4717    1.0000 </r>
       <r>   -4.3901    1.0000 </r>
       <r>   -4.1314    1.0000 </r>
       <r>   -2.5316    0.0000 </r>
       <r>    1.3280    0.0000 </r>
       <r>    2.1857    0.0000 </r>
       <r>    3.2364    0.0000 </r>
       <r>    3.2393    0.0000 </r>
       <r>    4.4885    0.0000 </r>
       <r>    4.5270    0.0000 </r>
       <r>    5.5650    0.0000 </r>
       <r>    5.5921    0.0000 </r>
      </set>
     </set>
    </set>
   </array>
  </eigenvalues>
  <separator name="orbital magnetization" >
   <v name="MAGDIPOLOUT">      0.00000000      0.00000000      0.00000000</v>
  </separator>
  <dos>
   <i name="efermi">     -2.85549221 </i>
   <total>
    <array>
     <dimension dim="1">gridpoints</dimension>
     <dimension dim="2">spin</dimension>
     <field>energy</field>
     <field>total</field>
     <field>integrated</field>
     <set>
      <set comment="spin 1">
       <r>   -20.5301     0.0000     0.0000 </r>
       <r>   -20.4360     0.0000     0.0000 </r>
       <r>   -20.3420     0.0000     0.0000 </r>
       <r>   -20.2479     0.0000     0.0000 </r>
       <r>   -20.1538     0.0000     0.0000 </r>
       <r>   -20.0598     0.0000     0.0000 </r>
       <r>   -19.9657     0.0000     0.0000 </r>
       <r>   -19.8716     0.0000     0.0000 </r>
       <r>   -19.7776     0.0000     0.0000 </r>
       <r>   -19.6835     0.0000     0.0000 </r>
       <r>   -19.5894     0.0000     0.0000 </r>
       <r>   -19.4954     0.0001     0.0000 </r>
       <r>   -19.4013     0.0072     0.0007 </r>
       <r>   -19.3072     0.1489     0.0147 </r>
       <r>   -19.2132     0.8241     0.0922 </r>
       <r>   -19.1191     1.6796     0.2502 </r>
       <r>   -19.0250     2.0544     0.4435 </r>
       <r>   -18.9310     2.2844     0.6584 </r>
       <r>   -18.8369     2.6664     0.9092 </r>
       <r>   -18.7428     3.5511     1.2432 </r>
       <r>   -18.6488     4.3679     1.6541 </r>
       <r>   -18.5547     2.9103     1.9279 </r>
       <r>   -18.4606     0.7139     1.9950 </r>
       <r>   -18.3666     0.0518     1.9999 </r>
       <r>   -18.2725     0.0009     2.0000 </r>
       <r>   -18.1784     0.0000     2.0000 </r>
       <r>   -18.0843     0.0000     2.0000 </r>
       <r>   -17.9903     0.0000     2.0000 </r>
       <r>   -17.8962     0.0000     2.0000 </r>
       <r>   -17.8021     0.0000     2.0000 </r>
       <r>   -17.7081     0.0000     2.0000 </r>
       <r>   -17.6140     0.0000     2.0000 </r>
       <r>   -17.5199     0.0000     2.0000 </r>
       <r>   -17.4259     0.0000     2.0000 </r>
       <r>   -17.3318     0.0000     2.0000 </r>
       <r>   -17.2377     0.0001     2.0000 </r>
       <r>   -17.1437     0.0068     2.0006 </r>
       <r>   -17.0496     0.1618     2.0159 </r>
       <r>   -16.9555     1.0589     2.1155 </r>
       <r>   -16.8615     2.4191     2.3430 </r>
       <r>   -16.7674     3.2267     2.6466 </r>
       <r>   -16.6733     2.9633     2.9253 </r>
       <r>   -16.5793     2.1711     3.1295 </r>
       <r>   -16.4852     1.7509     3.2943 </r>
       <r>   -16.3911     2.0215     3.4844 </r>
       <r>   -16.2971     1.9609     3.6689 </r>
       <r>   -16.2030     1.8959     3.8472 </r>
       <r>   -16.1089     2.2804     4.0617 </r>
       <r>   -16.0148     2.5811     4.3045 </r>
       <r>   -15.9208     2.7281     4.5612 </r>
       <r>   -15.8267     3.4132     4.8822 </r>
       <r>   -15.7326     3.5704     5.2181 </r>
       <r>   -15.6386     2.7222     5.4742 </r>
       <r>   -15.5445     2.0598     5.6679 </r>
       <r>   -15.4504     1.8277     5.8398 </r>
       <r>   -15.3564     1.2339     5.9559 </r>
       <r>   -15.2623     0.4151     5.9950 </r>
       <r>   -15.1682     0.0518     5.9998 </r>
       <r>   -15.0742     0.0017     6.0000 </r>
       <r>   -14.9801     0.0000     6.0000 </r>
       <r>   -14.8860     0.0000     6.0000 </r>
       <r>   -14.7920     0.0000     6.0000 </r>
       <r>   -14.6979     0.0000     6.0000 </r>
       <r>   -14.6038     0.0000     6.0000 </r>
       <r>   -14.5098     0.0000     6.0000 </r>
       <r>   -14.4157     0.0000     6.0000 </r>
       <r>   -14.3216     0.0000     6.0000 </r>
       <r>   -14.2276     0.0000     6.0000 </r>
       <r>   -14.1335     0.0000     6.0000 </r>
       <r>   -14.0394     0.0000     6.0000 </r>
       <r>   -13.9453     0.0000     6.0000 </r>
       <r>   -13.8513     0.0000     6.0000 </r>
       <r>   -13.7572     0.0012     6.0001 </r>
       <r>   -13.6631     0.0455     6.0044 </r>
       <r>   -13.5691     0.3999     6.0420 </r>
       <r>   -13.4750     1.1790     6.1529 </r>
       <r>   -13.3809     2.1912     6.3590 </r>
       <r>   -13.2869     2.6576     6.6090 </r>
       <r>   -13.1928     2.3469     6.8298 </r>
       <r>   -13.0987     2.9152     7.1040 </r>
       <r>   -13.0047     4.0587     7.4858 </r>
       <r>   -12.9106     2.7370     7.7433 </r>
       <r>   -12.8165     1.0899     7.8458 </r>
       <r>   -12.7225     1.1167     7.9509 </r>
       <r>   -12.6284     1.6311     8.1043 </r>
       <r>   -12.5343     1.9631     8.2890 </r>
       <r>   -12.4403     1.3748     8.4183 </r>
       <r>   -12.3462     0.7055     8.4847 </r>
       <r>   -12.2521     0.8789     8.5673 </r>
       <r>   -12.1581     2.0778     8.7628 </r>
       <r>   -12.0640     2.2793     8.9772 </r>
       <r>   -11.9699     1.3160     9.1010 </r>
       <r>   -11.8758     1.4517     9.2376 </r>
       <r>   -11.7818     2.2011     9.4446 </r>
       <r>   -11.6877     2.2300     9.6544 </r>
       <r>   -11.5936     1.2928     9.7760 </r>
       <r>   -11.4996     1.1703     9.8861 </r>
       <r>   -11.4055     1.7460    10.0503 </r>
       <r>   -11.3114     1.5317    10.1944 </r>
       <r>   -11.2174     0.5421    10.2454 </r>
       <r>   -11.1233     0.3800    10.2812 </r>
       <r>   -11.0292     0.8258    10.3588 </r>
       <r>   -10.9352     0.8298    10.4369 </r>
       <r>   -10.8411     0.5519    10.4888 </r>
       <r>   -10.7470     0.2441    10.5118 </r>
       <r>   -10.6530     0.0754    10.5189 </r>
       <r>   -10.5589     0.2760    10.5449 </r>
       <r>   -10.4648     1.2468    10.6621 </r>
       <r>   -10.3708     1.6729    10.8195 </r>
       <r>   -10.2767     0.9227    10.9063 </r>
       <r>   -10.1826     1.0282    11.0030 </r>
       <r>   -10.0886     1.3992    11.1346 </r>
       <r>    -9.9945     1.3791    11.2644 </r>
       <r>    -9.9004     1.0875    11.3667 </r>
       <r>    -9.8064     2.2304    11.5765 </r>
       <r>    -9.7123     2.8622    11.8457 </r>
       <r>    -9.6182     2.7407    12.1035 </r>
       <r>    -9.5241     1.9045    12.2827 </r>
       <r>    -9.4301     1.3809    12.4126 </r>
       <r>    -9.3360     0.8573    12.4932 </r>
       <r>    -9.2419     0.7330    12.5622 </r>
       <r>    -9.1479     2.5426    12.8014 </r>
       <r>    -9.0538     4.4391    13.2189 </r>
       <r>    -8.9597     3.3431    13.5334 </r>
       <r>    -8.8657     1.1705    13.6435 </r>
       <r>    -8.7716     0.8711    13.7255 </r>
       <r>    -8.6775     1.9262    13.9067 </r>
       <r>    -8.5835     2.2707    14.1203 </r>
       <r>    -8.4894     1.6925    14.2795 </r>
       <r>    -8.3953     2.1057    14.4776 </r>
       <r>    -8.3013     3.6452    14.8205 </r>
       <r>    -8.2072     3.0641    15.1087 </r>
       <r>    -8.1131     1.3897    15.2394 </r>
       <r>    -8.0191     2.3704    15.4624 </r>
       <r>    -7.9250     3.4245    15.7845 </r>
       <r>    -7.8309     2.6530    16.0341 </r>
       <r>    -7.7369     2.3980    16.2597 </r>
       <r>    -7.6428     2.3199    16.4779 </r>
       <r>    -7.5487     1.9316    16.6596 </r>
       <r>    -7.4546     2.1499    16.8618 </r>
       <r>    -7.3606     2.6184    17.1081 </r>
       <r>    -7.2665     3.9592    17.4806 </r>
       <r>    -7.1724     4.4963    17.9035 </r>
       <r>    -7.0784     3.6307    18.2451 </r>
       <r>    -6.9843     4.0928    18.6301 </r>
       <r>    -6.8902     4.2446    19.0293 </r>
       <r>    -6.7962     2.9227    19.3043 </r>
       <r>    -6.7021     1.6702    19.4614 </r>
       <r>    -6.6080     2.0708    19.6562 </r>
       <r>    -6.5140     1.8704    19.8321 </r>
       <r>    -6.4199     1.5222    19.9753 </r>
       <r>    -6.3258     2.1071    20.1735 </r>
       <r>    -6.2318     1.5580    20.3201 </r>
       <r>    -6.1377     1.5804    20.4687 </r>
       <r>    -6.0436     2.1175    20.6679 </r>
       <r>    -5.9496     3.0696    20.9567 </r>
       <r>    -5.8555     4.1744    21.3494 </r>
       <r>    -5.7614     6.9948    22.0074 </r>
       <r>    -5.6674     8.2437    22.7828 </r>
       <r>    -5.5733     6.0482    23.3518 </r>
       <r>    -5.4792     4.6377    23.7880 </r>
       <r>    -5.3851     2.4595    24.0194 </r>
       <r>    -5.2911     1.6321    24.1729 </r>
       <r>    -5.1970     2.7247    24.4292 </r>
       <r>    -5.1029     3.5680    24.7648 </r>
       <r>    -5.0089     2.4413    24.9945 </r>
       <r>    -4.9148     1.4433    25.1303 </r>
       <r>    -4.8207     2.0548    25.3236 </r>
       <r>    -4.7267     3.6443    25.6664 </r>
       <r>    -4.6326     3.7879    26.0227 </r>
       <r>    -4.5385     3.3319    26.3361 </r>
       <r>    -4.4445     2.6244    26.5830 </r>
       <r>    -4.3504     3.7712    26.9377 </r>
       <r>    -4.2563     5.4400    27.4495 </r>
       <r>    -4.1623     4.3792    27.8614 </r>
       <r>    -4.0682     4.2215    28.2585 </r>
       <r>    -3.9741     4.9324    28.7225 </r>
       <r>    -3.8801     3.7991    29.0799 </r>
       <r>    -3.7860     1.6463    29.2347 </r>
       <r>    -3.6919     1.4169    29.3680 </r>
       <r>    -3.5979     1.7620    29.5338 </r>
       <r>    -3.5038     1.1241    29.6395 </r>
       <r>    -3.4097     0.9413    29.7280 </r>
       <r>    -3.3157     1.2083    29.8417 </r>
       <r>    -3.2216     1.0252    29.9381 </r>
       <r>    -3.1275     0.5305    29.9880 </r>
       <r>    -3.0334     0.1185    29.9992 </r>
       <r>    -2.9394     0.0084    30.0000 </r>
       <r>    -2.8453     0.0002    30.0000 </r>
       <r>    -2.7512     0.0005    30.0000 </r>
       <r>    -2.6572     0.0244    30.0023 </r>
       <r>    -2.5631     0.2616    30.0270 </r>
       <r>    -2.4690     0.7268    30.0953 </r>
       <r>    -2.3750     1.0252    30.1918 </r>
       <r>    -2.2809     1.8745    30.3681 </r>
       <r>    -2.1868     2.4586    30.5994 </r>
       <r>    -2.0928     1.9164    30.7796 </r>
       <r>    -1.9987     1.7740    30.9465 </r>
       <r>    -1.9046     2.5227    31.1838 </r>
       <r>    -1.8106     2.8045    31.4476 </r>
       <r>    -1.7165     1.5986    31.5980 </r>
       <r>    -1.6224     0.6067    31.6551 </r>
       <r>    -1.5284     0.8556    31.7356 </r>
       <r>    -1.4343     0.6073    31.7927 </r>
       <r>    -1.3402     0.6691    31.8556 </r>
       <r>    -1.2462     0.9127    31.9415 </r>
       <r>    -1.1521     0.3048    31.9702 </r>
       <r>    -1.0580     0.0214    31.9722 </r>
       <r>    -0.9639     0.0011    31.9723 </r>
       <r>    -0.8699     0.0274    31.9749 </r>
       <r>    -0.7758     0.1892    31.9927 </r>
       <r>    -0.6817     0.2785    32.0189 </r>
       <r>    -0.5877     0.0887    32.0272 </r>
       <r>    -0.4936     0.0059    32.0278 </r>
       <r>    -0.3995     0.0034    32.0281 </r>
       <r>    -0.3055     0.1012    32.0376 </r>
       <r>    -0.2114     0.6184    32.0958 </r>
       <r>    -0.1173     0.8196    32.1729 </r>
       <r>    -0.0233     0.3849    32.2091 </r>
       <r>     0.0708     0.4431    32.2508 </r>
       <r>     0.1649     0.2785    32.2770 </r>
       <r>     0.2589     0.5187    32.3258 </r>
       <r>     0.3530     2.2200    32.5346 </r>
       <r>     0.4471     2.9836    32.8153 </r>
       <r>     0.5411     2.3162    33.0331 </r>
       <r>     0.6352     2.0602    33.2269 </r>
       <r>     0.7293     1.9956    33.4147 </r>
       <r>     0.8233     1.8515    33.5888 </r>
       <r>     0.9174     1.9322    33.7706 </r>
       <r>     1.0115     1.2561    33.8888 </r>
       <r>     1.1056     1.0406    33.9866 </r>
       <r>     1.1996     1.6605    34.1428 </r>
       <r>     1.2937     1.5879    34.2922 </r>
       <r>     1.3878     1.1101    34.3966 </r>
       <r>     1.4818     1.4504    34.5331 </r>
       <r>     1.5759     1.6922    34.6923 </r>
       <r>     1.6700     1.8969    34.8707 </r>
       <r>     1.7640     2.4194    35.0983 </r>
       <r>     1.8581     1.9385    35.2806 </r>
       <r>     1.9522     1.2149    35.3949 </r>
       <r>     2.0462     2.1967    35.6015 </r>
       <r>     2.1403     3.4498    35.9261 </r>
       <r>     2.2344     2.0053    36.1147 </r>
       <r>     2.3284     1.2996    36.2370 </r>
       <r>     2.4225     2.4380    36.4663 </r>
       <r>     2.5166     2.7888    36.7286 </r>
       <r>     2.6106     2.4333    36.9575 </r>
       <r>     2.7047     1.8519    37.1317 </r>
       <r>     2.7988     1.5923    37.2815 </r>
       <r>     2.8928     2.4750    37.5143 </r>
       <r>     2.9869     3.1904    37.8144 </r>
       <r>     3.0810     2.7312    38.0713 </r>
       <r>     3.1751     1.9813    38.2577 </r>
       <r>     3.2691     3.0768    38.5471 </r>
       <r>     3.3632     3.8327    38.9077 </r>
       <r>     3.4573     3.2541    39.2138 </r>
       <r>     3.5513     2.4245    39.4419 </r>
       <r>     3.6454     2.8281    39.7079 </r>
       <r>     3.7395     2.6423    39.9565 </r>
       <r>     3.8335     2.4052    40.1827 </r>
       <r>     3.9276     3.9937    40.5584 </r>
       <r>     4.0217     5.4125    41.0675 </r>
       <r>     4.1157     4.5384    41.4945 </r>
       <r>     4.2098     2.8697    41.7644 </r>
       <r>     4.3039     3.0556    42.0518 </r>
       <r>     4.3979     3.6427    42.3945 </r>
       <r>     4.4920     3.5352    42.7271 </r>
       <r>     4.5861     4.1118    43.1138 </r>
       <r>     4.6801     4.6511    43.5514 </r>
       <r>     4.7742     5.0329    44.0248 </r>
       <r>     4.8683     3.9748    44.3987 </r>
       <r>     4.9623     2.1301    44.5991 </r>
       <r>     5.0564     2.2262    44.8085 </r>
       <r>     5.1505     3.1046    45.1005 </r>
       <r>     5.2445     3.9875    45.4756 </r>
       <r>     5.3386     3.5616    45.8107 </r>
       <r>     5.4327     3.0363    46.0963 </r>
       <r>     5.5268     2.2919    46.3119 </r>
       <r>     5.6208     2.5851    46.5550 </r>
       <r>     5.7149     2.8523    46.8233 </r>
       <r>     5.8090     2.1324    47.0239 </r>
       <r>     5.9030     1.9414    47.2066 </r>
       <r>     5.9971     2.6018    47.4513 </r>
       <r>     6.0912     2.8660    47.7209 </r>
       <r>     6.1852     1.8200    47.8921 </r>
       <r>     6.2793     0.6741    47.9555 </r>
       <r>     6.3734     0.2534    47.9794 </r>
       <r>     6.4674     0.1603    47.9944 </r>
       <r>     6.5615     0.0546    47.9996 </r>
       <r>     6.6556     0.0043    48.0000 </r>
       <r>     6.7496     0.0001    48.0000 </r>
       <r>     6.8437     0.0000    48.0000 </r>
       <r>     6.9378     0.0000    48.0000 </r>
       <r>     7.0318     0.0000    48.0000 </r>
       <r>     7.1259     0.0000    48.0000 </r>
       <r>     7.2200     0.0000    48.0000 </r>
       <r>     7.3140     0.0000    48.0000 </r>
       <r>     7.4081     0.0000    48.0000 </r>
       <r>     7.5022     0.0000    48.0000 </r>
       <r>     7.5963     0.0000    48.0000 </r>
       <r>     7.6903     0.0000    48.0000 </r>
      </set>
     </set>
    </array>
   </total>
  </dos>
 </calculation>
 <structure name="finalpos" >
  <crystal>
   <varray name="basis" >
    <v>       5.17471375       0.00000000       0.00000000 </v>
    <v>       2.58735687       4.48016509       0.00000000 </v>
    <v>       0.00000000       0.00000000      11.04441191 </v>
   </varray>
   <i name="volume">    256.04891747 </i>
   <varray name="rec_basis" >
    <v>       0.19324740      -0.11160303       0.00000000 </v>
    <v>      -0.00000000       0.22320606       0.00000000 </v>
    <v>       0.00000000       0.00000000       0.09054353 </v>
   </varray>
  </crystal>
  <varray name="positions" >
   <v>       0.17460303       0.17456665      -0.00000000 </v>
   <v>       0.50789541       0.50798189      -0.00000000 </v>
   <v>      -0.00011937      -0.00001059      -0.00000000 </v>
   <v>       0.52390268      -0.00001059      -0.00000000 </v>
   <v>       0.68254532       0.15868208      -0.00000000 </v>
   <v>      -0.00004688       0.52386646       0.00000000 </v>
   <v>       0.15859576       0.68255913      -0.00000000 </v>
   <v>       0.68261781       0.68255913       0.00000000 </v>
  </varray>
 </structure>
</modeling>
