 running on   12 total cores
 distrk:  each k-point on   12 cores,    1 groups
 distr:  one band on    1 cores,   12 groups
 using from now: INCAR     
 vasp.5.4.4.18Apr17-6-g9f103f2a35 (build Mar 30 2023 15:39:25) complex          
  
 POSCAR found type information on POSCAR  B  C 
 POSCAR found :  2 types and       8 ions
 scaLAPACK will be used

 ----------------------------------------------------------------------------- 
|                                                                             |
|           W    W    AA    RRRRR   N    N  II  N    N   GGGG   !!!           |
|           W    W   A  A   R    R  NN   N  II  NN   N  G    G  !!!           |
|           W    W  A    A  R    R  N N  N  II  N N  N  G       !!!           |
|           W WW W  AAAAAA  RRRRR   N  N N  II  N  N N  G  GGG   !            |
|           WW  WW  A    A  R   R   N   NN  II  N   NN  G    G                |
|           W    W  A    A  R    R  N    N  II  N    N   GGGG   !!!           |
|                                                                             |
|      For optimal performance we recommend to set                            |
|        NCORE= 4 - approx SQRT( number of cores)                             |
|      NCORE specifies how many cores store one orbital (NPAR=cpu/NCORE).     |
|      This setting can  greatly improve the performance of VASP for DFT.     |
|      The default,   NCORE=1            might be grossly inefficient         |
|      on modern multi-core architectures or massively parallel machines.     |
|      Do your own testing !!!!                                               |
|      Unfortunately you need to use the default for GW and RPA calculations. |
|      (for HF NCORE is supported but not extensively tested yet)             |
|                                                                             |
 ----------------------------------------------------------------------------- 

 LDA part: xc-table for Pade appr. of Perdew
 POSCAR, INCAR and KPOINTS ok, starting setup
 FFT: planning ...
 WAVECAR not read
 entering main loop
       N       E                     dE             d eps       ncg     rms          rms(c)
DAV:   1     0.208596686129E+03    0.20860E+03   -0.97767E+03  2184   0.793E+02
DAV:   2    -0.394034265742E+02   -0.24800E+03   -0.23363E+03  3360   0.184E+02
DAV:   3    -0.725963848142E+02   -0.33193E+02   -0.32777E+02  2652   0.815E+01
DAV:   4    -0.734156651961E+02   -0.81928E+00   -0.81726E+00  2952   0.159E+01
DAV:   5    -0.734373150415E+02   -0.21650E-01   -0.21621E-01  2676   0.236E+00    0.131E+01
DAV:   6    -0.689783061363E+02    0.44590E+01   -0.52825E+00  2976   0.105E+01    0.740E+00
DAV:   7    -0.673327222416E+02    0.16456E+01   -0.39705E+00  3036   0.910E+00    0.215E+00
DAV:   8    -0.672526005346E+02    0.80122E-01   -0.21618E-01  3192   0.214E+00    0.580E-01
DAV:   9    -0.672347615380E+02    0.17839E-01   -0.16844E-02  2544   0.729E-01    0.175E-01
DAV:  10    -0.672233178649E+02    0.11444E-01   -0.10426E-02  2640   0.410E-01    0.127E-01
DAV:  11    -0.672226420939E+02    0.67577E-03   -0.47842E-03  2364   0.301E-01    0.573E-02
DAV:  12    -0.672228629145E+02   -0.22082E-03   -0.14216E-03  2304   0.141E-01    0.359E-02
DAV:  13    -0.672271078961E+02   -0.42450E-02   -0.49069E-04  2100   0.906E-02    0.210E-02
DAV:  14    -0.672296778897E+02   -0.25700E-02   -0.36177E-04  2364   0.625E-02    0.127E-02
DAV:  15    -0.672301917579E+02   -0.51387E-03   -0.33744E-05  2244   0.217E-02    0.440E-03
DAV:  16    -0.672305244436E+02   -0.33269E-03   -0.35439E-05  2112   0.167E-02    0.185E-03
DAV:  17    -0.672305758958E+02   -0.51452E-04   -0.31489E-06  2448   0.570E-03    0.148E-03
DAV:  18    -0.672306136574E+02   -0.37762E-04   -0.31462E-06  2232   0.552E-03    0.119E-03
DAV:  19    -0.672306196954E+02   -0.60380E-05   -0.14670E-07  1824   0.177E-03    0.512E-04
DAV:  20    -0.672306325165E+02   -0.12821E-04   -0.83731E-08  1548   0.121E-03    0.371E-04
DAV:  21    -0.672306345169E+02   -0.20004E-05   -0.10498E-08  1716   0.417E-04    0.137E-04
DAV:  22    -0.672306352837E+02   -0.76686E-06   -0.10271E-08  1572   0.390E-04
   1 F= -.67230635E+02 E0= -.67230635E+02  d E =-.672306E+02
 curvature:   0.00 expect dE= 0.000E+00 dE for cont linesearch  0.000E+00
 trial: gam= 0.00000 g(F)=  0.990E-04 g(S)=  0.282E-03 ort = 0.000E+00 (trialstep = 0.100E+01)
 search vector abs. value=  0.381E-03
 bond charge predicted
       N       E                     dE             d eps       ncg     rms          rms(c)
DAV:   1    -0.672308583291E+02   -0.22381E-03   -0.21976E-02  2304   0.900E-01    0.664E-02
DAV:   2    -0.672307316442E+02    0.12668E-03   -0.42998E-04  2196   0.109E-01    0.413E-02
DAV:   3    -0.672306496513E+02    0.81993E-04   -0.15185E-04  2292   0.566E-02    0.547E-03
DAV:   4    -0.672306479286E+02    0.17228E-05   -0.47036E-06  2364   0.113E-02    0.302E-03
DAV:   5    -0.672306520608E+02   -0.41322E-05   -0.11934E-06  1764   0.533E-03    0.983E-04
DAV:   6    -0.672306564103E+02   -0.43495E-05   -0.27492E-07  1932   0.231E-03    0.732E-04
DAV:   7    -0.672306659530E+02   -0.95427E-05   -0.96280E-07  2280   0.283E-03    0.484E-04
DAV:   8    -0.672306693870E+02   -0.34340E-05   -0.15389E-07  1908   0.147E-03    0.268E-04
DAV:   9    -0.672306718858E+02   -0.24988E-05   -0.18946E-07  1692   0.115E-03    0.192E-04
DAV:  10    -0.672306736537E+02   -0.17680E-05   -0.10800E-07  1548   0.862E-04    0.102E-04
DAV:  11    -0.672306738648E+02   -0.21106E-06   -0.85402E-09  1812   0.281E-04
   2 F= -.67230674E+02 E0= -.67230674E+02  d E =-.385810E-04
 trial-energy change:   -0.000039  1 .order   -0.000035   -0.000381    0.000311
 step:   0.5503(harm=  0.5503)  dis= 0.00048  next Energy=   -67.230740 (dE=-0.105E-03)
 bond charge predicted
       N       E                     dE             d eps       ncg     rms          rms(c)
DAV:   1    -0.672307817830E+02   -0.10813E-03   -0.44371E-03  2088   0.404E-01    0.297E-02
DAV:   2    -0.672307556948E+02    0.26088E-04   -0.87002E-05  2064   0.494E-02    0.186E-02
DAV:   3    -0.672307388847E+02    0.16810E-04   -0.30494E-05  2172   0.253E-02    0.252E-03
DAV:   4    -0.672307375773E+02    0.13074E-05   -0.83024E-07  2064   0.506E-03    0.132E-03
DAV:   5    -0.672307368244E+02    0.75293E-06   -0.39428E-07  1788   0.310E-03
   3 F= -.67230737E+02 E0= -.67230737E+02  d E =-.101541E-03
 curvature:  -0.28 expect dE=-0.999E-04 dE for cont linesearch -0.138E-07
 trial: gam= 0.96507 g(F)=  0.109E-03 g(S)=  0.254E-03 ort =-0.437E-05 (trialstep = 0.489E+00)
 search vector abs. value=  0.709E-03
 bond charge predicted
       N       E                     dE             d eps       ncg     rms          rms(c)
DAV:   1    -0.672311704789E+02   -0.43290E-03   -0.95756E-03  2556   0.522E-01    0.634E-02
DAV:   2    -0.672309909919E+02    0.17949E-03   -0.21861E-04  2136   0.768E-02    0.331E-02
DAV:   3    -0.672308936815E+02    0.97310E-04   -0.21256E-04  2112   0.646E-02    0.928E-03
DAV:   4    -0.672308932019E+02    0.47955E-06   -0.66290E-06  2496   0.140E-02
   4 F= -.67230893E+02 E0= -.67230893E+02  d E =-.156378E-03
 ZBRENT: can't locate minimum, use default step
 trial-energy change:   -0.000156  1 .order   -0.000194   -0.000175   -0.000213
 step:   1.9542(harm=  1.9542)  dis= 0.00051  next Energy=   -67.231739 (dE=-0.100E-02)
 bond charge predicted
       N       E                     dE             d eps       ncg     rms          rms(c)
DAV:   1    -0.672337396591E+02   -0.28460E-02   -0.85467E-02  2208   0.157E+00    0.189E-01
DAV:   2    -0.672320101183E+02    0.17295E-02   -0.19193E-03  2412   0.231E-01    0.992E-02
DAV:   3    -0.672311700410E+02    0.84008E-03   -0.20160E-03  2304   0.198E-01    0.289E-02
DAV:   4    -0.672311883917E+02   -0.18351E-04   -0.63237E-05  2340   0.432E-02    0.155E-02
DAV:   5    -0.672312079082E+02   -0.19516E-04   -0.34996E-05  2376   0.258E-02    0.698E-03
DAV:   6    -0.672312858502E+02   -0.77942E-04   -0.12838E-05  2376   0.156E-02    0.541E-03
DAV:   7    -0.672313174404E+02   -0.31590E-04   -0.37530E-06  2508   0.652E-03    0.348E-03
DAV:   8    -0.672313615378E+02   -0.44097E-04   -0.11288E-05  2280   0.103E-02    0.224E-03
DAV:   9    -0.672313715084E+02   -0.99705E-05   -0.99519E-07  2280   0.347E-03    0.133E-03
DAV:  10    -0.672313752652E+02   -0.37568E-05   -0.47852E-07  1548   0.314E-03    0.933E-04
DAV:  11    -0.672313765892E+02   -0.13240E-05   -0.12057E-07  1644   0.137E-03    0.451E-04
DAV:  12    -0.672313769239E+02   -0.33475E-06   -0.35924E-08  1620   0.851E-04
   5 F= -.67231377E+02 E0= -.67231377E+02  d E =-.640100E-03
 curvature:  -3.02 expect dE=-0.212E-02 dE for cont linesearch -0.334E-03
 ZBRENT: increasing intervall
 opt :   4.8855  next Energy=   -67.231742 (dE=-0.100E-02)
 bond charge predicted
       N       E                     dE             d eps       ncg     rms          rms(c)
DAV:   1    -0.672415049961E+02   -0.10128E-01   -0.34879E-01  2496   0.316E+00    0.383E-01
DAV:   2    -0.672347390345E+02    0.67660E-02   -0.78923E-03  2220   0.462E-01    0.200E-01
DAV:   3    -0.672316270118E+02    0.31120E-02   -0.78224E-03  2532   0.390E-01    0.567E-02
DAV:   4    -0.672316377962E+02   -0.10784E-04   -0.25693E-04  2412   0.855E-02    0.292E-02
DAV:   5    -0.672316600942E+02   -0.22298E-04   -0.12431E-04  2448   0.490E-02    0.136E-02
DAV:   6    -0.672318214860E+02   -0.16139E-03   -0.37560E-05  2400   0.277E-02    0.923E-03
DAV:   7    -0.672318875128E+02   -0.66027E-04   -0.10124E-05  2496   0.110E-02    0.618E-03
DAV:   8    -0.672319798637E+02   -0.92351E-04   -0.30746E-05  2364   0.172E-02    0.358E-03
