 running on   12 total cores
 distrk:  each k-point on   12 cores,    1 groups
 distr:  one band on    1 cores,   12 groups
 using from now: INCAR     
 vasp.5.4.4.18Apr17-6-g9f103f2a35 (build Mar 30 2023 15:39:25) complex          
  
 POSCAR found type information on POSCAR  B  C 
 POSCAR found :  2 types and       8 ions
 scaLAPACK will be used

 ----------------------------------------------------------------------------- 
|                                                                             |
|           W    W    AA    RRRRR   N    N  II  N    N   GGGG   !!!           |
|           W    W   A  A   R    R  NN   N  II  NN   N  G    G  !!!           |
|           W    W  A    A  R    R  N N  N  II  N N  N  G       !!!           |
|           W WW W  AAAAAA  RRRRR   N  N N  II  N  N N  G  GGG   !            |
|           WW  WW  A    A  R   R   N   NN  II  N   NN  G    G                |
|           W    W  A    A  R    R  N    N  II  N    N   GGGG   !!!           |
|                                                                             |
|      For optimal performance we recommend to set                            |
|        NCORE= 4 - approx SQRT( number of cores)                             |
|      NCORE specifies how many cores store one orbital (NPAR=cpu/NCORE).     |
|      This setting can  greatly improve the performance of VASP for DFT.     |
|      The default,   NCORE=1            might be grossly inefficient         |
|      on modern multi-core architectures or massively parallel machines.     |
|      Do your own testing !!!!                                               |
|      Unfortunately you need to use the default for GW and RPA calculations. |
|      (for HF NCORE is supported but not extensively tested yet)             |
|                                                                             |
 ----------------------------------------------------------------------------- 

 LDA part: xc-table for Pade appr. of Perdew
 POSCAR, INCAR and KPOINTS ok, starting setup
 FFT: planning ...
 WAVECAR not read
 entering main loop
       N       E                     dE             d eps       ncg     rms          rms(c)
DAV:   1     0.208600587493E+03    0.20860E+03   -0.97768E+03  2184   0.793E+02
DAV:   2    -0.394039647234E+02   -0.24800E+03   -0.23363E+03  3360   0.184E+02
DAV:   3    -0.725962618469E+02   -0.33192E+02   -0.32776E+02  2652   0.815E+01
DAV:   4    -0.734155447050E+02   -0.81928E+00   -0.81726E+00  2952   0.159E+01
DAV:   5    -0.734371940524E+02   -0.21649E-01   -0.21621E-01  2676   0.236E+00    0.131E+01
DAV:   6    -0.689780889880E+02    0.44591E+01   -0.52819E+00  2988   0.105E+01    0.740E+00
DAV:   7    -0.673326785540E+02    0.16454E+01   -0.39696E+00  3036   0.910E+00    0.215E+00
DAV:   8    -0.672532936502E+02    0.79385E-01   -0.21658E-01  3180   0.214E+00    0.581E-01
DAV:   9    -0.672356057849E+02    0.17688E-01   -0.16848E-02  2532   0.729E-01    0.175E-01
DAV:  10    -0.672240249657E+02    0.11581E-01   -0.10497E-02  2664   0.412E-01    0.127E-01
DAV:  11    -0.672231646691E+02    0.86030E-03   -0.47225E-03  2436   0.299E-01    0.575E-02
DAV:  12    -0.672230523411E+02    0.11233E-03   -0.14890E-03  2220   0.144E-01    0.359E-02
DAV:  13    -0.672270989609E+02   -0.40466E-02   -0.48811E-04  2124   0.927E-02    0.211E-02
DAV:  14    -0.672297523880E+02   -0.26534E-02   -0.37002E-04  2340   0.632E-02    0.127E-02
DAV:  15    -0.672302925453E+02   -0.54016E-03   -0.33066E-05  2268   0.216E-02    0.445E-03
DAV:  16    -0.672306401610E+02   -0.34762E-03   -0.32622E-05  2112   0.162E-02    0.183E-03
DAV:  17    -0.672306950786E+02   -0.54918E-04   -0.29481E-06  2448   0.556E-03    0.148E-03
DAV:  18    -0.672307340197E+02   -0.38941E-04   -0.22727E-06  2232   0.527E-03    0.121E-03
DAV:  19    -0.672307408485E+02   -0.68287E-05   -0.13008E-07  1776   0.173E-03    0.537E-04
DAV:  20    -0.672307543475E+02   -0.13499E-04   -0.77493E-08  1548   0.152E-03    0.402E-04
DAV:  21    -0.672307560611E+02   -0.17136E-05   -0.10946E-08  1548   0.534E-04    0.211E-04
DAV:  22    -0.672307565111E+02   -0.45003E-06   -0.74928E-09  1548   0.412E-04
   1 F= -.67230757E+02 E0= -.67230756E+02  d E =-.672308E+02
 curvature:   0.00 expect dE= 0.000E+00 dE for cont linesearch  0.000E+00
 trial: gam= 0.00000 g(F)=  0.973E-04 g(S)=  0.268E-03 ort = 0.000E+00 (trialstep = 0.100E+01)
 search vector abs. value=  0.365E-03
 bond charge predicted
       N       E                     dE             d eps       ncg     rms          rms(c)
DAV:   1    -0.672309683475E+02   -0.21229E-03   -0.21422E-02  2304   0.888E-01    0.648E-02
DAV:   2    -0.672308532014E+02    0.11515E-03   -0.41861E-04  2136   0.108E-01    0.404E-02
DAV:   3    -0.672307747138E+02    0.78488E-04   -0.14629E-04  2280   0.556E-02    0.536E-03
DAV:   4    -0.672307724875E+02    0.22263E-05   -0.46138E-06  2556   0.111E-02    0.299E-03
DAV:   5    -0.672307757185E+02   -0.32310E-05   -0.11528E-06  1932   0.529E-03    0.968E-04
DAV:   6    -0.672307790661E+02   -0.33477E-05   -0.23556E-07  1920   0.218E-03    0.741E-04
DAV:   7    -0.672307867505E+02   -0.76844E-05   -0.79274E-07  2292   0.265E-03    0.494E-04
DAV:   8    -0.672307894960E+02   -0.27455E-05   -0.10718E-07  1836   0.131E-03    0.299E-04
DAV:   9    -0.672307915265E+02   -0.20305E-05   -0.13709E-07  1764   0.102E-03    0.242E-04
DAV:  10    -0.672307926332E+02   -0.11067E-05   -0.54814E-08  1620   0.774E-04    0.186E-04
DAV:  11    -0.672307927023E+02   -0.69070E-07   -0.39136E-09  1992   0.264E-04
   2 F= -.67230793E+02 E0= -.67230793E+02  d E =-.361912E-04
 trial-energy change:   -0.000036  1 .order   -0.000032   -0.000365    0.000301
 step:   0.5483(harm=  0.5483)  dis= 0.00047  next Energy=   -67.230857 (dE=-0.100E-03)
 bond charge predicted
       N       E                     dE             d eps       ncg     rms          rms(c)
DAV:   1    -0.672308970629E+02   -0.10443E-03   -0.43641E-03  2160   0.401E-01    0.292E-02
DAV:   2    -0.672308730122E+02    0.24051E-04   -0.85405E-05  2112   0.489E-02    0.183E-02
DAV:   3    -0.672308562985E+02    0.16714E-04   -0.29725E-05  2352   0.250E-02    0.247E-03
DAV:   4    -0.672308551545E+02    0.11439E-05   -0.80706E-07  2052   0.497E-03    0.131E-03
DAV:   5    -0.672308546588E+02    0.49577E-06   -0.38078E-07  1980   0.305E-03
   3 F= -.67230855E+02 E0= -.67230855E+02  d E =-.981476E-04
 curvature:  -0.27 expect dE=-0.952E-04 dE for cont linesearch -0.130E-07
 trial: gam= 0.96240 g(F)=  0.106E-03 g(S)=  0.242E-03 ort =-0.417E-05 (trialstep = 0.490E+00)
 search vector abs. value=  0.678E-03
 bond charge predicted
       N       E                     dE             d eps       ncg     rms          rms(c)
DAV:   1    -0.672312710534E+02   -0.41590E-03   -0.92287E-03  2472   0.513E-01    0.621E-02
DAV:   2    -0.672311010013E+02    0.17005E-03   -0.20869E-04  2160   0.753E-02    0.325E-02
DAV:   3    -0.672310099202E+02    0.91081E-04   -0.20595E-04  2112   0.635E-02    0.914E-03
DAV:   4    -0.672310087884E+02    0.11318E-05   -0.63330E-06  2532   0.137E-02    0.482E-03
DAV:   5    -0.672310071500E+02    0.16383E-05   -0.32344E-06  2160   0.799E-03    0.207E-03
DAV:   6    -0.672310131751E+02   -0.60251E-05   -0.54918E-07  1932   0.363E-03    0.114E-03
DAV:   7    -0.672310169526E+02   -0.37775E-05   -0.28472E-07  1860   0.192E-03    0.983E-04
DAV:   8    -0.672310239634E+02   -0.70108E-05   -0.88071E-07  2232   0.270E-03    0.567E-04
DAV:   9    -0.672310256416E+02   -0.16782E-05   -0.65594E-08  1668   0.919E-04    0.344E-04
DAV:  10    -0.672310264699E+02   -0.82829E-06   -0.44964E-08  1644   0.797E-04
   4 F= -.67231026E+02 E0= -.67231026E+02  d E =-.171811E-03
 ZBRENT: can't locate minimum, use default step
 trial-energy change:   -0.000172  1 .order   -0.000165   -0.000168   -0.000163
 step:   1.9613(harm= 14.3534)  dis= 0.00051  next Energy=   -67.233319 (dE=-0.246E-02)
 bond charge predicted
       N       E                     dE             d eps       ncg     rms          rms(c)
DAV:   1    -0.672337305766E+02   -0.27049E-02   -0.83220E-02  2496   0.154E+00    0.187E-01
DAV:   2    -0.672321152337E+02    0.16153E-02   -0.18822E-03  2244   0.226E-01    0.975E-02
DAV:   3    -0.672313198613E+02    0.79537E-03   -0.18658E-03  2532   0.191E-01    0.275E-02
DAV:   4    -0.672313248311E+02   -0.49698E-05   -0.61752E-05  2448   0.416E-02    0.143E-02
DAV:   5    -0.672313300615E+02   -0.52304E-05   -0.29455E-05  2484   0.238E-02    0.654E-03
DAV:   6    -0.672313815217E+02   -0.51460E-04   -0.82154E-06  2520   0.128E-02    0.447E-03
DAV:   7    -0.672314081825E+02   -0.26661E-04   -0.25302E-06  2472   0.526E-03    0.304E-03
DAV:   8    -0.672314481467E+02   -0.39964E-04   -0.78775E-06  2400   0.856E-03    0.175E-03
DAV:   9    -0.672314593373E+02   -0.11191E-04   -0.77717E-07  2208   0.305E-03    0.122E-03
DAV:  10    -0.672314634955E+02   -0.41582E-05   -0.33348E-07  1704   0.276E-03    0.786E-04
DAV:  11    -0.672314648019E+02   -0.13063E-05   -0.70126E-08  1656   0.125E-03    0.412E-04
DAV:  12    -0.672314650119E+02   -0.20999E-06   -0.21558E-08  1812   0.720E-04
   5 F= -.67231465E+02 E0= -.67231465E+02  d E =-.610353E-03
 curvature:  -2.85 expect dE=-0.203E-02 dE for cont linesearch -0.294E-03
 ZBRENT: increasing intervall
 opt :   4.9033  next Energy=   -67.232047 (dE=-0.119E-02)
 bond charge predicted
       N       E                     dE             d eps       ncg     rms          rms(c)
DAV:   1    -0.672411789808E+02   -0.97142E-02   -0.33600E-01  2436   0.310E+00    0.375E-01
DAV:   2    -0.672346956170E+02    0.64834E-02   -0.75662E-03  2244   0.453E-01    0.196E-01
DAV:   3    -0.672316513823E+02    0.30442E-02   -0.75254E-03  2568   0.382E-01    0.554E-02
DAV:   4    -0.672316696753E+02   -0.18293E-04   -0.25859E-04  2412   0.841E-02    0.287E-02
DAV:   5    -0.672316706764E+02   -0.10011E-05   -0.11633E-04  2532   0.475E-02    0.132E-02
DAV:   6    -0.672318458090E+02   -0.17513E-03   -0.37239E-05  2400   0.273E-02    0.893E-03
DAV:   7    -0.672319140191E+02   -0.68210E-04   -0.93906E-06  2484   0.106E-02    0.599E-03
DAV:   8    -0.672320139232E+02   -0.99904E-04   -0.27523E-05  2340   0.166E-02    0.343E-03
DAV:   9    -0.672320401597E+02   -0.26237E-04   -0.23688E-06  2328   0.567E-03    0.241E-03
DAV:  10    -0.672320507351E+02   -0.10575E-04   -0.11797E-06  1704   0.525E-03    0.154E-03
DAV:  11    -0.672320544764E+02   -0.37413E-05   -0.22519E-07  1692   0.233E-03    0.787E-04
DAV:  12    -0.672320555009E+02   -0.10246E-05   -0.10148E-07  1680   0.154E-03    0.293E-04
DAV:  13    -0.672320555946E+02   -0.93620E-07   -0.39446E-08  1548   0.824E-04
   6 F= -.67232056E+02 E0= -.67232056E+02  d E =-.120094E-02
 curvature:  -5.63 expect dE=-0.191E-01 dE for cont linesearch -0.150E-03
 ZBRENT: increasing intervall
 opt :  10.7872  next Energy=   -67.232078 (dE=-0.122E-02)
 bond charge predicted
       N       E                     dE             d eps       ncg     rms          rms(c)
DAV:   1    -0.672691521751E+02   -0.37097E-01   -0.13683E+00  2412   0.628E+00    0.758E-01
DAV:   2    -0.672429301967E+02    0.26222E-01   -0.30325E-02  2388   0.912E-01    0.395E-01
DAV:   3    -0.672313203580E+02    0.11610E-01   -0.30568E-02  2448   0.770E-01    0.111E-01
DAV:   4    -0.672313134869E+02    0.68710E-05   -0.99474E-04  2544   0.168E-01    0.566E-02
DAV:   5    -0.672313117609E+02    0.17261E-05   -0.47209E-04  2388   0.960E-02    0.262E-02
DAV:   6    -0.672316504858E+02   -0.33872E-03   -0.11818E-04  2304   0.515E-02    0.171E-02
DAV:   7    -0.672318308812E+02   -0.18040E-03   -0.38539E-05  2460   0.216E-02    0.116E-02
DAV:   8    -0.672320408109E+02   -0.20993E-03   -0.91401E-05  2376   0.308E-02    0.670E-03
DAV:   9    -0.672320954953E+02   -0.54684E-04   -0.61822E-06  2256   0.103E-02    0.418E-03
DAV:  10    -0.672321194280E+02   -0.23933E-04   -0.39334E-06  2220   0.939E-03    0.328E-03
DAV:  11    -0.672321276058E+02   -0.81778E-05   -0.73027E-07  1596   0.420E-03    0.110E-03
DAV:  12    -0.672321308192E+02   -0.32134E-05   -0.29768E-07  1584   0.265E-03    0.452E-04
DAV:  13    -0.672321316280E+02   -0.80877E-06   -0.11989E-07  1824   0.139E-03
   7 F= -.67232132E+02 E0= -.67232132E+02  d E =-.127697E-02
 curvature:  -0.86 expect dE=-0.141E-01 dE for cont linesearch -0.163E-04
 ZBRENT: bracketing found
 ZBRENT: interpolating
 opt :   8.0907  next Energy=   -67.232285 (dE=-0.143E-02)
 bond charge predicted
       N       E                     dE             d eps       ncg     rms          rms(c)
DAV:   1    -0.672401664944E+02   -0.80357E-02   -0.28880E-01  2280   0.287E+00    0.346E-01
DAV:   2    -0.672346670031E+02    0.54995E-02   -0.65875E-03  2256   0.423E-01    0.182E-01
DAV:   3    -0.672321315815E+02    0.25354E-02   -0.67541E-03  2568   0.361E-01    0.526E-02
DAV:   4    -0.672320668539E+02    0.64728E-04   -0.20887E-04  2352   0.772E-02    0.281E-02
DAV:   5    -0.672319864870E+02    0.80367E-04   -0.10497E-04  2388   0.452E-02    0.128E-02
DAV:   6    -0.672320376614E+02   -0.51174E-04   -0.20890E-05  2424   0.234E-02    0.956E-03
DAV:   7    -0.672320858379E+02   -0.48176E-04   -0.58154E-06  2412   0.915E-03    0.618E-03
DAV:   8    -0.672321934736E+02   -0.10764E-03   -0.16341E-05  2268   0.142E-02    0.381E-03
DAV:   9    -0.672322389541E+02   -0.45481E-04   -0.13438E-06  2280   0.456E-03    0.262E-03
DAV:  10    -0.672322610884E+02   -0.22134E-04   -0.12149E-06  1788   0.511E-03    0.138E-03
DAV:  11    -0.672322709143E+02   -0.98259E-05   -0.24150E-07  1620   0.213E-03    0.846E-04
DAV:  12    -0.672322736187E+02   -0.27044E-05   -0.96922E-08  1944   0.141E-03    0.255E-04
DAV:  13    -0.672322753841E+02   -0.17654E-05   -0.44686E-08  1548   0.744E-04    0.186E-04
DAV:  14    -0.672322757312E+02   -0.34710E-06   -0.70634E-09  2028   0.277E-04
   8 F= -.67232276E+02 E0= -.67232276E+02  d E =-.142107E-02
 curvature:  -8.04 expect dE=-0.738E-01 dE for cont linesearch -0.177E-07
 trial: gam=26.68033 g(F)=  0.810E-02 g(S)=  0.108E-02 ort =-0.122E-05 (trialstep = 0.277E-02)
 search vector abs. value=  0.491E+00
 bond charge predicted
       N       E                     dE             d eps       ncg     rms          rms(c)
DAV:   1    -0.672323072874E+02   -0.31903E-04   -0.21339E-04  2232   0.777E-02    0.947E-03
DAV:   2    -0.672323029056E+02    0.43819E-05   -0.47395E-06  2256   0.113E-02    0.498E-03
DAV:   3    -0.672323004277E+02    0.24778E-05   -0.50386E-06  2328   0.988E-03    0.149E-03
DAV:   4    -0.672323004497E+02   -0.21936E-07   -0.15740E-07  2076   0.218E-03
   9 F= -.67232300E+02 E0= -.67232300E+02  d E =-.247185E-04
 ZBRENT: can't locate minimum, use default step
 trial-energy change:   -0.000025  1 .order   -0.000026   -0.000025   -0.000026
 step:   0.0111(harm=  0.0111)  dis= 0.00007  next Energy=   -67.232384 (dE=-0.108E-03)
 bond charge predicted
       N       E                     dE             d eps       ncg     rms          rms(c)
DAV:   1    -0.672324297684E+02   -0.12934E-03   -0.19074E-03  2244   0.233E-01    0.283E-02
DAV:   2    -0.672323892196E+02    0.40549E-04   -0.42700E-05  2160   0.341E-02    0.149E-02
DAV:   3    -0.672323666956E+02    0.22524E-04   -0.45955E-05  2280   0.298E-02    0.449E-03
DAV:   4    -0.672323671307E+02   -0.43518E-06   -0.14588E-06  1944   0.666E-03
  10 F= -.67232367E+02 E0= -.67232367E+02  d E =-.913996E-04
 curvature:  -0.45 expect dE=-0.404E-02 dE for cont linesearch -0.946E-04
 ZBRENT: increasing intervall
 opt :   0.0277  next Energy=   -67.232547 (dE=-0.271E-03)
 bond charge predicted
       N       E                     dE             d eps       ncg     rms          rms(c)
DAV:   1    -0.672327347751E+02   -0.36808E-03   -0.76020E-03  2280   0.465E-01    0.565E-02
DAV:   2    -0.672325707201E+02    0.16406E-03   -0.17106E-04  2280   0.682E-02    0.297E-02
DAV:   3    -0.672324843131E+02    0.86407E-04   -0.18374E-04  2328   0.595E-02    0.898E-03
DAV:   4    -0.672324875532E+02   -0.32401E-05   -0.64062E-06  2472   0.134E-02    0.461E-03
DAV:   5    -0.672324911004E+02   -0.35473E-05   -0.33983E-06  2316   0.785E-03    0.232E-03
DAV:   6    -0.672325060310E+02   -0.14931E-04   -0.19042E-06  2304   0.596E-03    0.243E-03
DAV:   7    -0.672325115095E+02   -0.54785E-05   -0.39399E-07  1956   0.254E-03    0.131E-03
DAV:   8    -0.672325217796E+02   -0.10270E-04   -0.18717E-06  2184   0.460E-03    0.136E-03
DAV:   9    -0.672325230829E+02   -0.13033E-05   -0.10703E-07  1656   0.154E-03    0.574E-04
DAV:  10    -0.672325239154E+02   -0.83245E-06   -0.89102E-08  1548   0.140E-03
  11 F= -.67232524E+02 E0= -.67232524E+02  d E =-.248184E-03
 curvature:  -0.86 expect dE=-0.722E-02 dE for cont linesearch -0.136E-03
 ZBRENT: increasing intervall
 opt :   0.0610  next Energy=   -67.232773 (dE=-0.497E-03)
 bond charge predicted
       N       E                     dE             d eps       ncg     rms          rms(c)
DAV:   1    -0.672336642434E+02   -0.11412E-02   -0.30911E-02  2472   0.936E-01    0.114E-01
DAV:   2    -0.672330542030E+02    0.61004E-03   -0.69224E-04  2136   0.136E-01    0.598E-02
DAV:   3    -0.672327383684E+02    0.31583E-03   -0.70969E-04  2328   0.118E-01    0.175E-02
DAV:   4    -0.672327407005E+02   -0.23321E-05   -0.24902E-05  2532   0.264E-02    0.875E-03
DAV:   5    -0.672327418886E+02   -0.11881E-05   -0.11796E-05  2316   0.149E-02    0.434E-03
DAV:   6    -0.672327706299E+02   -0.28741E-04   -0.47770E-06  2328   0.992E-03    0.398E-03
DAV:   7    -0.672327801071E+02   -0.94772E-05   -0.80409E-07  1956   0.370E-03    0.234E-03
DAV:   8    -0.672328015700E+02   -0.21463E-04   -0.51360E-06  2256   0.769E-03    0.223E-03
DAV:   9    -0.672328049190E+02   -0.33490E-05   -0.30154E-07  1716   0.259E-03    0.910E-04
DAV:  10    -0.672328071121E+02   -0.21931E-05   -0.22312E-07  1572   0.221E-03    0.472E-04
DAV:  11    -0.672328076668E+02   -0.55468E-06   -0.37983E-08  1548   0.903E-04
  12 F= -.67232808E+02 E0= -.67232808E+02  d E =-.531936E-03
 curvature:  -1.58 expect dE=-0.118E-01 dE for cont linesearch -0.225E-03
 ZBRENT: increasing intervall
 opt :   0.1275  next Energy=   -67.233335 (dE=-0.106E-02)
 bond charge predicted
       N       E                     dE             d eps       ncg     rms          rms(c)
DAV:   1    -0.672367697817E+02   -0.39627E-02   -0.12432E-01  2496   0.188E+00    0.229E-01
DAV:   2    -0.672343213899E+02    0.24484E-02   -0.27811E-03  2160   0.273E-01    0.120E-01
DAV:   3    -0.672331288235E+02    0.11926E-02   -0.28402E-03  2520   0.235E-01    0.350E-02
DAV:   4    -0.672331396677E+02   -0.10844E-04   -0.10161E-04  2424   0.530E-02    0.174E-02
DAV:   5    -0.672331475640E+02   -0.78963E-05   -0.46785E-05  2400   0.297E-02    0.881E-03
DAV:   6    -0.672332301870E+02   -0.82623E-04   -0.19242E-05  2400   0.201E-02    0.775E-03
DAV:   7    -0.672332594794E+02   -0.29292E-04   -0.35914E-06  2412   0.764E-03    0.439E-03
DAV:   8    -0.672333146765E+02   -0.55197E-04   -0.15165E-05  2268   0.130E-02    0.363E-03
DAV:   9    -0.672333225073E+02   -0.78308E-05   -0.43449E-07  1836   0.311E-03    0.233E-03
DAV:  10    -0.672333301217E+02   -0.76144E-05   -0.14104E-06  1596   0.549E-03    0.119E-03
DAV:  11    -0.672333317074E+02   -0.15857E-05   -0.12467E-07  1608   0.197E-03    0.759E-04
DAV:  12    -0.672333317720E+02   -0.64542E-07   -0.43861E-08  1644   0.103E-03
  13 F= -.67233332E+02 E0= -.67233332E+02  d E =-.105604E-02
 curvature:  -3.70 expect dE=-0.219E-01 dE for cont linesearch -0.423E-03
 ZBRENT: increasing intervall
 opt :   0.2606  next Energy=   -67.234212 (dE=-0.194E-02)
 bond charge predicted
       N       E                     dE             d eps       ncg     rms          rms(c)
DAV:   1    -0.672480785461E+02   -0.14747E-01   -0.50275E-01  2472   0.378E+00    0.461E-01
DAV:   2    -0.672382347761E+02    0.98438E-02   -0.11168E-02  2244   0.547E-01    0.241E-01
DAV:   3    -0.672336842365E+02    0.45505E-02   -0.11422E-02  2508   0.471E-01    0.701E-02
DAV:   4    -0.672337154238E+02   -0.31187E-04   -0.41212E-04  2412   0.107E-01    0.345E-02
DAV:   5    -0.672337108145E+02    0.46093E-05   -0.18549E-04  2436   0.596E-02    0.175E-02
DAV:   6    -0.672339807687E+02   -0.26995E-03   -0.82468E-05  2376   0.415E-02    0.150E-02
DAV:   7    -0.672340446716E+02   -0.63903E-04   -0.12738E-05  2508   0.147E-02    0.849E-03
DAV:   8    -0.672341747011E+02   -0.13003E-03   -0.51004E-05  2256   0.245E-02    0.683E-03
DAV:   9    -0.672341940800E+02   -0.19379E-04   -0.16594E-06  2436   0.602E-03    0.427E-03
DAV:  10    -0.672342116769E+02   -0.17597E-04   -0.43044E-06  2064   0.956E-03    0.238E-03
DAV:  11    -0.672342157423E+02   -0.40655E-05   -0.29095E-07  1644   0.284E-03    0.144E-03
DAV:  12    -0.672342164756E+02   -0.73324E-06   -0.22993E-07  1572   0.229E-03
  14 F= -.67234216E+02 E0= -.67234216E+02  d E =-.194074E-02
 curvature:  -7.71 expect dE=-0.271E-01 dE for cont linesearch -0.529E-03
 ZBRENT: increasing intervall
 opt :   0.5267  next Energy=   -67.235314 (dE=-0.304E-02)
 bond charge predicted
       N       E                     dE             d eps       ncg     rms          rms(c)
DAV:   1    -0.672917876293E+02   -0.57572E-01   -0.20562E+00  2412   0.767E+00    0.935E-01
DAV:   2    -0.672520247980E+02    0.39763E-01   -0.45195E-02  2292   0.111E+00    0.487E-01
DAV:   3    -0.672344488188E+02    0.17576E-01   -0.46277E-02  2520   0.948E-01    0.141E-01
DAV:   4    -0.672344354794E+02    0.13339E-04   -0.17823E-03  2352   0.217E-01    0.684E-02
DAV:   5    -0.672343696421E+02    0.65837E-04   -0.74300E-04  2604   0.120E-01    0.349E-02
DAV:   6    -0.672349070534E+02   -0.53741E-03   -0.27157E-04  2280   0.788E-02    0.283E-02
DAV:   7    -0.672350565572E+02   -0.14950E-03   -0.50867E-05  2496   0.296E-02    0.157E-02
DAV:   8    -0.672352867345E+02   -0.23018E-03   -0.15966E-04  2292   0.440E-02    0.125E-02
DAV:   9    -0.672353229196E+02   -0.36185E-04   -0.55179E-06  2376   0.115E-02    0.682E-03
DAV:  10    -0.672353579058E+02   -0.34986E-04   -0.12339E-05  2160   0.162E-02    0.437E-03
DAV:  11    -0.672353665755E+02   -0.86696E-05   -0.11360E-06  1692   0.541E-03    0.217E-03
DAV:  12    -0.672353683559E+02   -0.17804E-05   -0.68283E-07  1740   0.401E-03    0.470E-04
DAV:  13    -0.672353709598E+02   -0.26038E-05   -0.30833E-07  1872   0.222E-03    0.536E-04
DAV:  14    -0.672353714028E+02   -0.44300E-06   -0.46579E-08  1836   0.905E-04
  15 F= -.67235371E+02 E0= -.67235371E+02  d E =-.309567E-02
 curvature: -16.00 expect dE=-0.274E-01 dE for cont linesearch -0.246E-03
 ZBRENT: increasing intervall
 opt :   1.0589  next Energy=   -67.235208 (dE=-0.293E-02)
 bond charge predicted
       N       E                     dE             d eps       ncg     rms          rms(c)
DAV:   1    -0.674692649136E+02   -0.23389E+00   -0.86021E+00  2340   0.158E+01    0.193E+00
DAV:   2    -0.673047390316E+02    0.16453E+00   -0.19043E-01  2328   0.226E+00    0.993E-01
DAV:   3    -0.672354829325E+02    0.69256E-01   -0.19041E-01  2544   0.191E+00    0.286E-01
DAV:   4    -0.672346591723E+02    0.82376E-03   -0.76084E-03  2580   0.441E-01    0.135E-01
DAV:   5    -0.672338607158E+02    0.79846E-03   -0.28729E-03  2604   0.239E-01    0.687E-02
DAV:   6    -0.672349320310E+02   -0.10713E-02   -0.94864E-04  2532   0.151E-01    0.529E-02
DAV:   7    -0.672351475910E+02   -0.21556E-03   -0.17366E-04  2616   0.554E-02    0.278E-02
DAV:   8    -0.672354897322E+02   -0.34214E-03   -0.45150E-04  2268   0.747E-02    0.216E-02
DAV:   9    -0.672355267083E+02   -0.36976E-04   -0.18081E-05  2376   0.207E-02    0.101E-02
DAV:  10    -0.672355516511E+02   -0.24943E-04   -0.33465E-05  2112   0.261E-02    0.854E-03
DAV:  11    -0.672355578951E+02   -0.62440E-05   -0.54292E-06  2232   0.111E-02    0.278E-03
DAV:  12    -0.672355651081E+02   -0.72130E-05   -0.14951E-06  2148   0.584E-03    0.124E-03
DAV:  13    -0.672355733007E+02   -0.81926E-05   -0.10634E-06  2304   0.344E-03    0.842E-04
DAV:  14    -0.672355785910E+02   -0.52903E-05   -0.21134E-07  1740   0.178E-03    0.327E-04
DAV:  15    -0.672355812471E+02   -0.26561E-05   -0.10168E-07  1680   0.118E-03    0.442E-04
DAV:  16    -0.672355826520E+02   -0.14049E-05   -0.17000E-08  1752   0.634E-04    0.192E-04
DAV:  17    -0.672355830189E+02   -0.36688E-06   -0.57135E-09  1740   0.335E-04
  16 F= -.67235583E+02 E0= -.67235583E+02  d E =-.330729E-02
 curvature:  10.64 expect dE= 0.108E+00 dE for cont linesearch  0.907E-04
 ZBRENT: bracketing found
 ZBRENT: interpolating
 opt :   0.8317  next Energy=   -67.235816 (dE=-0.354E-02)
 bond charge predicted
       N       E                     dE             d eps       ncg     rms          rms(c)
DAV:   1    -0.672801954633E+02   -0.44613E-01   -0.15879E+00  2424   0.668E+00    0.816E-01
DAV:   2    -0.672497640124E+02    0.30431E-01   -0.37022E-02  2352   0.986E-01    0.430E-01
DAV:   3    -0.672360749655E+02    0.13689E-01   -0.37800E-02  2544   0.854E-01    0.127E-01
DAV:   4    -0.672356539490E+02    0.42102E-03   -0.12641E-03  2400   0.187E-01    0.649E-02
DAV:   5    -0.672351836000E+02    0.47035E-03   -0.61347E-04  2424   0.108E-01    0.322E-02
DAV:   6    -0.672352072444E+02   -0.23644E-04   -0.18355E-04  2448   0.704E-02    0.325E-02
DAV:   7    -0.672352762632E+02   -0.69019E-04   -0.35113E-05  2508   0.264E-02    0.186E-02
DAV:   8    -0.672355808683E+02   -0.30461E-03   -0.11726E-04  2220   0.431E-02    0.153E-02
DAV:   9    -0.672356576907E+02   -0.76822E-04   -0.33912E-06  2292   0.996E-03    0.103E-02
DAV:  10    -0.672357529473E+02   -0.95257E-04   -0.15537E-05  2064   0.181E-02    0.344E-03
DAV:  11    -0.672357769583E+02   -0.24011E-04   -0.74936E-07  1788   0.472E-03    0.257E-03
DAV:  12    -0.672357890164E+02   -0.12058E-04   -0.60657E-07  1560   0.334E-03    0.106E-03
DAV:  13    -0.672357998810E+02   -0.10865E-04   -0.64551E-07  2076   0.273E-03    0.894E-04
DAV:  14    -0.672358008735E+02   -0.99245E-06   -0.36782E-08  2064   0.804E-04
  17 F= -.67235801E+02 E0= -.67235801E+02  d E =-.352514E-02
 curvature: -27.26 expect dE=-0.125E+00 dE for cont linesearch -0.459E-06
 trial: gam= 0.82090 g(F)=  0.406E-02 g(S)=  0.544E-03 ort =-0.910E-04 (trialstep = 0.169E+00)
 search vector abs. value=  0.336E+00
 bond charge predicted
       N       E                     dE             d eps       ncg     rms          rms(c)
DAV:   1    -0.672511792409E+02   -0.15379E-01   -0.53443E-01  2400   0.390E+00    0.475E-01
DAV:   2    -0.672407745723E+02    0.10405E-01   -0.11492E-02  2304   0.553E-01    0.249E-01
DAV:   3    -0.672359019484E+02    0.48726E-02   -0.12013E-02  2592   0.482E-01    0.701E-02
DAV:   4    -0.672359752274E+02   -0.73279E-04   -0.40612E-04  2388   0.106E-01    0.336E-02
DAV:   5    -0.672360086279E+02   -0.33401E-04   -0.18725E-04  2496   0.598E-02    0.174E-02
DAV:   6    -0.672362338679E+02   -0.22524E-03   -0.69366E-05  2376   0.387E-02    0.141E-02
DAV:   7    -0.672363217637E+02   -0.87896E-04   -0.16091E-05  2508   0.150E-02    0.865E-03
DAV:   8    -0.672364415505E+02   -0.11979E-03   -0.52261E-05  2292   0.248E-02    0.708E-03
DAV:   9    -0.672364579869E+02   -0.16436E-04   -0.20342E-06  2208   0.673E-03    0.378E-03
DAV:  10    -0.672364709384E+02   -0.12952E-04   -0.42677E-06  2064   0.943E-03    0.301E-03
DAV:  11    -0.672364720544E+02   -0.11160E-05   -0.43641E-07  1680   0.327E-03    0.129E-03
DAV:  12    -0.672364724922E+02   -0.43778E-06   -0.24787E-07  1860   0.245E-03
  18 F= -.67236472E+02 E0= -.67236472E+02  d E =-.671619E-03
 ZBRENT: can't locate minimum, use default step
 trial-energy change:   -0.000672  1 .order   -0.000672   -0.000763   -0.000582
 step:   0.6743(harm=  0.7103)  dis= 0.00286  next Energy=   -67.237408 (dE=-0.161E-02)
 bond charge predicted
       N       E                     dE             d eps       ncg     rms          rms(c)
DAV:   1    -0.673728198637E+02   -0.13635E+00   -0.49655E+00  2340   0.120E+01    0.146E+00
DAV:   2    -0.672781760429E+02    0.94644E-01   -0.10611E-01  2280   0.168E+00    0.757E-01
DAV:   3    -0.672365187967E+02    0.41657E-01   -0.10960E-01  2472   0.145E+00    0.211E-01
DAV:   4    -0.672364016343E+02    0.11716E-03   -0.43672E-03  2508   0.331E-01    0.970E-02
DAV:   5    -0.672361093350E+02    0.29230E-03   -0.16447E-03  2592   0.180E-01    0.512E-02
DAV:   6    -0.672369601338E+02   -0.85080E-03   -0.52112E-04  2436   0.110E-01    0.375E-02
DAV:   7    -0.672372187009E+02   -0.25857E-03   -0.11625E-04  2496   0.418E-02    0.230E-02
DAV:   8    -0.672375029367E+02   -0.28424E-03   -0.28407E-04  2244   0.600E-02    0.166E-02
DAV:   9    -0.672375316619E+02   -0.28725E-04   -0.13314E-05  2232   0.174E-02    0.780E-03
DAV:  10    -0.672375419496E+02   -0.10288E-04   -0.21206E-05  2064   0.207E-02    0.747E-03
DAV:  11    -0.672375429498E+02   -0.10002E-05   -0.38935E-06  2460   0.923E-03    0.201E-03
DAV:  12    -0.672375489172E+02   -0.59674E-05   -0.10121E-06  1704   0.490E-03    0.135E-03
DAV:  13    -0.672375532060E+02   -0.42888E-05   -0.64325E-07  1968   0.284E-03    0.819E-04
DAV:  14    -0.672375574482E+02   -0.42421E-05   -0.23490E-07  1764   0.206E-03    0.445E-04
DAV:  15    -0.672375596489E+02   -0.22007E-05   -0.57220E-08  1668   0.929E-04    0.254E-04
DAV:  16    -0.672375603890E+02   -0.74012E-06   -0.78357E-09  1800   0.427E-04
  19 F= -.67237560E+02 E0= -.67237560E+02  d E =-.175952E-02
 curvature: -26.22 expect dE=-0.511E-01 dE for cont linesearch -0.523E-04
 ZBRENT: extrapolating
 opt :   0.8314  next Energy=   -67.237625 (dE=-0.182E-02)
 bond charge predicted
       N       E                     dE             d eps       ncg     rms          rms(c)
DAV:   1    -0.672512459699E+02   -0.13686E-01   -0.49354E-01  2244   0.375E+00    0.457E-01
DAV:   2    -0.672416605088E+02    0.95855E-02   -0.10577E-02  2112   0.535E-01    0.240E-01
DAV:   3    -0.672371288886E+02    0.45316E-02   -0.11381E-02  2472   0.470E-01    0.688E-02
DAV:   4    -0.672371867357E+02   -0.57847E-04   -0.39295E-04  2376   0.104E-01    0.332E-02
DAV:   5    -0.672371904038E+02   -0.36681E-05   -0.17498E-04  2556   0.580E-02    0.173E-02
DAV:   6    -0.672374435459E+02   -0.25314E-03   -0.76493E-05  2304   0.404E-02    0.144E-02
DAV:   7    -0.672375214118E+02   -0.77866E-04   -0.15394E-05  2508   0.153E-02    0.870E-03
DAV:   8    -0.672376252798E+02   -0.10387E-03   -0.52677E-05  2268   0.255E-02    0.754E-03
DAV:   9    -0.672376357184E+02   -0.10439E-04   -0.19564E-06  2160   0.666E-03    0.408E-03
DAV:  10    -0.672376435428E+02   -0.78243E-05   -0.47411E-06  2064   0.983E-03    0.288E-03
DAV:  11    -0.672376443784E+02   -0.83562E-06   -0.33800E-07  1896   0.299E-03
  20 F= -.67237644E+02 E0= -.67237644E+02  d E =-.184350E-02
 curvature: -32.23 expect dE=-0.114E+00 dE for cont linesearch -0.178E-04
 trial: gam= 1.14526 g(F)=  0.349E-02 g(S)=  0.347E-04 ort = 0.430E-03 (trialstep = 0.227E+00)
 search vector abs. value=  0.445E+00
 bond charge predicted
       N       E                     dE             d eps       ncg     rms          rms(c)
DAV:   1    -0.672744589806E+02   -0.36815E-01   -0.12989E+00  2460   0.609E+00    0.746E-01
DAV:   2    -0.672490761954E+02    0.25383E-01   -0.28620E-02  2256   0.875E-01    0.389E-01
DAV:   3    -0.672376293240E+02    0.11447E-01   -0.29164E-02  2568   0.754E-01    0.111E-01
DAV:   4    -0.672376938255E+02   -0.64501E-04   -0.11879E-03  2280   0.175E-01    0.518E-02
DAV:   5    -0.672376941714E+02   -0.34595E-06   -0.47032E-04  2508   0.956E-02    0.277E-02
DAV:   6    -0.672381274548E+02   -0.43328E-03   -0.18338E-04  2328   0.637E-02    0.230E-02
DAV:   7    -0.672382523806E+02   -0.12493E-03   -0.34092E-05  2472   0.238E-02    0.129E-02
DAV:   8    -0.672384151040E+02   -0.16272E-03   -0.10488E-04  2244   0.358E-02    0.103E-02
DAV:   9    -0.672384283676E+02   -0.13264E-04   -0.39809E-06  2232   0.942E-03    0.534E-03
DAV:  10    -0.672384327925E+02   -0.44249E-05   -0.83809E-06  2100   0.129E-02    0.371E-03
DAV:  11    -0.672384335323E+02   -0.73984E-06   -0.81080E-07  1908   0.446E-03
  21 F= -.67238434E+02 E0= -.67238433E+02  d E =-.789154E-03
 ZBRENT: can't locate minimum, use default step
 trial-energy change:   -0.000789  1 .order   -0.000895   -0.000913   -0.000876
 step:   0.9091(harm=  5.5333)  dis= 0.00342  next Energy=   -67.248763 (dE=-0.111E-01)
 bond charge predicted
       N       E                     dE             d eps       ncg     rms          rms(c)
DAV:   1    -0.675755498019E+02   -0.33712E+00   -0.12280E+01  2412   0.189E+01    0.232E+00
DAV:   2    -0.673394480556E+02    0.23610E+00   -0.27545E-01  2472   0.270E+00    0.119E+00
DAV:   3    -0.672416010456E+02    0.97847E-01   -0.26311E-01  2424   0.224E+00    0.329E-01
DAV:   4    -0.672398991027E+02    0.17019E-02   -0.99579E-03  2628   0.516E-01    0.147E-01
DAV:   5    -0.672388592623E+02    0.10398E-02   -0.37504E-03  2652   0.277E-01    0.763E-02
DAV:   6    -0.672400394375E+02   -0.11802E-02   -0.11795E-03  2400   0.167E-01    0.579E-02
DAV:   7    -0.672403026444E+02   -0.26321E-03   -0.19318E-04  2568   0.571E-02    0.319E-02
DAV:   8    -0.672406019054E+02   -0.29926E-03   -0.52811E-04  2148   0.807E-02    0.231E-02
DAV:   9    -0.672405895658E+02    0.12340E-04   -0.24296E-05  2184   0.239E-02    0.973E-03
DAV:  10    -0.672405580352E+02    0.31531E-04   -0.37618E-05  2304   0.275E-02    0.113E-02
DAV:  11    -0.672405542897E+02    0.37454E-05   -0.10959E-05  2316   0.150E-02    0.198E-03
DAV:  12    -0.672405685286E+02   -0.14239E-04   -0.22727E-06  2304   0.668E-03    0.327E-03
DAV:  13    -0.672405776959E+02   -0.91673E-05   -0.17345E-06  2268   0.466E-03    0.947E-04
DAV:  14    -0.672405894799E+02   -0.11784E-04   -0.36205E-07  1656   0.251E-03    0.414E-04
DAV:  15    -0.672405921582E+02   -0.26783E-05   -0.91187E-08  1752   0.128E-03    0.353E-04
DAV:  16    -0.672405934210E+02   -0.12628E-05   -0.18691E-08  1776   0.676E-04    0.183E-04
DAV:  17    -0.672405936884E+02   -0.26745E-06   -0.30801E-09  1800   0.275E-04
  22 F= -.67240594E+02 E0= -.67240594E+02  d E =-.294931E-02
 curvature: -73.63 expect dE=-0.160E+00 dE for cont linesearch -0.136E-02
 ZBRENT: increasing intervall
 opt :   2.2726  next Energy=   -67.243160 (dE=-0.552E-02)
 bond charge predicted
       N       E                     dE             d eps       ncg     rms          rms(c)
DAV:   1    -0.687501958637E+02   -0.15096E+01   -0.54960E+01  2268   0.408E+01    0.535E+00
DAV:   2    -0.676222485907E+02    0.11279E+01   -0.14203E+00  2616   0.606E+00    0.234E+00
DAV:   3    -0.672759901460E+02    0.34626E+00   -0.78871E-01  2496   0.386E+00    0.652E-01
DAV:   4    -0.672491227757E+02    0.26867E-01   -0.44035E-02  2532   0.996E-01    0.307E-01
DAV:   5    -0.672453950293E+02    0.37277E-02   -0.64805E-03  2592   0.400E-01    0.115E-01
DAV:   6    -0.672448032530E+02    0.59178E-03   -0.40848E-03  2424   0.278E-01    0.786E-02
DAV:   7    -0.672448291293E+02   -0.25876E-04   -0.97894E-04  2124   0.127E-01    0.224E-02
DAV:   8    -0.672444990593E+02    0.33007E-03   -0.38242E-04  2388   0.629E-02    0.223E-02
DAV:   9    -0.672442135401E+02    0.28552E-03   -0.78017E-05  2244   0.400E-02    0.103E-02
DAV:  10    -0.672441653357E+02    0.48204E-04   -0.10590E-05  2556   0.154E-02    0.546E-03
DAV:  11    -0.672441986332E+02   -0.33297E-04   -0.86989E-06  2328   0.126E-02    0.315E-03
DAV:  12    -0.672442777546E+02   -0.79121E-04   -0.85812E-06  2448   0.978E-03    0.143E-03
DAV:  13    -0.672442999670E+02   -0.22212E-04   -0.45567E-07  1932   0.262E-03    0.850E-04
DAV:  14    -0.672443191423E+02   -0.19175E-04   -0.45334E-07  2028   0.210E-03    0.255E-04
DAV:  15    -0.672443208472E+02   -0.17049E-05   -0.42966E-08  2076   0.723E-04    0.215E-04
DAV:  16    -0.672443215760E+02   -0.72878E-06   -0.12431E-08  1800   0.405E-04
  23 F= -.67244322E+02 E0= -.67244322E+02  d E =-.667720E-02
 curvature: ****** expect dE=-0.178E+01 dE for cont linesearch -0.111E-02
 ZBRENT: increasing intervall
 opt :   4.9998  next Energy=   -67.246790 (dE=-0.915E-02)
 bond charge predicted
       N       E                     dE             d eps       ncg     rms          rms(c)
DAV:   1    -0.749641404001E+02   -0.77198E+01   -0.28876E+02  2412   0.966E+01    0.134E+01
DAV:   2    -0.687680805364E+02    0.61961E+01   -0.13867E+01  2340   0.153E+01    0.509E+00
DAV:   3    -0.674410988485E+02    0.13270E+01   -0.30801E+00  2736   0.768E+00    0.154E+00
DAV:   4    -0.672908253249E+02    0.15027E+00   -0.28473E-01  2904   0.248E+00    0.612E-01
DAV:   5    -0.672697566409E+02    0.21069E-01   -0.23894E-02  2724   0.830E-01    0.257E-01
DAV:   6    -0.672568924341E+02    0.12864E-01   -0.12052E-02  2676   0.518E-01    0.153E-01
DAV:   7    -0.672502772742E+02    0.66152E-02   -0.27118E-03  2616   0.248E-01    0.602E-02
DAV:   8    -0.672460303062E+02    0.42470E-02   -0.23720E-03  2244   0.165E-01    0.500E-02
DAV:   9    -0.672445101665E+02    0.15201E-02   -0.27140E-04  2292   0.860E-02    0.337E-02
DAV:  10    -0.672443014783E+02    0.20869E-03   -0.77465E-05  2244   0.435E-02    0.178E-02
DAV:  11    -0.672444776065E+02   -0.17613E-03   -0.40425E-05  2352   0.302E-02    0.694E-03
DAV:  12    -0.672445682382E+02   -0.90632E-04   -0.90733E-06  2808   0.130E-02    0.390E-03
DAV:  13    -0.672446430121E+02   -0.74774E-04   -0.60848E-06  2496   0.965E-03    0.126E-03
DAV:  14    -0.672446562092E+02   -0.13197E-04   -0.54641E-07  2160   0.299E-03    0.799E-04
DAV:  15    -0.672446602693E+02   -0.40601E-05   -0.23473E-07  2088   0.168E-03    0.313E-04
DAV:  16    -0.672446606898E+02   -0.42056E-06   -0.44107E-08  2028   0.750E-04
  24 F= -.67244661E+02 E0= -.67244660E+02  d E =-.701631E-02
 curvature: ****** expect dE=-0.249E+02 dE for cont linesearch -0.836E-02
 ZBRENT: bracketing found
 ZBRENT: interpolating
 opt :   3.2328  next Energy=   -67.245227 (dE=-0.758E-02)
 bond charge predicted
       N       E                     dE             d eps       ncg     rms          rms(c)
DAV:   1    -0.708037381687E+02   -0.35591E+01   -0.12274E+02  2556   0.571E+01    0.693E+00
DAV:   2    -0.685636390961E+02    0.22401E+01   -0.40728E+00  2220   0.987E+00    0.388E+00
DAV:   3    -0.673339834666E+02    0.12297E+01   -0.33924E+00  2748   0.821E+00    0.121E+00
DAV:   4    -0.673045528611E+02    0.29431E-01   -0.12965E-01  2424   0.186E+00    0.617E-01
DAV:   5    -0.672553621756E+02    0.49191E-01   -0.64869E-02  2928   0.115E+00    0.286E-01
DAV:   6    -0.672442465702E+02    0.11116E-01   -0.79304E-03  2412   0.520E-01    0.207E-01
DAV:   7    -0.672413547867E+02    0.28918E-02   -0.40171E-03  2400   0.247E-01    0.174E-01
DAV:   8    -0.672407921654E+02    0.56262E-03   -0.87319E-03  2112   0.393E-01    0.138E-01
DAV:   9    -0.672426312025E+02   -0.18390E-02   -0.27310E-03  2400   0.238E-01    0.526E-02
DAV:  10    -0.672437377699E+02   -0.11066E-02   -0.14797E-04  2820   0.616E-02    0.431E-02
DAV:  11    -0.672450370063E+02   -0.12992E-02   -0.22682E-04  2232   0.621E-02    0.126E-02
DAV:  12    -0.672457111185E+02   -0.67411E-03   -0.74251E-05  2460   0.316E-02    0.676E-03
DAV:  13    -0.672459469285E+02   -0.23581E-03   -0.18177E-05  2136   0.155E-02    0.308E-03
DAV:  14    -0.672460008220E+02   -0.53894E-04   -0.20191E-06  2280   0.463E-03    0.158E-03
DAV:  15    -0.672460123094E+02   -0.11487E-04   -0.55043E-07  1572   0.326E-03    0.590E-04
DAV:  16    -0.672460132977E+02   -0.98826E-06   -0.53769E-08  1848   0.119E-03
  25 F= -.67246013E+02 E0= -.67246013E+02  d E =-.836892E-02
 curvature: -33.42 expect dE=-0.992E+00 dE for cont linesearch -0.947E-05
 trial: gam= 9.78845 g(F)=  0.289E-01 g(S)=  0.761E-03 ort = 0.355E-03 (trialstep = 0.864E-02)
 search vector abs. value=  0.426E+02
 bond charge predicted
       N       E                     dE             d eps       ncg     rms          rms(c)
DAV:   1    -0.672512496466E+02   -0.52373E-02   -0.17697E-01  2340   0.225E+00    0.276E-01
DAV:   2    -0.672477363152E+02    0.35133E-02   -0.39976E-03  2280   0.330E-01    0.145E-01
DAV:   3    -0.672460420090E+02    0.16943E-02   -0.41658E-03  2676   0.287E-01    0.422E-02
DAV:   4    -0.672460733222E+02   -0.31313E-04   -0.17206E-04  2616   0.680E-02    0.192E-02
DAV:   5    -0.672460894300E+02   -0.16108E-04   -0.66099E-05  2412   0.358E-02    0.109E-02
DAV:   6    -0.672462118866E+02   -0.12246E-03   -0.34172E-05  2220   0.269E-02    0.100E-02
DAV:   7    -0.672462425933E+02   -0.30707E-04   -0.61219E-06  2712   0.103E-02    0.531E-03
DAV:   8    -0.672462843011E+02   -0.41708E-04   -0.21763E-05  2280   0.164E-02    0.510E-03
DAV:   9    -0.672462853852E+02   -0.10841E-05   -0.73566E-07  2328   0.419E-03    0.280E-03
DAV:  10    -0.672462844243E+02    0.96095E-06   -0.30172E-06  2472   0.771E-03
  26 F= -.67246284E+02 E0= -.67246284E+02  d E =-.271127E-03
 ZBRENT: can't locate minimum, use default step
 trial-energy change:   -0.000271  1 .order   -0.000299   -0.000286   -0.000311
 step:   0.0346(harm=  0.0346)  dis= 0.00103  next Energy=   -67.247359 (dE=-0.135E-02)
 bond charge predicted
       N       E                     dE             d eps       ncg     rms          rms(c)
DAV:   1    -0.672923942354E+02   -0.46109E-01   -0.16204E+00  2424   0.685E+00    0.839E-01
DAV:   2    -0.672605656304E+02    0.31829E-01   -0.36292E-02  2256   0.993E-01    0.438E-01
DAV:   3    -0.672462999905E+02    0.14266E-01   -0.37196E-02  2844   0.860E-01    0.126E-01
DAV:   4    -0.672463514346E+02   -0.51444E-04   -0.16084E-03  2604   0.206E-01    0.560E-02
DAV:   5    -0.672463299244E+02    0.21510E-04   -0.59769E-04  2472   0.109E-01    0.326E-02
DAV:   6    -0.672468562835E+02   -0.52636E-03   -0.27026E-04  2268   0.787E-02    0.278E-02
DAV:   7    -0.672469632708E+02   -0.10699E-03   -0.45463E-05  2664   0.289E-02    0.146E-02
DAV:   8    -0.672470801384E+02   -0.11687E-03   -0.13305E-04  2328   0.421E-02    0.131E-02
DAV:   9    -0.672470764543E+02    0.36840E-05   -0.60672E-06  2760   0.119E-02    0.614E-03
DAV:  10    -0.672470648622E+02    0.11592E-04   -0.14875E-05  2472   0.175E-02    0.627E-03
DAV:  11    -0.672470666903E+02   -0.18281E-05   -0.22113E-06  2220   0.696E-03    0.276E-03
DAV:  12    -0.672470708429E+02   -0.41525E-05   -0.12839E-06  2052   0.537E-03    0.781E-04
DAV:  13    -0.672470763399E+02   -0.54970E-05   -0.42255E-07  1716   0.235E-03    0.563E-04
DAV:  14    -0.672470769278E+02   -0.58789E-06   -0.40049E-08  2076   0.792E-04
  27 F= -.67247077E+02 E0= -.67247077E+02  d E =-.106363E-02
 curvature: -34.36 expect dE=-0.944E+00 dE for cont linesearch -0.659E-03
 ZBRENT: increasing intervall
 opt :   0.0864  next Energy=   -67.248175 (dE=-0.216E-02)
 bond charge predicted
       N       E                     dE             d eps       ncg     rms          rms(c)
DAV:   1    -0.674352607261E+02   -0.18818E+00   -0.67513E+00  2388   0.141E+01    0.172E+00
DAV:   2    -0.673041389641E+02    0.13112E+00   -0.15256E-01  2232   0.203E+00    0.891E-01
DAV:   3    -0.672480633566E+02    0.56076E-01   -0.15077E-01  2856   0.173E+00    0.256E-01
DAV:   4    -0.672476332359E+02    0.43012E-03   -0.69129E-03  2688   0.424E-01    0.111E-01
DAV:   5    -0.672471553314E+02    0.47790E-03   -0.23621E-03  2580   0.221E-01    0.656E-02
DAV:   6    -0.672482136593E+02   -0.10583E-02   -0.96266E-04  2316   0.152E-01    0.517E-02
DAV:   7    -0.672483705394E+02   -0.15688E-03   -0.16099E-04  2592   0.554E-02    0.262E-02
DAV:   8    -0.672484980932E+02   -0.12755E-03   -0.38352E-04  2232   0.728E-02    0.233E-02
DAV:   9    -0.672484627421E+02    0.35351E-04   -0.24407E-05  2760   0.237E-02    0.821E-03
DAV:  10    -0.672484240639E+02    0.38678E-04   -0.35650E-05  2448   0.274E-02    0.111E-02
DAV:  11    -0.672484389935E+02   -0.14930E-04   -0.10205E-05  2424   0.145E-02    0.304E-03
DAV:  12    -0.672484552553E+02   -0.16262E-04   -0.23674E-06  2460   0.720E-03    0.213E-03
DAV:  13    -0.672484681012E+02   -0.12846E-04   -0.11174E-06  2172   0.371E-03    0.591E-04
DAV:  14    -0.672484698109E+02   -0.17097E-05   -0.92558E-08  2184   0.126E-03    0.245E-04
DAV:  15    -0.672484701391E+02   -0.32816E-06   -0.35846E-08  1704   0.700E-04
  28 F= -.67248470E+02 E0= -.67248470E+02  d E =-.245684E-02
 curvature: -57.19 expect dE=-0.142E+01 dE for cont linesearch -0.708E-03
 ZBRENT: increasing intervall
 opt :   0.1900  next Energy=   -67.250269 (dE=-0.426E-02)
 bond charge predicted
       N       E                     dE             d eps       ncg     rms          rms(c)
DAV:   1    -0.680599989269E+02   -0.81153E+00   -0.29387E+01  2364   0.297E+01    0.378E+00
DAV:   2    -0.674717405090E+02    0.58826E+00   -0.69710E-01  2196   0.433E+00    0.178E+00
DAV:   3    -0.672624293021E+02    0.20931E+00   -0.49890E-01  2616   0.315E+00    0.484E-01
DAV:   4    -0.672520484367E+02    0.10381E-01   -0.21114E-02  2736   0.739E-01    0.221E-01
DAV:   5    -0.672501953056E+02    0.18531E-02   -0.49904E-03  2724   0.339E-01    0.998E-02
DAV:   6    -0.672507290412E+02   -0.53374E-03   -0.26201E-03  2520   0.231E-01    0.698E-02
DAV:   7    -0.672507853771E+02   -0.56336E-04   -0.36958E-04  2400   0.790E-02    0.292E-02
DAV:   8    -0.672504431864E+02    0.34219E-03   -0.47979E-04  2196   0.701E-02    0.243E-02
DAV:   9    -0.672502206071E+02    0.22258E-03   -0.64658E-05  2436   0.380E-02    0.960E-03
DAV:  10    -0.672501868387E+02    0.33768E-04   -0.64888E-06  2376   0.123E-02    0.573E-03
DAV:  11    -0.672502559003E+02   -0.69062E-04   -0.70479E-06  2268   0.104E-02    0.253E-03
DAV:  12    -0.672503089245E+02   -0.53024E-04   -0.36175E-06  2388   0.606E-03    0.651E-04
DAV:  13    -0.672503156123E+02   -0.66879E-05   -0.24205E-07  2160   0.158E-03    0.445E-04
DAV:  14    -0.672503188297E+02   -0.32174E-05   -0.17699E-07  1908   0.111E-03    0.213E-04
DAV:  15    -0.672503189426E+02   -0.11288E-06   -0.23730E-08  2028   0.435E-04
  29 F= -.67250319E+02 E0= -.67250319E+02  d E =-.430564E-02
 curvature: ****** expect dE=-0.309E+01 dE for cont linesearch -0.301E-03
 ZBRENT: increasing intervall
 opt :   0.3974  next Energy=   -67.249451 (dE=-0.344E-02)
 bond charge predicted
       N       E                     dE             d eps       ncg     rms          rms(c)
DAV:   1    -0.711866753733E+02   -0.39364E+01   -0.14106E+02  2424   0.670E+01    0.929E+00
DAV:   2    -0.680834507562E+02    0.31032E+01   -0.45260E+00  2232   0.104E+01    0.359E+00
DAV:   3    -0.673629292453E+02    0.72052E+00   -0.15034E+00  2688   0.553E+00    0.110E+00
DAV:   4    -0.672779646399E+02    0.84965E-01   -0.14966E-01  2736   0.179E+00    0.489E-01
DAV:   5    -0.672662551016E+02    0.11710E-01   -0.12279E-02  2796   0.592E-01    0.191E-01
DAV:   6    -0.672583665171E+02    0.78886E-02   -0.90575E-03  2520   0.430E-01    0.143E-01
DAV:   7    -0.672530643398E+02    0.53022E-02   -0.26832E-03  2196   0.227E-01    0.637E-02
DAV:   8    -0.672509733795E+02    0.20910E-02   -0.73998E-04  2232   0.101E-01    0.488E-02
DAV:   9    -0.672501570060E+02    0.81637E-03   -0.23005E-04  2184   0.802E-02    0.221E-02
DAV:  10    -0.672501656522E+02   -0.86462E-05   -0.32491E-05  2544   0.293E-02    0.113E-02
DAV:  11    -0.672503066012E+02   -0.14095E-03   -0.24985E-05  2184   0.231E-02    0.385E-03
DAV:  12    -0.672503576993E+02   -0.51098E-04   -0.52133E-06  2664   0.101E-02    0.132E-03
DAV:  13    -0.672503636012E+02   -0.59019E-05   -0.50766E-07  2100   0.267E-03    0.533E-04
DAV:  14    -0.672503647051E+02   -0.11039E-05   -0.10676E-07  2172   0.113E-03    0.286E-04
DAV:  15    -0.672503648284E+02   -0.12330E-06   -0.34006E-08  1692   0.690E-04
  30 F= -.67250365E+02 E0= -.67250365E+02  d E =-.435153E-02
 curvature: 419.23 expect dE= 0.920E+01 dE for cont linesearch  0.196E-02
 ZBRENT: bracketing found
 ZBRENT: interpolating
 opt :   0.2729  next Energy=   -67.250708 (dE=-0.469E-02)
 bond charge predicted
       N       E                     dE             d eps       ncg     rms          rms(c)
DAV:   1    -0.687737529152E+02   -0.15234E+01   -0.52490E+01  2520   0.379E+01    0.464E+00
DAV:   2    -0.677812257324E+02    0.99253E+00   -0.15414E+00  2352   0.617E+00    0.252E+00
DAV:   3    -0.672890557854E+02    0.49217E+00   -0.13975E+00  2772   0.524E+00    0.768E-01
DAV:   4    -0.672739584226E+02    0.15097E-01   -0.53241E-02  2544   0.121E+00    0.370E-01
DAV:   5    -0.672544365046E+02    0.19522E-01   -0.23191E-02  2736   0.675E-01    0.199E-01
DAV:   6    -0.672478864660E+02    0.65500E-02   -0.65948E-03  2448   0.442E-01    0.213E-01
DAV:   7    -0.672472370636E+02    0.64940E-03   -0.15233E-03  2592   0.179E-01    0.128E-01
DAV:   8    -0.672469369310E+02    0.30013E-03   -0.50346E-03  2112   0.305E-01    0.116E-01
DAV:   9    -0.672479356058E+02   -0.99867E-03   -0.43447E-04  2592   0.101E-01    0.434E-02
DAV:  10    -0.672494504690E+02   -0.15149E-02   -0.25838E-04  2412   0.719E-02    0.124E-02
DAV:  11    -0.672506216102E+02   -0.11711E-02   -0.14721E-04  2340   0.422E-02    0.136E-02
DAV:  12    -0.672507837002E+02   -0.16209E-03   -0.11306E-05  2268   0.124E-02    0.102E-02
DAV:  13    -0.672508760869E+02   -0.92387E-04   -0.15307E-05  2088   0.166E-02    0.263E-03
DAV:  14    -0.672508865169E+02   -0.10430E-04   -0.74319E-07  1920   0.412E-03    0.118E-03
DAV:  15    -0.672508894855E+02   -0.29686E-05   -0.23192E-07  1548   0.210E-03    0.229E-04
DAV:  16    -0.672508898610E+02   -0.37545E-06   -0.26794E-08  1800   0.763E-04
  31 F= -.67250890E+02 E0= -.67250890E+02  d E =-.487656E-02
 curvature: -83.34 expect dE=-0.169E+01 dE for cont linesearch -0.914E-06
 trial: gam=-0.00880 g(F)=  0.170E-01 g(S)=  0.329E-02 ort =-0.684E-03 (trialstep = 0.615E-01)
 search vector abs. value=  0.236E-01
 bond charge predicted
       N       E                     dE             d eps       ncg     rms          rms(c)
DAV:   1    -0.672520517522E+02   -0.11623E-02   -0.66252E-03  2196   0.512E-01    0.214E-02
DAV:   2    -0.672520457404E+02    0.60118E-05   -0.10268E-04  2700   0.594E-02    0.131E-02
DAV:   3    -0.672520372629E+02    0.84775E-05   -0.18511E-05  2172   0.219E-02    0.384E-03
DAV:   4    -0.672520363009E+02    0.96194E-06   -0.13226E-06  1728   0.687E-03
  32 F= -.67252036E+02 E0= -.67252036E+02  d E =-.114644E-02
 ZBRENT: can't locate minimum, use default step
 trial-energy change:   -0.001146  1 .order   -0.001146   -0.001249   -0.001044
 step:   0.2460(harm=  0.3734)  dis= 0.00311  next Energy=   -67.254683 (dE=-0.379E-02)
 bond charge predicted
       N       E                     dE             d eps       ncg     rms          rms(c)
DAV:   1    -0.672543570453E+02   -0.23198E-02   -0.59512E-02  2136   0.153E+00    0.640E-02
DAV:   2    -0.672542967865E+02    0.60259E-04   -0.93468E-04  2724   0.179E-01    0.393E-02
DAV:   3    -0.672542165887E+02    0.80198E-04   -0.16569E-04  2436   0.652E-02    0.117E-02
DAV:   4    -0.672542091612E+02    0.74275E-05   -0.13435E-05  2508   0.207E-02    0.536E-03
DAV:   5    -0.672542072913E+02    0.18699E-05   -0.34083E-06  2208   0.870E-03    0.256E-03
DAV:   6    -0.672542101769E+02   -0.28857E-05   -0.35263E-07  1620   0.337E-03    0.960E-04
DAV:   7    -0.672542132508E+02   -0.30739E-05   -0.36492E-07  1596   0.247E-03    0.884E-04
DAV:   8    -0.672542208491E+02   -0.75983E-05   -0.76601E-07  2388   0.255E-03    0.554E-04
DAV:   9    -0.672542234934E+02   -0.26442E-05   -0.76591E-08  2088   0.139E-03    0.366E-04
DAV:  10    -0.672542279556E+02   -0.44623E-05   -0.10599E-07  1656   0.999E-04    0.279E-04
DAV:  11    -0.672542296262E+02   -0.16706E-05   -0.21539E-08  1572   0.485E-04    0.216E-04
DAV:  12    -0.672542302024E+02   -0.57621E-06   -0.47493E-09  1608   0.244E-04
  33 F= -.67254230E+02 E0= -.67254230E+02  d E =-.334034E-02
 curvature:  -0.18 expect dE=-0.126E-02 dE for cont linesearch -0.352E-03
 ZBRENT: increasing intervall
 opt :   0.6149  next Energy=   -67.252975 (dE=-0.209E-02)
 bond charge predicted
       N       E                     dE             d eps       ncg     rms          rms(c)
DAV:   1    -0.672535320620E+02    0.69756E-03   -0.23769E-01  2172   0.307E+00    0.128E-01
DAV:   2    -0.672533050316E+02    0.22703E-03   -0.36926E-03  2472   0.356E-01    0.787E-02
DAV:   3    -0.672530027002E+02    0.30233E-03   -0.68532E-04  2376   0.132E-01    0.233E-02
DAV:   4    -0.672529778460E+02    0.24854E-04   -0.53297E-05  2364   0.416E-02    0.109E-02
DAV:   5    -0.672529705240E+02    0.73220E-05   -0.13699E-05  2364   0.177E-02    0.503E-03
DAV:   6    -0.672529764815E+02   -0.59575E-05   -0.12406E-06  1668   0.648E-03    0.185E-03
DAV:   7    -0.672529823931E+02   -0.59116E-05   -0.10766E-06  2028   0.449E-03    0.162E-03
DAV:   8    -0.672529986263E+02   -0.16233E-04   -0.23059E-06  2388   0.469E-03    0.121E-03
DAV:   9    -0.672530016281E+02   -0.30018E-05   -0.13385E-07  2184   0.198E-03    0.619E-04
DAV:  10    -0.672530122571E+02   -0.10629E-04   -0.32649E-07  1884   0.180E-03    0.451E-04
DAV:  11    -0.672530168725E+02   -0.46153E-05   -0.81057E-08  1572   0.101E-03    0.307E-04
DAV:  12    -0.672530181429E+02   -0.12704E-05   -0.13325E-08  1740   0.458E-04    0.219E-04
DAV:  13    -0.672530188898E+02   -0.74694E-06   -0.85510E-09  1548   0.314E-04
  34 F= -.67253019E+02 E0= -.67253019E+02  d E =-.212903E-02
 curvature:   0.64 expect dE= 0.244E-01 dE for cont linesearch  0.488E-02
 ZBRENT: bracketing found
 ZBRENT: interpolating
 opt :   0.3701  next Energy=   -67.254651 (dE=-0.376E-02)
 bond charge predicted
       N       E                     dE             d eps       ncg     rms          rms(c)
DAV:   1    -0.672548867267E+02   -0.18686E-02   -0.10474E-01  2112   0.203E+00    0.852E-02
DAV:   2    -0.672547791125E+02    0.10761E-03   -0.16162E-03  2472   0.236E-01    0.522E-02
DAV:   3    -0.672546335590E+02    0.14555E-03   -0.29309E-04  2700   0.870E-02    0.157E-02
DAV:   4    -0.672546245679E+02    0.89910E-05   -0.23934E-05  2784   0.276E-02    0.715E-03
DAV:   5    -0.672546262973E+02   -0.17294E-05   -0.56383E-06  2556   0.113E-02    0.331E-03
DAV:   6    -0.672546366024E+02   -0.10305E-04   -0.76166E-07  1800   0.458E-03    0.117E-03
DAV:   7    -0.672546435387E+02   -0.69363E-05   -0.73923E-07  2424   0.326E-03    0.108E-03
DAV:   8    -0.672546534995E+02   -0.99608E-05   -0.19248E-06  2496   0.376E-03    0.759E-04
DAV:   9    -0.672546539670E+02   -0.46742E-06   -0.50810E-08  2352   0.117E-03
  35 F= -.67254654E+02 E0= -.67254654E+02  d E =-.376411E-02
 curvature:  -0.06 expect dE=-0.586E-03 dE for cont linesearch -0.140E-10
 trial: gam= 0.51970 g(F)=  0.800E-02 g(S)=  0.255E-02 ort =-0.244E-05 (trialstep = 0.123E+00)
 search vector abs. value=  0.169E-01
 bond charge predicted
       N       E                     dE             d eps       ncg     rms          rms(c)
DAV:   1    -0.672558470585E+02   -0.11936E-02   -0.16365E-02  2352   0.811E-01    0.445E-02
DAV:   2    -0.672558200265E+02    0.27032E-04   -0.23544E-04  2844   0.966E-02    0.261E-02
DAV:   3    -0.672557984953E+02    0.21531E-04   -0.50441E-05  2508   0.429E-02    0.488E-03
DAV:   4    -0.672557985225E+02   -0.27160E-07   -0.61057E-06  2676   0.130E-02
  36 F= -.67255799E+02 E0= -.67255798E+02  d E =-.114456E-02
 ZBRENT: can't locate minimum, use default step
 trial-energy change:   -0.001145  1 .order   -0.001144   -0.001300   -0.000988
 step:   0.4928(harm=  0.5129)  dis= 0.00552  next Energy=   -67.257359 (dE=-0.271E-02)
 bond charge predicted
       N       E                     dE             d eps       ncg     rms          rms(c)
DAV:   1    -0.672577826209E+02   -0.19841E-02   -0.14734E-01  2184   0.243E+00    0.134E-01
DAV:   2    -0.672575449281E+02    0.23769E-03   -0.22095E-03  2496   0.297E-01    0.786E-02
DAV:   3    -0.672573460143E+02    0.19891E-03   -0.43173E-04  2244   0.126E-01    0.162E-02
DAV:   4    -0.672573432982E+02    0.27161E-05   -0.57820E-05  2460   0.399E-02    0.811E-03
DAV:   5    -0.672573426165E+02    0.68169E-06   -0.27003E-06  2184   0.100E-02
  37 F= -.67257343E+02 E0= -.67257343E+02  d E =-.268865E-02
 curvature:  -0.41 expect dE=-0.963E-03 dE for cont linesearch -0.502E-05
 trial: gam= 0.18558 g(F)=  0.104E-02 g(S)=  0.131E-02 ort = 0.455E-03 (trialstep = 0.197E+00)
 search vector abs. value=  0.310E-02
 bond charge predicted
       N       E                     dE             d eps       ncg     rms          rms(c)
DAV:   1    -0.672577563907E+02   -0.41309E-03   -0.77539E-03  2088   0.580E-01    0.233E-02
DAV:   2    -0.672577578389E+02   -0.14482E-05   -0.86810E-05  2736   0.551E-02    0.149E-02
DAV:   3    -0.672577582753E+02   -0.43643E-06   -0.81773E-06  2328   0.167E-02
  38 F= -.67257758E+02 E0= -.67257758E+02  d E =-.415659E-03
 trial-energy change:   -0.000416  1 .order   -0.000411   -0.000479   -0.000343
 step:   0.5210(harm=  0.6957)  dis= 0.00225  next Energy=   -67.258061 (dE=-0.718E-03)
 bond charge predicted
       N       E                     dE             d eps       ncg     rms          rms(c)
DAV:   1    -0.672581443843E+02   -0.38655E-03   -0.20902E-02  2064   0.951E-01    0.388E-02
DAV:   2    -0.672581462821E+02   -0.18978E-05   -0.24313E-04  2952   0.910E-02    0.251E-02
DAV:   3    -0.672581418201E+02    0.44619E-05   -0.22214E-05  2496   0.276E-02    0.646E-03
DAV:   4    -0.672581426682E+02   -0.84803E-06   -0.28629E-06  2652   0.931E-03
  39 F= -.67258143E+02 E0= -.67258143E+02  d E =-.800052E-03
 curvature:  -0.39 expect dE=-0.118E-03 dE for cont linesearch -0.463E-04
 ZBRENT: increasing intervall
 opt :   1.1688  next Energy=   -67.257802 (dE=-0.459E-03)
 bond charge predicted
       N       E                     dE             d eps       ncg     rms          rms(c)
DAV:   1    -0.672578256212E+02    0.31620E-03   -0.83497E-02  2064   0.190E+00    0.758E-02
DAV:   2    -0.672578256548E+02   -0.33561E-07   -0.92760E-04  2928   0.179E-01    0.487E-02
DAV:   3    -0.672578032752E+02    0.22380E-04   -0.85536E-05  2448   0.542E-02    0.128E-02
DAV:   4    -0.672578019317E+02    0.13435E-05   -0.10785E-05  2448   0.181E-02    0.476E-03
DAV:   5    -0.672578021197E+02   -0.18804E-06   -0.74641E-07  1704   0.540E-03
  40 F= -.67257802E+02 E0= -.67257802E+02  d E =-.459503E-03
 curvature:   2.86 expect dE= 0.651E-02 dE for cont linesearch  0.254E-02
 ZBRENT: bracketing found
 ZBRENT: interpolating
 opt :   0.6946  next Energy=   -67.258195 (dE=-0.853E-03)
 bond charge predicted
       N       E                     dE             d eps       ncg     rms          rms(c)
DAV:   1    -0.672582081046E+02   -0.40617E-03   -0.44779E-02  2064   0.139E+00    0.560E-02
DAV:   2    -0.672582077792E+02    0.32540E-06   -0.48872E-04  2532   0.130E-01    0.356E-02
DAV:   3    -0.672581990740E+02    0.87051E-05   -0.46374E-05  2064   0.402E-02    0.960E-03
DAV:   4    -0.672581990637E+02    0.10341E-07   -0.54049E-06  2160   0.131E-02
  41 F= -.67258199E+02 E0= -.67258199E+02  d E =-.856447E-03
 curvature:  -0.06 expect dE=-0.201E-04 dE for cont linesearch -0.718E-10
 trial: gam= 0.18749 g(F)=  0.125E-03 g(S)=  0.215E-03 ort =-0.194E-05 (trialstep = 0.297E+00)
 search vector abs. value=  0.447E-03
 bond charge predicted
       N       E                     dE             d eps       ncg     rms          rms(c)
DAV:   1    -0.672582657463E+02   -0.66672E-04   -0.19270E-03  2160   0.277E-01    0.156E-02
DAV:   2    -0.672582649785E+02    0.76779E-06   -0.35772E-05  3000   0.362E-02    0.937E-03
DAV:   3    -0.672582645388E+02    0.43977E-06   -0.49390E-06  2640   0.128E-02
  42 F= -.67258265E+02 E0= -.67258265E+02  d E =-.654751E-04
 trial-energy change:   -0.000065  1 .order   -0.000064   -0.000100   -0.000028
 step:   0.4084(harm=  0.4084)  dis= 0.00091  next Energy=   -67.258268 (dE=-0.692E-04)
 bond charge predicted
       N       E                     dE             d eps       ncg     rms          rms(c)
DAV:   1    -0.672582703712E+02   -0.53926E-05   -0.27984E-04  2208   0.105E-01    0.695E-03
DAV:   2    -0.672582703683E+02    0.28524E-08   -0.54089E-06  2940   0.144E-02
  43 F= -.67258270E+02 E0= -.67258270E+02  d E =-.713046E-04
 curvature:  -0.27 expect dE=-0.103E-04 dE for cont linesearch -0.386E-07
 trial: gam= 0.07904 g(F)=  0.278E-04 g(S)=  0.104E-04 ort = 0.800E-05 (trialstep = 0.319E+00)
 search vector abs. value=  0.422E-04
 reached required accuracy - stopping structural energy minimisation
 writing wavefunctions
