BC3                                     
           1
     5.174000    0.000000    0.000000
     2.587000    4.481000    0.000000
     0.000000    0.000000   20.000000
   B    C 
   2   6
Direct configuration=     1
   0.17457326  0.17462620  0.00000000
   0.50792519  0.50792234  0.00000000
   0.00000000  0.00000000  0.00000000
   0.52377271  0.00000000  0.00000000
   0.68255138  0.15866994  0.00000000
   0.99994706  0.52387860  0.00000000
   0.15872573  0.68254854  0.00000000
   0.68249844  0.68254854  0.00000000
BC3                                     
           1
     5.171618    0.000000    0.000000
     2.585809    4.478509    0.000000
     0.000000    0.000000   19.979073
   B    C 
   2   6
Direct configuration=     2
   0.17454905  0.17467461  0.00000000
   0.50794939  0.50787393  0.00000000
  -0.00010500 -0.00012428 -0.00000000
   0.52400199 -0.00012428 -0.00000000
   0.68259935  0.15857401  0.00000000
   0.99989909  0.52397453  0.00000000
   0.15849645  0.68267282  0.00000000
   0.68260344  0.68267282  0.00000000
BC3                                     
           1
     5.172694    0.000000    0.000000
     2.586347    4.479634    0.000000
     0.000000    0.000000   19.988525
   B    C 
   2   6
Direct configuration=     3
   0.17455999  0.17465273  0.00000000
   0.50793845  0.50789581  0.00000000
  -0.00005756 -0.00006812 -0.00000000
   0.52389838 -0.00006812 -0.00000000
   0.68257767  0.15861736  0.00000000
   0.99992077  0.52393118  0.00000000
   0.15860006  0.68261665  0.00000000
   0.68255600  0.68261665  0.00000000
BC3                                     
           1
     5.172605    0.000000    0.000000
     2.586303    4.479646    0.000000
     0.000000    0.000000   19.968856
   B    C 
   2   6
Direct configuration=     4
   0.17456923  0.17463425  0.00000000
   0.50792921  0.50791429  0.00000000
  -0.00008791 -0.00003978 -0.00000000
   0.52390039 -0.00003978 -0.00000000
   0.68257214  0.15862842  0.00000000
   0.99992630  0.52392012  0.00000000
   0.15859805  0.68258832  0.00000000
   0.68258635  0.68258832  0.00000000
BC3                                     
           1
     5.172338    0.000000    0.000000
     2.586169    4.479682    0.000000
     0.000000    0.000000   19.909850
   B    C 
   2   6
Direct configuration=     5
   0.17459695  0.17457880  0.00000000
   0.50790149  0.50796974  0.00000000
  -0.00017895  0.00004524 -0.00000000
   0.52390642  0.00004524 -0.00000000
   0.68255555  0.15866160  0.00000000
   0.99994289  0.52388693  0.00000000
   0.15859202  0.68250330  0.00000000
   0.68267739  0.68250330  0.00000000
BC3                                     
           1
     5.171805    0.000000    0.000000
     2.585902    4.479754    0.000000
     0.000000    0.000000   19.791838
   B    C 
   2   6
Direct configuration=     6
   0.17465240  0.17446790  0.00000000
   0.50784604  0.50808064  0.00000000
  -0.00036105  0.00021527 -0.00000000
   0.52391849  0.00021527 -0.00000000
   0.68252237  0.15872797  0.00000000
   0.99997607  0.52382057  0.00000000
   0.15857995  0.68233327  0.00000000
   0.68285949  0.68233327  0.00000000
BC3                                     
           1
     5.170737    0.000000    0.000000
     2.585369    4.479897    0.000000
     0.000000    0.000000   19.555815
   B    C 
   2   6
Direct configuration=     7
   0.17476330  0.17424611  0.00000000
   0.50773514  0.50830243  0.00000000
  -0.00072527  0.00055532 -0.00000000
   0.52394265  0.00055532 -0.00000000
   0.68245601  0.15886069  0.00000000
   0.00004243  0.52368784  0.00000000
   0.15855579  0.68199321  0.00000000
   0.68322371  0.68199321  0.00000000
BC3                                     
           1
     5.171227    0.000000    0.000000
     2.585613    4.479831    0.000000
     0.000000    0.000000   19.663981
   B    C 
   2   6
Direct configuration=     8
   0.17471248  0.17434775  0.00000000
   0.50778596  0.50820079  0.00000000
  -0.00055834  0.00039949 -0.00000000
   0.52393156  0.00039949 -0.00000000
   0.68248642  0.15879987  0.00000000
   0.00001202  0.52374867  0.00000000
   0.15856688  0.68214905  0.00000000
   0.68305678  0.68214905  0.00000000
BC3                                     
           1
     5.171247    0.000000    0.000000
     2.585623    4.479825    0.000000
     0.000000    0.000000   19.661022
   B    C 
   2   6
Direct configuration=     9
   0.17471334  0.17434603 -0.00000000
   0.50778510  0.50820250  0.00000000
  -0.00055830  0.00039838 -0.00000000
   0.52393263  0.00039838 -0.00000000
   0.68248439  0.15880393 -0.00000000
   0.00001405  0.52374461 -0.00000000
   0.15856581  0.68215016  0.00000000
   0.68305674  0.68215016  0.00000000
BC3                                     
           1
     5.171308    0.000000    0.000000
     2.585654    4.479808    0.000000
     0.000000    0.000000   19.652145
   B    C 
   2   6
Direct configuration=    10
   0.17471591  0.17434088 -0.00000000
   0.50778253  0.50820766  0.00000000
  -0.00055817  0.00039504 -0.00000000
   0.52393584  0.00039504 -0.00000000
   0.68247830  0.15881612 -0.00000000
   0.00002014  0.52373242 -0.00000000
   0.15856260  0.68215350  0.00000000
   0.68305661  0.68215350  0.00000000
BC3                                     
           1
     5.171431    0.000000    0.000000
     2.585716    4.479773    0.000000
     0.000000    0.000000   19.634393
   B    C 
   2   6
Direct configuration=    11
   0.17472107  0.17433058 -0.00000000
   0.50777737  0.50821796  0.00000000
  -0.00055793  0.00038838 -0.00000000
   0.52394226  0.00038838 -0.00000000
   0.68246611  0.15884049 -0.00000000
   0.00003233  0.52370805 -0.00000000
   0.15855618  0.68216016  0.00000000
   0.68305637  0.68216016  0.00000000
BC3                                     
           1
     5.171677    0.000000    0.000000
     2.585838    4.479704    0.000000
     0.000000    0.000000   19.598887
   B    C 
   2   6
Direct configuration=    12
   0.17473137  0.17430997 -0.00000000
   0.50776707  0.50823857  0.00000000
  -0.00055744  0.00037504 -0.00000000
   0.52395511  0.00037504 -0.00000000
   0.68244174  0.15888923 -0.00000000
   0.00005670  0.52365931 -0.00000000
   0.15854333  0.68217350  0.00000000
   0.68305588  0.68217350  0.00000000
BC3                                     
           1
     5.172168    0.000000    0.000000
     2.586084    4.479566    0.000000
     0.000000    0.000000   19.527876
   B    C 
   2   6
Direct configuration=    13
   0.17475198  0.17426875 -0.00000000
   0.50774646  0.50827979  0.00000000
  -0.00055646  0.00034838 -0.00000000
   0.52398080  0.00034838 -0.00000000
   0.68239299  0.15898672 -0.00000000
   0.00010545  0.52356182 -0.00000000
   0.15851764  0.68220016  0.00000000
   0.68305490  0.68220016  0.00000000
BC3                                     
           1
     5.173150    0.000000    0.000000
     2.586575    4.479289    0.000000
     0.000000    0.000000   19.385853
   B    C 
   2   6
Direct configuration=    14
   0.17479320  0.17418630 -0.00000000
   0.50770524  0.50836224  0.00000000
  -0.00055451  0.00029504 -0.00000000
   0.52403218  0.00029504 -0.00000000
   0.68229550  0.15918170 -0.00000000
   0.00020294  0.52336683 -0.00000000
   0.15846626  0.68225350  0.00000000
   0.68305295  0.68225350 -0.00000000
BC3                                     
           1
     5.175115    0.000000    0.000000
     2.587557    4.478735    0.000000
     0.000000    0.000000   19.101808
   B    C 
   2   6
Direct configuration=    15
   0.17487565  0.17402141 -0.00000000
   0.50762279  0.50852713  0.00000000
  -0.00055058  0.00018836  0.00000000
   0.52413493  0.00018836 -0.00000000
   0.68210051  0.15957169 -0.00000000
   0.00039793  0.52297684 -0.00000000
   0.15836351  0.68236018  0.00000000
   0.68304902  0.68236018 -0.00000000
BC3                                     
           1
     5.179044    0.000000    0.000000
     2.589522    4.477627    0.000000
     0.000000    0.000000   18.533719
   B    C 
   2   6
Direct configuration=    16
   0.17504057  0.17369157 -0.00000000
   0.50745787  0.50885697  0.00000000
  -0.00054268 -0.00002502  0.00000000
   0.52434040 -0.00002502 -0.00000000
   0.68171047  0.16035177 -0.00000000
   0.00078797  0.52219677 -0.00000000
   0.15815804  0.68257356  0.00000000
   0.68304112  0.68257356 -0.00000000
BC3                                     
           1
     5.177367    0.000000    0.000000
     2.588684    4.478099    0.000000
     0.000000    0.000000   18.776153
   B    C 
   2   6
Direct configuration=    17
   0.17497017  0.17383236 -0.00000000
   0.50752827  0.50871618  0.00000000
  -0.00054609  0.00006607  0.00000000
   0.52425274  0.00006607 -0.00000000
   0.68187696  0.16001879 -0.00000000
   0.00062148  0.52252975 -0.00000000
   0.15824570  0.68248247  0.00000000
   0.68304453  0.68248247 -0.00000000
BC3                                     
           1
     5.176981    0.000000    0.000000
     2.588491    4.478378    0.000000
     0.000000    0.000000   18.634064
   B    C 
   2   6
Direct configuration=    18
   0.17504183  0.17368904 -0.00000000
   0.50745661  0.50885949  0.00000000
  -0.00054680  0.00005057  0.00000000
   0.52426894  0.00005057 -0.00000000
   0.68195674  0.15985923 -0.00000000
   0.00054170  0.52268931 -0.00000000
   0.15822950  0.68249797  0.00000000
   0.68304524  0.68249797 -0.00000000
BC3                                     
           1
     5.175822    0.000000    0.000000
     2.587911    4.479214    0.000000
     0.000000    0.000000   18.207795
   B    C 
   2   6
Direct configuration=    19
   0.17525680  0.17325911 -0.00000000
   0.50724164  0.50928943  0.00000000
  -0.00054894  0.00000408  0.00000000
   0.52431756  0.00000408 -0.00000000
   0.68219606  0.15938059 -0.00000000
   0.00030238  0.52316795 -0.00000000
   0.15818088  0.68254446  0.00000000
   0.68304738  0.68254446 -0.00000000
BC3                                     
           1
     5.175462    0.000000    0.000000
     2.587731    4.479474    0.000000
     0.000000    0.000000   18.075311
   B    C 
   2   6
Direct configuration=    20
   0.17532360  0.17312551 -0.00000000
   0.50717484  0.50942302  0.00000000
  -0.00054960 -0.00001036  0.00000000
   0.52433268 -0.00001036 -0.00000000
   0.68227043  0.15923185 -0.00000000
   0.00022801  0.52331669 -0.00000000
   0.15816576  0.68255890  0.00000000
   0.68304804  0.68255890 -0.00000000
BC3                                     
           1
     5.175193    0.000000    0.000000
     2.587596    4.480109    0.000000
     0.000000    0.000000   17.862857
   B    C 
   2   6
Direct configuration=    21
   0.17522819  0.17331633 -0.00000000
   0.50727025  0.50923221  0.00000000
  -0.00044211 -0.00008118  0.00000000
   0.52429600 -0.00008118 -0.00000000
   0.68231737  0.15913797  0.00000000
   0.00018107  0.52341056 -0.00000000
   0.15820244  0.68262972  0.00000000
   0.68294055  0.68262972 -0.00000000
BC3                                     
           1
     5.174385    0.000000    0.000000
     2.587193    4.482011    0.000000
     0.000000    0.000000   17.225498
   B    C 
   2   6
Direct configuration=    22
   0.17494202  0.17388868 -0.00000000
   0.50755643  0.50865986  0.00000000
  -0.00011964 -0.00029359  0.00000000
   0.52418594 -0.00029359 -0.00000000
   0.68245817  0.15885638  0.00000000
   0.00004028  0.52369216 -0.00000000
   0.15831250  0.68284213  0.00000000
   0.68261808  0.68284213 -0.00000000
BC3                                     
           1
     5.172770    0.000000    0.000000
     2.586385    4.485817    0.000000
     0.000000    0.000000   15.950780
   B    C 
   2   6
Direct configuration=    23
   0.17436990  0.17503290 -0.00000000
   0.50812854  0.50751564  0.00000000
   0.00052527 -0.00071824  0.00000000
   0.52396567 -0.00071824 -0.00000000
   0.68273964  0.15829343  0.00000000
  -0.00024120  0.52425511 -0.00000000
   0.15853277  0.68326677  0.00000000
   0.68197317  0.68326677  0.00000000
BC3                                     
           1
     5.169539    0.000000    0.000000
     2.584770    4.493428    0.000000
     0.000000    0.000000   13.401343
   B    C 
   2   6
Direct configuration=    24
   0.17322665  0.17731941 -0.00000000
   0.50927179  0.50522913  0.00000000
   0.00181501 -0.00156680  0.00000000
   0.52352450 -0.00156680 -0.00000000
   0.68330212  0.15716848  0.00000000
  -0.00080367  0.52538006 -0.00000000
   0.15897394  0.68411534  0.00000000
   0.68068343  0.68411534  0.00000000
BC3                                     
           1
     5.171633    0.000000    0.000000
     2.585816    4.488496    0.000000
     0.000000    0.000000   15.053196
   B    C 
   2   6
Direct configuration=    25
   0.17396614  0.17584042 -0.00000000
   0.50853230  0.50670811  0.00000000
   0.00097947 -0.00101792  0.00000000
   0.52381117 -0.00101792 -0.00000000
   0.68293829  0.15789613  0.00000000
  -0.00043985  0.52465241 -0.00000000
   0.15868728  0.68356646  0.00000000
   0.68151897  0.68356646  0.00000000
BC3                                     
           1
     5.171458    0.000000    0.000000
     2.585729    4.488683    0.000000
     0.000000    0.000000   14.987313
   B    C 
   2   6
Direct configuration=    26
   0.17393751  0.17589769 -0.00000000
   0.50856093  0.50665085  0.00000000
   0.00099740 -0.00101060  0.00000000
   0.52378591 -0.00101060 -0.00000000
   0.68295976  0.15785319  0.00000000
  -0.00046132  0.52469535 -0.00000000
   0.15871253  0.68355914  0.00000000
   0.68150104  0.68355914  0.00000000
BC3                                     
           1
     5.170934    0.000000    0.000000
     2.585467    4.489245    0.000000
     0.000000    0.000000   14.789662
   B    C 
   2   6
Direct configuration=    27
   0.17385161  0.17606949 -0.00000000
   0.50864683  0.50647905  0.00000000
   0.00105121 -0.00098863  0.00000000
   0.52371013 -0.00098863 -0.00000000
   0.68302417  0.15772437  0.00000000
  -0.00052573  0.52482417 -0.00000000
   0.15878831  0.68353717  0.00000000
   0.68144723  0.68353717  0.00000000
