BC3                                     
           1
     5.174000    0.000000    0.000000
     2.587000    4.481000    0.000000
     0.000000    0.000000   20.000000
   B    C 
   2   6
Direct configuration=     1
   0.17457326  0.17462620  0.00000000
   0.50792519  0.50792234  0.00000000
   0.00000000  0.00000000  0.00000000
   0.52377271  0.00000000  0.00000000
   0.68255138  0.15866994  0.00000000
   0.99994706  0.52387860  0.00000000
   0.15872573  0.68254854  0.00000000
   0.68249844  0.68254854  0.00000000
BC3                                     
           1
     5.171515    0.000000    0.000000
     2.585758    4.478448    0.000000
     0.000000    0.000000   19.978616
   B    C 
   2   6
Direct configuration=     2
   0.17454912  0.17467446 -0.00000000
   0.50794932  0.50787408 -0.00000000
  -0.00010827 -0.00012316 -0.00000000
   0.52400414 -0.00012316 -0.00000000
   0.68259956  0.15857359 -0.00000000
   0.99989888  0.52397495  0.00000000
   0.15849430  0.68267170 -0.00000000
   0.68260671  0.68267170  0.00000000
BC3                                     
           1
     5.172632    0.000000    0.000000
     2.586316    4.479595    0.000000
     0.000000    0.000000   19.988232
   B    C 
   2   6
Direct configuration=     3
   0.17455998  0.17465275 -0.00000000
   0.50793846  0.50789579 -0.00000000
  -0.00005956 -0.00006775 -0.00000000
   0.52390002 -0.00006775 -0.00000000
   0.68257789  0.15861694 -0.00000000
   0.99992056  0.52393160  0.00000000
   0.15859842  0.68261628 -0.00000000
   0.68255800  0.68261628  0.00000000
BC3                                     
           1
     5.172539    0.000000    0.000000
     2.586270    4.479604    0.000000
     0.000000    0.000000   19.968184
   B    C 
   2   6
Direct configuration=     4
   0.17456945  0.17463381 -0.00000000
   0.50792899  0.50791473 -0.00000000
  -0.00008937 -0.00003935 -0.00000000
   0.52390143 -0.00003935 -0.00000000
   0.68257104  0.15863062 -0.00000000
   0.99992740  0.52391792  0.00000000
   0.15859701  0.68258789 -0.00000000
   0.68258781  0.68258789  0.00000000
BC3                                     
           1
     5.172259    0.000000    0.000000
     2.586129    4.479628    0.000000
     0.000000    0.000000   19.908041
   B    C 
   2   6
Direct configuration=     5
   0.17459786  0.17457699 -0.00000000
   0.50790058  0.50797155 -0.00000000
  -0.00017878  0.00004582 -0.00000000
   0.52390567  0.00004582 -0.00000000
   0.68255052  0.15867166 -0.00000000
   0.99994792  0.52387687  0.00000000
   0.15859277  0.68250271 -0.00000000
   0.68267722  0.68250271  0.00000000
