BC3                                     
           1
     5.174000    0.000000    0.000000
     2.587000    4.481000    0.000000
     0.000000    0.000000   20.000000
   B    C 
   2   6
Direct configuration=     1
   0.17457326  0.17462620  0.00000000
   0.50792519  0.50792234  0.00000000
   0.00000000  0.00000000  0.00000000
   0.52377271  0.00000000  0.00000000
   0.68255138  0.15866994  0.00000000
   0.99994706  0.52387860  0.00000000
   0.15872573  0.68254854  0.00000000
   0.68249844  0.68254854  0.00000000
BC3                                     
           1
     5.171515    0.000000    0.000000
     2.585758    4.478448    0.000000
     0.000000    0.000000   19.978616
   B    C 
   2   6
Direct configuration=     2
   0.17454912  0.17467446 -0.00000000
   0.50794932  0.50787408 -0.00000000
  -0.00010827 -0.00012316 -0.00000000
   0.52400414 -0.00012316 -0.00000000
   0.68259956  0.15857359 -0.00000000
   0.99989888  0.52397495  0.00000000
   0.15849430  0.68267170 -0.00000000
   0.68260671  0.68267170  0.00000000
