 running on   12 total cores
 distrk:  each k-point on   12 cores,    1 groups
 distr:  one band on    4 cores,    3 groups
 using from now: INCAR     
 vasp.5.4.4.18Apr17-6-g9f103f2a35 (build Mar 30 2023 15:39:25) complex          
  
 POSCAR found type information on POSCAR  B  C 
 POSCAR found :  2 types and       8 ions
 scaLAPACK will be used
 LDA part: xc-table for Pade appr. of Perdew

 ----------------------------------------------------------------------------- 
|                                                                             |
|           W    W    AA    RRRRR   N    N  II  N    N   GGGG   !!!           |
|           W    W   A  A   R    R  NN   N  II  NN   N  G    G  !!!           |
|           W    W  A    A  R    R  N N  N  II  N N  N  G       !!!           |
|           W WW W  AAAAAA  RRRRR   N  N N  II  N  N N  G  GGG   !            |
|           WW  WW  A    A  R   R   N   NN  II  N   NN  G    G                |
|           W    W  A    A  R    R  N    N  II  N    N   GGGG   !!!           |
|                                                                             |
|      One of the lattice vectors is very long (>50 A), but AMIN is rather    |
|      large. This can spoil convergence since charge sloshing might occur    |
|      along the long lattice vector. If problems with convergence are        |
|      observed, try to decrease AMIN to a smaller values (e.g. 0.01).        |
|      Note: this warning only applies if the selfconsistency cycle is used.  |
|                                                                             |
 ----------------------------------------------------------------------------- 

 POSCAR, INCAR and KPOINTS ok, starting setup
 FFT: planning ...
 WAVECAR not read
 entering main loop
       N       E                     dE             d eps       ncg     rms          rms(c)
DAV:   1     0.130611413278E+03    0.13061E+03   -0.32223E+03   420   0.397E+02
DAV:   2     0.546422276377E+02   -0.75969E+02   -0.75292E+02   516   0.663E+01
DAV:   3     0.136894420676E+02   -0.40953E+02   -0.40600E+02   435   0.429E+01
DAV:   4    -0.252970417377E+01   -0.16219E+02   -0.14750E+02   294   0.252E+01
DAV:   5    -0.375652532288E+01   -0.12268E+01   -0.87920E+00   516   0.947E+00    0.459E+00
DAV:   6    -0.302504598069E+00    0.34540E+01   -0.34725E+00   351   0.549E+00    0.519E+00
DAV:   7    -0.697110715182E+01   -0.66686E+01   -0.45593E+01   579   0.347E+00    0.255E+01
DAV:   8    -0.199129883154E+02   -0.12942E+02   -0.16436E+02   498   0.854E+00    0.273E+01
DAV:   9    -0.100747221099E+01    0.18906E+02   -0.57244E+01   393   0.154E+01    0.138E+01
DAV:  10    -0.766274785866E+00    0.24120E+00   -0.27538E-01   495   0.124E+00    0.108E+01
DAV:  11    -0.121400441416E+01   -0.44773E+00   -0.37414E+00   444   0.196E+00    0.513E+00
DAV:  12    -0.154836366649E+01   -0.33436E+00   -0.24527E+00   492   0.158E+00    0.613E+00
DAV:  13    -0.195850302359E+01   -0.41014E+00   -0.27492E+00   498   0.202E+00    0.118E+01
DAV:  14    -0.349234932827E+01   -0.15338E+01   -0.30285E+00   438   0.309E+00    0.152E+01
DAV:  15    -0.435470453453E+01   -0.86236E+00   -0.16684E+00   504   0.197E+00    0.157E+01
DAV:  16    -0.443232920670E+01   -0.77625E-01   -0.70220E-01   501   0.178E+00    0.157E+01
DAV:  17    -0.301052026023E+01    0.14218E+01   -0.36819E-01   483   0.150E+00    0.153E+01
DAV:  18    -0.273118090429E+01    0.27934E+00   -0.19872E-01   558   0.758E-01    0.153E+01
DAV:  19    -0.309711513524E+01   -0.36593E+00   -0.27346E-01   555   0.661E-01    0.153E+01
DAV:  20    -0.365742924361E+01   -0.56031E+00   -0.47329E-01   549   0.946E-01    0.156E+01
DAV:  21    -0.245323912859E+01    0.12042E+01   -0.15013E-01   441   0.982E-01    0.154E+01
DAV:  22    -0.141627564527E+01    0.10370E+01   -0.40552E-02   402   0.558E-01    0.118E+01
DAV:  23    -0.140019545600E+01    0.16080E-01   -0.15320E-02   570   0.295E-01    0.117E+01
DAV:  24    -0.147219797173E+01   -0.72003E-01   -0.13204E-02   480   0.299E-01    0.114E+01
DAV:  25    -0.102149987038E+01    0.45070E+00   -0.19440E-01   450   0.332E-01    0.719E+00
DAV:  26    -0.132034438813E+01   -0.29884E+00   -0.19739E-01   453   0.618E-01    0.101E+01
DAV:  27    -0.834489181394E+00    0.48586E+00   -0.17030E+00   456   0.558E-01    0.598E+00
DAV:  28    -0.102634067005E+01   -0.19185E+00   -0.12419E+00   432   0.284E+00    0.574E+00
DAV:  29    -0.980564875922E+00    0.45776E-01   -0.17838E-01   549   0.435E-01    0.620E+00
DAV:  30    -0.101447589335E+01   -0.33911E-01   -0.35842E-01   507   0.138E+00    0.670E+00
DAV:  31    -0.215474673673E+01   -0.11403E+01   -0.15721E+00   429   0.105E+00    0.954E+00
DAV:  32    -0.269444441105E+01   -0.53970E+00   -0.30343E+00   450   0.857E-01    0.137E+01
DAV:  33    -0.355912395120E+01   -0.86468E+00   -0.12176E+01   450   0.362E+00    0.156E+01
DAV:  34    -0.475283454176E+01   -0.11937E+01   -0.16340E+01   453   0.138E+00    0.207E+01
DAV:  35    -0.506308081076E+01   -0.31025E+00   -0.42573E+01   405   0.481E+00    0.170E+01
DAV:  36    -0.407789815792E+01    0.98518E+00   -0.22154E+01   402   0.204E+00    0.207E+01
DAV:  37    -0.138906407850E+01    0.26888E+01   -0.88837E-01   372   0.257E+00    0.114E+01
DAV:  38    -0.303178497835E+01   -0.16427E+01   -0.14648E+00   555   0.125E+00    0.224E+01
DAV:  39    -0.151023687084E+01    0.15215E+01   -0.77841E-01   432   0.224E+00    0.220E+01
DAV:  40    -0.418935855076E+01   -0.26791E+01   -0.65669E+00   552   0.106E+00    0.244E+01
DAV:  41    -0.610707644157E+01   -0.19177E+01   -0.13515E+01   435   0.750E+00    0.199E+01
DAV:  42    -0.822665399687E+01   -0.21196E+01   -0.10488E+01   498   0.586E+00    0.199E+01
DAV:  43    -0.897166733320E+01   -0.74501E+00   -0.50286E+00   498   0.383E+00    0.211E+01
DAV:  44    -0.701648556147E+01    0.19552E+01   -0.30678E+00   471   0.358E+00    0.221E+01
DAV:  45    -0.619541088107E+01    0.82107E+00   -0.91134E-01   543   0.175E+00    0.212E+01
DAV:  46    -0.705317666140E+01   -0.85777E+00   -0.49874E-01   498   0.116E+00    0.218E+01
DAV:  47    -0.903430964203E+01   -0.19811E+01   -0.53991E-01   534   0.768E-01    0.253E+01
DAV:  48    -0.910157760516E+01   -0.67268E-01   -0.11343E-01   486   0.721E-01    0.257E+01
DAV:  49    -0.776724730291E+01    0.13343E+01   -0.12634E-01   432   0.466E-01    0.230E+01
DAV:  50    -0.856014238544E+01   -0.79290E+00   -0.40263E-02   390   0.322E-01    0.237E+01
DAV:  51    -0.663193615385E+01    0.19282E+01   -0.39622E-02   327   0.521E-01    0.204E+01
DAV:  52    -0.680185152654E+01   -0.16992E+00   -0.96767E-03   423   0.325E-01    0.207E+01
DAV:  53    -0.699761228746E+01   -0.19576E+00   -0.61579E-03   393   0.151E-01    0.210E+01
DAV:  54    -0.694025679410E+01    0.57355E-01   -0.33162E-03   270   0.614E-02    0.210E+01
DAV:  55    -0.369745158758E+01    0.32428E+01   -0.13596E+00   306   0.909E-01    0.207E+01
DAV:  56    -0.250641202695E+01    0.11910E+01   -0.78661E-01   294   0.738E-01    0.247E+01
DAV:  57    -0.249000614226E+01    0.16406E-01   -0.81030E-03   402   0.470E-01    0.251E+01
DAV:  58    -0.242833773198E+01    0.61668E-01   -0.33563E-03   375   0.234E-01    0.249E+01
DAV:  59    -0.196548685607E+01    0.46285E+00   -0.12980E-02   408   0.333E-01    0.243E+01
DAV:  60    -0.529314966115E+00    0.14362E+01   -0.98699E-01   312   0.584E-01    0.232E+01
DAV:  61     0.995590492598E+00    0.15249E+01   -0.18699E-01   330   0.686E-01    0.228E+01
DAV:  62     0.641205030418E+00   -0.35439E+00   -0.92767E-01   435   0.119E+00    0.217E+01
DAV:  63    -0.243856058011E+01   -0.30798E+01   -0.34493E+01   444   0.128E+00    0.110E+01
DAV:  64    -0.184050656093E+01    0.59805E+00   -0.12282E+01   345   0.750E+00    0.164E+01
DAV:  65    -0.160057341650E+01    0.23993E+00   -0.23684E-01   369   0.123E+00    0.123E+01
DAV:  66    -0.246706439808E+01   -0.86649E+00   -0.35515E+00   426   0.129E+00    0.115E+01
DAV:  67    -0.262837103414E+01   -0.16131E+00   -0.57056E-02   423   0.104E+00    0.110E+01
DAV:  68    -0.304942003953E+01   -0.42105E+00   -0.17922E-01   399   0.856E-01    0.803E+00
DAV:  69    -0.485707925356E+01   -0.18077E+01   -0.13035E+00   336   0.166E+00    0.126E+01
DAV:  70    -0.692689423127E+01   -0.20698E+01   -0.49068E-01   393   0.145E+00    0.137E+01
DAV:  71    -0.893876025881E+01   -0.20119E+01   -0.12247E+00   411   0.157E+00    0.151E+01
DAV:  72    -0.744336230466E+01    0.14954E+01   -0.71769E+00   375   0.256E+00    0.115E+01
DAV:  73    -0.776646212598E+01   -0.32310E+00   -0.78119E-01   441   0.170E+00    0.156E+01
DAV:  74    -0.795341687015E+01   -0.18695E+00   -0.42532E-01   384   0.113E+00    0.162E+01
DAV:  75    -0.828102815176E+01   -0.32761E+00   -0.41006E+00   429   0.188E+00    0.200E+01
DAV:  76    -0.866097748903E+01   -0.37995E+00   -0.37708E+00   372   0.340E+00    0.200E+01
DAV:  77    -0.827480333474E+01    0.38617E+00   -0.12615E+00   429   0.104E+00    0.128E+01
DAV:  78    -0.752090336780E+01    0.75390E+00   -0.30577E+00   420   0.976E-01    0.142E+01
DAV:  79    -0.581219960071E+01    0.17087E+01   -0.33223E+00   399   0.202E+00    0.110E+01
DAV:  80    -0.708385749663E+01   -0.12717E+01   -0.66277E+00   417   0.168E+00    0.168E+01
DAV:  81    -0.511986855542E+01    0.19640E+01   -0.88870E-01   399   0.184E+00    0.164E+01
DAV:  82    -0.505001737516E+01    0.69851E-01   -0.19485E-01   540   0.908E-01    0.164E+01
DAV:  83    -0.552293286990E+01   -0.47292E+00   -0.22849E-01   456   0.818E-01    0.170E+01
DAV:  84    -0.526371851695E+01    0.25921E+00   -0.58981E-02   507   0.528E-01    0.171E+01
DAV:  85    -0.495207869650E+01    0.31164E+00   -0.34496E-02   429   0.552E-01    0.156E+01
DAV:  86    -0.496955565916E+01   -0.17477E-01   -0.40359E-02   474   0.401E-01    0.155E+01
DAV:  87    -0.471078435252E+01    0.25877E+00   -0.34717E-02   441   0.422E-01    0.148E+01
DAV:  88    -0.415371480908E+01    0.55707E+00   -0.38363E-02   450   0.379E-01    0.147E+01
DAV:  89    -0.257510422198E+01    0.15786E+01   -0.97708E-02   360   0.882E-01    0.115E+01
DAV:  90    -0.181387146837E+01    0.76123E+00   -0.58135E-02   432   0.596E-01    0.120E+01
DAV:  91    -0.257045053322E+01   -0.75658E+00   -0.88513E-01   444   0.103E+00    0.158E+01
DAV:  92    -0.196771031728E+01    0.60274E+00   -0.33692E-01   366   0.106E+00    0.155E+01
DAV:  93    -0.103340722143E+01    0.93430E+00   -0.13358E-01   420   0.971E-01    0.154E+01
DAV:  94    -0.256297996413E+01   -0.15296E+01   -0.16323E+01   447   0.574E-01    0.136E+01
DAV:  95    -0.254634980467E+01    0.16630E-01   -0.14251E+01   396   0.916E+00    0.102E+01
DAV:  96    -0.409984904755E+01   -0.15535E+01   -0.61501E+00   504   0.191E+00    0.157E+01
DAV:  97    -0.548283522936E+01   -0.13830E+01   -0.52170E+00   474   0.373E+00    0.177E+01
DAV:  98    -0.579906281646E+01   -0.31623E+00   -0.48727E+00   504   0.197E+00    0.205E+01
DAV:  99    -0.583848764906E+01   -0.39425E-01   -0.12995E+01   396   0.483E+00    0.193E+01
DAV: 100    -0.501703868120E+01    0.82145E+00   -0.46334E+00   459   0.272E+00    0.211E+01
DAV: 101    -0.229824228990E+01    0.27188E+01   -0.11360E+00   429   0.231E+00    0.180E+01
DAV: 102    -0.985957845362E+00    0.13123E+01   -0.84412E+00   459   0.111E+00    0.577E+00
DAV: 103    -0.140982497758E+01   -0.42387E+00   -0.19737E+00   486   0.146E+00    0.714E+00
DAV: 104    -0.157294201083E+01   -0.16312E+00   -0.18470E+00   495   0.193E+00    0.842E+00
DAV: 105    -0.228426739014E+01   -0.71133E+00   -0.19184E+00   462   0.209E+00    0.105E+01
DAV: 106    -0.253708074238E+01   -0.25281E+00   -0.19742E+00   480   0.188E+00    0.577E+00
DAV: 107    -0.274785691399E+01   -0.21078E+00   -0.10543E+00   480   0.113E+00    0.115E+01
DAV: 108    -0.258345779763E+01    0.16440E+00   -0.41469E-01   474   0.117E+00    0.800E+00
DAV: 109    -0.241729858192E+01    0.16616E+00   -0.25488E-01   495   0.686E-01    0.101E+01
DAV: 110    -0.220046859714E+01    0.21683E+00   -0.96872E-02   441   0.671E-01    0.863E+00
DAV: 111    -0.215174239451E+01    0.48726E-01   -0.20540E-01   513   0.429E-01    0.139E+01
DAV: 112    -0.168453934315E+01    0.46720E+00   -0.11214E-01   393   0.959E-01    0.125E+01
DAV: 113    -0.169067438967E+01   -0.61350E-02   -0.59822E-02   516   0.197E-01    0.128E+01
DAV: 114    -0.164740127488E+01    0.43273E-01   -0.44132E-02   426   0.573E-01    0.144E+01
DAV: 115    -0.166821375945E+01   -0.20812E-01   -0.51134E-02   480   0.185E-01    0.147E+01
DAV: 116    -0.152943169065E+01    0.13878E+00   -0.69611E-02   399   0.621E-01    0.127E+01
DAV: 117    -0.173054081157E+01   -0.20111E+00   -0.24152E-02   459   0.306E-01    0.112E+01
DAV: 118    -0.218787028226E+01   -0.45733E+00   -0.29589E-02   453   0.439E-01    0.121E+01
DAV: 119    -0.242280403342E+01   -0.23493E+00   -0.38320E-02   459   0.334E-01    0.101E+01
DAV: 120    -0.260111205916E+01   -0.17831E+00   -0.20823E-02   453   0.329E-01    0.106E+01
DAV: 121    -0.252066412890E+01    0.80448E-01   -0.38570E-02   447   0.273E-01    0.122E+01
DAV: 122    -0.251485473229E+01    0.58094E-02   -0.34238E-02   423   0.287E-01    0.127E+01
DAV: 123    -0.252561185775E+01   -0.10757E-01   -0.18984E-02   396   0.261E-01    0.127E+01
DAV: 124    -0.251089306998E+01    0.14719E-01   -0.21156E-02   405   0.176E-01    0.123E+01
DAV: 125    -0.239077288322E+01    0.12012E+00   -0.16792E-02   444   0.268E-01    0.121E+01
DAV: 126    -0.239339068015E+01   -0.26178E-02   -0.16861E-02   459   0.177E-01    0.121E+01
DAV: 127    -0.231385690597E+01    0.79534E-01   -0.16726E-02   444   0.251E-01    0.117E+01
DAV: 128    -0.239289412712E+01   -0.79037E-01   -0.18975E-02   450   0.197E-01    0.117E+01
DAV: 129    -0.229746914968E+01    0.95425E-01   -0.25546E-02   441   0.341E-01    0.994E+00
DAV: 130    -0.239085138307E+01   -0.93382E-01   -0.42749E-02   450   0.306E-01    0.833E+00
DAV: 131    -0.232912917393E+01    0.61722E-01   -0.68571E-02   459   0.458E-01    0.109E+01
DAV: 132    -0.241380344052E+01   -0.84674E-01   -0.35405E-02   459   0.324E-01    0.119E+01
DAV: 133    -0.240632959471E+01    0.74738E-02   -0.32369E-02   369   0.326E-01    0.118E+01
DAV: 134    -0.249195865729E+01   -0.85629E-01   -0.39077E-02   450   0.250E-01    0.127E+01
DAV: 135    -0.247424900207E+01    0.17710E-01   -0.42883E-02   432   0.336E-01    0.137E+01
DAV: 136    -0.173722746508E+01    0.73702E+00   -0.28447E-01   414   0.610E-01    0.711E+00
DAV: 137    -0.107089072768E+01    0.66634E+00   -0.62067E-02   414   0.697E-01    0.549E+00
DAV: 138    -0.261836909214E+00    0.80905E+00   -0.69318E-02   357   0.649E-01    0.665E+00
DAV: 139    -0.202608504855E+01   -0.17642E+01   -0.12843E+01   522   0.230E-01    0.124E+01
DAV: 140    -0.122986613508E+01    0.79622E+00   -0.20669E+01   381   0.126E+01    0.119E+01
DAV: 141    -0.319849596965E+01   -0.19686E+01   -0.63865E+00   540   0.323E+00    0.226E+01
DAV: 142    -0.305358149856E+01    0.14491E+00   -0.18449E+00   513   0.385E+00    0.238E+01
DAV: 143    -0.334162685510E+01   -0.28805E+00   -0.22866E+00   534   0.150E+00    0.206E+01
DAV: 144    -0.349772464540E+01   -0.15610E+00   -0.34610E-01   558   0.160E+00    0.207E+01
DAV: 145    -0.354358171108E+01   -0.45857E-01   -0.22634E-01   558   0.732E-01    0.208E+01
DAV: 146    -0.121096428929E+02   -0.85661E+01   -0.11333E+01   405   0.281E+00    0.224E+01
DAV: 147    -0.317168178803E+01    0.89380E+01   -0.62251E+00   342   0.450E+00    0.213E+01
DAV: 148    -0.176137330929E+01    0.14103E+01   -0.20211E+01   357   0.163E+00    0.192E+01
DAV: 149    -0.796792971704E+00    0.96458E+00   -0.71743E-01   360   0.103E+00    0.134E+01
DAV: 150    -0.825487119340E+00   -0.28694E-01   -0.29293E-01   549   0.481E-01    0.123E+01
DAV: 151    -0.802335500985E+00    0.23152E-01   -0.14503E-01   453   0.621E-01    0.133E+01
DAV: 152    -0.213058735382E+01   -0.13283E+01   -0.38501E+00   351   0.687E-01    0.186E+01
DAV: 153    -0.129946741529E+01    0.83112E+00   -0.15925E-01   390   0.121E+00    0.161E+01
DAV: 154    -0.823833614927E+00    0.47563E+00   -0.68482E-01   453   0.404E-01    0.114E+01
DAV: 155    -0.127724790422E+01   -0.45341E+00   -0.65504E-01   492   0.685E-01    0.158E+01
DAV: 156    -0.175342534153E+01   -0.47618E+00   -0.87666E-02   360   0.892E-01    0.179E+01
DAV: 157    -0.883795067144E+00    0.86963E+00   -0.84565E+00   324   0.780E-01    0.142E+01
DAV: 158    -0.200926102634E+01   -0.11255E+01   -0.46053E+00   294   0.867E-01    0.186E+01
DAV: 159    -0.917521722998E+00    0.10917E+01   -0.42176E+00   354   0.895E-01    0.132E+01
DAV: 160    -0.142772446428E+01   -0.51020E+00   -0.11843E+00   360   0.704E-01    0.162E+01
DAV: 161    -0.976634726051E+00    0.45109E+00   -0.44415E+00   354   0.614E-01    0.153E+01
DAV: 162    -0.140796019026E+01   -0.43133E+00   -0.24136E+00   360   0.747E-01    0.161E+01
DAV: 163    -0.101393983446E+01    0.39402E+00   -0.54644E+00   354   0.717E-01    0.156E+01
DAV: 164    -0.913540136958E+00    0.10040E+00   -0.10940E-01   384   0.809E-01    0.141E+01
DAV: 165    -0.955983774120E+00   -0.42444E-01   -0.13696E-01   426   0.368E-01    0.144E+01
DAV: 166    -0.129701148116E+01   -0.34103E+00   -0.45972E-01   390   0.850E-01    0.137E+01
DAV: 167    -0.139366497891E+01   -0.96653E-01   -0.22319E-01   480   0.570E-01    0.133E+01
DAV: 168    -0.153743713637E+01   -0.14377E+00   -0.31358E-01   375   0.725E-01    0.120E+01
DAV: 169    -0.213880392944E+01   -0.60137E+00   -0.33914E-01   462   0.713E-01    0.142E+01
DAV: 170    -0.229923366095E+01   -0.16043E+00   -0.11653E-01   462   0.579E-01    0.140E+01
DAV: 171    -0.225745886934E+01    0.41775E-01   -0.10191E-01   480   0.301E-01    0.135E+01
DAV: 172    -0.227471386119E+01   -0.17255E-01   -0.12621E-01   396   0.422E-01    0.131E+01
DAV: 173    -0.223912864479E+01    0.35585E-01   -0.75862E-02   552   0.265E-01    0.132E+01
DAV: 174    -0.213204015729E+01    0.10709E+00   -0.36891E-02   429   0.331E-01    0.133E+01
DAV: 175    -0.274221406917E+01   -0.61017E+00   -0.80526E-02   462   0.501E-01    0.126E+01
DAV: 176    -0.273036782977E+01    0.11846E-01   -0.48971E-02   462   0.328E-01    0.141E+01
DAV: 177    -0.297600513163E+01   -0.24564E+00   -0.23913E-02   444   0.323E-01    0.134E+01
DAV: 178    -0.311891498907E+01   -0.14291E+00   -0.17035E-02   441   0.303E-01    0.141E+01
DAV: 179    -0.399003949103E+01   -0.87112E+00   -0.46833E-02   420   0.629E-01    0.149E+01
DAV: 180    -0.460824446066E+01   -0.61820E+00   -0.33512E-02   462   0.428E-01    0.159E+01
DAV: 181    -0.713194693609E+01   -0.25237E+01   -0.22729E-01   363   0.145E+00    0.194E+01
DAV: 182    -0.764179108609E+01   -0.50984E+00   -0.85918E-02   462   0.496E-01    0.202E+01
DAV: 183    -0.804154034371E+01   -0.39975E+00   -0.73920E-02   402   0.603E-01    0.209E+01
DAV: 184    -0.797541882786E+01    0.66122E-01   -0.76369E-02   552   0.316E-01    0.207E+01
DAV: 185    -0.815853656090E+01   -0.18312E+00   -0.88044E-02   456   0.496E-01    0.212E+01
DAV: 186    -0.817749108511E+01   -0.18955E-01   -0.53264E-02   462   0.616E-01    0.196E+01
DAV: 187    -0.699343211060E+01    0.11841E+01   -0.60091E-02   417   0.771E-01    0.188E+01
DAV: 188    -0.628113589742E+01    0.71230E+00   -0.28479E-02   435   0.436E-01    0.185E+01
DAV: 189    -0.481241540883E+01    0.14687E+01   -0.80748E-02   387   0.757E-01    0.181E+01
DAV: 190    -0.102709146740E+01    0.37853E+01   -0.62545E-01   297   0.209E+00    0.166E+01
DAV: 191     0.438181276609E+01    0.54089E+01   -0.29245E+00   294   0.439E+00    0.607E+00
DAV: 192    -0.145653407970E+02   -0.18947E+02   -0.12998E+02   459   0.185E+00    0.118E+01
DAV: 193    -0.622207699072E+02   -0.47655E+02   -0.30255E+02   462   0.222E+01    0.282E+01
DAV: 194    -0.369140688858E+02    0.25307E+02   -0.17624E+01   306   0.159E+01    0.283E+01
DAV: 195    -0.257492143866E+02    0.11165E+02   -0.17401E+00   480   0.399E+00    0.275E+01
DAV: 196    -0.180119067266E+02    0.77373E+01   -0.33374E-01   342   0.170E+00    0.270E+01
DAV: 197    -0.722011488133E+00    0.17290E+02   -0.26120E+01   294   0.404E+00    0.140E+01
DAV: 198    -0.485289465647E+02   -0.47807E+02   -0.26918E+02   294   0.560E+00    0.295E+01
DAV: 199    -0.189232643421E+02    0.29606E+02   -0.40936E+00   318   0.578E+00    0.270E+01
DAV: 200    -0.759466672234E+01    0.11329E+02   -0.95499E-01   336   0.225E+00

 ----------------------------------------------------------------------------- 
|                                                                             |
|           W    W    AA    RRRRR   N    N  II  N    N   GGGG   !!!           |
|           W    W   A  A   R    R  NN   N  II  NN   N  G    G  !!!           |
|           W    W  A    A  R    R  N N  N  II  N N  N  G       !!!           |
|           W WW W  AAAAAA  RRRRR   N  N N  II  N  N N  G  GGG   !            |
|           WW  WW  A    A  R   R   N   NN  II  N   NN  G    G                |
|           W    W  A    A  R    R  N    N  II  N    N   GGGG   !!!           |
|                                                                             |
|      Your highest band is occupied at some k-points! Unless you are         |
|      performing a calculation for an insulator or semiconductor, without    |
|      unoccupied bands, you have included TOO FEW BANDS!! Please increase    |
|      the parameter NBANDS in file INCAR to ensure that the highest band     |
|      is unoccupied at all k-points. It is always recommended to             |
|      include a few unoccupied bands to accelerate the convergence of        |
|      molecular dynamics runs (even for insulators or semiconductors).       |
|      Because the presence of unoccupied bands improves wavefunction         |
|      prediction, and helps to suppress 'band-crossings.'                    |
|                                                                             |
 ----------------------------------------------------------------------------- 

   1 F= -.75946667E+01 E0= -.75175403E+01  d E =-.759467E+01
 curvature:   0.00 expect dE= 0.000E+00 dE for cont linesearch  0.000E+00
 trial: gam= 0.00000 g(F)=  0.768E-03 g(S)=  0.124E+03 ort = 0.000E+00 (trialstep = 0.100E+01)
 search vector abs. value=  0.124E+03
 bond charge predicted
       N       E                     dE             d eps       ncg     rms          rms(c)
DAV:   1    -0.529829401947E+02   -0.34060E+02   -0.17759E+03   357   0.135E+02    0.333E+01
DAV:   2    -0.369287575485E+02    0.16054E+02   -0.47007E+02   456   0.364E+01    0.253E+01
DAV:   3    -0.490790717244E+00    0.36438E+02   -0.19280E+01   294   0.167E+01BRMIX: very serious problems
 the old and the new charge density differ
 old charge density:    30.00051 new   30.00082
    0.165E+01
DAV:   4     0.419176722138E+01    0.46826E+01   -0.23752E+02   366   0.193E+01BRMIX: very serious problems
 the old and the new charge density differ
 old charge density:    30.00082 new   30.00027
    0.118E+01
DAV:   5    -0.349850551981E+02   -0.39177E+02   -0.41608E+02   468   0.201E+01    0.253E+01
DAV:   6    -0.132166508718E+02    0.21768E+02   -0.80870E+01   372   0.235E+01    0.248E+01
DAV:   7     0.102371600024E+02    0.23454E+02   -0.84234E+01   327   0.111E+01    0.926E+00
DAV:   8     0.612821074552E+01   -0.41089E+01   -0.39299E+01   540   0.284E+00    0.164E+01
DAV:   9     0.661151004445E+01    0.48330E+00   -0.10759E+01   393   0.798E+00    0.163E+01
DAV:  10     0.717670800702E+01    0.56520E+00   -0.18597E+00   498   0.237E+00    0.164E+01
DAV:  11     0.579094012603E+01   -0.13858E+01   -0.28057E+00   381   0.394E+00    0.179E+01
DAV:  12     0.813870829121E+01    0.23478E+01   -0.76577E+01   414   0.112E+01    0.149E+01
DAV:  13    -0.449035084910E+01   -0.12629E+02   -0.10168E+02   489   0.116E+01    0.202E+01
DAV:  14    -0.157329144566E+02   -0.11243E+02   -0.12225E+02   450   0.145E+01    0.224E+01
DAV:  15    -0.254120413816E+02   -0.96791E+01   -0.85447E+01   480   0.115E+01    0.276E+01
DAV:  16    -0.332621028602E+02   -0.78501E+01   -0.14881E+01   384   0.762E+00    0.294E+01
DAV:  17    -0.312358022556E+02    0.20263E+01   -0.17110E+00   408   0.373E+00    0.292E+01
DAV:  18    -0.255631903307E+02    0.56726E+01   -0.13570E+00   402   0.385E+00    0.286E+01
DAV:  19    -0.257625045992E+02   -0.19931E+00   -0.10474E-01   480   0.687E-01    0.287E+01
DAV:  20    -0.168740179987E+02    0.88885E+01   -0.56491E-01   375   0.213E+00    0.278E+01
DAV:  21    -0.268784178856E+01    0.14186E+02   -0.14070E+00   357   0.364E+00    0.268E+01
DAV:  22    -0.816883853511E+01   -0.54810E+01   -0.21118E-01   399   0.144E+00    0.269E+01
DAV:  23    -0.511193947473E+01    0.30569E+01   -0.14696E-01   441   0.116E+00    0.269E+01
DAV:  24    -0.584139614283E+01   -0.72946E+00   -0.26573E-02   423   0.375E-01    0.268E+01
DAV:  25    -0.109415454606E+02   -0.51001E+01   -0.24432E-01   411   0.164E+00    0.271E+01
DAV:  26    -0.192435233498E+02   -0.83020E+01   -0.32780E-01   396   0.174E+00    0.274E+01
DAV:  27    -0.215222368947E+02   -0.22787E+01   -0.34395E-02   417   0.503E-01    0.275E+01
DAV:  28    -0.274933728725E+02   -0.59711E+01   -0.15144E-01   360   0.104E+00    0.277E+01
DAV:  29    -0.486721798444E+02   -0.21179E+02   -0.17365E+00   294   0.382E+00    0.341E+01
DAV:  30    -0.440924408032E+02    0.45797E+01   -0.35649E-02   294   0.106E+00    0.339E+01
DAV:  31    -0.465752774747E+02   -0.24828E+01   -0.28407E-02   402   0.478E-01    0.341E+01
DAV:  32    -0.449921886731E+02    0.15831E+01   -0.33949E-02   348   0.602E-01    0.341E+01
DAV:  33    -0.385911694902E+02    0.64010E+01   -0.16341E+01   294   0.224E+00    0.281E+01
DAV:  34    -0.396331888079E+02   -0.10420E+01   -0.11727E-01   402   0.120E+00    0.282E+01
DAV:  35    -0.372878239092E+02    0.23454E+01   -0.47231E-02   378   0.870E-01    0.282E+01
DAV:  36    -0.314926276547E+02    0.57952E+01   -0.24176E-01   402   0.151E+00    0.280E+01
DAV:  37    -0.261534720958E+02    0.53392E+01   -0.26545E-01   414   0.163E+00    0.279E+01
DAV:  38    -0.211791860423E+02    0.49743E+01   -0.22229E-01   432   0.145E+00    0.277E+01
DAV:  39    -0.146531418234E+02    0.65260E+01   -0.25977E-01   414   0.152E+00    0.274E+01
DAV:  40    -0.786566376671E+01    0.67875E+01   -0.27346E-01   387   0.150E+00    0.272E+01
DAV:  41     0.260579930819E+01    0.10471E+02   -0.48902E-01   387   0.183E+00    0.266E+01
DAV:  42     0.110596070185E+02    0.84538E+01   -0.49094E+01   378   0.222E+00    0.239E+01
DAV:  43    -0.117651171571E+02   -0.22825E+02   -0.21127E+02   390   0.128E+01BRMIX: very serious problems
 the old and the new charge density differ
 old charge density:    30.00057 new   30.00090
    0.187E+01
DAV:  44     0.353332109182E+01    0.15298E+02   -0.19940E+01   309   0.134E+01    0.180E+01
DAV:  45     0.141931726481E+00   -0.33914E+01   -0.13024E+02   429   0.805E+00    0.169E+01
DAV:  46     0.947612476651E+01    0.93342E+01   -0.93549E+00   351   0.369E+00    0.112E+01
DAV:  47    -0.174195920115E+02   -0.26896E+02   -0.16909E+02   384   0.681E+00BRMIX: very serious problems
 the old and the new charge density differ
 old charge density:    30.00107 new   30.00061
    0.242E+01
DAV:  48    -0.336645782496E+02   -0.16245E+02   -0.17840E+00   369   0.434E+00    0.247E+01
DAV:  49    -0.388798552169E+02   -0.52153E+01   -0.54056E+00   393   0.165E+00    0.255E+01
DAV:  50    -0.132162312298E+02    0.25664E+02   -0.45834E+00   306   0.569E+00    0.242E+01
DAV:  51     0.187183951540E+01    0.15088E+02   -0.13530E+00   348   0.335E+00    0.235E+01
DAV:  52    -0.805030046953E+01   -0.99221E+01   -0.39160E-01   321   0.199E+00    0.237E+01
DAV:  53    -0.639221166703E+01    0.16581E+01   -0.93476E-01   372   0.139E+00    0.238E+01
DAV:  54     0.395850083004E+01    0.10351E+02   -0.13853E+00   312   0.225E+00    0.234E+01
DAV:  55     0.567163540266E+01    0.17131E+01   -0.29153E-01   450   0.534E-01    0.232E+01
DAV:  56     0.501930218785E+01   -0.65233E+00   -0.17687E+00   408   0.528E-01    0.235E+01
DAV:  57     0.105414297937E+02    0.55221E+01   -0.81220E+01   429   0.576E+00BRMIX: very serious problems
 the old and the new charge density differ
 old charge density:    30.00052 new   30.00086
    0.758E+00
DAV:  58    -0.133278062068E+02   -0.23869E+02   -0.22868E+02   531   0.143E+01    0.158E+01
DAV:  59     0.852970091858E+00    0.14181E+02   -0.33515E+00   333   0.496E+00    0.130E+01
DAV:  60     0.754302116327E+01    0.66901E+01   -0.27723E+00   336   0.294E+00    0.152E+01
DAV:  61     0.104431004608E+02    0.29001E+01   -0.58677E+00   411   0.187E+00    0.113E+01
DAV:  62     0.855633928002E+01   -0.18868E+01   -0.62588E+00   456   0.260E+00    0.784E+00
DAV:  63     0.711396809204E+01   -0.14424E+01   -0.25737E+00   429   0.236E+00    0.135E+01
DAV:  64     0.239201037537E+01   -0.47220E+01   -0.83578E+01   453   0.288E+00    0.927E+00
DAV:  65     0.551066215237E+01    0.31187E+01   -0.11424E+01   441   0.654E+00    0.821E+00
DAV:  66     0.633093687499E+01    0.82027E+00   -0.27423E-01   432   0.125E+00    0.682E+00
DAV:  67     0.310728020121E+01   -0.32237E+01   -0.75373E+00   408   0.170E+00    0.143E+01
DAV:  68    -0.114451451463E+01   -0.42518E+01   -0.81495E+00   384   0.410E+00    0.164E+01
DAV:  69     0.275055723888E+01    0.38951E+01   -0.16302E+00   360   0.233E+00    0.161E+01
DAV:  70     0.324038924766E+01    0.48983E+00   -0.28613E+00   489   0.971E-01    0.189E+01
DAV:  71     0.466043961336E+01    0.14201E+01   -0.34602E+00   366   0.267E+00    0.188E+01
DAV:  72     0.515207996887E+01    0.49164E+00   -0.38620E-01   459   0.738E-01    0.190E+01
DAV:  73     0.668280847340E+01    0.15307E+01   -0.21640E+01   369   0.154E+00    0.156E+01
DAV:  74    -0.742013514524E+01   -0.14103E+02   -0.11257E+02   372   0.320E+00BRMIX: very serious problems
 the old and the new charge density differ
 old charge density:    30.00081 new   30.00045
    0.220E+01
DAV:  75     0.858949067235E+00    0.82791E+01   -0.11008E+00   342   0.314E+00    0.206E+01
DAV:  76     0.629451542503E+01    0.54356E+01   -0.20231E+01   336   0.201E+00BRMIX: very serious problems
 the old and the new charge density differ
 old charge density:    30.00046 new   30.00081
    0.153E+01
DAV:  77    -0.401756763012E+01   -0.10312E+02   -0.78232E+01   297   0.250E+00BRMIX: very serious problems
 the old and the new charge density differ
 old charge density:    30.00081 new   30.00044
    0.213E+01
DAV:  78     0.612438970235E+01    0.10142E+02   -0.87031E+00   294   0.321E+00BRMIX: very serious problems
 the old and the new charge density differ
 old charge density:    30.00044 new   30.00077
    0.935E+00
DAV:  79    -0.364323109494E+01   -0.97676E+01   -0.42454E+01   294   0.206E+00BRMIX: very serious problems
 the old and the new charge density differ
 old charge density:    30.00077 new   30.00046
    0.212E+01
DAV:  80     0.584297752076E+01    0.94862E+01   -0.87672E-01   306   0.270E+00    0.975E+00
DAV:  81    -0.250364333438E+01   -0.83466E+01   -0.39710E+00   327   0.242E+00    0.226E+01
DAV:  82     0.455499336591E+01    0.70586E+01   -0.47388E+01   303   0.427E+00BRMIX: very serious problems
 the old and the new charge density differ
 old charge density:    30.00040 new   30.00080
    0.157E+01
DAV:  83     0.267369560438E+01   -0.18813E+01   -0.34431E+01   294   0.211E+00BRMIX: very serious problems
 the old and the new charge density differ
 old charge density:    30.00080 new   30.00040
    0.219E+01
DAV:  84     0.572148684854E+01    0.30478E+01   -0.10874E-01   294   0.193E+00    0.201E+01
DAV:  85     0.391058482469E+01   -0.18109E+01   -0.61131E-02   372   0.723E-01    0.220E+01
DAV:  86     0.672532149983E+01    0.28147E+01   -0.73285E-02   330   0.759E-01    0.160E+01
DAV:  87     0.299464775435E+01   -0.37307E+01   -0.16598E-01   321   0.135E+00    0.221E+01
DAV:  88     0.699839060071E+01    0.40037E+01   -0.17976E-01   321   0.123E+00    0.216E+01
DAV:  89     0.923058648512E+01    0.22322E+01   -0.78393E-02   525   0.615E-01    0.182E+01
DAV:  90     0.985508950213E+01    0.62450E+00   -0.12537E+01   381   0.820E-01BRMIX: very serious problems
 the old and the new charge density differ
 old charge density:    30.00047 new   30.00082
    0.134E+01
DAV:  91     0.651460062983E+01   -0.33405E+01   -0.20584E-01   294   0.193E+00    0.152E+01
DAV:  92     0.329294645904E+01   -0.32217E+01   -0.17450E-01   312   0.125E+00    0.157E+01
DAV:  93     0.123691176456E+01   -0.20560E+01   -0.20555E+00   444   0.665E-01    0.156E+01
DAV:  94    -0.139623988097E+01   -0.26332E+01   -0.53547E+00   408   0.509E+00    0.157E+01
DAV:  95    -0.161581724626E+01   -0.21958E+00   -0.20320E-01   417   0.973E-01    0.157E+01
DAV:  96    -0.248309033776E+01   -0.86727E+00   -0.12732E-01   432   0.591E-01    0.154E+01
DAV:  97    -0.968328594385E+01   -0.72002E+01   -0.14841E+01   447   0.120E+00    0.187E+01
DAV:  98    -0.446262252646E+01    0.52207E+01   -0.20926E+01   369   0.543E+00    0.168E+01
DAV:  99    -0.895653927086E+00    0.35670E+01   -0.30491E-01   441   0.172E+00    0.159E+01
DAV: 100    -0.913417825690E+00   -0.17764E-01   -0.77168E-02   366   0.640E-01    0.129E+01
DAV: 101     0.119984760197E+01    0.21133E+01   -0.21081E+00   372   0.106E+00    0.155E+01
DAV: 102     0.172582172690E+01    0.52597E+00   -0.29079E-01   408   0.818E-01    0.154E+01
DAV: 103     0.350770047304E+01    0.17819E+01   -0.10409E-01   393   0.718E-01    0.152E+01
DAV: 104     0.462060925023E+01    0.11129E+01   -0.60321E-02   387   0.596E-01    0.145E+01
DAV: 105     0.589533197574E+01    0.12747E+01   -0.42621E-01   357   0.500E-01    0.125E+01
DAV: 106     0.103849166223E+02    0.44896E+01   -0.40938E+00   342   0.151E+00    0.146E+01
DAV: 107     0.105546856899E+02    0.16977E+00   -0.56226E-01   324   0.809E-01    0.122E+01
DAV: 108     0.138717281153E+02    0.33170E+01   -0.34932E+00   357   0.122E+00    0.138E+01
DAV: 109     0.134252449796E+02   -0.44648E+00   -0.18109E+00   384   0.115E+00    0.980E+00
DAV: 110     0.128676233420E+02   -0.55762E+00   -0.17365E+01   414   0.256E+00    0.848E+00
DAV: 111     0.105560597002E+02   -0.23116E+01   -0.91107E+00   465   0.379E+00    0.739E+00
DAV: 112     0.805531589411E+01   -0.25007E+01   -0.14913E+01   495   0.206E+00    0.875E+00
DAV: 113     0.650851649456E+01   -0.15468E+01   -0.20686E+01   429   0.905E+00    0.954E+00
DAV: 114     0.653683338262E+01    0.28317E-01   -0.12958E+00   531   0.193E+00    0.114E+01
DAV: 115     0.728255056027E+01    0.74572E+00   -0.15545E+00   468   0.170E+00    0.121E+01
DAV: 116     0.645996083128E+01   -0.82259E+00   -0.18682E+00   552   0.103E+00    0.135E+01
DAV: 117     0.474316063930E+01   -0.17168E+01   -0.33740E+00   501   0.147E+00    0.171E+01
DAV: 118     0.412837586000E+01   -0.61478E+00   -0.65243E+00   480   0.319E+00    0.190E+01
DAV: 119     0.430046935587E+01    0.17209E+00   -0.40498E+00   513   0.207E+00    0.211E+01
DAV: 120     0.501039148680E+01    0.70992E+00   -0.19170E+00   456   0.182E+00    0.217E+01
DAV: 121     0.538206990291E+01    0.37168E+00   -0.82487E-01   531   0.896E-01    0.222E+01
DAV: 122     0.473144589284E+01   -0.65062E+00   -0.32633E-01   480   0.807E-01    0.224E+01
DAV: 123     0.434693074996E+01   -0.38452E+00   -0.13606E-01   567   0.373E-01    0.225E+01
DAV: 124     0.665227228314E+01    0.23053E+01   -0.70459E-02   411   0.627E-01    0.223E+01
DAV: 125     0.902989605791E+01    0.23776E+01   -0.42806E-02   396   0.527E-01    0.140E+01
DAV: 126     0.937995646810E+01    0.35006E+00   -0.52663E+00   324   0.119E+00    0.105E+01
DAV: 127     0.939600741470E+01    0.16051E-01   -0.59266E+00   348   0.116E+00    0.158E+01
DAV: 128     0.972233807383E+01    0.32633E+00   -0.91841E+00   393   0.110E+00    0.121E+01
DAV: 129     0.988614748810E+01    0.16381E+00   -0.83669E+00   309   0.120E+00    0.175E+01
DAV: 130     0.104284566576E+02    0.54231E+00   -0.69477E-01   294   0.122E+00    0.828E+00
DAV: 131     0.107181392781E+02    0.28968E+00   -0.91768E-01   300   0.592E-01    0.507E+00
DAV: 132     0.104696255052E+02   -0.24851E+00   -0.10664E+00   303   0.572E-01    0.919E+00
DAV: 133     0.996525340978E+01   -0.50437E+00   -0.46525E-02   345   0.648E-01    0.180E+01
DAV: 134     0.951361092380E+01   -0.45164E+00   -0.41642E-02   405   0.735E-01    0.217E+01
DAV: 135     0.885555760302E+01   -0.65805E+00   -0.80761E-02   348   0.596E-01    0.219E+01
DAV: 136     0.890987369268E+01    0.54316E-01   -0.14616E-01   447   0.216E-01    0.220E+01
DAV: 137     0.103530515400E+02    0.14432E+01   -0.74214E-01   378   0.643E-01    0.203E+01
DAV: 138     0.106768393921E+02    0.32379E+00   -0.46325E+00   537   0.445E-01    0.128E+01
DAV: 139     0.937347464163E+01   -0.13034E+01   -0.56740E+00   381   0.408E+00    0.219E+01
DAV: 140     0.104607891790E+02    0.10873E+01   -0.62228E+00   420   0.135E+00    0.907E+00
DAV: 141     0.911718175410E+01   -0.13436E+01   -0.35267E+00   378   0.162E+00    0.220E+01
DAV: 142     0.107094969296E+02    0.15923E+01   -0.21081E+00   333   0.126E+00BRMIX: very serious problems
 the old and the new charge density differ
 old charge density:    30.00036 new   30.00068
    0.735E+00
DAV: 143     0.990099518309E+01   -0.80850E+00   -0.47236E+00   510   0.146E+00    0.882E+00
DAV: 144     0.678525731946E+01   -0.31157E+01   -0.31838E+00   363   0.984E-01    0.223E+01
DAV: 145     0.105109374951E+02    0.37257E+01   -0.91944E+00   378   0.164E+00BRMIX: very serious problems
 the old and the new charge density differ
 old charge density:    30.00035 new   30.00086
    0.598E+00
DAV: 146     0.668016448484E+01   -0.38308E+01   -0.14088E+01   417   0.192E+00BRMIX: very serious problems
 the old and the new charge density differ
 old charge density:    30.00086 new   30.00034
    0.223E+01
DAV: 147     0.775283120180E+01    0.10727E+01   -0.94908E-02   360   0.160E+00    0.220E+01
DAV: 148     0.786417919973E+01    0.11135E+00   -0.11823E-02   438   0.355E-01    0.220E+01
DAV: 149     0.995452848818E+01    0.20903E+01   -0.14156E+00   363   0.561E-01BRMIX: very serious problems
 the old and the new charge density differ
 old charge density:    30.00035 new   30.00067
    0.796E+00
DAV: 150     0.882752203379E+01   -0.11270E+01   -0.37482E-01   396   0.118E+00    0.166E+01
DAV: 151     0.916872827029E+01    0.34121E+00   -0.55076E-02   381   0.823E-01    0.202E+01
DAV: 152     0.107361867503E+02    0.15675E+01   -0.68869E-01   375   0.703E-01    0.849E+00
DAV: 153     0.101509005844E+02   -0.58529E+00   -0.50189E-02   393   0.815E-01    0.128E+01
DAV: 154     0.104671211434E+02    0.31622E+00   -0.93606E-03   387   0.375E-01    0.127E+01
DAV: 155     0.106822385511E+02    0.21512E+00   -0.24269E-02   444   0.156E-01    0.100E+01
DAV: 156     0.107704453682E+02    0.88207E-01   -0.45032E-02   459   0.312E-01    0.810E+00
DAV: 157     0.891811081720E+01   -0.18523E+01   -0.11310E+01   342   0.199E+00    0.129E+01
DAV: 158     0.713642870686E+01   -0.17817E+01   -0.84037E+00   477   0.315E+00    0.124E+01
DAV: 159     0.334333622647E+01   -0.37931E+01   -0.38949E+01   513   0.283E+00    0.151E+01
DAV: 160     0.139104173985E+01   -0.19523E+01   -0.15832E+01   411   0.754E+00    0.177E+01
DAV: 161    -0.161665494203E+01   -0.30077E+01   -0.14244E+01   474   0.473E+00    0.209E+01
DAV: 162    -0.116996348270E+02   -0.10083E+02   -0.15624E+01   426   0.440E+00    0.249E+01
DAV: 163    -0.110960507860E+02    0.60358E+00   -0.81243E+00   483   0.356E+00    0.259E+01
DAV: 164    -0.109752623151E+02    0.12079E+00   -0.11017E+00   483   0.153E+00    0.260E+01
DAV: 165    -0.106524735498E+02    0.32279E+00   -0.93969E-02   477   0.505E-01    0.259E+01
DAV: 166    -0.106017363110E+02    0.50737E-01   -0.15167E-02   441   0.145E-01    0.259E+01
DAV: 167     0.325764408639E+01    0.13859E+02   -0.95355E-01   315   0.222E+00    0.249E+01
DAV: 168     0.517434634897E+01    0.19167E+01   -0.40831E-02   459   0.477E-01    0.246E+01
DAV: 169     0.657027345951E+01    0.13959E+01   -0.20389E-02   381   0.305E-01    0.237E+01
DAV: 170     0.123702155738E+02    0.57999E+01   -0.75449E+00   336   0.109E+00    0.113E+01
DAV: 171     0.106800987760E+02   -0.16901E+01   -0.10216E-01   303   0.132E+00    0.143E+01
DAV: 172     0.950448138936E+01   -0.11756E+01   -0.68359E-02   294   0.876E-01    0.145E+01
DAV: 173     0.940843055196E+01   -0.96051E-01   -0.56321E-02   294   0.850E-01    0.145E+01
DAV: 174     0.909562052442E+01   -0.31281E+00   -0.22518E-01   441   0.203E-01    0.146E+01
DAV: 175     0.963882684118E+01    0.54321E+00   -0.20554E+00   357   0.279E+00    0.144E+01
DAV: 176     0.132013201041E+02    0.35625E+01   -0.11120E+01   393   0.238E+00    0.847E+00
DAV: 177     0.101659189179E+02   -0.30354E+01   -0.69997E+00   453   0.397E+00    0.856E+00
DAV: 178     0.943737118551E+01   -0.72855E+00   -0.33963E+00   474   0.113E+00    0.607E+00
DAV: 179     0.925294983486E+01   -0.18442E+00   -0.47491E+00   456   0.393E+00    0.598E+00
DAV: 180     0.971725391956E+01    0.46430E+00   -0.39662E+00   453   0.140E+00    0.139E+01
DAV: 181     0.851318692817E+01   -0.12041E+01   -0.20722E+00   462   0.832E-01    0.126E+01
DAV: 182     0.833744754275E+01   -0.17574E+00   -0.61315E-01   396   0.925E-01    0.126E+01
DAV: 183     0.652874322739E+01   -0.18087E+01   -0.50948E-01   453   0.818E-01    0.129E+01
DAV: 184     0.637911785916E+01   -0.14963E+00   -0.22107E+00   396   0.808E-01    0.153E+01
DAV: 185     0.632199724547E+01   -0.57121E-01   -0.17053E-01   447   0.598E-01    0.152E+01
DAV: 186     0.691643569065E+01    0.59444E+00   -0.76263E-02   486   0.463E-01    0.149E+01
DAV: 187     0.682760381618E+01   -0.88832E-01   -0.23295E-01   516   0.278E-01    0.153E+01
DAV: 188     0.720927536466E+01    0.38167E+00   -0.10737E-01   444   0.528E-01    0.150E+01
DAV: 189     0.714001290912E+01   -0.69262E-01   -0.47918E-02   534   0.295E-01    0.150E+01
DAV: 190     0.872623135287E+01    0.15862E+01   -0.95138E-02   432   0.724E-01    0.146E+01
DAV: 191     0.109306700667E+02    0.22044E+01   -0.79155E-02   405   0.777E-01    0.128E+01
DAV: 192     0.129382306599E+02    0.20076E+01   -0.34206E-01   438   0.842E-01    0.121E+01
DAV: 193     0.120144811792E+02   -0.92375E+00   -0.78657E+00   420   0.877E-01    0.504E+00
DAV: 194     0.959493789116E+01   -0.24195E+01   -0.12598E+01   390   0.719E+00    0.639E+00
DAV: 195     0.953592279021E+01   -0.59015E-01   -0.92511E-01   459   0.145E+00    0.479E+00
DAV: 196     0.961758013450E+01    0.81657E-01   -0.83972E-01   486   0.753E-01    0.475E+00
DAV: 197     0.944555518797E+01   -0.17202E+00   -0.52127E+00   360   0.149E+00    0.119E+01
DAV: 198     0.104265354168E+02    0.98098E+00   -0.22779E+00   387   0.893E-01    0.379E+00
DAV: 199     0.101780408119E+02   -0.24849E+00   -0.60463E-01   375   0.957E-01    0.536E+00
DAV: 200     0.102569768424E+02    0.78936E-01   -0.16046E+00   444   0.586E-01

 ----------------------------------------------------------------------------- 
|                                                                             |
|           W    W    AA    RRRRR   N    N  II  N    N   GGGG   !!!           |
|           W    W   A  A   R    R  NN   N  II  NN   N  G    G  !!!           |
|           W    W  A    A  R    R  N N  N  II  N N  N  G       !!!           |
|           W WW W  AAAAAA  RRRRR   N  N N  II  N  N N  G  GGG   !            |
|           WW  WW  A    A  R   R   N   NN  II  N   NN  G    G                |
|           W    W  A    A  R    R  N    N  II  N    N   GGGG   !!!           |
|                                                                             |
|      Your highest band is occupied at some k-points! Unless you are         |
|      performing a calculation for an insulator or semiconductor, without    |
|      unoccupied bands, you have included TOO FEW BANDS!! Please increase    |
|      the parameter NBANDS in file INCAR to ensure that the highest band     |
|      is unoccupied at all k-points. It is always recommended to             |
|      include a few unoccupied bands to accelerate the convergence of        |
|      molecular dynamics runs (even for insulators or semiconductors).       |
|      Because the presence of unoccupied bands improves wavefunction         |
|      prediction, and helps to suppress 'band-crossings.'                    |
|                                                                             |
 ----------------------------------------------------------------------------- 

   2 F= 0.10256977E+02 E0= 0.10483878E+02  d E =0.178516E+02
 trial-energy change:   17.851644  1 .order  -48.649223 -123.844964   26.546517
 step:   0.8235(harm=  0.8235)  dis= 0.00238  next Energy=   -58.586834 (dE=-0.510E+02)
 bond charge predicted
       N       E                     dE             d eps       ncg     rms          rms(c)
DAV:   1     0.417536665711E+01   -0.60027E+01   -0.54253E+01   306   0.338E+01BRMIX: very serious problems
 the old and the new charge density differ
 old charge density:    30.00079 new   30.00002
    0.104E+01
DAV:   2    -0.936512325668E+01   -0.13540E+02   -0.16258E+02   420   0.965E+00    0.178E+01
DAV:   3     0.645904152901E+01    0.15824E+02   -0.36858E+00   336   0.671E+00    0.118E+01
DAV:   4     0.703666670268E+01    0.57763E+00   -0.13351E+01   417   0.330E+00    0.826E+00
DAV:   5     0.224510251638E+01   -0.47916E+01   -0.43053E+01   438   0.374E+00    0.147E+01
DAV:   6     0.623434608569E+01    0.39892E+01   -0.42040E+01   324   0.119E+01    0.817E+00
DAV:   7     0.563252500106E+01   -0.60182E+00   -0.82570E+00   375   0.184E+00    0.101E+01
DAV:   8     0.343307901937E+01   -0.21994E+01   -0.36974E+01   414   0.400E+00    0.122E+01
DAV:   9     0.307783817057E+01   -0.35524E+00   -0.94124E+00   354   0.376E+00    0.151E+01
DAV:  10     0.692688906699E+01    0.38491E+01   -0.30381E+00   333   0.225E+00    0.482E+00
DAV:  11     0.642453013818E+01   -0.50236E+00   -0.38162E+00   519   0.117E+00    0.108E+01
DAV:  12     0.638293309719E+01   -0.41597E-01   -0.22169E+00   417   0.311E+00    0.109E+01
DAV:  13     0.630332181461E+01   -0.79611E-01   -0.13881E+00   579   0.965E-01    0.137E+01
DAV:  14     0.612698443730E+01   -0.17634E+00   -0.19207E+00   459   0.248E+00    0.144E+01
DAV:  15     0.646168481550E+01    0.33470E+00   -0.63518E-01   522   0.751E-01    0.139E+01
DAV:  16     0.606074568632E+01   -0.40094E+00   -0.58678E-01   468   0.141E+00    0.157E+01
DAV:  17     0.592383462815E+01   -0.13691E+00   -0.70131E-01   573   0.630E-01    0.173E+01
DAV:  18     0.663589000539E+01    0.71206E+00   -0.23846E+00   399   0.176E+00    0.131E+01
DAV:  19     0.688360283407E+01    0.24771E+00   -0.26668E-01   519   0.914E-01    0.126E+01
DAV:  20     0.707923878586E+01    0.19564E+00   -0.22114E-01   489   0.727E-01    0.118E+01
DAV:  21     0.723252130835E+01    0.15328E+00   -0.25173E-01   501   0.579E-01    0.109E+01
DAV:  22     0.730909830623E+01    0.76577E-01   -0.38252E-01   477   0.824E-01    0.100E+01
DAV:  23     0.725975409925E+01   -0.49344E-01   -0.15239E-01   489   0.601E-01    0.109E+01
DAV:  24     0.729050872616E+01    0.30755E-01   -0.10903E-01   507   0.389E-01    0.108E+01
DAV:  25     0.737633769153E+01    0.85829E-01   -0.25282E-01   444   0.386E-01    0.967E+00
DAV:  26     0.734176147078E+01   -0.34576E-01   -0.13547E-01   441   0.521E-01    0.973E+00
DAV:  27     0.730271640235E+01   -0.39045E-01   -0.18252E-01   453   0.533E-01    0.965E+00
DAV:  28     0.719526413874E+01   -0.10745E+00   -0.19668E-01   486   0.477E-01    0.101E+01
DAV:  29     0.721693632228E+01    0.21672E-01   -0.13242E-01   471   0.534E-01    0.101E+01
DAV:  30     0.728508737938E+01    0.68151E-01   -0.19501E-01   423   0.614E-01    0.901E+00
DAV:  31     0.720705299105E+01   -0.78034E-01   -0.14013E+00   396   0.556E-01    0.101E+01
DAV:  32     0.694576211696E+01   -0.26129E+00   -0.10333E-01   435   0.796E-01    0.124E+01
DAV:  33     0.686012635981E+01   -0.85636E-01   -0.53692E-02   408   0.662E-01    0.131E+01
DAV:  34     0.681571766056E+01   -0.44409E-01   -0.96228E-02   462   0.363E-01    0.137E+01
DAV:  35     0.682310971538E+01    0.73921E-02   -0.11300E-01   372   0.435E-01    0.136E+01
DAV:  36     0.676934667712E+01   -0.53763E-01   -0.77306E-02   369   0.301E-01    0.139E+01
DAV:  37     0.672777789407E+01   -0.41569E-01   -0.99777E-02   351   0.308E-01    0.142E+01
DAV:  38     0.668746666992E+01   -0.40311E-01   -0.13987E-01   354   0.345E-01    0.144E+01
DAV:  39     0.663860929110E+01   -0.48857E-01   -0.12466E-01   336   0.426E-01    0.147E+01
DAV:  40     0.659013012483E+01   -0.48479E-01   -0.13111E-01   372   0.274E-01    0.150E+01
DAV:  41     0.621163048001E+01   -0.37850E+00   -0.27614E-01   429   0.416E-01    0.174E+01
DAV:  42     0.644766750446E+01    0.23604E+00   -0.16172E-01   420   0.755E-01    0.157E+01
DAV:  43     0.637802977032E+01   -0.69638E-01   -0.83560E-02   429   0.357E-01    0.162E+01
DAV:  44     0.639790774286E+01    0.19878E-01   -0.88148E-02   411   0.395E-01    0.160E+01
DAV:  45     0.633525635930E+01   -0.62651E-01   -0.81624E-02   348   0.310E-01    0.165E+01
DAV:  46     0.636422813220E+01    0.28972E-01   -0.58939E-02   420   0.390E-01    0.162E+01
DAV:  47     0.691942507566E+01    0.55520E+00   -0.21104E+00   411   0.534E-01    0.760E+00
DAV:  48     0.716578777590E+01    0.24636E+00   -0.32920E-01   399   0.938E-01    0.719E+00
DAV:  49     0.730097629372E+01    0.13519E+00   -0.14344E-01   435   0.568E-01    0.769E+00
DAV:  50     0.734545169282E+01    0.44475E-01   -0.20723E-01   507   0.634E-01    0.778E+00
DAV:  51     0.735710387061E+01    0.11652E-01   -0.12052E-01   510   0.393E-01    0.762E+00
DAV:  52     0.675651712323E+01   -0.60059E+00   -0.20267E+00   405   0.922E-01    0.158E+01
DAV:  53     0.656532909978E+01   -0.19119E+00   -0.25654E-01   387   0.140E+00    0.109E+01
DAV:  54     0.665003135858E+01    0.84702E-01   -0.90235E-02   414   0.587E-01    0.986E+00
DAV:  55     0.665835487202E+01    0.83235E-02   -0.11677E-01   375   0.401E-01    0.975E+00
DAV:  56     0.670004769482E+01    0.41693E-01   -0.10015E-01   354   0.438E-01    0.944E+00
DAV:  57     0.673489638402E+01    0.34849E-01   -0.13783E+00   387   0.496E-01    0.101E+01
DAV:  58     0.706241232352E+01    0.32752E+00   -0.48929E-02   405   0.840E-01    0.104E+01
DAV:  59     0.707378193856E+01    0.11370E-01   -0.14980E-01   546   0.377E-01    0.117E+01
DAV:  60     0.706192665445E+01   -0.11855E-01   -0.30534E-01   435   0.695E-01    0.116E+01
DAV:  61     0.710724772103E+01    0.45321E-01   -0.48611E-02   405   0.400E-01    0.101E+01
DAV:  62     0.712457058137E+01    0.17323E-01   -0.43365E-02   426   0.372E-01    0.922E+00
DAV:  63     0.712256264665E+01   -0.20079E-02   -0.22902E-02   477   0.370E-01    0.923E+00
DAV:  64     0.715184876825E+01    0.29286E-01   -0.21499E-01   363   0.468E-01    0.781E+00
DAV:  65     0.698536681692E+01   -0.16648E+00   -0.54907E-02   297   0.673E-01    0.784E+00
DAV:  66     0.693448716472E+01   -0.50880E-01   -0.36922E-02   312   0.614E-01    0.769E+00
DAV:  67     0.710690385759E+01    0.17242E+00   -0.11477E-01   396   0.825E-01    0.114E+01
DAV:  68     0.738887096966E+01    0.28197E+00   -0.10506E+00   399   0.662E-01    0.966E+00
DAV:  69     0.733631936085E+01   -0.52552E-01   -0.10649E+00   447   0.773E-01    0.976E+00
DAV:  70     0.732724248546E+01   -0.90769E-02   -0.17982E+00   438   0.170E+00    0.966E+00
DAV:  71     0.709513354560E+01   -0.23211E+00   -0.31801E+00   501   0.151E+00    0.111E+01
DAV:  72     0.699388806028E+01   -0.10125E+00   -0.41117E+00   435   0.464E+00    0.130E+01
DAV:  73     0.725942852489E+01    0.26554E+00   -0.32119E-01   471   0.791E-01    0.142E+01
DAV:  74     0.738961707936E+01    0.13019E+00   -0.27184E-01   474   0.889E-01    0.145E+01
DAV:  75     0.739788720927E+01    0.82701E-02   -0.39400E-01   510   0.477E-01    0.158E+01
DAV:  76     0.736811031028E+01   -0.29777E-01   -0.10325E+00   420   0.149E+00    0.164E+01
DAV:  77     0.741074497693E+01    0.42635E-01   -0.34552E-01   564   0.574E-01    0.172E+01
DAV:  78     0.736666253065E+01   -0.44082E-01   -0.59784E-01   510   0.104E+00    0.175E+01
DAV:  79     0.739320380809E+01    0.26541E-01   -0.23023E-01   558   0.544E-01    0.178E+01
DAV:  80     0.739502739600E+01    0.18236E-02   -0.21562E-01   525   0.685E-01    0.181E+01
DAV:  81     0.737889820627E+01   -0.16129E-01   -0.36601E-01   540   0.464E-01    0.185E+01
DAV:  82     0.793846750575E+01    0.55957E+00   -0.69170E+00   444   0.216E+00    0.104E+01
DAV:  83     0.754692641161E+01   -0.39154E+00   -0.98971E-01   411   0.213E+00    0.790E+00
DAV:  84     0.726811417193E+01   -0.27881E+00   -0.11151E+00   450   0.193E+00    0.744E+00
DAV:  85     0.711776064541E+01   -0.15035E+00   -0.84074E-01   537   0.996E-01    0.844E+00
DAV:  86     0.704785977013E+01   -0.69901E-01   -0.12757E+00   498   0.195E+00    0.903E+00
DAV:  87     0.730230651200E+01    0.25445E+00   -0.46323E-01   405   0.160E+00    0.748E+00
DAV:  88     0.733049491031E+01    0.28188E-01   -0.21555E-01   519   0.764E-01    0.750E+00
DAV:  89     0.737116190120E+01    0.40667E-01   -0.16937E-01   531   0.669E-01    0.756E+00
DAV:  90     0.736576041123E+01   -0.54015E-02   -0.12413E-01   468   0.630E-01    0.737E+00
DAV:  91     0.734132548395E+01   -0.24435E-01   -0.14460E-01   513   0.531E-01    0.752E+00
DAV:  92     0.729772404898E+01   -0.43601E-01   -0.58134E-01   408   0.977E-01    0.921E+00
DAV:  93     0.730787764631E+01    0.10154E-01   -0.31517E-01   435   0.758E-01    0.844E+00
DAV:  94     0.728901033628E+01   -0.18867E-01   -0.18771E-01   507   0.782E-01    0.947E+00
DAV:  95     0.726655734400E+01   -0.22453E-01   -0.13173E-01   537   0.544E-01    0.101E+01
DAV:  96     0.728138512136E+01    0.14828E-01   -0.14130E-01   516   0.537E-01    0.105E+01
DAV:  97     0.720711769554E+01   -0.74267E-01   -0.23312E-01   510   0.524E-01    0.120E+01
DAV:  98     0.719193111791E+01   -0.15187E-01   -0.25243E-01   447   0.726E-01    0.126E+01
DAV:  99     0.722279103684E+01    0.30860E-01   -0.12756E-01   501   0.525E-01    0.127E+01
DAV: 100     0.715512053765E+01   -0.67670E-01   -0.11971E-01   435   0.541E-01    0.131E+01
DAV: 101     0.711144603970E+01   -0.43674E-01   -0.18412E-01   477   0.507E-01    0.138E+01
DAV: 102     0.697988575043E+01   -0.13156E+00   -0.25929E-01   459   0.785E-01    0.153E+01
DAV: 103     0.709708021990E+01    0.11719E+00   -0.11327E-01   504   0.574E-01    0.152E+01
DAV: 104     0.701464533892E+01   -0.82435E-01   -0.94272E-02   522   0.491E-01    0.157E+01
DAV: 105     0.714496893771E+01    0.13032E+00   -0.66425E-02   480   0.360E-01    0.152E+01
DAV: 106     0.708675654391E+01   -0.58212E-01   -0.92813E-02   543   0.456E-01    0.156E+01
DAV: 107     0.709601364803E+01    0.92571E-02   -0.10222E-01   498   0.329E-01    0.158E+01
DAV: 108     0.707117683396E+01   -0.24837E-01   -0.91439E-02   429   0.396E-01    0.158E+01
DAV: 109     0.696071549014E+01   -0.11046E+00   -0.12812E-01   516   0.283E-01    0.167E+01
DAV: 110     0.686146077437E+01   -0.99255E-01   -0.10754E-01   465   0.504E-01    0.172E+01
DAV: 111     0.671895044260E+01   -0.14251E+00   -0.15562E-01   429   0.458E-01    0.177E+01
DAV: 112     0.716184730395E+01    0.44290E+00   -0.44755E-01   378   0.839E-01    0.155E+01
DAV: 113     0.708615082738E+01   -0.75696E-01   -0.11196E-01   423   0.721E-01    0.157E+01
DAV: 114     0.710970800944E+01    0.23557E-01   -0.95972E-02   441   0.403E-01    0.156E+01
DAV: 115     0.711052817075E+01    0.82016E-03   -0.71830E-02   516   0.404E-01    0.158E+01
DAV: 116     0.713918173854E+01    0.28654E-01   -0.53264E-02   441   0.399E-01    0.157E+01
DAV: 117     0.734817584046E+01    0.20899E+00   -0.20395E-01   381   0.549E-01    0.146E+01
DAV: 118     0.732214712173E+01   -0.26029E-01   -0.23585E-02   537   0.354E-01    0.146E+01
DAV: 119     0.732887358270E+01    0.67265E-02   -0.18584E-02   465   0.217E-01    0.146E+01
DAV: 120     0.728929499194E+01   -0.39579E-01   -0.62077E-02   552   0.257E-01    0.150E+01
DAV: 121     0.726836430582E+01   -0.20931E-01   -0.67757E-02   447   0.378E-01    0.151E+01
DAV: 122     0.770348016246E+01    0.43512E+00   -0.29381E-01   393   0.587E-01    0.152E+01
DAV: 123     0.790484512595E+01    0.20136E+00   -0.18038E-01   444   0.594E-01    0.140E+01
DAV: 124     0.789252335897E+01   -0.12322E-01   -0.31603E-01   435   0.688E-01    0.135E+01
DAV: 125     0.771989686722E+01   -0.17263E+00   -0.63391E-01   543   0.702E-01    0.134E+01
DAV: 126     0.741077632408E+01   -0.30912E+00   -0.88713E-01   480   0.121E+00    0.140E+01
DAV: 127     0.760505523158E+01    0.19428E+00   -0.66051E-01   477   0.110E+00    0.120E+01
DAV: 128     0.728800039155E+01   -0.31705E+00   -0.14330E+00   477   0.167E+00    0.123E+01
DAV: 129     0.726463086120E+01   -0.23370E-01   -0.67736E-01   507   0.102E+00    0.121E+01
DAV: 130     0.711672766470E+01   -0.14790E+00   -0.10408E+00   522   0.118E+00    0.118E+01
DAV: 131     0.698433750650E+01   -0.13239E+00   -0.67284E-01   546   0.743E-01    0.119E+01
DAV: 132     0.765877768675E+01    0.67444E+00   -0.22287E+00   372   0.375E+00    0.730E+00
DAV: 133     0.737494824124E+01   -0.28383E+00   -0.96217E-01   489   0.108E+00    0.937E+00
DAV: 134     0.724655233217E+01   -0.12840E+00   -0.38118E-01   501   0.115E+00    0.103E+01
DAV: 135     0.714730404833E+01   -0.99248E-01   -0.53683E-01   558   0.719E-01    0.109E+01
DAV: 136     0.716310459665E+01    0.15801E-01   -0.44702E-01   438   0.180E+00    0.113E+01
DAV: 137     0.724072269103E+01    0.77618E-01   -0.66915E-02   468   0.463E-01    0.107E+01
DAV: 138     0.725240798551E+01    0.11685E-01   -0.71087E-02   495   0.308E-01    0.106E+01
DAV: 139     0.729928501561E+01    0.46877E-01   -0.55157E-02   456   0.341E-01    0.102E+01
DAV: 140     0.739091957026E+01    0.91635E-01   -0.30171E-02   387   0.397E-01    0.999E+00
DAV: 141     0.741159263174E+01    0.20673E-01   -0.12265E-02   441   0.195E-01    0.969E+00
DAV: 142     0.741213805883E+01    0.54543E-03   -0.10915E-01   438   0.496E-01    0.854E+00
DAV: 143     0.726744947442E+01   -0.14469E+00   -0.53191E-02   486   0.549E-01    0.835E+00
DAV: 144     0.727049761512E+01    0.30481E-02   -0.10553E-01   453   0.564E-01    0.684E+00
DAV: 145     0.717199696625E+01   -0.98501E-01   -0.14723E-01   522   0.722E-01    0.594E+00
DAV: 146     0.710425630096E+01   -0.67741E-01   -0.28060E-01   570   0.560E-01    0.514E+00
DAV: 147     0.703999843445E+01   -0.64258E-01   -0.40444E-01   483   0.116E+00    0.449E+00
DAV: 148     0.696375745716E+01   -0.76241E-01   -0.10955E-01   546   0.568E-01    0.444E+00
DAV: 149     0.693312851689E+01   -0.30629E-01   -0.14348E-01   531   0.648E-01    0.513E+00
DAV: 150     0.698368323968E+01    0.50555E-01   -0.15887E-01   519   0.602E-01    0.423E+00
DAV: 151     0.694132848993E+01   -0.42355E-01   -0.25603E-01   531   0.843E-01    0.420E+00
DAV: 152     0.694125629606E+01   -0.72194E-04   -0.91138E-02   429   0.671E-01    0.459E+00
DAV: 153     0.693451360871E+01   -0.67427E-02   -0.69271E-02   468   0.422E-01    0.523E+00
DAV: 154     0.696665644597E+01    0.32143E-01   -0.50983E-02   492   0.376E-01    0.511E+00
DAV: 155     0.697022757118E+01    0.35711E-02   -0.39927E-02   507   0.254E-01    0.562E+00
DAV: 156     0.698363338519E+01    0.13406E-01   -0.27472E-02   468   0.292E-01    0.551E+00
DAV: 157     0.693935936265E+01   -0.44274E-01   -0.13579E-01   510   0.327E-01    0.770E+00
DAV: 158     0.700955125853E+01    0.70192E-01   -0.51837E-02   426   0.454E-01    0.784E+00
DAV: 159     0.702511505479E+01    0.15564E-01   -0.32871E-02   378   0.171E-01    0.792E+00
DAV: 160     0.702033403524E+01   -0.47810E-02   -0.34047E-02   348   0.271E-01    0.795E+00
DAV: 161     0.703656121336E+01    0.16227E-01   -0.19421E-02   432   0.239E-01    0.785E+00
DAV: 162     0.682002240044E+01   -0.21654E+00   -0.29819E-01   462   0.634E-01    0.104E+01
DAV: 163     0.674051449583E+01   -0.79508E-01   -0.10732E-01   414   0.959E-01    0.997E+00
DAV: 164     0.669796479256E+01   -0.42550E-01   -0.14291E-01   570   0.272E-01    0.102E+01
DAV: 165     0.663557145321E+01   -0.62393E-01   -0.25671E-01   393   0.874E-01    0.999E+00
DAV: 166     0.662032370151E+01   -0.15248E-01   -0.99236E-02   570   0.257E-01    0.102E+01
DAV: 167     0.542238114319E+01   -0.11979E+01   -0.61307E-01   462   0.210E+00    0.141E+01
DAV: 168     0.543214837622E+01    0.97672E-02   -0.41778E-01   450   0.152E+00    0.144E+01
DAV: 169     0.543198619334E+01   -0.16218E-03   -0.49888E-01   585   0.876E-01    0.151E+01
DAV: 170     0.560644366601E+01    0.17446E+00   -0.44316E-01   459   0.120E+00    0.151E+01
DAV: 171     0.569802893160E+01    0.91585E-01   -0.27951E-01   567   0.537E-01    0.153E+01
DAV: 172     0.625727183526E+01    0.55924E+00   -0.23646E-01   414   0.104E+00    0.145E+01
DAV: 173     0.643177279199E+01    0.17450E+00   -0.15182E-01   513   0.453E-01    0.145E+01
DAV: 174     0.656449997076E+01    0.13273E+00   -0.11127E-01   471   0.603E-01    0.143E+01
DAV: 175     0.695831575375E+01    0.39382E+00   -0.70307E-02   423   0.558E-01    0.137E+01
DAV: 176     0.719518541573E+01    0.23687E+00   -0.54027E-02   396   0.599E-01    0.133E+01
DAV: 177     0.765755568410E+01    0.46237E+00   -0.12487E-01   408   0.928E-01    0.114E+01
DAV: 178     0.789301968088E+01    0.23546E+00   -0.23924E-01   405   0.108E+00    0.897E+00
DAV: 179     0.787996325392E+01   -0.13056E-01   -0.16601E+00   459   0.105E+00    0.324E+00
DAV: 180     0.712073811467E+01   -0.75923E+00   -0.43311E+00   495   0.350E+00    0.289E+00
DAV: 181     0.668944406116E+01   -0.43129E+00   -0.36695E+00   498   0.235E+00    0.544E+00
DAV: 182     0.614136999056E+01   -0.54807E+00   -0.47289E+00   504   0.271E+00    0.842E+00
DAV: 183     0.612112022345E+01   -0.20250E-01   -0.25981E+00   510   0.159E+00    0.102E+01
DAV: 184     0.621822259335E+01    0.97102E-01   -0.19965E+00   501   0.223E+00    0.102E+01
DAV: 185     0.647863084761E+01    0.26041E+00   -0.61859E-01   495   0.948E-01    0.998E+00
DAV: 186     0.679377435108E+01    0.31514E+00   -0.31527E-01   414   0.112E+00    0.928E+00
DAV: 187     0.696888213279E+01    0.17511E+00   -0.13235E-01   489   0.581E-01    0.850E+00
DAV: 188     0.703378509048E+01    0.64903E-01   -0.68284E-02   534   0.454E-01    0.828E+00
DAV: 189     0.707429229804E+01    0.40507E-01   -0.74479E-02   450   0.342E-01    0.799E+00
DAV: 190     0.702963537210E+01   -0.44657E-01   -0.79553E-02   453   0.495E-01    0.824E+00
DAV: 191     0.712640450062E+01    0.96769E-01   -0.99470E-02   360   0.708E-01    0.556E+00
DAV: 192     0.698135248565E+01   -0.14505E+00   -0.46600E-02   384   0.444E-01    0.591E+00
DAV: 193     0.701396391831E+01    0.32611E-01   -0.58455E-01   375   0.502E-01    0.305E+00
DAV: 194     0.681493041577E+01   -0.19903E+00   -0.37111E-02   402   0.560E-01    0.238E+00
DAV: 195     0.682531746256E+01    0.10387E-01   -0.59817E-02   414   0.304E-01    0.296E+00
DAV: 196     0.687208704350E+01    0.46770E-01   -0.24069E-02   420   0.243E-01    0.208E+00
DAV: 197     0.684127654916E+01   -0.30810E-01   -0.14748E-02   387   0.279E-01    0.156E+00
DAV: 198     0.681228360365E+01   -0.28993E-01   -0.85117E-03   432   0.203E-01    0.110E+00
DAV: 199     0.678334505381E+01   -0.28939E-01   -0.19818E-02   414   0.288E-01    0.120E+00
DAV: 200     0.674701761669E+01   -0.36327E-01   -0.92950E-02   447   0.309E-01

 ----------------------------------------------------------------------------- 
|                                                                             |
|           W    W    AA    RRRRR   N    N  II  N    N   GGGG   !!!           |
|           W    W   A  A   R    R  NN   N  II  NN   N  G    G  !!!           |
|           W    W  A    A  R    R  N N  N  II  N N  N  G       !!!           |
|           W WW W  AAAAAA  RRRRR   N  N N  II  N  N N  G  GGG   !            |
|           WW  WW  A    A  R   R   N   NN  II  N   NN  G    G                |
|           W    W  A    A  R    R  N    N  II  N    N   GGGG   !!!           |
|                                                                             |
|      Your highest band is occupied at some k-points! Unless you are         |
|      performing a calculation for an insulator or semiconductor, without    |
|      unoccupied bands, you have included TOO FEW BANDS!! Please increase    |
|      the parameter NBANDS in file INCAR to ensure that the highest band     |
|      is unoccupied at all k-points. It is always recommended to             |
|      include a few unoccupied bands to accelerate the convergence of        |
|      molecular dynamics runs (even for insulators or semiconductors).       |
|      Because the presence of unoccupied bands improves wavefunction         |
|      prediction, and helps to suppress 'band-crossings.'                    |
|                                                                             |
 ----------------------------------------------------------------------------- 

   3 F= 0.67470176E+01 E0= 0.71028054E+01  d E =0.143417E+02
 curvature:  -0.41 expect dE=-0.224E+01 dE for cont linesearch -0.219E+01
 ZBRENT: interpolating
 opt :   0.6822  next Energy=     4.936522 (dE= 0.125E+02)
 bond charge predicted
       N       E                     dE             d eps       ncg     rms          rms(c)
DAV:   1     0.259674950896E+01   -0.41866E+01   -0.40483E+01   294   0.295E+01    0.808E+00
DAV:   2    -0.150631016039E+00   -0.27474E+01   -0.45845E+01   483   0.852E+00    0.156E+01
DAV:   3    -0.423731436089E+01   -0.40867E+01   -0.51651E+01   426   0.485E+00    0.185E+01
DAV:   4     0.364635767610E+01    0.78837E+01   -0.80342E+00   381   0.653E+00    0.165E+01
DAV:   5    -0.342013363274E+01   -0.70665E+01   -0.16162E+02   489   0.643E+00    0.143E+01
DAV:   6    -0.633638008238E+01   -0.29162E+01   -0.43569E+01   480   0.468E+00    0.139E+01
DAV:   7    -0.303782235593E+01    0.32986E+01   -0.12106E+01   402   0.685E+00    0.141E+01
DAV:   8    -0.301333663982E+01    0.24486E-01   -0.11536E+01   540   0.250E+00    0.196E+01
DAV:   9    -0.386815320180E+01   -0.85482E+00   -0.91301E+00   453   0.537E+00    0.203E+01
DAV:  10    -0.534992272259E+01   -0.14818E+01   -0.45488E+00   576   0.202E+00    0.229E+01
DAV:  11    -0.156560359358E+01    0.37843E+01   -0.28120E+00   381   0.284E+00    0.227E+01
DAV:  12    -0.201433571165E+01   -0.44873E+00   -0.62812E-01   453   0.842E-01    0.235E+01
DAV:  13     0.643688489944E+00    0.26580E+01   -0.13948E+01   393   0.153E+00    0.142E+01
DAV:  14     0.865057938285E+00    0.22137E+00   -0.41459E-01   477   0.106E+00    0.147E+01
DAV:  15     0.560042283616E+01    0.47354E+01   -0.18509E+00   339   0.286E+00    0.119E+01
DAV:  16     0.588597805145E+01    0.28556E+00   -0.80557E-01   480   0.113E+00    0.151E+01
DAV:  17     0.595226009198E+01    0.66282E-01   -0.13314E+00   432   0.936E-01    0.109E+01
DAV:  18     0.548422963880E+01   -0.46803E+00   -0.45166E+00   528   0.227E+00    0.844E+00
DAV:  19     0.540874179513E+01   -0.75488E-01   -0.29088E+00   504   0.280E+00    0.612E+00
DAV:  20     0.447978164430E+01   -0.92896E+00   -0.78597E+00   528   0.155E+00    0.879E+00
DAV:  21     0.435786256681E+01   -0.12192E+00   -0.56082E+00   465   0.530E+00    0.954E+00
DAV:  22     0.472011305310E+01    0.36225E+00   -0.50908E-01   453   0.128E+00    0.647E+00
DAV:  23     0.455180986032E+01   -0.16830E+00   -0.66034E-01   528   0.954E-01    0.943E+00
DAV:  24     0.446367398663E+01   -0.88136E-01   -0.23950E-01   462   0.122E+00    0.943E+00
DAV:  25     0.455049572010E+01    0.86822E-01   -0.45848E-02   531   0.449E-01    0.775E+00
DAV:  26     0.451261462788E+01   -0.37881E-01   -0.53539E-02   534   0.356E-01    0.879E+00
DAV:  27     0.450021277059E+01   -0.12402E-01   -0.77104E-02   546   0.319E-01    0.915E+00
DAV:  28     0.464150164572E+01    0.14129E+00   -0.63408E-02   465   0.578E-01    0.610E+00
DAV:  29     0.462658770793E+01   -0.14914E-01   -0.11148E-01   507   0.498E-01    0.542E+00
DAV:  30     0.465028620246E+01    0.23698E-01   -0.62411E-02   501   0.464E-01    0.526E+00
DAV:  31     0.456795764527E+01   -0.82329E-01   -0.26680E-01   534   0.447E-01    0.810E+00
DAV:  32     0.446562246836E+01   -0.10234E+00   -0.23388E-01   504   0.795E-01    0.102E+01
DAV:  33     0.446789769123E+01    0.22752E-02   -0.18584E-01   543   0.556E-01    0.104E+01
DAV:  34     0.392649564205E+01   -0.54140E+00   -0.66158E-01   507   0.885E-01    0.151E+01
DAV:  35     0.362235098469E+01   -0.30414E+00   -0.12865E+00   522   0.107E+00    0.183E+01
DAV:  36     0.456243536535E+01    0.94008E+00   -0.17315E+00   417   0.190E+00    0.786E+00
DAV:  37     0.426362577549E+01   -0.29881E+00   -0.53775E-01   453   0.100E+00    0.124E+01
DAV:  38     0.439800102969E+01    0.13438E+00   -0.11710E-01   435   0.618E-01    0.947E+00
DAV:  39     0.440247727745E+01    0.44762E-02   -0.13328E-01   462   0.543E-01    0.897E+00
DAV:  40     0.439646804721E+01   -0.60092E-02   -0.86810E-02   411   0.375E-01    0.824E+00
DAV:  41     0.436129946267E+01   -0.35169E-01   -0.86268E-02   441   0.362E-01    0.922E+00
DAV:  42     0.436960037918E+01    0.83009E-02   -0.49765E-02   438   0.321E-01    0.889E+00
DAV:  43     0.439738004280E+01    0.27780E-01   -0.27626E-02   420   0.249E-01    0.874E+00
DAV:  44     0.435753952115E+01   -0.39841E-01   -0.23882E-02   468   0.235E-01    0.912E+00
DAV:  45     0.437422196443E+01    0.16682E-01   -0.24697E-02   408   0.210E-01    0.954E+00
DAV:  46     0.438575496764E+01    0.11533E-01   -0.23138E-02   396   0.240E-01    0.915E+00
DAV:  47     0.437569412661E+01   -0.10061E-01   -0.84254E-02   444   0.245E-01    0.762E+00
DAV:  48     0.425856122976E+01   -0.11713E+00   -0.82447E-02   513   0.262E-01    0.102E+01
DAV:  49     0.426948223312E+01    0.10921E-01   -0.21243E-02   426   0.317E-01    0.953E+00
DAV:  50     0.420809120961E+01   -0.61391E-01   -0.16149E-02   495   0.159E-01    0.960E+00
DAV:  51     0.412481144556E+01   -0.83280E-01   -0.15662E-02   432   0.234E-01    0.101E+01
DAV:  52     0.384174755957E+01   -0.28306E+00   -0.90986E-02   468   0.275E-01    0.137E+01
DAV:  53     0.391523591275E+01    0.73488E-01   -0.11695E-01   396   0.708E-01    0.918E+00
DAV:  54     0.374827324967E+01   -0.16696E+00   -0.34901E-02   480   0.418E-01    0.102E+01
DAV:  55     0.407694801058E+01    0.32867E+00   -0.19894E-02   405   0.379E-01    0.927E+00
DAV:  56     0.452010535523E+01    0.44316E+00   -0.14127E-02   387   0.304E-01    0.821E+00
DAV:  57     0.327701418247E+01   -0.12431E+01   -0.51682E+00   474   0.155E+00    0.156E+01
DAV:  58     0.174164902211E+01   -0.15354E+01   -0.68299E-01   411   0.138E+00    0.155E+01
DAV:  59    -0.136709704938E+00   -0.18784E+01   -0.52091E-01   510   0.125E+00    0.156E+01
DAV:  60    -0.510887982085E+00   -0.37418E+00   -0.43052E-01   498   0.828E-01    0.154E+01
DAV:  61    -0.194411224375E-01    0.49145E+00   -0.36255E-01   411   0.146E+00    0.154E+01
DAV:  62    -0.211817522564E+01   -0.20987E+01   -0.49169E-01   462   0.117E+00    0.161E+01
DAV:  63    -0.185445603134E+01    0.26372E+00   -0.10211E-01   384   0.102E+00    0.164E+01
DAV:  64    -0.209412911660E+01   -0.23967E+00   -0.23612E-01   381   0.140E+00    0.171E+01
DAV:  65    -0.218619584958E+01   -0.92067E-01   -0.13842E-01   372   0.114E+00    0.184E+01
DAV:  66    -0.199968263797E+01    0.18651E+00   -0.43110E-02   363   0.667E-01    0.184E+01
DAV:  67    -0.340753461763E+01   -0.14079E+01   -0.13695E-01   426   0.564E-01    0.195E+01
DAV:  68    -0.325799590841E+01    0.14954E+00   -0.50777E-02   360   0.578E-01    0.197E+01
DAV:  69    -0.322322749268E+01    0.34768E-01   -0.13329E-01   384   0.938E-01    0.190E+01
DAV:  70    -0.346736414254E+01   -0.24414E+00   -0.99411E-02   375   0.980E-01    0.178E+01
DAV:  71    -0.363529124512E+01   -0.16793E+00   -0.31506E-02   357   0.710E-01    0.169E+01
DAV:  72    -0.876165500600E+01   -0.51264E+01   -0.91115E+00   357   0.606E+00    0.218E+01
DAV:  73    -0.829530450947E+01    0.46635E+00   -0.17702E+00   345   0.220E+00    0.218E+01
DAV:  74    -0.123920974842E+02   -0.40968E+01   -0.11591E+01   477   0.110E+00    0.196E+01
DAV:  75    -0.244200000852E+01    0.99501E+01   -0.18792E+01   318   0.733E+00    0.164E+01
DAV:  76     0.521141781429E+01    0.76534E+01   -0.35237E+00   372   0.349E+00    0.139E+01
DAV:  77     0.837873940423E+01    0.31673E+01   -0.29352E+01   441   0.415E+00    0.154E+01
DAV:  78     0.876758363562E+01    0.38884E+00   -0.62653E+00   333   0.339E+00    0.140E+01
DAV:  79     0.747053929336E+01   -0.12970E+01   -0.17813E+00   372   0.145E+00    0.125E+01
DAV:  80     0.726136862420E+01   -0.20917E+00   -0.76401E-01   378   0.110E+00    0.124E+01
DAV:  81     0.696348966167E+01   -0.29788E+00   -0.33727E-01   369   0.722E-01    0.120E+01
DAV:  82     0.646076950398E+01   -0.50272E+00   -0.46283E-01   444   0.938E-01    0.123E+01
DAV:  83     0.662493192308E+01    0.16416E+00   -0.11192E+00   387   0.145E+00    0.127E+01
DAV:  84     0.686044047945E+01    0.23551E+00   -0.39982E+00   453   0.127E+00    0.133E+01
DAV:  85     0.612706380544E+01   -0.73338E+00   -0.96847E+00   423   0.179E+00    0.101E+01
DAV:  86    -0.299283527422E+01   -0.91199E+01   -0.60650E+01   525   0.437E+00    0.225E+01
DAV:  87    -0.356853145420E+01   -0.57570E+00   -0.30606E+01   423   0.162E+01    0.234E+01
DAV:  88     0.793441825990E+00    0.43620E+01   -0.12185E+00   444   0.332E+00    0.228E+01
DAV:  89     0.468304280404E+01    0.38896E+01   -0.13623E+01   351   0.179E+00    0.152E+01
DAV:  90     0.594626495466E+01    0.12632E+01   -0.38686E+00   378   0.257E+00    0.130E+01
DAV:  91     0.341352694874E+01   -0.25327E+01   -0.36444E-01   372   0.190E+00    0.216E+01
DAV:  92     0.347903035092E+01    0.65503E-01   -0.22552E+01   381   0.168E+00    0.186E+01
DAV:  93     0.255848541109E+01   -0.92054E+00   -0.55468E+00   399   0.348E+00    0.172E+01
DAV:  94    -0.399083491052E+00   -0.29576E+01   -0.21917E+01   420   0.560E+00    0.155E+01
DAV:  95    -0.353075596515E+00    0.46008E-01   -0.71462E+00   444   0.503E+00    0.149E+01
DAV:  96    -0.900127069855E+00   -0.54705E+00   -0.39864E+00   543   0.299E+00    0.162E+01
DAV:  97     0.290396243037E+01    0.38041E+01   -0.26105E+01   432   0.440E+00    0.164E+01
DAV:  98     0.224080613011E+01   -0.66316E+00   -0.26209E+00   465   0.252E+00    0.133E+01
DAV:  99    -0.576917966650E+00   -0.28177E+01   -0.41215E+00   462   0.310E+00    0.100E+01
DAV: 100    -0.399187991682E+01   -0.34150E+01   -0.21523E+01   519   0.412E+00    0.996E+00
DAV: 101    -0.422782261450E+01   -0.23594E+00   -0.10073E+01   450   0.590E+00    0.112E+01
DAV: 102     0.389066526881E+00    0.46169E+01   -0.69790E+00   387   0.369E+00    0.155E+01
DAV: 103     0.883619244978E-01   -0.30070E+00   -0.12427E+00   498   0.149E+00    0.159E+01
DAV: 104    -0.156104964351E+01   -0.16494E+01   -0.26489E-01   504   0.119E+00    0.159E+01
DAV: 105    -0.318093971322E+01   -0.16199E+01   -0.30542E-01   459   0.868E-01    0.162E+01
DAV: 106    -0.425261512675E+01   -0.10717E+01   -0.17496E-01   429   0.665E-01    0.164E+01
DAV: 107    -0.544434478381E+01   -0.11917E+01   -0.14078E-01   507   0.562E-01    0.165E+01
DAV: 108    -0.552991479018E+01   -0.85570E-01   -0.10337E-01   414   0.707E-01    0.164E+01
DAV: 109    -0.601230235792E+01   -0.48239E+00   -0.12554E-01   438   0.331E-01    0.165E+01
DAV: 110    -0.598607985660E+01    0.26223E-01   -0.21558E-02   342   0.199E-01    0.165E+01
DAV: 111    -0.567411536149E+01    0.31196E+00   -0.72031E-03   387   0.182E-01    0.165E+01
DAV: 112    -0.589897197282E+01   -0.22486E+00   -0.25893E-02   372   0.400E-01    0.165E+01
DAV: 113    -0.522438144782E+01    0.67459E+00   -0.83298E-03   339   0.396E-01    0.165E+01
DAV: 114    -0.519336084436E+01    0.31021E-01   -0.95687E-04   336   0.208E-01    0.165E+01
DAV: 115    -0.511188669168E+01    0.81474E-01   -0.11530E-03   360   0.116E-01    0.166E+01
DAV: 116    -0.517297077218E+01   -0.61084E-01   -0.59207E-04   336   0.140E-01    0.167E+01
DAV: 117    -0.815568828398E+00    0.43574E+01   -0.37532E-01   294   0.157E+00    0.167E+01
DAV: 118    -0.128260023447E+01   -0.46703E+00   -0.15817E-02   294   0.865E-01    0.170E+01
DAV: 119    -0.158031901267E+01   -0.29772E+00   -0.13485E-02   306   0.512E-01    0.170E+01
DAV: 120    -0.183206189977E+01   -0.25174E+00   -0.17086E-03   459   0.170E-01    0.171E+01
DAV: 121    -0.192923836972E+01   -0.97176E-01   -0.38031E-03   309   0.202E-01    0.170E+01
DAV: 122    -0.858698039672E+00    0.10705E+01   -0.30848E-02   294   0.507E-01    0.175E+01
DAV: 123    -0.866725612304E+00   -0.80276E-02   -0.33651E-03   306   0.353E-01    0.178E+01
DAV: 124    -0.100620905674E+01   -0.13948E+00   -0.43503E-03   306   0.242E-01    0.176E+01
DAV: 125    -0.137043530118E+01   -0.36423E+00   -0.17872E-02   357   0.373E-01    0.173E+01
DAV: 126    -0.168128125767E+01   -0.31085E+00   -0.11323E-01   294   0.880E-01    0.168E+01
DAV: 127    -0.210535121297E+01   -0.42407E+00   -0.24138E-01   357   0.125E+00    0.165E+01
DAV: 128    -0.200989587097E+01    0.95455E-01   -0.26872E-01   360   0.140E+00    0.160E+01
DAV: 129    -0.177507750565E+01    0.23482E+00   -0.13582E-01   378   0.100E+00    0.158E+01
DAV: 130    -0.914254844491E+01   -0.73675E+01   -0.34784E+01   417   0.746E-01    0.141E+01
DAV: 131    -0.101146118558E+02   -0.97206E+00   -0.66405E+01   351   0.153E+01    0.150E+01
DAV: 132    -0.137896981129E+02   -0.36751E+01   -0.20470E+01   366   0.606E+00    0.176E+01
DAV: 133    -0.116044220155E+02    0.21853E+01   -0.14552E+01   420   0.438E+00    0.185E+01
DAV: 134    -0.158738344568E+02   -0.42694E+01   -0.17193E+01   414   0.365E+00    0.214E+01
DAV: 135    -0.237231725902E+02   -0.78493E+01   -0.14128E+01   327   0.450E+00    0.244E+01
DAV: 136    -0.234238678427E+02    0.29930E+00   -0.99721E+00   393   0.342E+00    0.255E+01
DAV: 137    -0.829039128352E+02   -0.59480E+02   -0.19749E+01   294   0.110E+01    0.302E+01
DAV: 138    -0.870232693403E+02   -0.41194E+01   -0.12780E+01   357   0.164E+00    0.319E+01
DAV: 139    -0.865015052816E+02    0.52176E+00   -0.40581E+00   378   0.185E+00    0.320E+01
DAV: 140    -0.893116525000E+02   -0.28101E+01   -0.15311E-01   339   0.799E-01    0.323E+01
DAV: 141    -0.894688322896E+02   -0.15718E+00   -0.82948E-03   384   0.242E-01    0.323E+01
DAV: 142    -0.884783123745E+02    0.99052E+00   -0.13231E-01   315   0.124E+00    0.324E+01
DAV: 143    -0.658563489885E+02    0.22622E+02   -0.13713E+00   306   0.329E+00    0.310E+01
DAV: 144    -0.485871388817E+02    0.17269E+02   -0.83761E-01   315   0.255E+00    0.300E+01
DAV: 145    -0.381142363700E+02    0.10473E+02   -0.54969E-01   294   0.228E+00    0.291E+01
DAV: 146    -0.381770252152E+02   -0.62789E-01   -0.45635E-02   441   0.361E-01    0.291E+01
DAV: 147    -0.254298679794E+03   -0.21612E+03   -0.48490E+03   402   0.626E+01    0.320E+01
DAV: 148    -0.222016474056E+03    0.32282E+02   -0.32072E+02   390   0.438E+01    0.336E+01
DAV: 149    -0.255498889402E+03   -0.33482E+02   -0.41517E+02   444   0.137E+01    0.388E+01
DAV: 150    -0.180852193301E+03    0.74647E+02   -0.34433E+01   336   0.169E+01    0.373E+01
DAV: 151    -0.114074528481E+03    0.66778E+02   -0.28133E+01   336   0.817E+00    0.343E+01
DAV: 152    -0.586931762720E+02    0.55381E+02   -0.13045E+01   315   0.739E+00    0.314E+01
DAV: 153    -0.225567106258E+02    0.36136E+02   -0.32665E+00   327   0.525E+00    0.288E+01
DAV: 154     0.474744908331E+01    0.27304E+02   -0.15457E+02   306   0.105E+01    0.210E+01
DAV: 155    -0.678305986549E+00   -0.54258E+01   -0.93013E+00   294   0.547E+00    0.174E+01
DAV: 156     0.312061134214E+01    0.37989E+01   -0.26675E+01   294   0.676E+00    0.204E+01
DAV: 157    -0.114400719915E+01   -0.42646E+01   -0.30229E+01   477   0.311E+00    0.197E+01
DAV: 158    -0.261880394148E+02   -0.25044E+02   -0.16818E+02   417   0.463E+00    0.170E+01
DAV: 159    -0.378068917663E+02   -0.11619E+02   -0.15245E+02   462   0.126E+01    0.178E+01
DAV: 160    -0.557533265401E+02   -0.17946E+02   -0.15156E+02   390   0.221E+01    0.253E+01
DAV: 161    -0.687260510852E+02   -0.12973E+02   -0.55371E+01   339   0.126E+01    0.287E+01
DAV: 162    -0.584498678066E+02    0.10276E+02   -0.99175E+00   330   0.515E+00    0.285E+01
DAV: 163    -0.586676515140E+02   -0.21778E+00   -0.20441E+00   468   0.130E+00    0.296E+01
DAV: 164    -0.704014565188E+02   -0.11734E+02   -0.14095E+01   342   0.397E+00    0.306E+01
DAV: 165    -0.745565551808E+02   -0.41551E+01   -0.10769E+00   414   0.128E+00    0.310E+01
DAV: 166    -0.605231735774E+02    0.14033E+02   -0.77133E-01   351   0.250E+00    0.300E+01
DAV: 167    -0.594082597091E+02    0.11149E+01   -0.10085E-01   411   0.120E+00    0.297E+01
DAV: 168    -0.643547809996E+02   -0.49465E+01   -0.12056E-01   357   0.983E-01    0.301E+01
DAV: 169    -0.619004242905E+02    0.24544E+01   -0.47053E-02   372   0.703E-01    0.299E+01
DAV: 170    -0.420601147801E+02    0.19840E+02   -0.15131E+00   300   0.316E+00    0.285E+01
DAV: 171    -0.283745503922E+02    0.13686E+02   -0.76576E-01   315   0.215E+00    0.274E+01
DAV: 172    -0.128256590356E+02    0.15549E+02   -0.22439E+02   294   0.958E+00    0.182E+01
DAV: 173    -0.543289661481E+01    0.73928E+01   -0.16596E+00   441   0.379E+00    0.172E+01
DAV: 174     0.162092324787E+01    0.70538E+01   -0.86059E+00   354   0.559E+00    0.243E+01
DAV: 175     0.497953805604E+01    0.33586E+01   -0.94161E+01   471   0.545E+00    0.122E+01
DAV: 176    -0.847244463066E+01   -0.13452E+02   -0.94731E+01   471   0.133E+01    0.141E+01
DAV: 177    -0.390496324731E+01    0.45675E+01   -0.14046E+02   405   0.154E+01    0.160E+01
DAV: 178    -0.136723639900E+02   -0.97674E+01   -0.33371E+01   468   0.380E+00    0.155E+01
DAV: 179     0.147637145460E+01    0.15149E+02   -0.20352E+01   396   0.108E+01    0.155E+01
DAV: 180     0.516006286853E+01    0.36837E+01   -0.10122E+01   456   0.333E+00    0.123E+01
DAV: 181     0.498010814874E+01   -0.17995E+00   -0.22876E+00   456   0.243E+00    0.110E+01
DAV: 182    -0.249391121411E+01   -0.74740E+01   -0.45167E+01   459   0.375E+00    0.121E+01
DAV: 183     0.748444615070E+00    0.32424E+01   -0.11373E+01   381   0.676E+00    0.118E+01
DAV: 184    -0.483128276005E+01   -0.55797E+01   -0.18364E+01   501   0.310E+00    0.183E+01
DAV: 185    -0.352011354866E+00    0.44793E+01   -0.32971E+00   402   0.366E+00    0.178E+01
DAV: 186    -0.196783701585E+01   -0.16158E+01   -0.69142E-01   498   0.151E+00    0.193E+01
DAV: 187    -0.757771439692E+00    0.12101E+01   -0.11472E+02   411   0.576E+00    0.149E+01
DAV: 188    -0.260749276610E+02   -0.25317E+02   -0.15737E+02   534   0.537E+00    0.149E+01
DAV: 189    -0.505781140202E+02   -0.24503E+02   -0.13891E+02   363   0.150E+01    0.250E+01
DAV: 190    -0.372909084947E+02    0.13287E+02   -0.68390E+01   366   0.192E+01    0.275E+01
DAV: 191    -0.255615560279E+02    0.11729E+02   -0.95333E+00   396   0.618E+00    0.279E+01
DAV: 192    -0.140886027900E+02    0.11473E+02   -0.37682E+00   408   0.337E+00    0.271E+01
DAV: 193    -0.970965554341E+01    0.43789E+01   -0.29365E-01   405   0.120E+00    0.268E+01
DAV: 194    -0.600595412525E+01    0.37037E+01   -0.10650E-01   390   0.840E-01    0.265E+01
DAV: 195    -0.588431696133E+01    0.12164E+00   -0.18625E-02   549   0.272E-01    0.265E+01
DAV: 196    -0.106057862043E+02   -0.47215E+01   -0.85436E-02   348   0.770E-01    0.269E+01
DAV: 197     0.865122678001E+01    0.19257E+02   -0.37688E+01   327   0.436E+00    0.134E+01
DAV: 198     0.112500155801E+02    0.25988E+01   -0.32318E+01   366   0.457E+00    0.925E+00
DAV: 199    -0.859057677330E+01   -0.19841E+02   -0.20277E+02   474   0.570E+00    0.140E+01
DAV: 200     0.125207686820E+01    0.98427E+01   -0.35889E+01   348   0.172E+01
   4 F= 0.12520769E+01 E0= 0.13056816E+01  d E =0.884674E+01
 curvature:  -0.34 expect dE=-0.999E+01 dE for cont linesearch -0.982E+01
 ZBRENT: interpolating
 opt :   0.7811  next Energy=     6.203152 (dE= 0.138E+02)
 bond charge predicted
       N       E                     dE             d eps       ncg     rms          rms(c)
DAV:   1    -0.101053603065E+02   -0.15148E+01   -0.15452E+02   402   0.204E+01    0.170E+01
DAV:   2    -0.395567704557E+01    0.61497E+01   -0.13001E+02   354   0.140E+01    0.119E+01
DAV:   3    -0.496736985775E+00    0.34589E+01   -0.30072E+01   363   0.781E+00    0.124E+01
DAV:   4     0.381407494423E+01    0.43108E+01   -0.81466E+00   351   0.623E+00    0.106E+01
DAV:   5    -0.807448939829E+01   -0.11889E+02   -0.11137E+02   357   0.747E+00    0.166E+01
DAV:   6    -0.744507151364E+01    0.62942E+00   -0.12503E+01   378   0.304E+00    0.149E+01
DAV:   7    -0.327750890423E+01    0.41676E+01   -0.14631E+01   363   0.329E+00    0.160E+01
DAV:   8     0.352094333190E+01    0.67985E+01   -0.20945E+00   330   0.298E+00    0.119E+01
DAV:   9     0.497638362782E+01    0.14554E+01   -0.79023E-02   387   0.855E-01    0.117E+01
DAV:  10     0.575194100880E+01    0.77556E+00   -0.33448E-02   462   0.281E-01    0.113E+01
DAV:  11     0.664240534889E+01    0.89046E+00   -0.16095E+00   393   0.656E-01    0.519E+00
DAV:  12     0.581986782395E+01   -0.82254E+00   -0.90105E+00   468   0.932E-01    0.666E+00
DAV:  13     0.421158769205E+01   -0.16083E+01   -0.12156E+01   504   0.466E+00    0.991E+00
DAV:  14     0.430210012519E+01    0.90512E-01   -0.62363E+00   441   0.370E+00    0.118E+01
DAV:  15     0.590256333186E+01    0.16005E+01   -0.26662E+00   354   0.268E+00    0.109E+01
DAV:  16     0.389885277987E+01   -0.20037E+01   -0.25421E+00   471   0.125E+00    0.137E+01
DAV:  17    -0.488517496801E+00   -0.43874E+01   -0.57253E+00   435   0.198E+00    0.198E+01
DAV:  18    -0.230730651851E+01   -0.18188E+01   -0.10947E+01   537   0.308E+00    0.214E+01
DAV:  19    -0.392557353484E+01   -0.16183E+01   -0.10992E+01   489   0.275E+00    0.242E+01
DAV:  20    -0.102217865757E+01    0.29034E+01   -0.32828E+00   357   0.278E+00    0.232E+01
DAV:  21     0.578343796499E+01    0.68056E+01   -0.76480E-01   354   0.216E+00    0.169E+01
DAV:  22     0.641899651651E+01    0.63556E+00   -0.71475E+00   486   0.965E-01    0.553E+00
DAV:  23     0.384523958134E+01   -0.25738E+01   -0.17339E+01   390   0.200E+00    0.197E+01
DAV:  24     0.587549594620E+01    0.20303E+01   -0.21670E+01   333   0.218E+00    0.938E+00
DAV:  25     0.617748349363E+01    0.30199E+00   -0.34413E+00   393   0.125E+00    0.564E+00
DAV:  26     0.587630189825E+01   -0.30118E+00   -0.20031E+00   408   0.927E-01    0.124E+01
DAV:  27     0.631944705497E+01    0.44315E+00   -0.12198E+00   366   0.174E+00    0.967E+00
DAV:  28     0.637795249786E+01    0.58505E-01   -0.20988E+00   390   0.575E-01    0.848E+00
DAV:  29     0.610532858831E+01   -0.27262E+00   -0.13117E-01   417   0.124E+00    0.906E+00
DAV:  30     0.508345560378E+01   -0.10219E+01   -0.95500E+00   414   0.906E-01    0.125E+01
DAV:  31     0.440192223600E+01   -0.68153E+00   -0.27621E-01   381   0.129E+00    0.126E+01
DAV:  32     0.462703955356E+01    0.22512E+00   -0.23578E-01   495   0.588E-01    0.127E+01
DAV:  33     0.457933348843E+01   -0.47706E-01   -0.18021E-01   501   0.465E-01    0.125E+01
DAV:  34     0.484130891154E+01    0.26198E+00   -0.41589E-01   462   0.693E-01    0.124E+01
DAV:  35     0.501781310354E+01    0.17650E+00   -0.34496E-01   378   0.976E-01    0.124E+01
DAV:  36     0.500144096871E+01   -0.16372E-01   -0.70847E-01   444   0.666E-01    0.123E+01
DAV:  37     0.487928217345E+01   -0.12216E+00   -0.28742E-01   459   0.110E+00    0.120E+01
DAV:  38     0.464573077438E+01   -0.23355E+00   -0.25200E-01   513   0.627E-01    0.121E+01
DAV:  39     0.539929073570E+01    0.75356E+00   -0.19756E-01   471   0.648E-01    0.118E+01
DAV:  40     0.605837986857E+01    0.65909E+00   -0.10411E-01   435   0.468E-01    0.109E+01
DAV:  41     0.621825297813E+01    0.15987E+00   -0.87627E-02   507   0.404E-01    0.101E+01
DAV:  42     0.608986395428E+01   -0.12839E+00   -0.78970E-02   456   0.560E-01    0.104E+01
DAV:  43     0.595601763830E+01   -0.13385E+00   -0.23959E-02   489   0.269E-01    0.109E+01
DAV:  44     0.596011716503E+01    0.40995E-02   -0.60819E-02   453   0.286E-01    0.110E+01
DAV:  45     0.591374429724E+01   -0.46373E-01   -0.52917E-02   435   0.434E-01    0.111E+01
DAV:  46     0.591379662779E+01    0.52331E-04   -0.25590E-02   510   0.219E-01    0.111E+01
