BC3 Practice                            
           1
    26.624444    0.000000    0.000000
    13.312222   23.056748    0.000000
     0.000000    0.000000   82.016000
   B    C 
   2   6
Direct configuration=     1
   0.33337039  0.33325923  0.00000000
   0.66662961  0.66674077  0.00000000
   0.15824301  0.15829257  0.00000000
   0.68346442  0.15829257  0.00000000
   0.15829257  0.68341485  0.00000000
   0.84175699  0.84170743  0.00000000
   0.31653558  0.84170743  0.00000000
   0.84170743  0.31658515  0.00000000
BC3 Practice                            
           1
    38.055797    0.000000    0.000000
    19.027899   32.876503    0.000000
     0.000000    0.000000  132.646436
   B    C 
   2   6
Direct configuration=     2
   0.33332435  0.33335130  0.00000000
   0.66667565  0.66664870  0.00000000
   0.15820671  0.15825581  0.00000000
   0.68353748  0.15825581 -0.00000000
   0.15822995  0.68354010  0.00000000
   0.84179329  0.84174419 -0.00000000
   0.31646252  0.84174419  0.00000000
   0.84177005  0.31645990  0.00000000
BC3 Practice                            
           1
    36.037979    0.000000    0.000000
    18.018990   31.143158    0.000000
     0.000000    0.000000  123.709349
   B    C 
   2   6
Direct configuration=     3
   0.33333005  0.33333990  0.00000000
   0.66666995  0.66666010  0.00000000
   0.15821118  0.15826036  0.00000000
   0.68352845  0.15826036 -0.00000000
   0.15823770  0.68352460  0.00000000
   0.84178882  0.84173964 -0.00000000
   0.31647155  0.84173964  0.00000000
   0.84176230  0.31647540  0.00000000
BC3 Practice                            
           1
    34.423460    0.000000    0.000000
    17.211730   29.756255    0.000000
     0.000000    0.000000  116.558506
   B    C 
   2   6
Direct configuration=     4
   0.33333486  0.33333028  0.00000000
   0.66666514  0.66666972  0.00000000
   0.15821497  0.15826421  0.00000000
   0.68352082  0.15826421 -0.00000000
   0.15824425  0.68351150  0.00000000
   0.84178503  0.84173579 -0.00000000
   0.31647918  0.84173579  0.00000000
   0.84175575  0.31648850  0.00000000
