   8   8   0   0
  0.4467067E+02  0.5247502E-09  0.5247502E-09  0.1500000E-08  0.5000000E-15
  1.000000000000000E-004
  CAR 
 BC3-a                                   
      6.05693330    -20.54754080  301     -3.88350543      1.00000000
    -20.548  0.0000E+00  0.0000E+00
    -20.459  0.0000E+00  0.0000E+00
    -20.370  0.0000E+00  0.0000E+00
    -20.281  0.0000E+00  0.0000E+00
    -20.193  0.0000E+00  0.0000E+00
    -20.104  0.0000E+00  0.0000E+00
    -20.015  0.0000E+00  0.0000E+00
    -19.927  0.8694E-17  0.7710E-18
    -19.838  0.1470E-12  0.1304E-13
    -19.749  0.6442E-09  0.5714E-10
    -19.661  0.6469E-06  0.5742E-07
    -19.572  0.1538E-03  0.1370E-04
    -19.483  0.9033E-02  0.8147E-03
    -19.395  0.1413E+00  0.1335E-01
    -19.306  0.6857E+00  0.7415E-01
    -19.217  0.1338E+01  0.1928E+00
    -19.129  0.1590E+01  0.3338E+00
    -19.040  0.1633E+01  0.4786E+00
    -18.951  0.1704E+01  0.6297E+00
    -18.863  0.1763E+01  0.7861E+00
    -18.774  0.1826E+01  0.9480E+00
    -18.685  0.2135E+01  0.1137E+01
    -18.597  0.2332E+01  0.1344E+01
    -18.508  0.3023E+01  0.1612E+01
    -18.419  0.2557E+01  0.1839E+01
    -18.331  0.1404E+01  0.1963E+01
    -18.242  0.3759E+00  0.1997E+01
    -18.153  0.3611E-01  0.2000E+01
    -18.064  0.1114E-02  0.2000E+01
    -17.976  0.9682E-05  0.2000E+01
    -17.887  0.5037E-05  0.2000E+01
    -17.798  0.6886E-03  0.2000E+01
    -17.710  0.2489E-01  0.2002E+01
    -17.621  0.2833E+00  0.2027E+01
    -17.532  0.1150E+01  0.2129E+01
    -17.444  0.1917E+01  0.2299E+01
    -17.355  0.2347E+01  0.2508E+01
    -17.266  0.2523E+01  0.2731E+01
    -17.178  0.2111E+01  0.2918E+01
    -17.089  0.1403E+01  0.3043E+01
    -17.000  0.1750E+01  0.3198E+01
    -16.912  0.1998E+01  0.3375E+01
    -16.823  0.1579E+01  0.3515E+01
    -16.734  0.1589E+01  0.3656E+01
    -16.646  0.1752E+01  0.3812E+01
    -16.557  0.2292E+01  0.4015E+01
    -16.468  0.1908E+01  0.4184E+01
    -16.380  0.1830E+01  0.4346E+01
    -16.291  0.2572E+01  0.4574E+01
    -16.202  0.2918E+01  0.4833E+01
    -16.113  0.2863E+01  0.5087E+01
    -16.025  0.2510E+01  0.5310E+01
    -15.936  0.2207E+01  0.5505E+01
    -15.847  0.1562E+01  0.5644E+01
    -15.759  0.1362E+01  0.5765E+01
    -15.670  0.1384E+01  0.5887E+01
    -15.581  0.8595E+00  0.5964E+01
    -15.493  0.3479E+00  0.5994E+01
    -15.404  0.5991E-01  0.6000E+01
    -15.315  0.3330E-02  0.6000E+01
    -15.227  0.5143E-04  0.6000E+01
    -15.138  0.1965E-06  0.6000E+01
    -15.049  0.1725E-09  0.6000E+01
    -14.961  0.3373E-13  0.6000E+01
    -14.872  0.3715E-11  0.6000E+01
    -14.783  0.1035E-07  0.6000E+01
    -14.695  0.6479E-05  0.6000E+01
    -14.606  0.9402E-03  0.6000E+01
    -14.517  0.3305E-01  0.6003E+01
    -14.429  0.3032E+00  0.6030E+01
    -14.340  0.8818E+00  0.6108E+01
    -14.251  0.1481E+01  0.6239E+01
    -14.162  0.2402E+01  0.6452E+01
    -14.074  0.2565E+01  0.6680E+01
    -13.985  0.2221E+01  0.6877E+01
    -13.896  0.2300E+01  0.7081E+01
    -13.808  0.3100E+01  0.7356E+01
    -13.719  0.3209E+01  0.7640E+01
    -13.630  0.1523E+01  0.7775E+01
    -13.542  0.7565E+00  0.7842E+01
    -13.453  0.9978E+00  0.7931E+01
    -13.364  0.1314E+01  0.8047E+01
    -13.276  0.1675E+01  0.8196E+01
    -13.187  0.1502E+01  0.8329E+01
    -13.098  0.1056E+01  0.8423E+01
    -13.010  0.6428E+00  0.8480E+01
    -12.921  0.7229E+00  0.8544E+01
    -12.832  0.1583E+01  0.8684E+01
    -12.744  0.2393E+01  0.8896E+01
    -12.655  0.1722E+01  0.9049E+01
    -12.566  0.1138E+01  0.9150E+01
    -12.478  0.1052E+01  0.9243E+01
    -12.389  0.1641E+01  0.9389E+01
    -12.300  0.1885E+01  0.9556E+01
    -12.211  0.1345E+01  0.9675E+01
    -12.123  0.9765E+00  0.9762E+01
    -12.034  0.1287E+01  0.9876E+01
    -11.945  0.1930E+01  0.1005E+02
    -11.857  0.1514E+01  0.1018E+02
    -11.768  0.1218E+01  0.1029E+02
    -11.679  0.9830E+00  0.1038E+02
    -11.591  0.5978E+00  0.1043E+02
    -11.502  0.4861E+00  0.1047E+02
    -11.413  0.1167E+01  0.1058E+02
    -11.325  0.1466E+01  0.1071E+02
    -11.236  0.6924E+00  0.1077E+02
    -11.147  0.2390E+00  0.1079E+02
    -11.059  0.6670E+00  0.1085E+02
    -10.970  0.1093E+01  0.1095E+02
    -10.881  0.1361E+01  0.1107E+02
    -10.793  0.1689E+01  0.1122E+02
    -10.704  0.1382E+01  0.1134E+02
    -10.615  0.1151E+01  0.1144E+02
    -10.527  0.1282E+01  0.1155E+02
    -10.438  0.1291E+01  0.1167E+02
    -10.349  0.2017E+01  0.1185E+02
    -10.260  0.2869E+01  0.1210E+02
    -10.172  0.2933E+01  0.1236E+02
    -10.083  0.2004E+01  0.1254E+02
     -9.994  0.1564E+01  0.1268E+02
     -9.906  0.1910E+01  0.1285E+02
     -9.817  0.2169E+01  0.1304E+02
     -9.728  0.1891E+01  0.1321E+02
     -9.640  0.1890E+01  0.1338E+02
     -9.551  0.2548E+01  0.1360E+02
     -9.462  0.2438E+01  0.1382E+02
     -9.374  0.2086E+01  0.1400E+02
     -9.285  0.1411E+01  0.1413E+02
     -9.196  0.8437E+00  0.1420E+02
     -9.108  0.1133E+01  0.1430E+02
     -9.019  0.2232E+01  0.1450E+02
     -8.930  0.3311E+01  0.1479E+02
     -8.842  0.2271E+01  0.1500E+02
     -8.753  0.1252E+01  0.1511E+02
     -8.664  0.9865E+00  0.1519E+02
     -8.576  0.1174E+01  0.1530E+02
     -8.487  0.2579E+01  0.1553E+02
     -8.398  0.3202E+01  0.1581E+02
     -8.309  0.2990E+01  0.1608E+02
     -8.221  0.3319E+01  0.1637E+02
     -8.132  0.3489E+01  0.1668E+02
     -8.043  0.3363E+01  0.1698E+02
     -7.955  0.3930E+01  0.1733E+02
     -7.866  0.3252E+01  0.1761E+02
     -7.777  0.2663E+01  0.1785E+02
     -7.689  0.3253E+01  0.1814E+02
     -7.600  0.4148E+01  0.1851E+02
     -7.511  0.4449E+01  0.1890E+02
     -7.423  0.3553E+01  0.1922E+02
     -7.334  0.2830E+01  0.1947E+02
     -7.245  0.2821E+01  0.1972E+02
     -7.157  0.2664E+01  0.1995E+02
     -7.068  0.3341E+01  0.2025E+02
     -6.979  0.3453E+01  0.2056E+02
     -6.891  0.2927E+01  0.2082E+02
     -6.802  0.4321E+01  0.2120E+02
     -6.713  0.5410E+01  0.2168E+02
     -6.625  0.5920E+01  0.2220E+02
     -6.536  0.4582E+01  0.2261E+02
     -6.447  0.3636E+01  0.2293E+02
     -6.358  0.4415E+01  0.2332E+02
     -6.270  0.4163E+01  0.2369E+02
     -6.181  0.3659E+01  0.2402E+02
     -6.092  0.3085E+01  0.2429E+02
     -6.004  0.2183E+01  0.2449E+02
     -5.915  0.2400E+01  0.2470E+02
     -5.826  0.3208E+01  0.2498E+02
     -5.738  0.3597E+01  0.2530E+02
     -5.649  0.3328E+01  0.2560E+02
     -5.560  0.2595E+01  0.2583E+02
     -5.472  0.1949E+01  0.2600E+02
     -5.383  0.3803E+01  0.2634E+02
     -5.294  0.4623E+01  0.2675E+02
     -5.206  0.2389E+01  0.2696E+02
     -5.117  0.1526E+01  0.2709E+02
     -5.028  0.3120E+01  0.2737E+02
     -4.940  0.4080E+01  0.2773E+02
     -4.851  0.3548E+01  0.2805E+02
     -4.762  0.2693E+01  0.2829E+02
     -4.674  0.3399E+01  0.2859E+02
     -4.585  0.4320E+01  0.2897E+02
     -4.496  0.3565E+01  0.2929E+02
     -4.407  0.2848E+01  0.2954E+02
     -4.319  0.2219E+01  0.2974E+02
     -4.230  0.1446E+01  0.2986E+02
     -4.141  0.9399E+00  0.2995E+02
     -4.053  0.4635E+00  0.2999E+02
     -3.964  0.1100E+00  0.3000E+02
     -3.875  0.1014E-01  0.3000E+02
     -3.787  0.2306E-01  0.3000E+02
     -3.698  0.2464E+00  0.3002E+02
     -3.609  0.7737E+00  0.3009E+02
     -3.521  0.9244E+00  0.3017E+02
     -3.432  0.1067E+01  0.3027E+02
     -3.343  0.2467E+01  0.3049E+02
     -3.255  0.3278E+01  0.3078E+02
     -3.166  0.2460E+01  0.3100E+02
     -3.077  0.1661E+01  0.3114E+02
     -2.989  0.1395E+01  0.3127E+02
     -2.900  0.1913E+01  0.3144E+02
     -2.811  0.2015E+01  0.3162E+02
     -2.723  0.1010E+01  0.3171E+02
     -2.634  0.4073E+00  0.3174E+02
     -2.545  0.4562E+00  0.3178E+02
     -2.456  0.2702E+00  0.3181E+02
     -2.368  0.3934E+00  0.3184E+02
     -2.279  0.8673E+00  0.3192E+02
     -2.190  0.5277E+00  0.3196E+02
     -2.102  0.8089E-01  0.3197E+02
     -2.013  0.3121E-02  0.3197E+02
     -1.924  0.6470E-02  0.3197E+02
     -1.836  0.8287E-01  0.3198E+02
     -1.747  0.2667E+00  0.3200E+02
     -1.658  0.2210E+00  0.3202E+02
     -1.570  0.4691E-01  0.3203E+02
     -1.481  0.2764E-02  0.3203E+02
     -1.392  0.1744E-01  0.3203E+02
     -1.304  0.2373E+00  0.3205E+02
     -1.215  0.7970E+00  0.3212E+02
     -1.126  0.7141E+00  0.3218E+02
     -1.038  0.4029E+00  0.3222E+02
     -0.949  0.4661E+00  0.3226E+02
     -0.860  0.5182E+00  0.3231E+02
     -0.772  0.1876E+01  0.3247E+02
     -0.683  0.3786E+01  0.3281E+02
     -0.594  0.3402E+01  0.3311E+02
     -0.506  0.2267E+01  0.3331E+02
     -0.417  0.1776E+01  0.3347E+02
     -0.328  0.1750E+01  0.3362E+02
     -0.239  0.1842E+01  0.3379E+02
     -0.151  0.1668E+01  0.3394E+02
     -0.062  0.1296E+01  0.3405E+02
      0.027  0.1277E+01  0.3416E+02
      0.115  0.8869E+00  0.3424E+02
      0.204  0.2185E+00  0.3426E+02
      0.293  0.1705E-01  0.3426E+02
      0.381  0.4897E-01  0.3427E+02
      0.470  0.4719E+00  0.3431E+02
      0.559  0.1216E+01  0.3442E+02
      0.647  0.8873E+00  0.3450E+02
      0.736  0.2388E+00  0.3452E+02
      0.825  0.3859E+00  0.3455E+02
      0.913  0.1136E+01  0.3465E+02
      1.002  0.2257E+01  0.3485E+02
      1.091  0.2597E+01  0.3508E+02
      1.179  0.2505E+01  0.3531E+02
      1.268  0.2671E+01  0.3554E+02
      1.357  0.2280E+01  0.3574E+02
      1.445  0.2493E+01  0.3597E+02
      1.534  0.2391E+01  0.3618E+02
      1.623  0.2471E+01  0.3640E+02
      1.712  0.2666E+01  0.3663E+02
      1.800  0.3115E+01  0.3691E+02
      1.889  0.3092E+01  0.3718E+02
      1.978  0.2249E+01  0.3738E+02
      2.066  0.2542E+01  0.3761E+02
      2.155  0.3945E+01  0.3796E+02
      2.244  0.4569E+01  0.3836E+02
      2.332  0.3806E+01  0.3870E+02
      2.421  0.3682E+01  0.3903E+02
      2.510  0.3331E+01  0.3932E+02
      2.598  0.3870E+01  0.3967E+02
      2.687  0.4749E+01  0.4009E+02
      2.776  0.4303E+01  0.4047E+02
      2.864  0.3679E+01  0.4080E+02
      2.953  0.3766E+01  0.4113E+02
      3.042  0.3821E+01  0.4147E+02
      3.130  0.3442E+01  0.4177E+02
      3.219  0.4051E+01  0.4213E+02
      3.308  0.4033E+01  0.4249E+02
      3.396  0.3855E+01  0.4283E+02
      3.485  0.3684E+01  0.4316E+02
      3.574  0.3566E+01  0.4347E+02
      3.663  0.4441E+01  0.4387E+02
      3.751  0.4588E+01  0.4428E+02
      3.840  0.3765E+01  0.4461E+02
      3.929  0.4232E+01  0.4498E+02
      4.017  0.4698E+01  0.4540E+02
      4.106  0.3758E+01  0.4573E+02
      4.195  0.3027E+01  0.4600E+02
      4.283  0.3517E+01  0.4632E+02
      4.372  0.4401E+01  0.4671E+02
      4.461  0.3319E+01  0.4700E+02
      4.549  0.2589E+01  0.4723E+02
      4.638  0.2326E+01  0.4744E+02
      4.727  0.2281E+01  0.4764E+02
      4.815  0.2326E+01  0.4784E+02
      4.904  0.1401E+01  0.4797E+02
      4.993  0.3323E+00  0.4800E+02
      5.081  0.2437E-01  0.4800E+02
      5.170  0.4804E-03  0.4800E+02
      5.259  0.2320E-05  0.4800E+02
      5.347  0.2578E-08  0.4800E+02
      5.436  0.6341E-12  0.4800E+02
      5.525  0.0000E+00  0.4800E+02
      5.614  0.0000E+00  0.4800E+02
      5.702  0.0000E+00  0.4800E+02
      5.791  0.0000E+00  0.4800E+02
      5.880  0.0000E+00  0.4800E+02
      5.968  0.0000E+00  0.4800E+02
      6.057  0.0000E+00  0.4800E+02
