    8    8    1    1
  0.4467067E+02  0.5247502E-09  0.5247502E-09  0.1500000E-08  0.5000000E-15
  1.000000000000000E-004
  CAR 
 BC3-a                                   
     30     43     24
 
  0.0000000E+00  0.0000000E+00  0.0000000E+00  0.6944444E-02
    1      -19.338247   1.000000
    2      -15.583999   1.000000
    3      -15.562649   1.000000
    4      -13.763047   1.000000
    5      -13.757730   1.000000
    6      -12.223301   1.000000
    7      -12.217799   1.000000
    8       -8.499378   1.000000
    9       -7.912570   1.000000
   10       -6.673847   1.000000
   11       -6.653810   1.000000
   12       -4.361393   1.000000
   13       -4.345226   1.000000
   14       -4.104127   0.999096
   15       -4.096623   0.998711
   16       -2.735429   0.000000
   17       -0.829563   0.000000
   18       -0.826779   0.000000
   19        0.815875   0.000000
   20        0.879064   0.000000
   21        1.776077   0.000000
   22        2.182316   0.000000
   23        3.708908   0.000000
   24        3.750672   0.000000
 
  0.8333333E-01  0.6938894E-17  0.0000000E+00  0.2777778E-01
    1      -19.305931   1.000000
    2      -15.726255   1.000000
    3      -15.638688   1.000000
    4      -13.832433   1.000000
    5      -13.639426   1.000000
    6      -12.096929   1.000000
    7      -12.000902   1.000000
    8       -8.456998   1.000000
    9       -7.983529   1.000000
   10       -6.768218   1.000000
   11       -6.685756   1.000000
   12       -4.475730   1.000000
   13       -4.380889   1.000000
   14       -4.249134   1.000000
   15       -4.177640   0.999984
   16       -2.905037   0.000000
   17       -0.768969   0.000000
   18       -0.548994   0.000000
   19        0.866006   0.000000
   20        0.985148   0.000000
   21        1.832506   0.000000
   22        2.232814   0.000000
   23        3.795744   0.000000
   24        3.927654   0.000000
 
  0.1666667E+00  0.4163336E-16  0.0000000E+00  0.2777778E-01
    1      -19.210046   1.000000
    2      -16.107081   1.000000
    3      -15.780167   1.000000
    4      -13.988231   1.000000
    5      -13.325467   1.000000
    6      -11.770985   1.000000
    7      -11.446796   1.000000
    8       -8.330323   1.000000
    9       -8.218955   1.000000
   10       -7.073155   1.000000
   11       -6.689999   1.000000
   12       -4.835932   1.000000
   13       -4.676612   1.000000
   14       -4.443834   1.000000
   15       -4.388606   1.000000
   16       -3.186968   0.000000
   17       -0.609198   0.000000
   18        0.021823   0.000000
   19        1.016014   0.000000
   20        1.310538   0.000000
   21        2.008385   0.000000
   22        2.384078   0.000000
   23        4.008346   0.000000
   24        4.360570   0.000000
 
  0.2500000E+00  0.0000000E+00  0.0000000E+00  0.2777778E-01
    1      -19.054574   1.000000
    2      -16.571460   1.000000
    3      -15.934868   1.000000
    4      -14.151999   1.000000
    5      -12.894196   1.000000
    6      -11.326130   1.000000
    7      -10.701429   1.000000
    8       -8.623006   1.000000
    9       -8.120938   1.000000
   10       -7.524390   1.000000
   11       -6.609564   1.000000
   12       -5.350356   1.000000
   13       -5.322417   1.000000
   14       -4.695922   1.000000
   15       -4.523538   1.000000
   16       -3.402778   0.000000
   17       -0.389717   0.000000
   18        0.571436   0.000000
   19        1.265116   0.000000
   20        1.834263   0.000000
   21        2.344249   0.000000
   22        2.635680   0.000000
   23        4.293511   0.000000
   24        4.608136   0.000000
 
  0.3333333E+00  0.8326673E-16  0.0000000E+00  0.2777778E-01
    1      -18.850368   1.000000
    2      -17.029095   1.000000
    3      -16.062906   1.000000
    4      -14.284213   1.000000
    5      -12.413082   1.000000
    6      -10.817786   1.000000
    7       -9.858107   1.000000
    8       -9.124258   1.000000
    9       -8.051705   1.000000
   10       -7.832496   1.000000
   11       -6.435189   1.000000
   12       -6.118175   1.000000
   13       -5.914300   1.000000
   14       -5.052934   1.000000
   15       -4.597562   1.000000
   16       -3.545210   0.000001
   17       -0.166497   0.000000
   18        0.989376   0.000000
   19        1.612614   0.000000
   20        2.376472   0.000000
   21        2.953582   0.000000
   22        2.987256   0.000000
   23        3.975528   0.000000
   24        4.847639   0.000000
 
  0.4166667E+00  0.0000000E+00  0.0000000E+00  0.2777778E-01
    1      -18.631473   1.000000
    2      -17.409997   1.000000
    3      -16.145168   1.000000
    4      -14.368077   1.000000
    5      -11.973347   1.000000
    6      -10.309830   1.000000
    7       -9.594144   1.000000
    8       -9.046948   1.000000
    9       -8.490782   1.000000
   10       -7.476160   1.000000
   11       -7.001168   1.000000
   12       -6.454121   1.000000
   13       -6.195393   1.000000
   14       -5.409642   1.000000
   15       -4.648681   1.000000
   16       -3.627708   0.000149
   17        0.000794   0.000000
   18        1.260073   0.000000
   19        2.057927   0.000000
   20        2.875622   0.000000
   21        3.240311   0.000000
   22        3.439600   0.000000
   23        3.675998   0.000000
   24        4.248467   0.000000
 
  0.5000000E+00  0.0000000E+00  0.0000000E+00  0.1388889E-01
    1      -18.514030   1.000000
    2      -17.582830   1.000000
    3      -16.173373   1.000000
    4      -14.396672   1.000000
    5      -11.768966   1.000000
    6      -10.024257   1.000000
    7       -9.811263   1.000000
    8       -9.003096   1.000000
    9       -7.970744   1.000000
   10       -7.855617   1.000000
   11       -7.179289   1.000000
   12       -6.814696   1.000000
   13       -6.014036   1.000000
   14       -5.631217   1.000000
   15       -4.666814   1.000000
   16       -3.654953   0.000614
   17        0.063108   0.000000
   18        1.356444   0.000000
   19        2.581426   0.000000
   20        2.620804   0.000000
   21        3.369535   0.000000
   22        3.454175   0.000000
   23        3.985109   0.000000
   24        3.994450   0.000000
 
  0.8333333E-01  0.8333333E-01  0.0000000E+00  0.1388889E-01
    1      -19.241732   1.000000
    2      -15.964509   1.000000
    3      -15.774772   1.000000
    4      -13.888171   1.000000
    5      -13.483667   1.000000
    6      -11.829444   1.000000
    7      -11.648505   1.000000
    8       -8.372334   1.000000
    9       -8.141428   1.000000
   10       -6.930072   1.000000
   11       -6.738054   1.000000
   12       -4.683369   1.000000
   13       -4.530227   1.000000
   14       -4.473251   1.000000
   15       -4.328733   1.000000
   16       -3.096467   0.000000
   17       -0.702692   0.000000
   18       -0.095885   0.000000
   19        0.966233   0.000000
   20        1.196158   0.000000
   21        1.948270   0.000000
   22        2.333855   0.000000
   23        3.950877   0.000000
   24        4.311034   0.000000
 
  0.1666667E+00  0.8333333E-01  0.0000000E+00  0.2777778E-01
    1      -19.115775   1.000000
    2      -16.354182   1.000000
    3      -15.966656   1.000000
    4      -13.965851   1.000000
    5      -13.195663   1.000000
    6      -11.389938   1.000000
    7      -11.038425   1.000000
    8       -8.492456   1.000000
    9       -8.204129   1.000000
   10       -7.225935   1.000000
   11       -6.752382   1.000000
   12       -5.082734   1.000000
   13       -5.050465   1.000000
   14       -4.636903   1.000000
   15       -4.604525   1.000000
   16       -3.236529   0.000000
   17       -0.600201   0.000000
   18        0.523235   0.000000
   19        1.166003   0.000000
   20        1.604451   0.000000
   21        2.195864   0.000000
   22        2.535513   0.000000
   23        4.238054   0.000000
   24        4.509707   0.000000
 
  0.2500000E+00  0.8333333E-01  0.0000000E+00  0.2777778E-01
    1      -18.934781   1.000000
    2      -16.800615   1.000000
    3      -16.133266   1.000000
    4      -14.072293   1.000000
    5      -12.776430   1.000000
    6      -10.889223   1.000000
    7      -10.258795   1.000000
    8       -8.989993   1.000000
    9       -7.954835   1.000000
   10       -7.656381   1.000000
   11       -6.643120   1.000000
   12       -5.753502   1.000000
   13       -5.612869   1.000000
   14       -4.955283   1.000000
   15       -4.783123   1.000000
   16       -3.304008   0.000000
   17       -0.458016   0.000000
   18        1.059611   0.000000
   19        1.464571   0.000000
   20        2.141404   0.000000
   21        2.644640   0.000000
   22        2.837405   0.000000
   23        4.414136   0.000000
   24        4.803757   0.000000
 
  0.3333333E+00  0.8333333E-01  0.0000000E+00  0.2777778E-01
    1      -18.717731   1.000000
    2      -17.218717   1.000000
    3      -16.251076   1.000000
    4      -14.161370   1.000000
    5      -12.316401   1.000000
    6      -10.372417   1.000000
    7       -9.559406   1.000000
    8       -9.364833   1.000000
    9       -8.140861   1.000000
   10       -7.630494   1.000000
   11       -6.580715   1.000000
   12       -6.433738   1.000000
   13       -6.165514   1.000000
   14       -5.329967   1.000000
   15       -4.887875   1.000000
   16       -3.340227   0.000000
   17       -0.315467   0.000000
   18        1.434996   0.000000
   19        1.861295   0.000000
   20        2.654620   0.000000
   21        3.239003   0.000000
   22        3.346074   0.000000
   23        3.633587   0.000000
   24        4.544229   0.000000
 
  0.4166667E+00  0.8333333E-01  0.0000000E+00  0.2777778E-01
    1      -18.529280   1.000000
    2      -17.513346   1.000000
    3      -16.311694   1.000000
    4      -14.209518   1.000000
    5      -11.961385   1.000000
    6       -9.994005   1.000000
    7       -9.881969   1.000000
    8       -8.763431   1.000000
    9       -8.290834   1.000000
   10       -7.464327   1.000000
   11       -7.260704   1.000000
   12       -6.658799   1.000000
   13       -6.189651   1.000000
   14       -5.662144   1.000000
   15       -4.942824   1.000000
   16       -3.357208   0.000000
   17       -0.225738   0.000000
   18        1.634012   0.000000
   19        2.355378   0.000000
   20        2.946171   0.000000
   21        3.170114   0.000000
   22        3.697712   0.000000
   23        3.741064   0.000000
   24        4.339700   0.000000
 
  0.5000000E+00  0.8333333E-01  0.0000000E+00  0.2777778E-01
    1      -18.529582   1.000000
    2      -17.513104   1.000000
    3      -16.311880   1.000000
    4      -14.208308   1.000000
    5      -11.959429   1.000000
    6       -9.989231   1.000000
    7       -9.897254   1.000000
    8       -8.758144   1.000000
    9       -8.292522   1.000000
   10       -7.459928   1.000000
   11       -7.261778   1.000000
   12       -6.657575   1.000000
   13       -6.186395   1.000000
   14       -5.665698   1.000000
   15       -4.944082   1.000000
   16       -3.354673   0.000000
   17       -0.226245   0.000000
   18        1.632808   0.000000
   19        2.353742   0.000000
   20        2.948110   0.000000
   21        3.168717   0.000000
   22        3.698531   0.000000
   23        3.739438   0.000000
   24        4.340744   0.000000
 
 -0.4166667E+00  0.8333333E-01  0.0000000E+00  0.2777778E-01
    1      -18.718278   1.000000
    2      -17.218501   1.000000
    3      -16.251385   1.000000
    4      -14.157642   1.000000
    5      -12.313367   1.000000
    6      -10.380087   1.000000
    7       -9.571322   1.000000
    8       -9.366882   1.000000
    9       -8.128494   1.000000
   10       -7.631614   1.000000
   11       -6.576820   1.000000
   12       -6.429343   1.000000
   13       -6.164031   1.000000
   14       -5.334699   1.000000
   15       -4.891403   1.000000
   16       -3.332886   0.000000
   17       -0.317127   0.000000
   18        1.431911   0.000000
   19        1.859959   0.000000
   20        2.653301   0.000000
   21        3.237683   0.000000
   22        3.343669   0.000000
   23        3.635835   0.000000
   24        4.545299   0.000000
 
 -0.3333333E+00  0.8333333E-01  0.0000000E+00  0.2777778E-01
    1      -18.935295   1.000000
    2      -16.801409   1.000000
    3      -16.132791   1.000000
    4      -14.065756   1.000000
    5      -12.775438   1.000000
    6      -10.897176   1.000000
    7      -10.262534   1.000000
    8       -9.000883   1.000000
    9       -7.955743   1.000000
   10       -7.643392   1.000000
   11       -6.638893   1.000000
   12       -5.750397   1.000000
   13       -5.611850   1.000000
   14       -4.959079   1.000000
   15       -4.787898   1.000000
   16       -3.292909   0.000000
   17       -0.461061   0.000000
   18        1.055808   0.000000
   19        1.463538   0.000000
   20        2.139806   0.000000
   21        2.642406   0.000000
   22        2.836384   0.000000
   23        4.416718   0.000000
   24        4.802728   0.000000
 
 -0.2500000E+00  0.8333333E-01  0.0000000E+00  0.2777778E-01
    1      -19.116177   1.000000
    2      -16.358288   1.000000
    3      -15.962711   1.000000
    4      -13.956147   1.000000
    5      -13.198663   1.000000
    6      -11.395952   1.000000
    7      -11.042206   1.000000
    8       -8.501846   1.000000
    9       -8.204790   1.000000
   10       -7.218352   1.000000
   11       -6.745596   1.000000
   12       -5.084223   1.000000
   13       -5.049907   1.000000
   14       -4.639549   1.000000
   15       -4.605627   1.000000
   16       -3.224175   0.000000
   17       -0.604319   0.000000
   18        0.519832   0.000000
   19        1.165274   0.000000
   20        1.602301   0.000000
   21        2.194529   0.000000
   22        2.534795   0.000000
   23        4.252433   0.000000
   24        4.508951   0.000000
 
 -0.1666667E+00  0.8333333E-01  0.0000000E+00  0.2777778E-01
    1      -19.241982   1.000000
    2      -15.976733   1.000000
    3      -15.761997   1.000000
    4      -13.877244   1.000000
    5      -13.490209   1.000000
    6      -11.832209   1.000000
    7      -11.652654   1.000000
    8       -8.372734   1.000000
    9       -8.147038   1.000000
   10       -6.937489   1.000000
   11       -6.721845   1.000000
   12       -4.692961   1.000000
   13       -4.534222   1.000000
   14       -4.466064   1.000000
   15       -4.325035   1.000000
   16       -3.087013   0.000000
   17       -0.706865   0.000000
   18       -0.098168   0.000000
   19        0.965805   0.000000
   20        1.194417   0.000000
   21        1.947578   0.000000
   22        2.333436   0.000000
   23        3.979543   0.000000
   24        4.310576   0.000000
 
 -0.8333333E-01  0.8333333E-01  0.0000000E+00  0.1388889E-01
    1      -19.306016   1.000000
    2      -15.740510   1.000000
    3      -15.623782   1.000000
    4      -13.827017   1.000000
    5      -13.643502   1.000000
    6      -12.097066   1.000000
    7      -12.003427   1.000000
    8       -8.457132   1.000000
    9       -7.985165   1.000000
   10       -6.781829   1.000000
   11       -6.669412   1.000000
   12       -4.488029   1.000000
   13       -4.369038   1.000000
   14       -4.255517   1.000000
   15       -4.171345   0.999977
   16       -2.901571   0.000000
   17       -0.771490   0.000000
   18       -0.549294   0.000000
   19        0.865866   0.000000
   20        0.984518   0.000000
   21        1.832289   0.000000
   22        2.232678   0.000000
   23        3.830715   0.000000
   24        3.893386   0.000000
 
  0.1666667E+00  0.1666667E+00  0.0000000E+00  0.1388889E-01
    1      -18.963629   1.000000
    2      -16.650000   1.000000
    3      -16.256083   1.000000
    4      -13.830103   1.000000
    5      -13.073072   1.000000
    6      -10.789550   1.000000
    7      -10.490397   1.000000
    8       -8.974417   1.000000
    9       -7.995865   1.000000
   10       -7.310667   1.000000
   11       -6.892905   1.000000
   12       -5.595748   1.000000
   13       -5.383857   1.000000
   14       -5.019843   1.000000
   15       -4.956724   1.000000
   16       -3.118483   0.000000
   17       -0.667658   0.000000
   18        1.199793   0.000000
   19        1.415344   0.000000
   20        2.004909   0.000000
   21        2.531573   0.000000
   22        2.787566   0.000000
   23        4.633228   0.000000
   24        4.756573   0.000000
 
  0.2500000E+00  0.1666667E+00  0.0000000E+00  0.2777778E-01
    1      -18.765460   1.000000
    2      -17.003359   1.000000
    3      -16.476912   1.000000
    4      -13.777410   1.000000
    5      -12.777496   1.000000
    6      -10.219188   1.000000
    7       -9.774286   1.000000
    8       -9.515931   1.000000
    9       -7.709522   1.000000
   10       -7.583954   1.000000
   11       -6.843167   1.000000
   12       -6.283188   1.000000
   13       -5.836853   1.000000
   14       -5.371024   1.000000
   15       -5.282942   1.000000
   16       -2.968687   0.000000
   17       -0.712607   0.000000
   18        1.763336   0.000000
   19        1.771963   0.000000
   20        2.483350   0.000000
   21        3.056752   0.000000
   22        3.139825   0.000000
   23        4.123806   0.000000
   24        4.709513   0.000000
 
  0.3333333E+00  0.1666667E+00  0.0000000E+00  0.2777778E-01
    1      -18.556848   1.000000
    2      -17.335686   1.000000
    3      -16.597823   1.000000
    4      -13.788809   1.000000
    5      -12.401374   1.000000
    6      -10.137422   1.000000
    7       -9.649916   1.000000
    8       -8.909576   1.000000
    9       -7.971837   1.000000
   10       -7.357447   1.000000
   11       -7.085623   1.000000
   12       -6.612631   1.000000
   13       -6.345953   1.000000
   14       -5.774502   1.000000
   15       -5.408024   1.000000
   16       -2.863607   0.000000
   17       -0.725286   0.000000
   18        2.119378   0.000000
   19        2.209253   0.000000
   20        2.999225   0.000000
   21        3.388692   0.000000
   22        3.592730   0.000000
   23        3.711719   0.000000
   24        4.331416   0.000000
 
  0.4166667E+00  0.1666667E+00  0.0000000E+00  0.2777778E-01
    1      -18.448438   1.000000
    2      -17.489912   1.000000
    3      -16.636225   1.000000
    4      -13.797045   1.000000
    5      -12.206301   1.000000
    6      -10.359436   1.000000
    7       -9.423056   1.000000
    8       -8.375452   1.000000
    9       -7.989665   1.000000
   10       -7.802852   1.000000
   11       -7.071380   1.000000
   12       -6.690211   1.000000
   13       -6.424879   1.000000
   14       -6.023279   1.000000
   15       -5.447628   1.000000
   16       -2.824604   0.000000
   17       -0.726819   0.000000
   18        2.235864   0.000000
   19        2.733326   0.000000
   20        2.769043   0.000000
   21        3.488887   0.000000
   22        3.595992   0.000000
   23        4.138967   0.000000
   24        4.145624   0.000000
 
  0.5000000E+00  0.1666667E+00  0.0000000E+00  0.2777778E-01
    1      -18.557737   1.000000
    2      -17.335750   1.000000
    3      -16.597165   1.000000
    4      -13.783124   1.000000
    5      -12.400455   1.000000
    6      -10.144467   1.000000
    7       -9.663482   1.000000
    8       -8.915710   1.000000
    9       -7.958760   1.000000
   10       -7.359772   1.000000
   11       -7.078220   1.000000
   12       -6.604353   1.000000
   13       -6.343286   1.000000
   14       -5.782240   1.000000
   15       -5.410199   1.000000
   16       -2.854967   0.000000
   17       -0.729737   0.000000
   18        2.116149   0.000000
   19        2.206303   0.000000
   20        2.996503   0.000000
   21        3.392831   0.000000
   22        3.589816   0.000000
   23        3.707920   0.000000
   24        4.336259   0.000000
 
 -0.4166667E+00  0.1666667E+00  0.0000000E+00  0.2777778E-01
    1      -18.766512   1.000000
    2      -17.005688   1.000000
    3      -16.473938   1.000000
    4      -13.764967   1.000000
    5      -12.780766   1.000000
    6      -10.230968   1.000000
    7       -9.783048   1.000000
    8       -9.528005   1.000000
    9       -7.711556   1.000000
   10       -7.567565   1.000000
   11       -6.834082   1.000000
   12       -6.277737   1.000000
   13       -5.835359   1.000000
   14       -5.376962   1.000000
   15       -5.285910   1.000000
   16       -2.953450   0.000000
   17       -0.720084   0.000000
   18        1.760987   0.000000
   19        1.766816   0.000000
   20        2.480450   0.000000
   21        3.051887   0.000000
   22        3.137502   0.000000
   23        4.128589   0.000000
   24        4.703980   0.000000
 
 -0.3333333E+00  0.1666667E+00  0.0000000E+00  0.2777778E-01
    1      -18.964532   1.000000
    2      -16.657721   1.000000
    3      -16.247520   1.000000
    4      -13.812077   1.000000
    5      -13.081909   1.000000
    6      -10.798271   1.000000
    7      -10.499697   1.000000
    8       -8.987503   1.000000
    9       -7.997436   1.000000
   10       -7.304035   1.000000
   11       -6.875367   1.000000
   12       -5.595691   1.000000
   13       -5.388862   1.000000
   14       -5.017876   1.000000
   15       -4.957448   1.000000
   16       -3.100386   0.000000
   17       -0.675783   0.000000
   18        1.194293   0.000000
   19        1.413600   0.000000
   20        2.001109   0.000000
   21        2.527777   0.000000
   22        2.785841   0.000000
   23        4.659418   0.000000
   24        4.754736   0.000000
 
 -0.2500000E+00  0.1666667E+00  0.0000000E+00  0.2777778E-01
    1      -19.116418   1.000000
    2      -16.366330   1.000000
    3      -15.952816   1.000000
    4      -13.951448   1.000000
    5      -13.203137   1.000000
    6      -11.394520   1.000000
    7      -11.047848   1.000000
    8       -8.502567   1.000000
    9       -8.205192   1.000000
   10       -7.230849   1.000000
   11       -6.729383   1.000000
   12       -5.093922   1.000000
   13       -5.056491   1.000000
   14       -4.628524   1.000000
   15       -4.598875   1.000000
   16       -3.220740   0.000000
   17       -0.606728   0.000000
   18        0.518215   0.000000
   19        1.164860   0.000000
   20        1.600589   0.000000
   21        2.193640   0.000000
   22        2.534387   0.000000
   23        4.275657   0.000000
   24        4.508471   0.000000
 
 -0.1666667E+00  0.1666667E+00  0.0000000E+00  0.1388889E-01
    1      -19.210373   1.000000
    2      -16.119993   1.000000
    3      -15.765045   1.000000
    4      -13.980776   1.000000
    5      -13.330079   1.000000
    6      -11.771901   1.000000
    7      -11.453618   1.000000
    8       -8.330858   1.000000
    9       -8.223262   1.000000
   10       -7.085638   1.000000
   11       -6.669044   1.000000
   12       -4.848767   1.000000
   13       -4.685185   1.000000
   14       -4.431276   1.000000
   15       -4.380127   1.000000
   16       -3.178785   0.000000
   17       -0.612905   0.000000
   18        0.018516   0.000000
   19        1.015455   0.000000
   20        1.308156   0.000000
   21        2.007398   0.000000
   22        2.383532   0.000000
   23        4.044807   0.000000
   24        4.359952   0.000000
 
  0.2500000E+00  0.2500000E+00  0.0000000E+00  0.1388889E-01
    1      -18.569437   1.000000
    2      -17.187729   1.000000
    3      -16.790603   1.000000
    4      -13.475494   1.000000
    5      -12.726248   1.000000
    6      -10.192710   1.000000
    7       -9.393622   1.000000
    8       -9.204496   1.000000
    9       -7.516266   1.000000
   10       -7.392878   1.000000
   11       -7.076569   1.000000
   12       -6.854601   1.000000
   13       -6.070279   1.000000
   14       -5.859213   1.000000
   15       -5.740911   1.000000
   16       -2.598655   0.000000
   17       -0.995005   0.000000
   18        2.160617   0.000000
   19        2.411386   0.000000
   20        2.895651   0.000000
   21        3.542318   0.000000
   22        3.547782   0.000000
   23        3.914858   0.000000
   24        3.945046   0.000000
 
  0.3333333E+00  0.2500000E+00  0.0000000E+00  0.2777778E-01
    1      -18.410962   1.000000
    2      -17.346777   1.000000
    3      -16.951957   1.000000
    4      -13.330722   1.000000
    5      -12.582717   1.000000
    6      -10.584441   1.000000
    7       -8.940021   1.000000
    8       -8.475106   1.000000
    9       -7.772829   1.000000
   10       -7.572611   1.000000
   11       -7.042817   1.000000
   12       -6.839223   1.000000
   13       -6.434145   1.000000
   14       -6.300635   1.000000
   15       -5.925470   1.000000
   16       -2.320649   0.000000
   17       -1.217681   0.000000
   18        2.655384   0.000000
   19        2.752045   0.000000
   20        3.242423   0.000000
   21        3.410911   0.000000
   22        3.831778   0.000000
   23        3.929130   0.000000
   24        4.045899   0.000000
 
  0.4166667E+00  0.2500000E+00  0.0000000E+00  0.2777778E-01
    1      -18.411620   1.000000
    2      -17.348402   1.000000
    3      -16.949590   1.000000
    4      -13.322928   1.000000
    5      -12.587823   1.000000
    6      -10.587698   1.000000
    7       -8.949306   1.000000
    8       -8.484932   1.000000
    9       -7.762878   1.000000
   10       -7.565467   1.000000
   11       -7.045694   1.000000
   12       -6.829096   1.000000
   13       -6.431659   1.000000
   14       -6.307741   1.000000
   15       -5.925634   1.000000
   16       -2.311743   0.000000
   17       -1.224788   0.000000
   18        2.650555   0.000000
   19        2.750230   0.000000
   20        3.248152   0.000000
   21        3.406723   0.000000
   22        3.830518   0.000000
   23        3.929357   0.000000
   24        4.041109   0.000000
 
  0.5000000E+00  0.2500000E+00  0.0000000E+00  0.2777778E-01
    1      -18.570792   1.000000
    2      -17.193609   1.000000
    3      -16.783009   1.000000
    4      -13.455365   1.000000
    5      -12.739893   1.000000
    6      -10.200862   1.000000
    7       -9.408017   1.000000
    8       -9.216471   1.000000
    9       -7.504622   1.000000
   10       -7.396141   1.000000
   11       -7.064355   1.000000
   12       -6.844882   1.000000
   13       -6.071949   1.000000
   14       -5.863588   1.000000
   15       -5.737603   1.000000
   16       -2.580584   0.000000
   17       -1.007826   0.000000
   18        2.156681   0.000000
   19        2.406778   0.000000
   20        2.891238   0.000000
   21        3.538403   0.000000
   22        3.540657   0.000000
   23        3.915818   0.000000
   24        3.947022   0.000000
 
 -0.4166667E+00  0.2500000E+00  0.0000000E+00  0.2777778E-01
    1      -18.766850   1.000000
    2      -17.012005   1.000000
    3      -16.465916   1.000000
    4      -13.757595   1.000000
    5      -12.789476   1.000000
    6      -10.229404   1.000000
    7       -9.788270   1.000000
    8       -9.527542   1.000000
    9       -7.712217   1.000000
   10       -7.578528   1.000000
   11       -6.819720   1.000000
   12       -6.285154   1.000000
   13       -5.843663   1.000000
   14       -5.368650   1.000000
   15       -5.275938   1.000000
   16       -2.948950   0.000000
   17       -0.724287   0.000000
   18        1.760301   0.000000
   19        1.765756   0.000000
   20        2.478930   0.000000
   21        3.049589   0.000000
   22        3.136813   0.000000
   23        4.117705   0.000000
   24        4.717143   0.000000
 
 -0.3333333E+00  0.2500000E+00  0.0000000E+00  0.2777778E-01
    1      -18.935895   1.000000
    2      -16.810707   1.000000
    3      -16.119862   1.000000
    4      -14.057987   1.000000
    5      -12.784184   1.000000
    6      -10.896677   1.000000
    7      -10.271762   1.000000
    8       -9.000114   1.000000
    9       -7.956808   1.000000
   10       -7.656871   1.000000
   11       -6.618560   1.000000
   12       -5.761662   1.000000
   13       -5.622371   1.000000
   14       -4.946866   1.000000
   15       -4.774072   1.000000
   16       -3.286475   0.000000
   17       -0.466483   0.000000
   18        1.052937   0.000000
   19        1.462436   0.000000
   20        2.137036   0.000000
   21        2.639005   0.000000
   22        2.835294   0.000000
   23        4.405650   0.000000
   24        4.801369   0.000000
 
 -0.2500000E+00  0.2500000E+00  0.0000000E+00  0.1388889E-01
    1      -19.055283   1.000000
    2      -16.582460   1.000000
    3      -15.919879   1.000000
    4      -14.143108   1.000000
    5      -12.900405   1.000000
    6      -11.328866   1.000000
    7      -10.711711   1.000000
    8       -8.627627   1.000000
    9       -8.122137   1.000000
   10       -7.534186   1.000000
   11       -6.586356   1.000000
   12       -5.361814   1.000000
   13       -5.333336   1.000000
   14       -4.684656   1.000000
   15       -4.510523   1.000000
   16       -3.392107   0.000000
   17       -0.395127   0.000000
   18        0.566272   0.000000
   19        1.263858   0.000000
   20        1.830352   0.000000
   21        2.341181   0.000000
   22        2.634445   0.000000
   23        4.333412   0.000000
   24        4.606718   0.000000
 
  0.3333333E+00  0.3333333E+00  0.0000000E+00  0.1388889E-01
    1      -18.349290   1.000000
    2      -17.224157   1.000000
    3      -17.213813   1.000000
    4      -12.908935   1.000000
    5      -12.882594   1.000000
    6      -10.771655   1.000000
    7       -8.282639   1.000000
    8       -8.272999   1.000000
    9       -8.235669   1.000000
   10       -7.565034   1.000000
   11       -6.854041   1.000000
   12       -6.756476   1.000000
   13       -6.750771   1.000000
   14       -6.328014   1.000000
   15       -6.321180   1.000000
   16       -1.769909   0.000000
   17       -1.748829   0.000000
   18        3.040023   0.000000
   19        3.177137   0.000000
   20        3.181953   0.000000