<?xml version="1.0" encoding="ISO-8859-1"?>
<modeling>
 <generator>
  <i name="program" type="string">vasp </i>
  <i name="version" type="string">5.4.4.18Apr17-6-g9f103f2a35  </i>
  <i name="subversion" type="string">(build Mar 30 2023 15:39:25) complex            parallel </i>
  <i name="platform" type="string">LinuxIFC </i>
  <i name="date" type="string">2023 06 30 </i>
  <i name="time" type="string">15:39:44 </i>
 </generator>
 <incar>
  <i type="string" name="SYSTEM"> BC3-a</i>
  <i type="string" name="PREC">normal</i>
  <i type="string" name="ALGO"> Normal</i>
  <i type="int" name="ISPIN">     1</i>
  <i name="EDIFF">      0.00000100</i>
  <i name="ENCUT">    500.00000000</i>
  <i type="logical" name="LREAL"> F  </i>
  <i type="int" name="ISMEAR">     0</i>
  <i name="SIGMA">      0.10000000</i>
  <i type="logical" name="LWAVE"> F  </i>
  <i type="logical" name="LCHARG"> F  </i>
  <v type="int" name="KPOINT_BSE">    -1     0     0     0</v>
  <i type="string" name="GGA"> PE</i>
 </incar>
 <structure name="primitive_cell" >
  <crystal>
   <varray name="basis" >
    <v>       4.54663337       2.62000000       0.00000000 </v>
    <v>      -4.54663337       2.62000000       0.00000000 </v>
    <v>       0.00000000       0.00000000      15.00000000 </v>
   </varray>
   <i name="volume">    357.36538296 </i>
   <varray name="rec_basis" >
    <v>       0.10997148       0.19083969       0.00000000 </v>
    <v>      -0.10997148       0.19083969       0.00000000 </v>
    <v>       0.00000000       0.00000000       0.06666667 </v>
   </varray>
  </crystal>
  <varray name="positions" >
   <v>       0.33333300      -0.33333400       0.25000000 </v>
   <v>       0.16666600       0.33333300       0.25000000 </v>
   <v>      -0.33333400      -0.16666700       0.25000000 </v>
   <v>       0.16666600      -0.16666700       0.25000000 </v>
   <v>      -0.16666700       0.16666600       0.25000000 </v>
   <v>       0.33333300       0.16666600       0.25000000 </v>
   <v>      -0.16666700      -0.33333400       0.25000000 </v>
   <v>      -0.33333400       0.33333300       0.25000000 </v>
  </varray>
 </structure>
 <varray name="primitive_index" >
  <v type="int" >        1 </v>
  <v type="int" >        3 </v>
  <v type="int" >        7 </v>
  <v type="int" >        5 </v>
  <v type="int" >        6 </v>
  <v type="int" >        4 </v>
  <v type="int" >        8 </v>
  <v type="int" >        2 </v>
 </varray>
 <kpoints>
  <generation param="Gamma">
   <v type="int" name="divisions">      12       12        1 </v>
   <v name="usershift">      0.00000000       0.00000000       0.00000000 </v>
   <v name="genvec1">      0.08333333       0.00000000       0.00000000 </v>
   <v name="genvec2">      0.00000000       0.08333333       0.00000000 </v>
   <v name="genvec3">      0.00000000       0.00000000       1.00000000 </v>
   <v name="shift">      0.00000000       0.00000000       0.00000000 </v>
  </generation>
  <varray name="kpointlist" >
   <v>       0.00000000       0.00000000       0.00000000 </v>
   <v>       0.08333333       0.00000000       0.00000000 </v>
   <v>       0.16666667       0.00000000       0.00000000 </v>
   <v>       0.25000000       0.00000000       0.00000000 </v>
   <v>       0.33333333       0.00000000       0.00000000 </v>
   <v>       0.41666667       0.00000000       0.00000000 </v>
   <v>       0.50000000       0.00000000       0.00000000 </v>
   <v>       0.08333333       0.08333333       0.00000000 </v>
   <v>       0.16666667       0.08333333       0.00000000 </v>
   <v>       0.25000000       0.08333333       0.00000000 </v>
   <v>       0.33333333       0.08333333       0.00000000 </v>
   <v>       0.41666667       0.08333333       0.00000000 </v>
   <v>       0.50000000       0.08333333       0.00000000 </v>
   <v>      -0.41666667       0.08333333       0.00000000 </v>
   <v>      -0.33333333       0.08333333       0.00000000 </v>
   <v>      -0.25000000       0.08333333       0.00000000 </v>
   <v>      -0.16666667       0.08333333       0.00000000 </v>
   <v>      -0.08333333       0.08333333       0.00000000 </v>
   <v>       0.16666667       0.16666667       0.00000000 </v>
   <v>       0.25000000       0.16666667       0.00000000 </v>
   <v>       0.33333333       0.16666667       0.00000000 </v>
   <v>       0.41666667       0.16666667       0.00000000 </v>
   <v>       0.50000000       0.16666667       0.00000000 </v>
   <v>      -0.41666667       0.16666667       0.00000000 </v>
   <v>      -0.33333333       0.16666667       0.00000000 </v>
   <v>      -0.25000000       0.16666667       0.00000000 </v>
   <v>      -0.16666667       0.16666667       0.00000000 </v>
   <v>       0.25000000       0.25000000       0.00000000 </v>
   <v>       0.33333333       0.25000000       0.00000000 </v>
   <v>       0.41666667       0.25000000       0.00000000 </v>
   <v>       0.50000000       0.25000000       0.00000000 </v>
   <v>      -0.41666667       0.25000000       0.00000000 </v>
   <v>      -0.33333333       0.25000000       0.00000000 </v>
   <v>      -0.25000000       0.25000000       0.00000000 </v>
   <v>       0.33333333       0.33333333       0.00000000 </v>
   <v>       0.41666667       0.33333333       0.00000000 </v>
   <v>       0.50000000       0.33333333       0.00000000 </v>
   <v>      -0.41666667       0.33333333       0.00000000 </v>
   <v>      -0.33333333       0.33333333       0.00000000 </v>
   <v>       0.41666667       0.41666667       0.00000000 </v>
   <v>       0.50000000       0.41666667       0.00000000 </v>
   <v>      -0.41666667       0.41666667       0.00000000 </v>
   <v>       0.50000000       0.50000000       0.00000000 </v>
  </varray>
  <varray name="weights" >
   <v>       0.00694444 </v>
   <v>       0.02777778 </v>
   <v>       0.02777778 </v>
   <v>       0.02777778 </v>
   <v>       0.02777778 </v>
   <v>       0.02777778 </v>
   <v>       0.01388889 </v>
   <v>       0.01388889 </v>
   <v>       0.02777778 </v>
   <v>       0.02777778 </v>
   <v>       0.02777778 </v>
   <v>       0.02777778 </v>
   <v>       0.02777778 </v>
   <v>       0.02777778 </v>
   <v>       0.02777778 </v>
   <v>       0.02777778 </v>
   <v>       0.02777778 </v>
   <v>       0.01388889 </v>
   <v>       0.01388889 </v>
   <v>       0.02777778 </v>
   <v>       0.02777778 </v>
   <v>       0.02777778 </v>
   <v>       0.02777778 </v>
   <v>       0.02777778 </v>
   <v>       0.02777778 </v>
   <v>       0.02777778 </v>
   <v>       0.01388889 </v>
   <v>       0.01388889 </v>
   <v>       0.02777778 </v>
   <v>       0.02777778 </v>
   <v>       0.02777778 </v>
   <v>       0.02777778 </v>
   <v>       0.02777778 </v>
   <v>       0.01388889 </v>
   <v>       0.01388889 </v>
   <v>       0.02777778 </v>
   <v>       0.02777778 </v>
   <v>       0.02777778 </v>
   <v>       0.01388889 </v>
   <v>       0.01388889 </v>
   <v>       0.02777778 </v>
   <v>       0.01388889 </v>
   <v>       0.00694444 </v>
  </varray>
 </kpoints>
 <parameters>
  <separator name="general" >
   <i type="string" name="SYSTEM">BC3-a</i>
   <i type="logical" name="LCOMPAT"> F  </i>
  </separator>
  <separator name="electronic" >
   <i type="string" name="PREC">normal</i>
   <i name="ENMAX">    500.00000000</i>
   <i name="ENAUG">    644.87300000</i>
   <i name="EDIFF">      0.00000100</i>
   <i type="int" name="IALGO">    38</i>
   <i type="int" name="IWAVPR">    10</i>
   <i type="int" name="NBANDS">    24</i>
   <i name="NELECT">     30.00000000</i>
   <i type="int" name="TURBO">     0</i>
   <i type="int" name="IRESTART">     0</i>
   <i type="int" name="NREBOOT">     0</i>
   <i type="int" name="NMIN">     0</i>
   <i name="EREF">      0.00000000</i>
   <separator name="electronic smearing" >
    <i type="int" name="ISMEAR">     0</i>
    <i name="SIGMA">      0.10000000</i>
    <i name="KSPACING">      0.50000000</i>
    <i type="logical" name="KGAMMA"> T  </i>
   </separator>
   <separator name="electronic projectors" >
    <i type="logical" name="LREAL"> F  </i>
    <v name="ROPT">      0.00000000      0.00000000</v>
    <i type="int" name="LMAXPAW">  -100</i>
    <i type="int" name="LMAXMIX">     2</i>
    <i type="logical" name="NLSPLINE"> F  </i>
   </separator>
   <separator name="electronic startup" >
    <i type="int" name="ISTART">     0</i>
    <i type="int" name="ICHARG">     2</i>
    <i type="int" name="INIWAV">     1</i>
   </separator>
   <separator name="electronic spin" >
    <i type="int" name="ISPIN">     1</i>
    <i type="logical" name="LNONCOLLINEAR"> F  </i>
    <v name="MAGMOM">      1.00000000      1.00000000      1.00000000      1.00000000      1.00000000      1.00000000      1.00000000      1.00000000</v>
    <i name="NUPDOWN">     -1.00000000</i>
    <i type="logical" name="LSORBIT"> F  </i>
    <v name="SAXIS">      0.00000000      0.00000000      1.00000000</v>
    <i type="logical" name="LSPIRAL"> F  </i>
    <v name="QSPIRAL">      0.00000000      0.00000000      0.00000000</v>
    <i type="logical" name="LZEROZ"> F  </i>
   </separator>
   <separator name="electronic exchange-correlation" >
    <i type="logical" name="LASPH"> F  </i>
    <i type="logical" name="LMETAGGA"> F  </i>
   </separator>
   <separator name="electronic convergence" >
    <i type="int" name="NELM">    60</i>
    <i type="int" name="NELMDL">    -5</i>
    <i type="int" name="NELMIN">     2</i>
    <i name="ENINI">    500.00000000</i>
    <separator name="electronic convergence detail" >
     <i type="logical" name="LDIAG"> T  </i>
     <i type="logical" name="LSUBROT"> F  </i>
     <i name="WEIMIN">      0.00000000</i>
     <i name="EBREAK">      0.00000001</i>
     <i name="DEPER">      0.30000000</i>
     <i type="int" name="NRMM">     4</i>
     <i name="TIME">      0.40000000</i>
    </separator>
   </separator>
   <separator name="electronic mixer" >
    <i name="AMIX">      0.40000000</i>
    <i name="BMIX">      1.00000000</i>
    <i name="AMIN">      0.10000000</i>
    <i name="AMIX_MAG">      1.60000000</i>
    <i name="BMIX_MAG">      1.00000000</i>
    <separator name="electronic mixer details" >
     <i type="int" name="IMIX">     4</i>
     <i type="logical" name="MIXFIRST"> F  </i>
     <i type="int" name="MAXMIX">   -45</i>
     <i name="WC">    100.00000000</i>
     <i type="int" name="INIMIX">     1</i>
     <i type="int" name="MIXPRE">     1</i>
     <i type="int" name="MREMOVE">     5</i>
    </separator>
   </separator>
   <separator name="electronic dipolcorrection" >
    <i type="logical" name="LDIPOL"> F  </i>
    <i type="logical" name="LMONO"> F  </i>
    <i type="int" name="IDIPOL">     0</i>
    <i name="EPSILON">      1.00000000</i>
    <v name="DIPOL">   -100.00000000   -100.00000000   -100.00000000</v>
    <i name="EFIELD">      0.00000000</i>
   </separator>
  </separator>
  <separator name="grids" >
   <i type="int" name="NGX">    30</i>
   <i type="int" name="NGY">    30</i>
   <i type="int" name="NGZ">    84</i>
   <i type="int" name="NGXF">    60</i>
   <i type="int" name="NGYF">    60</i>
   <i type="int" name="NGZF">   168</i>
   <i type="logical" name="ADDGRID"> F  </i>
  </separator>
  <separator name="ionic" >
   <i type="int" name="NSW">     0</i>
   <i type="int" name="IBRION">    -1</i>
   <i type="int" name="MDALGO">     0</i>
   <i type="int" name="ISIF">     2</i>
   <i name="PSTRESS">      0.00000000</i>
   <i name="EDIFFG">      0.00001000</i>
   <i type="int" name="NFREE">     0</i>
   <i name="POTIM">      0.50000000</i>
   <i name="SMASS">     -3.00000000</i>
   <i name="SCALEE">      1.00000000</i>
  </separator>
  <separator name="ionic md" >
   <i name="TEBEG">      0.00010000</i>
   <i name="TEEND">      0.00010000</i>
   <i type="int" name="NBLOCK">     1</i>
   <i type="int" name="KBLOCK">     1</i>
   <i type="int" name="NPACO">   256</i>
   <i name="APACO">     16.00000000</i>
  </separator>
  <separator name="symmetry" >
   <i type="int" name="ISYM">     2</i>
   <i name="SYMPREC">      0.00001000</i>
  </separator>
  <separator name="dos" >
   <i type="int" name="LORBIT">     0</i>
   <v name="RWIGS">     -1.00000000     -1.00000000</v>
   <i type="int" name="NEDOS">   301</i>
   <i name="EMIN">     10.00000000</i>
   <i name="EMAX">    -10.00000000</i>
   <i name="EFERMI">      0.00000000</i>
  </separator>
  <separator name="writing" >
   <i type="int" name="NWRITE">     2</i>
   <i type="logical" name="LWAVE"> F  </i>
   <i type="logical" name="LDOWNSAMPLE"> F  </i>
   <i type="logical" name="LCHARG"> F  </i>
   <i type="logical" name="LPARD"> F  </i>
   <i type="logical" name="LVTOT"> F  </i>
   <i type="logical" name="LVHAR"> F  </i>
   <i type="logical" name="LELF"> F  </i>
   <i type="logical" name="LOPTICS"> F  </i>
   <v name="STM">      0.00000000      0.00000000      0.00000000      0.00000000      0.00000000      0.00000000      0.00000000</v>
  </separator>
  <separator name="performance" >
   <i type="int" name="NPAR">    12</i>
   <i type="int" name="NSIM">     4</i>
   <i type="int" name="NBLK">    -1</i>
   <i type="logical" name="LPLANE"> T  </i>
   <i type="logical" name="LSCALAPACK"> T  </i>
   <i type="logical" name="LSCAAWARE"> F  </i>
   <i type="logical" name="LSCALU"> F  </i>
   <i type="logical" name="LASYNC"> F  </i>
   <i type="logical" name="LORBITALREAL"> F  </i>
  </separator>
  <separator name="miscellaneous" >
   <i type="int" name="IDIOT">     3</i>
   <i type="int" name="ISPECIAL">     0</i>
   <i type="logical" name="LMUSIC"> F  </i>
   <v name="POMASS">     10.81100000     12.01100000</v>
   <v name="DARWINR">      0.00000000      0.00000000</v>
   <v name="DARWINV">      1.00000000      1.00000000</v>
   <i type="logical" name="LCORR"> T  </i>
  </separator>
  <i type="logical" name="GGA_COMPAT"> T  </i>
  <i type="logical" name="LBERRY"> F  </i>
  <i type="int" name="ICORELEVEL">     0</i>
  <i type="logical" name="LDAU"> F  </i>
  <i type="int" name="I_CONSTRAINED_M">     0</i>
  <separator name="electronic exchange-correlation" >
   <i type="string" name="GGA">PE</i>
   <i type="int" name="VOSKOWN">     0</i>
   <i type="logical" name="LHFCALC"> F  </i>
   <i type="string" name="PRECFOCK"></i>
   <i type="logical" name="LSYMGRAD"> F  </i>
   <i type="logical" name="LHFONE"> F  </i>
   <i type="logical" name="LRHFCALC"> F  </i>
   <i type="logical" name="LTHOMAS"> F  </i>
   <i type="logical" name="LMODELHF"> F  </i>
   <i name="ENCUT4O">     -1.00000000</i>
   <i type="int" name="EXXOEP">     0</i>
   <i type="int" name="FOURORBIT">     0</i>
   <i name="AEXX">      0.00000000</i>
   <i name="HFALPHA">      0.00000000</i>
   <i name="MCALPHA">      0.00000000</i>
   <i name="ALDAX">      1.00000000</i>
   <i name="AGGAX">      1.00000000</i>
   <i name="ALDAC">      1.00000000</i>
   <i name="AGGAC">      1.00000000</i>
   <i type="int" name="NKREDX">     1</i>
   <i type="int" name="NKREDY">     1</i>
   <i type="int" name="NKREDZ">     1</i>
   <i type="logical" name="SHIFTRED"> F  </i>
   <i type="logical" name="ODDONLY"> F  </i>
   <i type="logical" name="EVENONLY"> F  </i>
   <i type="int" name="LMAXFOCK">     0</i>
   <i type="int" name="NMAXFOCKAE">     0</i>
   <i type="logical" name="LFOCKAEDFT"> F  </i>
   <i name="HFSCREEN">      0.00000000</i>
   <i name="HFSCREENC">      0.00000000</i>
   <i type="int" name="NBANDSGWLOW">     0</i>
  </separator>
  <separator name="vdW DFT" >
   <i type="logical" name="LUSE_VDW"> F  </i>
   <i name="Zab_VDW">     -0.84910000</i>
   <i name="PARAM1">      0.12340000</i>
   <i name="PARAM2">      1.00000000</i>
   <i name="PARAM3">      0.00000000</i>
  </separator>
  <separator name="model GW" >
   <i type="int" name="MODEL_GW">     0</i>
   <i name="MODEL_EPS0">     26.80240372</i>
   <i name="MODEL_ALPHA">      1.00000000</i>
  </separator>
  <separator name="linear response parameters" >
   <i type="logical" name="LEPSILON"> F  </i>
   <i type="logical" name="LRPA"> F  </i>
   <i type="logical" name="LNABLA"> F  </i>
   <i type="logical" name="LVEL"> F  </i>
   <i type="int" name="KINTER">     0</i>
   <i name="CSHIFT">      0.10000000</i>
   <i name="OMEGAMAX">     -1.00000000</i>
   <i name="DEG_THRESHOLD">      0.00200000</i>
   <i name="RTIME">     -0.10000000</i>
   <i name="WPLASMAI">      0.00000000</i>
   <v name="DFIELD">      0.00000000      0.00000000      0.00000000</v>
   <v name="WPLASMA">      0.00000000      0.00000000      0.00000000      0.00000000      0.00000000      0.00000000      0.00000000      0.00000000      0.00000000</v>
  </separator>
  <separator name="orbital magnetization" >
   <i type="logical" name="NUCIND"> F  </i>
   <v name="MAGPOS">      0.00000000      0.00000000      0.00000000</v>
   <i type="logical" name="LNICSALL"> T  </i>
   <i type="logical" name="ORBITALMAG"> F  </i>
   <i type="logical" name="LMAGBLOCH"> F  </i>
   <i type="logical" name="LCHIMAG"> F  </i>
   <i type="logical" name="LGAUGE"> T  </i>
   <i type="int" name="MAGATOM">     0</i>
   <v name="MAGDIPOL">      0.00000000      0.00000000      0.00000000</v>
   <v name="AVECCONST">      0.00000000      0.00000000      0.00000000</v>
  </separator>
  <separator name="response functions" >
   <i type="logical" name="LADDER"> F  </i>
   <i type="logical" name="LRPAFORCE"> F  </i>
   <i type="logical" name="LFXC"> F  </i>
   <i type="logical" name="LHARTREE"> T  </i>
   <i type="int" name="IBSE">     0</i>
   <v type="int" name="KPOINT">    -1     0     0     0</v>
   <i type="logical" name="LTCTE"> F  </i>
   <i type="logical" name="LTETE"> F  </i>
   <i type="logical" name="LTRIPLET"> F  </i>
   <i type="logical" name="LFXCEPS"> F  </i>
   <i type="logical" name="LFXHEG"> F  </i>
   <i type="int" name="NATURALO">     2</i>
   <i type="logical" name="L2ORDER"> F  </i>
   <i type="logical" name="LMP2LT"> F  </i>
   <i type="logical" name="LUSEW"> F  </i>
   <i name="ENCUTGW">     -2.00000000</i>
   <i name="ENCUTGWSOFT">     -2.00000000</i>
   <i name="ENCUTLF">     -1.00000000</i>
   <i type="int" name="LMAXMP2">    -1</i>
   <i name="SCISSOR">      0.00000000</i>
   <i type="int" name="NOMEGA">     0</i>
   <i type="int" name="NOMEGAR">     0</i>
   <i type="int" name="NBANDSGW">    -1</i>
   <i type="int" name="NBANDSO">    -1</i>
   <i type="int" name="NBANDSV">    -1</i>
   <i type="int" name="NELM">     1</i>
   <i type="int" name="NELMHF">     1</i>
   <i type="int" name="DIM">     3</i>
   <i type="int" name="ANTIRES">     0</i>
   <i name="OMEGAMAX">    -30.00000000</i>
   <i name="OMEGAMIN">    -30.00000000</i>
   <i name="OMEGATL">   -200.00000000</i>
   <i type="int" name="OMEGAGRID">   140</i>
   <i name="CSHIFT">     -0.10000000</i>
   <i type="logical" name="SELFENERGY"> F  </i>
   <i type="logical" name="LSPECTRAL"> F  </i>
   <i type="logical" name="LSPECTRALGW"> F  </i>
   <i type="logical" name="LSINGLES"> F  </i>
   <i type="logical" name="LFERMIGW"> F  </i>
   <i type="logical" name="ODDONLYGW"> F  </i>
   <i type="logical" name="EVENONLYGW"> F  </i>
   <i type="int" name="NKREDLFX">     1</i>
   <i type="int" name="NKREDLFY">     1</i>
   <i type="int" name="NKREDLFZ">     1</i>
   <i type="int" name="MAXMEM">  2800</i>
   <i type="int" name="TELESCOPE">     0</i>
   <i type="int" name="TAUPAR">     1</i>
   <i type="int" name="OMEGAPAR">    -1</i>
   <i name="LAMBDA">      1.00000000</i>
  </separator>
  <separator name="External order field" >
   <i name="OFIELD_KAPPA">      0.00000000</i>
   <v name="OFIELD_K">      0.00000000      0.00000000      0.00000000</v>
   <i name="OFIELD_Q6_NEAR">      0.00000000</i>
   <i name="OFIELD_Q6_FAR">      0.00000000</i>
   <i name="OFIELD_A">      0.00000000</i>
  </separator>
 </parameters>
 <atominfo>
  <atoms>       8 </atoms>
  <types>       2 </types>
  <array name="atoms" >
   <dimension dim="1">ion</dimension>
   <field type="string">element</field>
   <field type="int">atomtype</field>
   <set>
    <rc><c>B </c><c>   1</c></rc>
    <rc><c>B </c><c>   1</c></rc>
    <rc><c>C </c><c>   2</c></rc>
    <rc><c>C </c><c>   2</c></rc>
    <rc><c>C </c><c>   2</c></rc>
    <rc><c>C </c><c>   2</c></rc>
    <rc><c>C </c><c>   2</c></rc>
    <rc><c>C </c><c>   2</c></rc>
   </set>
  </array>
  <array name="atomtypes" >
   <dimension dim="1">type</dimension>
   <field type="int">atomspertype</field>
   <field type="string">element</field>
   <field>mass</field>
   <field>valence</field>
   <field type="string">pseudopotential</field>
   <set>
    <rc><c>   2</c><c>B </c><c>     10.81100000</c><c>      3.00000000</c><c>  PAW_PBE B 06Sep2000                   </c></rc>
    <rc><c>   6</c><c>C </c><c>     12.01100000</c><c>      4.00000000</c><c>  PAW_PBE C 08Apr2002                   </c></rc>
   </set>
  </array>
 </atominfo>
 <structure name="initialpos" >
  <crystal>
   <varray name="basis" >
    <v>       4.54663337       2.62000000       0.00000000 </v>
    <v>      -4.54663337       2.62000000       0.00000000 </v>
    <v>       0.00000000       0.00000000      15.00000000 </v>
   </varray>
   <i name="volume">    357.36538296 </i>
   <varray name="rec_basis" >
    <v>       0.10997148       0.19083969       0.00000000 </v>
    <v>      -0.10997148       0.19083969       0.00000000 </v>
    <v>       0.00000000       0.00000000       0.06666667 </v>
   </varray>
  </crystal>
  <varray name="positions" >
   <v>       0.33333300       0.66666600       0.25000000 </v>
   <v>       0.66666600       0.33333300       0.25000000 </v>
   <v>       0.16666600       0.33333300       0.25000000 </v>
   <v>       0.33333300       0.16666600       0.25000000 </v>
   <v>       0.16666600       0.83333300       0.25000000 </v>
   <v>       0.83333300       0.16666600       0.25000000 </v>
   <v>       0.66666600       0.83333300       0.25000000 </v>
   <v>       0.83333300       0.66666600       0.25000000 </v>
  </varray>
 </structure>
 <calculation>
  <scstep>
   <time name="dav">    1.81    1.81</time>
   <time name="total">    1.84    1.85</time>
   <energy>
    <i name="alphaZ">     14.19416766 </i>
    <i name="ewald">   2486.75923753 </i>
    <i name="hartreedc">  -3255.51652711 </i>
    <i name="XCdc">     90.20946745 </i>
    <i name="pawpsdc">    738.13200929 </i>
    <i name="pawaedc">   -739.83780425 </i>
    <i name="eentropy">     -0.01725463 </i>
    <i name="bandstr">   -137.07018942 </i>
    <i name="atom">   1025.22876360 </i>
    <i name="e_fr_energy">    222.08187012 </i>
    <i name="e_wo_entrp">    222.09912476 </i>
    <i name="e_0_energy">    222.09049744 </i>
   </energy>
  </scstep>
  <scstep>
   <time name="dav">    2.52    2.52</time>
   <time name="total">    2.52    2.52</time>
   <energy>
    <i name="e_fr_energy">    -39.06398439 </i>
    <i name="e_wo_entrp">    -39.06033171 </i>
    <i name="e_0_energy">    -39.06215805 </i>
   </energy>
  </scstep>
  <scstep>
   <time name="dav">    2.22    2.22</time>
   <time name="total">    2.22    2.22</time>
   <energy>
    <i name="e_fr_energy">    -70.67489324 </i>
    <i name="e_wo_entrp">    -70.67489324 </i>
    <i name="e_0_energy">    -70.67489324 </i>
   </energy>
  </scstep>
  <scstep>
   <time name="dav">    2.32    2.32</time>
   <time name="total">    2.32    2.32</time>
   <energy>
    <i name="e_fr_energy">    -71.39004218 </i>
    <i name="e_wo_entrp">    -71.39004218 </i>
    <i name="e_0_energy">    -71.39004218 </i>
   </energy>
  </scstep>
  <scstep>
   <time name="dav">    2.27    2.27</time>
   <time name="total">    2.39    2.39</time>
   <energy>
    <i name="e_fr_energy">    -71.41322496 </i>
    <i name="e_wo_entrp">    -71.41322496 </i>
    <i name="e_0_energy">    -71.41322496 </i>
   </energy>
  </scstep>
  <scstep>
   <time name="dav">    2.19    2.19</time>
   <time name="total">    2.34    2.34</time>
   <energy>
    <i name="e_fr_energy">    -67.77134118 </i>
    <i name="e_wo_entrp">    -67.77134116 </i>
    <i name="e_0_energy">    -67.77134117 </i>
   </energy>
  </scstep>
  <scstep>
   <time name="dav">    2.45    2.45</time>
   <time name="total">    2.59    2.60</time>
   <energy>
    <i name="e_fr_energy">    -66.21331232 </i>
    <i name="e_wo_entrp">    -66.21330825 </i>
    <i name="e_0_energy">    -66.21331029 </i>
   </energy>
  </scstep>
  <scstep>
   <time name="dav">    2.31    2.31</time>
   <time name="total">    2.46    2.46</time>
   <energy>
    <i name="e_fr_energy">    -66.18037142 </i>
    <i name="e_wo_entrp">    -66.18036656 </i>
    <i name="e_0_energy">    -66.18036899 </i>
   </energy>
  </scstep>
  <scstep>
   <time name="dav">    2.20    2.20</time>
   <time name="total">    2.34    2.34</time>
   <energy>
    <i name="e_fr_energy">    -66.17063734 </i>
    <i name="e_wo_entrp">    -66.17063033 </i>
    <i name="e_0_energy">    -66.17063383 </i>
   </energy>
  </scstep>
  <scstep>
   <time name="dav">    1.94    1.94</time>
   <time name="total">    2.09    2.09</time>
   <energy>
    <i name="e_fr_energy">    -66.16374168 </i>
    <i name="e_wo_entrp">    -66.16372942 </i>
    <i name="e_0_energy">    -66.16373555 </i>
   </energy>
  </scstep>
  <scstep>
   <time name="dav">    2.03    2.03</time>
   <time name="total">    2.17    2.17</time>
   <energy>
    <i name="e_fr_energy">    -66.16211081 </i>
    <i name="e_wo_entrp">    -66.16209503 </i>
    <i name="e_0_energy">    -66.16210292 </i>
   </energy>
  </scstep>
  <scstep>
   <time name="dav">    1.80    1.80</time>
   <time name="total">    1.95    1.95</time>
   <energy>
    <i name="e_fr_energy">    -66.16225766 </i>
    <i name="e_wo_entrp">    -66.16224092 </i>
    <i name="e_0_energy">    -66.16224929 </i>
   </energy>
  </scstep>
  <scstep>
   <time name="dav">    2.24    2.24</time>
   <time name="total">    2.38    2.38</time>
   <energy>
    <i name="e_fr_energy">    -66.16402259 </i>
    <i name="e_wo_entrp">    -66.16400653 </i>
    <i name="e_0_energy">    -66.16401456 </i>
   </energy>
  </scstep>
  <scstep>
   <time name="dav">    1.92    1.92</time>
   <time name="total">    2.07    2.07</time>
   <energy>
    <i name="e_fr_energy">    -66.16628316 </i>
    <i name="e_wo_entrp">    -66.16626758 </i>
    <i name="e_0_energy">    -66.16627537 </i>
   </energy>
  </scstep>
  <scstep>
   <time name="dav">    2.09    2.09</time>
   <time name="total">    2.23    2.23</time>
   <energy>
    <i name="e_fr_energy">    -66.16682209 </i>
    <i name="e_wo_entrp">    -66.16680601 </i>
    <i name="e_0_energy">    -66.16681405 </i>
   </energy>
  </scstep>
  <scstep>
   <time name="dav">    1.84    1.84</time>
   <time name="total">    1.98    1.98</time>
   <energy>
    <i name="e_fr_energy">    -66.16711012 </i>
    <i name="e_wo_entrp">    -66.16709422 </i>
    <i name="e_0_energy">    -66.16710217 </i>
   </energy>
  </scstep>
  <scstep>
   <time name="dav">    2.09    2.09</time>
   <time name="total">    2.23    2.23</time>
   <energy>
    <i name="e_fr_energy">    -66.16714611 </i>
    <i name="e_wo_entrp">    -66.16713017 </i>
    <i name="e_0_energy">    -66.16713814 </i>
   </energy>
  </scstep>
  <scstep>
   <time name="dav">    1.56    1.56</time>
   <time name="total">    1.70    1.70</time>
   <energy>
    <i name="e_fr_energy">    -66.16715896 </i>
    <i name="e_wo_entrp">    -66.16714304 </i>
    <i name="e_0_energy">    -66.16715100 </i>
   </energy>
  </scstep>
  <scstep>
   <time name="dav">    1.88    1.88</time>
   <time name="total">    1.91    1.91</time>
   <energy>
    <i name="alphaZ">     14.19416766 </i>
    <i name="ewald">   2486.75923753 </i>
    <i name="hartreedc">  -3379.27775859 </i>
    <i name="XCdc">     94.68741487 </i>
    <i name="pawpsdc">   2657.40584727 </i>
    <i name="pawaedc">  -2659.85481482 </i>
    <i name="eentropy">     -0.00001593 </i>
    <i name="bandstr">   -305.31000133 </i>
    <i name="atom">   1025.22876360 </i>
    <i name="e_fr_energy">    -66.16715974 </i>
    <i name="e_wo_entrp">    -66.16714381 </i>
    <i name="e_0_energy">    -66.16715177 </i>
   </energy>
  </scstep>
  <structure>
   <crystal>
    <varray name="basis" >
     <v>       4.54663337       2.62000000       0.00000000 </v>
     <v>      -4.54663337       2.62000000       0.00000000 </v>
     <v>       0.00000000       0.00000000      15.00000000 </v>
    </varray>
    <i name="volume">    357.36538296 </i>
    <varray name="rec_basis" >
     <v>       0.10997148       0.19083969       0.00000000 </v>
     <v>      -0.10997148       0.19083969       0.00000000 </v>
     <v>       0.00000000       0.00000000       0.06666667 </v>
    </varray>
   </crystal>
   <varray name="positions" >
    <v>       0.33333300       0.66666600       0.25000000 </v>
    <v>       0.66666600       0.33333300       0.25000000 </v>
    <v>       0.16666600       0.33333300       0.25000000 </v>
    <v>       0.33333300       0.16666600       0.25000000 </v>
    <v>       0.16666600       0.83333300       0.25000000 </v>
    <v>       0.83333300       0.16666600       0.25000000 </v>
    <v>       0.66666600       0.83333300       0.25000000 </v>
    <v>       0.83333300       0.66666600       0.25000000 </v>
   </varray>
  </structure>
  <varray name="forces" >
   <v>      -0.02568864       0.00000000       0.00000000 </v>
   <v>       0.02568864       0.00000000       0.00000000 </v>
   <v>       2.08019359      -3.58165981       0.00000000 </v>
   <v>      -2.08019359      -3.58165981       0.00000000 </v>
   <v>      -4.11754833       0.00000000       0.00000000 </v>
   <v>       4.11754833       0.00000000      -0.00000000 </v>
   <v>       2.08019359       3.58165981       0.00000000 </v>
   <v>      -2.08019359       3.58165981       0.00000000 </v>
  </varray>
  <varray name="stress" >
   <v>     -34.82363502       0.00000000       0.00000000 </v>
   <v>       0.00000000     -32.00201258       0.00000000 </v>
   <v>       0.00000000       0.00000000      -0.17129600 </v>
  </varray>
  <energy>
   <i name="e_fr_energy">    -66.16715974 </i>
   <i name="e_wo_entrp">    -66.16715177 </i>
   <i name="e_0_energy">     -0.00001593 </i>
  </energy>
  <time name="totalsc">   45.41   45.43</time>
  <eigenvalues>
   <array>
    <dimension dim="1">band</dimension>
    <dimension dim="2">kpoint</dimension>
    <dimension dim="3">spin</dimension>
    <field>eigene</field>
    <field>occ</field>
    <set>
     <set comment="spin 1">
      <set comment="kpoint 1">
       <r>  -19.3382    1.0000 </r>
       <r>  -15.5840    1.0000 </r>
       <r>  -15.5626    1.0000 </r>
       <r>  -13.7630    1.0000 </r>
       <r>  -13.7577    1.0000 </r>
       <r>  -12.2233    1.0000 </r>
       <r>  -12.2178    1.0000 </r>
       <r>   -8.4994    1.0000 </r>
       <r>   -7.9126    1.0000 </r>
       <r>   -6.6738    1.0000 </r>
       <r>   -6.6538    1.0000 </r>
       <r>   -4.3614    1.0000 </r>
       <r>   -4.3452    1.0000 </r>
       <r>   -4.1041    0.9991 </r>
       <r>   -4.0966    0.9987 </r>
       <r>   -2.7354    0.0000 </r>
       <r>   -0.8296    0.0000 </r>
       <r>   -0.8268    0.0000 </r>
       <r>    0.8159    0.0000 </r>
       <r>    0.8791    0.0000 </r>
       <r>    1.7761    0.0000 </r>
       <r>    2.1823    0.0000 </r>
       <r>    3.7089    0.0000 </r>
       <r>    3.7507    0.0000 </r>
      </set>
      <set comment="kpoint 2">
       <r>  -19.3059    1.0000 </r>
       <r>  -15.7263    1.0000 </r>
       <r>  -15.6387    1.0000 </r>
       <r>  -13.8324    1.0000 </r>
       <r>  -13.6394    1.0000 </r>
       <r>  -12.0969    1.0000 </r>
       <r>  -12.0009    1.0000 </r>
       <r>   -8.4570    1.0000 </r>
       <r>   -7.9835    1.0000 </r>
       <r>   -6.7682    1.0000 </r>
       <r>   -6.6858    1.0000 </r>
       <r>   -4.4757    1.0000 </r>
       <r>   -4.3809    1.0000 </r>
       <r>   -4.2491    1.0000 </r>
       <r>   -4.1776    1.0000 </r>
       <r>   -2.9050    0.0000 </r>
       <r>   -0.7690    0.0000 </r>
       <r>   -0.5490    0.0000 </r>
       <r>    0.8660    0.0000 </r>
       <r>    0.9851    0.0000 </r>
       <r>    1.8325    0.0000 </r>
       <r>    2.2328    0.0000 </r>
       <r>    3.7957    0.0000 </r>
       <r>    3.9277    0.0000 </r>
      </set>
      <set comment="kpoint 3">
       <r>  -19.2100    1.0000 </r>
       <r>  -16.1071    1.0000 </r>
       <r>  -15.7802    1.0000 </r>
       <r>  -13.9882    1.0000 </r>
       <r>  -13.3255    1.0000 </r>
       <r>  -11.7710    1.0000 </r>
       <r>  -11.4468    1.0000 </r>
       <r>   -8.3303    1.0000 </r>
       <r>   -8.2190    1.0000 </r>
       <r>   -7.0732    1.0000 </r>
       <r>   -6.6900    1.0000 </r>
       <r>   -4.8359    1.0000 </r>
       <r>   -4.6766    1.0000 </r>
       <r>   -4.4438    1.0000 </r>
       <r>   -4.3886    1.0000 </r>
       <r>   -3.1870    0.0000 </r>
       <r>   -0.6092    0.0000 </r>
       <r>    0.0218    0.0000 </r>
       <r>    1.0160    0.0000 </r>
       <r>    1.3105    0.0000 </r>
       <r>    2.0084    0.0000 </r>
       <r>    2.3841    0.0000 </r>
       <r>    4.0083    0.0000 </r>
       <r>    4.3606    0.0000 </r>
      </set>
      <set comment="kpoint 4">
       <r>  -19.0546    1.0000 </r>
       <r>  -16.5715    1.0000 </r>
       <r>  -15.9349    1.0000 </r>
       <r>  -14.1520    1.0000 </r>
       <r>  -12.8942    1.0000 </r>
       <r>  -11.3261    1.0000 </r>
       <r>  -10.7014    1.0000 </r>
       <r>   -8.6230    1.0000 </r>
       <r>   -8.1209    1.0000 </r>
       <r>   -7.5244    1.0000 </r>
       <r>   -6.6096    1.0000 </r>
       <r>   -5.3504    1.0000 </r>
       <r>   -5.3224    1.0000 </r>
       <r>   -4.6959    1.0000 </r>
       <r>   -4.5235    1.0000 </r>
       <r>   -3.4028    0.0000 </r>
       <r>   -0.3897    0.0000 </r>
       <r>    0.5714    0.0000 </r>
       <r>    1.2651    0.0000 </r>
       <r>    1.8343    0.0000 </r>
       <r>    2.3442    0.0000 </r>
       <r>    2.6357    0.0000 </r>
       <r>    4.2935    0.0000 </r>
       <r>    4.6081    0.0000 </r>
      </set>
      <set comment="kpoint 5">
       <r>  -18.8504    1.0000 </r>
       <r>  -17.0291    1.0000 </r>
       <r>  -16.0629    1.0000 </r>
       <r>  -14.2842    1.0000 </r>
       <r>  -12.4131    1.0000 </r>
       <r>  -10.8178    1.0000 </r>
       <r>   -9.8581    1.0000 </r>
       <r>   -9.1243    1.0000 </r>
       <r>   -8.0517    1.0000 </r>
       <r>   -7.8325    1.0000 </r>
       <r>   -6.4352    1.0000 </r>
       <r>   -6.1182    1.0000 </r>
       <r>   -5.9143    1.0000 </r>
       <r>   -5.0529    1.0000 </r>
       <r>   -4.5976    1.0000 </r>
       <r>   -3.5452    0.0000 </r>
       <r>   -0.1665    0.0000 </r>
       <r>    0.9894    0.0000 </r>
       <r>    1.6126    0.0000 </r>
       <r>    2.3765    0.0000 </r>
       <r>    2.9536    0.0000 </r>
       <r>    2.9873    0.0000 </r>
       <r>    3.9755    0.0000 </r>
       <r>    4.8476    0.0000 </r>
      </set>
      <set comment="kpoint 6">
       <r>  -18.6315    1.0000 </r>
       <r>  -17.4100    1.0000 </r>
       <r>  -16.1452    1.0000 </r>
       <r>  -14.3681    1.0000 </r>
       <r>  -11.9733    1.0000 </r>
       <r>  -10.3098    1.0000 </r>
       <r>   -9.5941    1.0000 </r>
       <r>   -9.0469    1.0000 </r>
       <r>   -8.4908    1.0000 </r>
       <r>   -7.4762    1.0000 </r>
       <r>   -7.0012    1.0000 </r>
       <r>   -6.4541    1.0000 </r>
       <r>   -6.1954    1.0000 </r>
       <r>   -5.4096    1.0000 </r>
       <r>   -4.6487    1.0000 </r>
       <r>   -3.6277    0.0001 </r>
       <r>    0.0008    0.0000 </r>
       <r>    1.2601    0.0000 </r>
       <r>    2.0579    0.0000 </r>
       <r>    2.8756    0.0000 </r>
       <r>    3.2403    0.0000 </r>
       <r>    3.4396    0.0000 </r>
       <r>    3.6760    0.0000 </r>
       <r>    4.2485    0.0000 </r>
      </set>
      <set comment="kpoint 7">
       <r>  -18.5140    1.0000 </r>
       <r>  -17.5828    1.0000 </r>
       <r>  -16.1734    1.0000 </r>
       <r>  -14.3967    1.0000 </r>
       <r>  -11.7690    1.0000 </r>
       <r>  -10.0243    1.0000 </r>
       <r>   -9.8113    1.0000 </r>
       <r>   -9.0031    1.0000 </r>
       <r>   -7.9707    1.0000 </r>
       <r>   -7.8556    1.0000 </r>
       <r>   -7.1793    1.0000 </r>
       <r>   -6.8147    1.0000 </r>
       <r>   -6.0140    1.0000 </r>
       <r>   -5.6312    1.0000 </r>
       <r>   -4.6668    1.0000 </r>
       <r>   -3.6550    0.0006 </r>
       <r>    0.0631    0.0000 </r>
       <r>    1.3564    0.0000 </r>
       <r>    2.5814    0.0000 </r>
       <r>    2.6208    0.0000 </r>
       <r>    3.3695    0.0000 </r>
       <r>    3.4542    0.0000 </r>
       <r>    3.9851    0.0000 </r>
       <r>    3.9944    0.0000 </r>
      </set>
      <set comment="kpoint 8">
       <r>  -19.2417    1.0000 </r>
       <r>  -15.9645    1.0000 </r>
       <r>  -15.7748    1.0000 </r>
       <r>  -13.8882    1.0000 </r>
       <r>  -13.4837    1.0000 </r>
       <r>  -11.8294    1.0000 </r>
       <r>  -11.6485    1.0000 </r>
       <r>   -8.3723    1.0000 </r>
       <r>   -8.1414    1.0000 </r>
       <r>   -6.9301    1.0000 </r>
       <r>   -6.7381    1.0000 </r>
       <r>   -4.6834    1.0000 </r>
       <r>   -4.5302    1.0000 </r>
       <r>   -4.4733    1.0000 </r>
       <r>   -4.3287    1.0000 </r>
       <r>   -3.0965    0.0000 </r>
       <r>   -0.7027    0.0000 </r>
       <r>   -0.0959    0.0000 </r>
       <r>    0.9662    0.0000 </r>
       <r>    1.1962    0.0000 </r>
       <r>    1.9483    0.0000 </r>
       <r>    2.3339    0.0000 </r>
       <r>    3.9509    0.0000 </r>
       <r>    4.3110    0.0000 </r>
      </set>
      <set comment="kpoint 9">
       <r>  -19.1158    1.0000 </r>
       <r>  -16.3542    1.0000 </r>
       <r>  -15.9667    1.0000 </r>
       <r>  -13.9659    1.0000 </r>
       <r>  -13.1957    1.0000 </r>
       <r>  -11.3899    1.0000 </r>
       <r>  -11.0384    1.0000 </r>
       <r>   -8.4925    1.0000 </r>
       <r>   -8.2041    1.0000 </r>
       <r>   -7.2259    1.0000 </r>
       <r>   -6.7524    1.0000 </r>
       <r>   -5.0827    1.0000 </r>
       <r>   -5.0505    1.0000 </r>
       <r>   -4.6369    1.0000 </r>
       <r>   -4.6045    1.0000 </r>
       <r>   -3.2365    0.0000 </r>
       <r>   -0.6002    0.0000 </r>
       <r>    0.5232    0.0000 </r>
       <r>    1.1660    0.0000 </r>
       <r>    1.6045    0.0000 </r>
       <r>    2.1959    0.0000 </r>
       <r>    2.5355    0.0000 </r>
       <r>    4.2381    0.0000 </r>
       <r>    4.5097    0.0000 </r>
      </set>
      <set comment="kpoint 10">
       <r>  -18.9348    1.0000 </r>
       <r>  -16.8006    1.0000 </r>
       <r>  -16.1333    1.0000 </r>
       <r>  -14.0723    1.0000 </r>
       <r>  -12.7764    1.0000 </r>
       <r>  -10.8892    1.0000 </r>
       <r>  -10.2588    1.0000 </r>
       <r>   -8.9900    1.0000 </r>
       <r>   -7.9548    1.0000 </r>
       <r>   -7.6564    1.0000 </r>
       <r>   -6.6431    1.0000 </r>
       <r>   -5.7535    1.0000 </r>
       <r>   -5.6129    1.0000 </r>
       <r>   -4.9553    1.0000 </r>
       <r>   -4.7831    1.0000 </r>
       <r>   -3.3040    0.0000 </r>
       <r>   -0.4580    0.0000 </r>
       <r>    1.0596    0.0000 </r>
       <r>    1.4646    0.0000 </r>
       <r>    2.1414    0.0000 </r>
       <r>    2.6446    0.0000 </r>
       <r>    2.8374    0.0000 </r>
       <r>    4.4141    0.0000 </r>
       <r>    4.8038    0.0000 </r>
      </set>
      <set comment="kpoint 11">
       <r>  -18.7177    1.0000 </r>
       <r>  -17.2187    1.0000 </r>
       <r>  -16.2511    1.0000 </r>
       <r>  -14.1614    1.0000 </r>
       <r>  -12.3164    1.0000 </r>
       <r>  -10.3724    1.0000 </r>
       <r>   -9.5594    1.0000 </r>
       <r>   -9.3648    1.0000 </r>
       <r>   -8.1409    1.0000 </r>
       <r>   -7.6305    1.0000 </r>
       <r>   -6.5807    1.0000 </r>
       <r>   -6.4337    1.0000 </r>
       <r>   -6.1655    1.0000 </r>
       <r>   -5.3300    1.0000 </r>
       <r>   -4.8879    1.0000 </r>
       <r>   -3.3402    0.0000 </r>
       <r>   -0.3155    0.0000 </r>
       <r>    1.4350    0.0000 </r>
       <r>    1.8613    0.0000 </r>
       <r>    2.6546    0.0000 </r>
       <r>    3.2390    0.0000 </r>
       <r>    3.3461    0.0000 </r>
       <r>    3.6336    0.0000 </r>
       <r>    4.5442    0.0000 </r>
      </set>
      <set comment="kpoint 12">
       <r>  -18.5293    1.0000 </r>
       <r>  -17.5133    1.0000 </r>
       <r>  -16.3117    1.0000 </r>
       <r>  -14.2095    1.0000 </r>
       <r>  -11.9614    1.0000 </r>
       <r>   -9.9940    1.0000 </r>
       <r>   -9.8820    1.0000 </r>
       <r>   -8.7634    1.0000 </r>
       <r>   -8.2908    1.0000 </r>
       <r>   -7.4643    1.0000 </r>
       <r>   -7.2607    1.0000 </r>
       <r>   -6.6588    1.0000 </r>
       <r>   -6.1897    1.0000 </r>
       <r>   -5.6621    1.0000 </r>
       <r>   -4.9428    1.0000 </r>
       <r>   -3.3572    0.0000 </r>
       <r>   -0.2257    0.0000 </r>
       <r>    1.6340    0.0000 </r>
       <r>    2.3554    0.0000 </r>
       <r>    2.9462    0.0000 </r>
       <r>    3.1701    0.0000 </r>
       <r>    3.6977    0.0000 </r>
       <r>    3.7411    0.0000 </r>
       <r>    4.3397    0.0000 </r>
      </set>
      <set comment="kpoint 13">
       <r>  -18.5296    1.0000 </r>
       <r>  -17.5131    1.0000 </r>
       <r>  -16.3119    1.0000 </r>
       <r>  -14.2083    1.0000 </r>
       <r>  -11.9594    1.0000 </r>
       <r>   -9.9892    1.0000 </r>
       <r>   -9.8973    1.0000 </r>
       <r>   -8.7581    1.0000 </r>
       <r>   -8.2925    1.0000 </r>
       <r>   -7.4599    1.0000 </r>
       <r>   -7.2618    1.0000 </r>
       <r>   -6.6576    1.0000 </r>
       <r>   -6.1864    1.0000 </r>
       <r>   -5.6657    1.0000 </r>
       <r>   -4.9441    1.0000 </r>
       <r>   -3.3547    0.0000 </r>
       <r>   -0.2262    0.0000 </r>
       <r>    1.6328    0.0000 </r>
       <r>    2.3537    0.0000 </r>
       <r>    2.9481    0.0000 </r>
       <r>    3.1687    0.0000 </r>
       <r>    3.6985    0.0000 </r>
       <r>    3.7394    0.0000 </r>
       <r>    4.3407    0.0000 </r>
      </set>
      <set comment="kpoint 14">
       <r>  -18.7183    1.0000 </r>
       <r>  -17.2185    1.0000 </r>
       <r>  -16.2514    1.0000 </r>
       <r>  -14.1576    1.0000 </r>
       <r>  -12.3134    1.0000 </r>
       <r>  -10.3801    1.0000 </r>
       <r>   -9.5713    1.0000 </r>
       <r>   -9.3669    1.0000 </r>
       <r>   -8.1285    1.0000 </r>
       <r>   -7.6316    1.0000 </r>
       <r>   -6.5768    1.0000 </r>
       <r>   -6.4293    1.0000 </r>
       <r>   -6.1640    1.0000 </r>
       <r>   -5.3347    1.0000 </r>
       <r>   -4.8914    1.0000 </r>
       <r>   -3.3329    0.0000 </r>
       <r>   -0.3171    0.0000 </r>
       <r>    1.4319    0.0000 </r>
       <r>    1.8600    0.0000 </r>
       <r>    2.6533    0.0000 </r>
       <r>    3.2377    0.0000 </r>
       <r>    3.3437    0.0000 </r>
       <r>    3.6358    0.0000 </r>
       <r>    4.5453    0.0000 </r>
      </set>
      <set comment="kpoint 15">
       <r>  -18.9353    1.0000 </r>
       <r>  -16.8014    1.0000 </r>
       <r>  -16.1328    1.0000 </r>
       <r>  -14.0658    1.0000 </r>
       <r>  -12.7754    1.0000 </r>
       <r>  -10.8972    1.0000 </r>
       <r>  -10.2625    1.0000 </r>
       <r>   -9.0009    1.0000 </r>
       <r>   -7.9557    1.0000 </r>
       <r>   -7.6434    1.0000 </r>
       <r>   -6.6389    1.0000 </r>
       <r>   -5.7504    1.0000 </r>
       <r>   -5.6119    1.0000 </r>
       <r>   -4.9591    1.0000 </r>
       <r>   -4.7879    1.0000 </r>
       <r>   -3.2929    0.0000 </r>
       <r>   -0.4611    0.0000 </r>
       <r>    1.0558    0.0000 </r>
       <r>    1.4635    0.0000 </r>
       <r>    2.1398    0.0000 </r>
       <r>    2.6424    0.0000 </r>
       <r>    2.8364    0.0000 </r>
       <r>    4.4167    0.0000 </r>
       <r>    4.8027    0.0000 </r>
      </set>
      <set comment="kpoint 16">
       <r>  -19.1162    1.0000 </r>
       <r>  -16.3583    1.0000 </r>
       <r>  -15.9627    1.0000 </r>
       <r>  -13.9561    1.0000 </r>
       <r>  -13.1987    1.0000 </r>
       <r>  -11.3960    1.0000 </r>
       <r>  -11.0422    1.0000 </r>
       <r>   -8.5018    1.0000 </r>
       <r>   -8.2048    1.0000 </r>
       <r>   -7.2184    1.0000 </r>
       <r>   -6.7456    1.0000 </r>
       <r>   -5.0842    1.0000 </r>
       <r>   -5.0499    1.0000 </r>
       <r>   -4.6395    1.0000 </r>
       <r>   -4.6056    1.0000 </r>
       <r>   -3.2242    0.0000 </r>
       <r>   -0.6043    0.0000 </r>
       <r>    0.5198    0.0000 </r>
       <r>    1.1653    0.0000 </r>
       <r>    1.6023    0.0000 </r>
       <r>    2.1945    0.0000 </r>
       <r>    2.5348    0.0000 </r>
       <r>    4.2524    0.0000 </r>
       <r>    4.5090    0.0000 </r>
      </set>
      <set comment="kpoint 17">
       <r>  -19.2420    1.0000 </r>
       <r>  -15.9767    1.0000 </r>
       <r>  -15.7620    1.0000 </r>
       <r>  -13.8772    1.0000 </r>
       <r>  -13.4902    1.0000 </r>
       <r>  -11.8322    1.0000 </r>
       <r>  -11.6527    1.0000 </r>
       <r>   -8.3727    1.0000 </r>
       <r>   -8.1470    1.0000 </r>
       <r>   -6.9375    1.0000 </r>
       <r>   -6.7218    1.0000 </r>
       <r>   -4.6930    1.0000 </r>
       <r>   -4.5342    1.0000 </r>
       <r>   -4.4661    1.0000 </r>
       <r>   -4.3250    1.0000 </r>
       <r>   -3.0870    0.0000 </r>
       <r>   -0.7069    0.0000 </r>
       <r>   -0.0982    0.0000 </r>
       <r>    0.9658    0.0000 </r>
       <r>    1.1944    0.0000 </r>
       <r>    1.9476    0.0000 </r>
       <r>    2.3334    0.0000 </r>
       <r>    3.9795    0.0000 </r>
       <r>    4.3106    0.0000 </r>
      </set>
      <set comment="kpoint 18">
       <r>  -19.3060    1.0000 </r>
       <r>  -15.7405    1.0000 </r>
       <r>  -15.6238    1.0000 </r>
       <r>  -13.8270    1.0000 </r>
       <r>  -13.6435    1.0000 </r>
       <r>  -12.0971    1.0000 </r>
       <r>  -12.0034    1.0000 </r>
       <r>   -8.4571    1.0000 </r>
       <r>   -7.9852    1.0000 </r>
       <r>   -6.7818    1.0000 </r>
       <r>   -6.6694    1.0000 </r>
       <r>   -4.4880    1.0000 </r>
       <r>   -4.3690    1.0000 </r>
       <r>   -4.2555    1.0000 </r>
       <r>   -4.1713    1.0000 </r>
       <r>   -2.9016    0.0000 </r>
       <r>   -0.7715    0.0000 </r>
       <r>   -0.5493    0.0000 </r>
       <r>    0.8659    0.0000 </r>
       <r>    0.9845    0.0000 </r>
       <r>    1.8323    0.0000 </r>
       <r>    2.2327    0.0000 </r>
       <r>    3.8307    0.0000 </r>
       <r>    3.8934    0.0000 </r>
      </set>
      <set comment="kpoint 19">
       <r>  -18.9636    1.0000 </r>
       <r>  -16.6500    1.0000 </r>
       <r>  -16.2561    1.0000 </r>
       <r>  -13.8301    1.0000 </r>
       <r>  -13.0731    1.0000 </r>
       <r>  -10.7896    1.0000 </r>
       <r>  -10.4904    1.0000 </r>
       <r>   -8.9744    1.0000 </r>
       <r>   -7.9959    1.0000 </r>
       <r>   -7.3107    1.0000 </r>
       <r>   -6.8929    1.0000 </r>
       <r>   -5.5957    1.0000 </r>
       <r>   -5.3839    1.0000 </r>
       <r>   -5.0198    1.0000 </r>
       <r>   -4.9567    1.0000 </r>
       <r>   -3.1185    0.0000 </r>
       <r>   -0.6677    0.0000 </r>
       <r>    1.1998    0.0000 </r>
       <r>    1.4153    0.0000 </r>
       <r>    2.0049    0.0000 </r>
       <r>    2.5316    0.0000 </r>
       <r>    2.7876    0.0000 </r>
       <r>    4.6332    0.0000 </r>
       <r>    4.7566    0.0000 </r>
      </set>
      <set comment="kpoint 20">
       <r>  -18.7655    1.0000 </r>
       <r>  -17.0034    1.0000 </r>
       <r>  -16.4769    1.0000 </r>
       <r>  -13.7774    1.0000 </r>
       <r>  -12.7775    1.0000 </r>
       <r>  -10.2192    1.0000 </r>
       <r>   -9.7743    1.0000 </r>
       <r>   -9.5159    1.0000 </r>
       <r>   -7.7095    1.0000 </r>
       <r>   -7.5840    1.0000 </r>
       <r>   -6.8432    1.0000 </r>
       <r>   -6.2832    1.0000 </r>
       <r>   -5.8369    1.0000 </r>
       <r>   -5.3710    1.0000 </r>
       <r>   -5.2829    1.0000 </r>
       <r>   -2.9687    0.0000 </r>
       <r>   -0.7126    0.0000 </r>
       <r>    1.7633    0.0000 </r>
       <r>    1.7720    0.0000 </r>
       <r>    2.4834    0.0000 </r>
       <r>    3.0568    0.0000 </r>
       <r>    3.1398    0.0000 </r>
       <r>    4.1238    0.0000 </r>
       <r>    4.7095    0.0000 </r>
      </set>
      <set comment="kpoint 21">
       <r>  -18.5568    1.0000 </r>
       <r>  -17.3357    1.0000 </r>
       <r>  -16.5978    1.0000 </r>
       <r>  -13.7888    1.0000 </r>
       <r>  -12.4014    1.0000 </r>
       <r>  -10.1374    1.0000 </r>
       <r>   -9.6499    1.0000 </r>
       <r>   -8.9096    1.0000 </r>
       <r>   -7.9718    1.0000 </r>
       <r>   -7.3574    1.0000 </r>
       <r>   -7.0856    1.0000 </r>
       <r>   -6.6126    1.0000 </r>
       <r>   -6.3460    1.0000 </r>
       <r>   -5.7745    1.0000 </r>
       <r>   -5.4080    1.0000 </r>
       <r>   -2.8636    0.0000 </r>
       <r>   -0.7253    0.0000 </r>
       <r>    2.1194    0.0000 </r>
       <r>    2.2093    0.0000 </r>
       <r>    2.9992    0.0000 </r>
       <r>    3.3887    0.0000 </r>
       <r>    3.5927    0.0000 </r>
       <r>    3.7117    0.0000 </r>
       <r>    4.3314    0.0000 </r>
      </set>
      <set comment="kpoint 22">
       <r>  -18.4484    1.0000 </r>
       <r>  -17.4899    1.0000 </r>
       <r>  -16.6362    1.0000 </r>
       <r>  -13.7970    1.0000 </r>
       <r>  -12.2063    1.0000 </r>
       <r>  -10.3594    1.0000 </r>
       <r>   -9.4231    1.0000 </r>
       <r>   -8.3755    1.0000 </r>
       <r>   -7.9897    1.0000 </r>
       <r>   -7.8029    1.0000 </r>
       <r>   -7.0714    1.0000 </r>
       <r>   -6.6902    1.0000 </r>
       <r>   -6.4249    1.0000 </r>
       <r>   -6.0233    1.0000 </r>
       <r>   -5.4476    1.0000 </r>
       <r>   -2.8246    0.0000 </r>
       <r>   -0.7268    0.0000 </r>
       <r>    2.2359    0.0000 </r>
       <r>    2.7333    0.0000 </r>
       <r>    2.7690    0.0000 </r>
       <r>    3.4889    0.0000 </r>
       <r>    3.5960    0.0000 </r>
       <r>    4.1390    0.0000 </r>
       <r>    4.1456    0.0000 </r>
      </set>
      <set comment="kpoint 23">
       <r>  -18.5577    1.0000 </r>
       <r>  -17.3357    1.0000 </r>
       <r>  -16.5972    1.0000 </r>
       <r>  -13.7831    1.0000 </r>
       <r>  -12.4005    1.0000 </r>
       <r>  -10.1445    1.0000 </r>
       <r>   -9.6635    1.0000 </r>
       <r>   -8.9157    1.0000 </r>
       <r>   -7.9588    1.0000 </r>
       <r>   -7.3598    1.0000 </r>
       <r>   -7.0782    1.0000 </r>
       <r>   -6.6044    1.0000 </r>
       <r>   -6.3433    1.0000 </r>
       <r>   -5.7822    1.0000 </r>
       <r>   -5.4102    1.0000 </r>
       <r>   -2.8550    0.0000 </r>
       <r>   -0.7297    0.0000 </r>
       <r>    2.1161    0.0000 </r>
       <r>    2.2063    0.0000 </r>
       <r>    2.9965    0.0000 </r>
       <r>    3.3928    0.0000 </r>
       <r>    3.5898    0.0000 </r>
       <r>    3.7079    0.0000 </r>
       <r>    4.3363    0.0000 </r>
      </set>
      <set comment="kpoint 24">
       <r>  -18.7665    1.0000 </r>
       <r>  -17.0057    1.0000 </r>
       <r>  -16.4739    1.0000 </r>
       <r>  -13.7650    1.0000 </r>
       <r>  -12.7808    1.0000 </r>
       <r>  -10.2310    1.0000 </r>
       <r>   -9.7830    1.0000 </r>
       <r>   -9.5280    1.0000 </r>
       <r>   -7.7116    1.0000 </r>
       <r>   -7.5676    1.0000 </r>
       <r>   -6.8341    1.0000 </r>
       <r>   -6.2777    1.0000 </r>
       <r>   -5.8354    1.0000 </r>
       <r>   -5.3770    1.0000 </r>
       <r>   -5.2859    1.0000 </r>
       <r>   -2.9535    0.0000 </r>
       <r>   -0.7201    0.0000 </r>
       <r>    1.7610    0.0000 </r>
       <r>    1.7668    0.0000 </r>
       <r>    2.4804    0.0000 </r>
       <r>    3.0519    0.0000 </r>
       <r>    3.1375    0.0000 </r>
       <r>    4.1286    0.0000 </r>
       <r>    4.7040    0.0000 </r>
      </set>
      <set comment="kpoint 25">
       <r>  -18.9645    1.0000 </r>
       <r>  -16.6577    1.0000 </r>
       <r>  -16.2475    1.0000 </r>
       <r>  -13.8121    1.0000 </r>
       <r>  -13.0819    1.0000 </r>
       <r>  -10.7983    1.0000 </r>
       <r>  -10.4997    1.0000 </r>
       <r>   -8.9875    1.0000 </r>
       <r>   -7.9974    1.0000 </r>
       <r>   -7.3040    1.0000 </r>
       <r>   -6.8754    1.0000 </r>
       <r>   -5.5957    1.0000 </r>
       <r>   -5.3889    1.0000 </r>
       <r>   -5.0179    1.0000 </r>
       <r>   -4.9574    1.0000 </r>
       <r>   -3.1004    0.0000 </r>
       <r>   -0.6758    0.0000 </r>
       <r>    1.1943    0.0000 </r>
       <r>    1.4136    0.0000 </r>
       <r>    2.0011    0.0000 </r>
       <r>    2.5278    0.0000 </r>
       <r>    2.7858    0.0000 </r>
       <r>    4.6594    0.0000 </r>
       <r>    4.7547    0.0000 </r>
      </set>
      <set comment="kpoint 26">
       <r>  -19.1164    1.0000 </r>
       <r>  -16.3663    1.0000 </r>
       <r>  -15.9528    1.0000 </r>
       <r>  -13.9514    1.0000 </r>
       <r>  -13.2031    1.0000 </r>
       <r>  -11.3945    1.0000 </r>
       <r>  -11.0478    1.0000 </r>
       <r>   -8.5026    1.0000 </r>
       <r>   -8.2052    1.0000 </r>
       <r>   -7.2308    1.0000 </r>
       <r>   -6.7294    1.0000 </r>
       <r>   -5.0939    1.0000 </r>
       <r>   -5.0565    1.0000 </r>
       <r>   -4.6285    1.0000 </r>
       <r>   -4.5989    1.0000 </r>
       <r>   -3.2207    0.0000 </r>
       <r>   -0.6067    0.0000 </r>
       <r>    0.5182    0.0000 </r>
       <r>    1.1649    0.0000 </r>
       <r>    1.6006    0.0000 </r>
       <r>    2.1936    0.0000 </r>
       <r>    2.5344    0.0000 </r>
       <r>    4.2757    0.0000 </r>
       <r>    4.5085    0.0000 </r>
      </set>
      <set comment="kpoint 27">
       <r>  -19.2104    1.0000 </r>
       <r>  -16.1200    1.0000 </r>
       <r>  -15.7650    1.0000 </r>
       <r>  -13.9808    1.0000 </r>
       <r>  -13.3301    1.0000 </r>
       <r>  -11.7719    1.0000 </r>
       <r>  -11.4536    1.0000 </r>
       <r>   -8.3309    1.0000 </r>
       <r>   -8.2233    1.0000 </r>
       <r>   -7.0856    1.0000 </r>
       <r>   -6.6690    1.0000 </r>
       <r>   -4.8488    1.0000 </r>
       <r>   -4.6852    1.0000 </r>
       <r>   -4.4313    1.0000 </r>
       <r>   -4.3801    1.0000 </r>
       <r>   -3.1788    0.0000 </r>
       <r>   -0.6129    0.0000 </r>
       <r>    0.0185    0.0000 </r>
       <r>    1.0155    0.0000 </r>
       <r>    1.3082    0.0000 </r>
       <r>    2.0074    0.0000 </r>
       <r>    2.3835    0.0000 </r>
       <r>    4.0448    0.0000 </r>
       <r>    4.3600    0.0000 </r>
      </set>
      <set comment="kpoint 28">
       <r>  -18.5694    1.0000 </r>
       <r>  -17.1877    1.0000 </r>
       <r>  -16.7906    1.0000 </r>
       <r>  -13.4755    1.0000 </r>
       <r>  -12.7262    1.0000 </r>
       <r>  -10.1927    1.0000 </r>
       <r>   -9.3936    1.0000 </r>
       <r>   -9.2045    1.0000 </r>
       <r>   -7.5163    1.0000 </r>
       <r>   -7.3929    1.0000 </r>
       <r>   -7.0766    1.0000 </r>
       <r>   -6.8546    1.0000 </r>
       <r>   -6.0703    1.0000 </r>
       <r>   -5.8592    1.0000 </r>
       <r>   -5.7409    1.0000 </r>
       <r>   -2.5987    0.0000 </r>
       <r>   -0.9950    0.0000 </r>
       <r>    2.1606    0.0000 </r>
       <r>    2.4114    0.0000 </r>
       <r>    2.8957    0.0000 </r>
       <r>    3.5423    0.0000 </r>
       <r>    3.5478    0.0000 </r>
       <r>    3.9149    0.0000 </r>
       <r>    3.9450    0.0000 </r>
      </set>
      <set comment="kpoint 29">
       <r>  -18.4110    1.0000 </r>
       <r>  -17.3468    1.0000 </r>
       <r>  -16.9520    1.0000 </r>
       <r>  -13.3307    1.0000 </r>
       <r>  -12.5827    1.0000 </r>
       <r>  -10.5844    1.0000 </r>
       <r>   -8.9400    1.0000 </r>
       <r>   -8.4751    1.0000 </r>
       <r>   -7.7728    1.0000 </r>
       <r>   -7.5726    1.0000 </r>
       <r>   -7.0428    1.0000 </r>
       <r>   -6.8392    1.0000 </r>
       <r>   -6.4341    1.0000 </r>
       <r>   -6.3006    1.0000 </r>
       <r>   -5.9255    1.0000 </r>
       <r>   -2.3206    0.0000 </r>
       <r>   -1.2177    0.0000 </r>
       <r>    2.6554    0.0000 </r>
       <r>    2.7520    0.0000 </r>
       <r>    3.2424    0.0000 </r>
       <r>    3.4109    0.0000 </r>
       <r>    3.8318    0.0000 </r>
       <r>    3.9291    0.0000 </r>
       <r>    4.0459    0.0000 </r>
      </set>
      <set comment="kpoint 30">
       <r>  -18.4116    1.0000 </r>
       <r>  -17.3484    1.0000 </r>
       <r>  -16.9496    1.0000 </r>
       <r>  -13.3229    1.0000 </r>
       <r>  -12.5878    1.0000 </r>
       <r>  -10.5877    1.0000 </r>
       <r>   -8.9493    1.0000 </r>
       <r>   -8.4849    1.0000 </r>
       <r>   -7.7629    1.0000 </r>
       <r>   -7.5655    1.0000 </r>
       <r>   -7.0457    1.0000 </r>
       <r>   -6.8291    1.0000 </r>
       <r>   -6.4317    1.0000 </r>
       <r>   -6.3077    1.0000 </r>
       <r>   -5.9256    1.0000 </r>
       <r>   -2.3117    0.0000 </r>
       <r>   -1.2248    0.0000 </r>
       <r>    2.6506    0.0000 </r>
       <r>    2.7502    0.0000 </r>
       <r>    3.2482    0.0000 </r>
       <r>    3.4067    0.0000 </r>
       <r>    3.8305    0.0000 </r>
       <r>    3.9294    0.0000 </r>
       <r>    4.0411    0.0000 </r>
      </set>
      <set comment="kpoint 31">
       <r>  -18.5708    1.0000 </r>
       <r>  -17.1936    1.0000 </r>
       <r>  -16.7830    1.0000 </r>
       <r>  -13.4554    1.0000 </r>
       <r>  -12.7399    1.0000 </r>
       <r>  -10.2009    1.0000 </r>
       <r>   -9.4080    1.0000 </r>
       <r>   -9.2165    1.0000 </r>
       <r>   -7.5046    1.0000 </r>
       <r>   -7.3961    1.0000 </r>
       <r>   -7.0644    1.0000 </r>
       <r>   -6.8449    1.0000 </r>
       <r>   -6.0719    1.0000 </r>
       <r>   -5.8636    1.0000 </r>
       <r>   -5.7376    1.0000 </r>
       <r>   -2.5806    0.0000 </r>
       <r>   -1.0078    0.0000 </r>
       <r>    2.1567    0.0000 </r>
       <r>    2.4068    0.0000 </r>
       <r>    2.8912    0.0000 </r>
       <r>    3.5384    0.0000 </r>
       <r>    3.5407    0.0000 </r>
       <r>    3.9158    0.0000 </r>
       <r>    3.9470    0.0000 </r>
      </set>
      <set comment="kpoint 32">
       <r>  -18.7669    1.0000 </r>
       <r>  -17.0120    1.0000 </r>
       <r>  -16.4659    1.0000 </r>
       <r>  -13.7576    1.0000 </r>
       <r>  -12.7895    1.0000 </r>
       <r>  -10.2294    1.0000 </r>
       <r>   -9.7883    1.0000 </r>
       <r>   -9.5275    1.0000 </r>
       <r>   -7.7122    1.0000 </r>
       <r>   -7.5785    1.0000 </r>
       <r>   -6.8197    1.0000 </r>
       <r>   -6.2852    1.0000 </r>
       <r>   -5.8437    1.0000 </r>
       <r>   -5.3687    1.0000 </r>
       <r>   -5.2759    1.0000 </r>
       <r>   -2.9489    0.0000 </r>
       <r>   -0.7243    0.0000 </r>
       <r>    1.7603    0.0000 </r>
       <r>    1.7658    0.0000 </r>
       <r>    2.4789    0.0000 </r>
       <r>    3.0496    0.0000 </r>
       <r>    3.1368    0.0000 </r>
       <r>    4.1177    0.0000 </r>
       <r>    4.7171    0.0000 </r>
      </set>
      <set comment="kpoint 33">
       <r>  -18.9359    1.0000 </r>
       <r>  -16.8107    1.0000 </r>
       <r>  -16.1199    1.0000 </r>
       <r>  -14.0580    1.0000 </r>
       <r>  -12.7842    1.0000 </r>
       <r>  -10.8967    1.0000 </r>
       <r>  -10.2718    1.0000 </r>
       <r>   -9.0001    1.0000 </r>
       <r>   -7.9568    1.0000 </r>
       <r>   -7.6569    1.0000 </r>
       <r>   -6.6186    1.0000 </r>
       <r>   -5.7617    1.0000 </r>
       <r>   -5.6224    1.0000 </r>
       <r>   -4.9469    1.0000 </r>
       <r>   -4.7741    1.0000 </r>
       <r>   -3.2865    0.0000 </r>
       <r>   -0.4665    0.0000 </r>
       <r>    1.0529    0.0000 </r>
       <r>    1.4624    0.0000 </r>
       <r>    2.1370    0.0000 </r>
       <r>    2.6390    0.0000 </r>
       <r>    2.8353    0.0000 </r>
       <r>    4.4057    0.0000 </r>
       <r>    4.8014    0.0000 </r>
      </set>
      <set comment="kpoint 34">
       <r>  -19.0553    1.0000 </r>
       <r>  -16.5825    1.0000 </r>
       <r>  -15.9199    1.0000 </r>
       <r>  -14.1431    1.0000 </r>
       <r>  -12.9004    1.0000 </r>
       <r>  -11.3289    1.0000 </r>
       <r>  -10.7117    1.0000 </r>
       <r>   -8.6276    1.0000 </r>
       <r>   -8.1221    1.0000 </r>
       <r>   -7.5342    1.0000 </r>
       <r>   -6.5864    1.0000 </r>
       <r>   -5.3618    1.0000 </r>
       <r>   -5.3333    1.0000 </r>
       <r>   -4.6847    1.0000 </r>
       <r>   -4.5105    1.0000 </r>
       <r>   -3.3921    0.0000 </r>
       <r>   -0.3951    0.0000 </r>
       <r>    0.5663    0.0000 </r>
       <r>    1.2639    0.0000 </r>
       <r>    1.8304    0.0000 </r>
       <r>    2.3412    0.0000 </r>
       <r>    2.6344    0.0000 </r>
       <r>    4.3334    0.0000 </r>
       <r>    4.6067    0.0000 </r>
      </set>
      <set comment="kpoint 35">
       <r>  -18.3493    1.0000 </r>
       <r>  -17.2242    1.0000 </r>
       <r>  -17.2138    1.0000 </r>
       <r>  -12.9089    1.0000 </r>
       <r>  -12.8826    1.0000 </r>
       <r>  -10.7717    1.0000 </r>
       <r>   -8.2826    1.0000 </r>
       <r>   -8.2730    1.0000 </r>
       <r>   -8.2357    1.0000 </r>
       <r>   -7.5650    1.0000 </r>
       <r>   -6.8540    1.0000 </r>
       <r>   -6.7565    1.0000 </r>
       <r>   -6.7508    1.0000 </r>
       <r>   -6.3280    1.0000 </r>
       <r>   -6.3212    1.0000 </r>
       <r>   -1.7699    0.0000 </r>
       <r>   -1.7488    0.0000 </r>
       <r>    3.0400    0.0000 </r>
       <r>    3.1771    0.0000 </r>
       <r>    3.1820    0.0000 </r>
       <r>    3.2262    0.0000 </r>
       <r>    3.8744    0.0000 </r>
       <r>    3.8817    0.0000 </r>
       <r>    4.0348    0.0000 </r>
      </set>
      <set comment="kpoint 36">
       <r>  -18.4120    1.0000 </r>
       <r>  -17.3550    1.0000 </r>
       <r>  -16.9419    1.0000 </r>
       <r>  -13.3094    1.0000 </r>
       <r>  -12.6028    1.0000 </r>
       <r>  -10.5866    1.0000 </r>
       <r>   -8.9542    1.0000 </r>
       <r>   -8.4880    1.0000 </r>
       <r>   -7.7709    1.0000 </r>
       <r>   -7.5624    1.0000 </r>
       <r>   -7.0466    1.0000 </r>
       <r>   -6.8239    1.0000 </r>
       <r>   -6.4384    1.0000 </r>
       <r>   -6.2996    1.0000 </r>
       <r>   -5.9177    1.0000 </r>
       <r>   -2.3016    0.0000 </r>
       <r>   -1.2341    0.0000 </r>
       <r>    2.6496    0.0000 </r>
       <r>    2.7487    0.0000 </r>
       <r>    3.2403    0.0000 </r>
       <r>    3.4044    0.0000 </r>
       <r>    3.8399    0.0000 </r>
       <r>    3.9224    0.0000 </r>
       <r>    4.0401    0.0000 </r>
      </set>
      <set comment="kpoint 37">
       <r>  -18.5584    1.0000 </r>
       <r>  -17.3437    1.0000 </r>
       <r>  -16.5864    1.0000 </r>
       <r>  -13.7711    1.0000 </r>
       <r>  -12.4159    1.0000 </r>
       <r>  -10.1422    1.0000 </r>
       <r>   -9.6650    1.0000 </r>
       <r>   -8.9247    1.0000 </r>
       <r>   -7.9646    1.0000 </r>
       <r>   -7.3613    1.0000 </r>
       <r>   -7.0892    1.0000 </r>
       <r>   -6.5904    1.0000 </r>
       <r>   -6.3515    1.0000 </r>
       <r>   -5.7677    1.0000 </r>
       <r>   -5.3992    1.0000 </r>
       <r>   -2.8449    0.0000 </r>
       <r>   -0.7388    0.0000 </r>
       <r>    2.1131    0.0000 </r>
       <r>    2.2047    0.0000 </r>
       <r>    2.9938    0.0000 </r>
       <r>    3.3843    0.0000 </r>
       <r>    3.5882    0.0000 </r>
       <r>    3.7017    0.0000 </r>
       <r>    4.3300    0.0000 </r>
      </set>
      <set comment="kpoint 38">
       <r>  -18.7192    1.0000 </r>
       <r>  -17.2273    1.0000 </r>
       <r>  -16.2377    1.0000 </r>
       <r>  -14.1478    1.0000 </r>
       <r>  -12.3265    1.0000 </r>
       <r>  -10.3832    1.0000 </r>
       <r>   -9.5695    1.0000 </r>
       <r>   -9.3766    1.0000 </r>
       <r>   -8.1375    1.0000 </r>
       <r>   -7.6336    1.0000 </r>
       <r>   -6.5900    1.0000 </r>
       <r>   -6.4100    1.0000 </r>
       <r>   -6.1730    1.0000 </r>
       <r>   -5.3184    1.0000 </r>
       <r>   -4.8777    1.0000 </r>
       <r>   -3.3234    0.0000 </r>
       <r>   -0.3254    0.0000 </r>
       <r>    1.4272    0.0000 </r>
       <r>    1.8579    0.0000 </r>
       <r>    2.6503    0.0000 </r>
       <r>    3.2356    0.0000 </r>
       <r>    3.3368    0.0000 </r>
       <r>    3.6270    0.0000 </r>
       <r>    4.5391    0.0000 </r>
      </set>
      <set comment="kpoint 39">
       <r>  -18.8515    1.0000 </r>
       <r>  -17.0385    1.0000 </r>
       <r>  -16.0479    1.0000 </r>
       <r>  -14.2744    1.0000 </r>
       <r>  -12.4221    1.0000 </r>
       <r>  -10.8235    1.0000 </r>
       <r>   -9.8709    1.0000 </r>
       <r>   -9.1265    1.0000 </r>
       <r>   -8.0578    1.0000 </r>
       <r>   -7.8346    1.0000 </r>
       <r>   -6.4119    1.0000 </r>
       <r>   -6.1308    1.0000 </r>
       <r>   -5.9237    1.0000 </r>
       <r>   -5.0387    1.0000 </r>
       <r>   -4.5842    1.0000 </r>
       <r>   -3.5334    0.0000 </r>
       <r>   -0.1737    0.0000 </r>
       <r>    0.9826    0.0000 </r>
       <r>    1.6104    0.0000 </r>
       <r>    2.3729    0.0000 </r>
       <r>    2.9466    0.0000 </r>
       <r>    2.9850    0.0000 </r>
       <r>    3.9668    0.0000 </r>
       <r>    4.8416    0.0000 </r>
      </set>
      <set comment="kpoint 40">
       <r>  -18.4495    1.0000 </r>
       <r>  -17.4980    1.0000 </r>
       <r>  -16.6248    1.0000 </r>
       <r>  -13.7819    1.0000 </r>
       <r>  -12.2242    1.0000 </r>
       <r>  -10.3576    1.0000 </r>
       <r>   -9.4359    1.0000 </r>
       <r>   -8.3773    1.0000 </r>
       <r>   -8.0030    1.0000 </r>
       <r>   -7.8038    1.0000 </r>
       <r>   -7.0744    1.0000 </r>
       <r>   -6.6966    1.0000 </r>
       <r>   -6.4080    1.0000 </r>
       <r>   -6.0097    1.0000 </r>
       <r>   -5.4375    1.0000 </r>
       <r>   -2.8094    0.0000 </r>
       <r>   -0.7394    0.0000 </r>
       <r>    2.2308    0.0000 </r>
       <r>    2.7285    0.0000 </r>
       <r>    2.7645    0.0000 </r>
       <r>    3.4809    0.0000 </r>
       <r>    3.5921    0.0000 </r>
       <r>    4.1348    0.0000 </r>
       <r>    4.1405    0.0000 </r>
      </set>
      <set comment="kpoint 41">
       <r>  -18.5307    1.0000 </r>
       <r>  -17.5215    1.0000 </r>
       <r>  -16.2981    1.0000 </r>
       <r>  -14.1969    1.0000 </r>
       <r>  -11.9762    1.0000 </r>
       <r>   -9.9949    1.0000 </r>
       <r>   -9.8967    1.0000 </r>
       <r>   -8.7651    1.0000 </r>
       <r>   -8.2992    1.0000 </r>
       <r>   -7.4739    1.0000 </r>
       <r>   -7.2647    1.0000 </r>
       <r>   -6.6649    1.0000 </r>
       <r>   -6.1674    1.0000 </r>
       <r>   -5.6472    1.0000 </r>
       <r>   -4.9313    1.0000 </r>
       <r>   -3.3422    0.0000 </r>
       <r>   -0.2364    0.0000 </r>
       <r>    1.6261    0.0000 </r>
       <r>    2.3504    0.0000 </r>
       <r>    2.9414    0.0000 </r>
       <r>    3.1641    0.0000 </r>
       <r>    3.6898    0.0000 </r>
       <r>    3.7362    0.0000 </r>
       <r>    4.3350    0.0000 </r>
      </set>
      <set comment="kpoint 42">
       <r>  -18.6329    1.0000 </r>
       <r>  -17.4184    1.0000 </r>
       <r>  -16.1302    1.0000 </r>
       <r>  -14.3578    1.0000 </r>
       <r>  -11.9864    1.0000 </r>
       <r>  -10.3202    1.0000 </r>
       <r>   -9.5923    1.0000 </r>
       <r>   -9.0597    1.0000 </r>
       <r>   -8.4936    1.0000 </r>
       <r>   -7.4793    1.0000 </r>
       <r>   -7.0145    1.0000 </r>
       <r>   -6.4616    1.0000 </r>
       <r>   -6.1732    1.0000 </r>
       <r>   -5.3928    1.0000 </r>
       <r>   -4.6350    1.0000 </r>
       <r>   -3.6154    0.0001 </r>
       <r>   -0.0079    0.0000 </r>
       <r>    1.2517    0.0000 </r>
       <r>    2.0544    0.0000 </r>
       <r>    2.8712    0.0000 </r>
       <r>    3.2335    0.0000 </r>
       <r>    3.4362    0.0000 </r>
       <r>    3.6654    0.0000 </r>
       <r>    4.2452    0.0000 </r>
      </set>
      <set comment="kpoint 43">
       <r>  -18.5154    1.0000 </r>
       <r>  -17.5911    1.0000 </r>
       <r>  -16.1584    1.0000 </r>
       <r>  -14.3862    1.0000 </r>
       <r>  -11.7849    1.0000 </r>
       <r>  -10.0395    1.0000 </r>
       <r>   -9.8069    1.0000 </r>
       <r>   -9.0021    1.0000 </r>
       <r>   -7.9875    1.0000 </r>
       <r>   -7.8643    1.0000 </r>
       <r>   -7.1829    1.0000 </r>
       <r>   -6.8215    1.0000 </r>
       <r>   -5.9928    1.0000 </r>
       <r>   -5.6129    1.0000 </r>
       <r>   -4.6531    1.0000 </r>
       <r>   -3.6425    0.0003 </r>
       <r>    0.0539    0.0000 </r>
       <r>    1.3475    0.0000 </r>
       <r>    2.5762    0.0000 </r>
       <r>    2.6160    0.0000 </r>
       <r>    3.3614    0.0000 </r>
       <r>    3.4495    0.0000 </r>
       <r>    3.9801    0.0000 </r>
       <r>    3.9895    0.0000 </r>
      </set>
     </set>
    </set>
   </array>
  </eigenvalues>
  <separator name="orbital magnetization" >
   <v name="MAGDIPOLOUT">      0.00000000      0.00000000      0.00000000</v>
  </separator>
  <dos>
   <i name="efermi">     -3.88350543 </i>
   <total>
    <array>
     <dimension dim="1">gridpoints</dimension>
     <dimension dim="2">spin</dimension>
     <field>energy</field>
     <field>total</field>
     <field>integrated</field>
     <set>
      <set comment="spin 1">
       <r>   -20.5475     0.0000     0.0000 </r>
       <r>   -20.4589     0.0000     0.0000 </r>
       <r>   -20.3702     0.0000     0.0000 </r>
       <r>   -20.2815     0.0000     0.0000 </r>
       <r>   -20.1928     0.0000     0.0000 </r>
       <r>   -20.1041     0.0000     0.0000 </r>
       <r>   -20.0155     0.0000     0.0000 </r>
       <r>   -19.9268     0.0000     0.0000 </r>
       <r>   -19.8381     0.0000     0.0000 </r>
       <r>   -19.7494     0.0000     0.0000 </r>
       <r>   -19.6607     0.0000     0.0000 </r>
       <r>   -19.5720     0.0002     0.0000 </r>
       <r>   -19.4834     0.0090     0.0008 </r>
       <r>   -19.3947     0.1413     0.0133 </r>
       <r>   -19.3060     0.6857     0.0742 </r>
       <r>   -19.2173     1.3377     0.1928 </r>
       <r>   -19.1286     1.5899     0.3338 </r>
       <r>   -19.0400     1.6329     0.4786 </r>
       <r>   -18.9513     1.7044     0.6297 </r>
       <r>   -18.8626     1.7627     0.7861 </r>
       <r>   -18.7739     1.8258     0.9480 </r>
       <r>   -18.6852     2.1346     1.1373 </r>
       <r>   -18.5965     2.3322     1.3441 </r>
       <r>   -18.5079     3.0227     1.6122 </r>
       <r>   -18.4192     2.5567     1.8389 </r>
       <r>   -18.3305     1.4036     1.9634 </r>
       <r>   -18.2418     0.3759     1.9967 </r>
       <r>   -18.1531     0.0361     1.9999 </r>
       <r>   -18.0645     0.0011     2.0000 </r>
       <r>   -17.9758     0.0000     2.0000 </r>
       <r>   -17.8871     0.0000     2.0000 </r>
       <r>   -17.7984     0.0007     2.0001 </r>
       <r>   -17.7097     0.0249     2.0023 </r>
       <r>   -17.6210     0.2833     2.0274 </r>
       <r>   -17.5324     1.1504     2.1294 </r>
       <r>   -17.4437     1.9174     2.2994 </r>
       <r>   -17.3550     2.3465     2.5075 </r>
       <r>   -17.2663     2.5228     2.7313 </r>
       <r>   -17.1776     2.1108     2.9185 </r>
       <r>   -17.0890     1.4028     3.0429 </r>
       <r>   -17.0003     1.7499     3.1980 </r>
       <r>   -16.9116     1.9982     3.3753 </r>
       <r>   -16.8229     1.5785     3.5152 </r>
       <r>   -16.7342     1.5894     3.6562 </r>
       <r>   -16.6456     1.7516     3.8115 </r>
       <r>   -16.5569     2.2917     4.0148 </r>
       <r>   -16.4682     1.9081     4.1840 </r>
       <r>   -16.3795     1.8301     4.3463 </r>
       <r>   -16.2908     2.5720     4.5744 </r>
       <r>   -16.2021     2.9175     4.8331 </r>
       <r>   -16.1135     2.8631     5.0870 </r>
       <r>   -16.0248     2.5101     5.3096 </r>
       <r>   -15.9361     2.2065     5.5053 </r>
       <r>   -15.8474     1.5623     5.6438 </r>
       <r>   -15.7587     1.3620     5.7646 </r>
       <r>   -15.6701     1.3837     5.8873 </r>
       <r>   -15.5814     0.8595     5.9635 </r>
       <r>   -15.4927     0.3479     5.9944 </r>
       <r>   -15.4040     0.0599     5.9997 </r>
       <r>   -15.3153     0.0033     6.0000 </r>
       <r>   -15.2266     0.0001     6.0000 </r>
       <r>   -15.1380     0.0000     6.0000 </r>
       <r>   -15.0493     0.0000     6.0000 </r>
       <r>   -14.9606     0.0000     6.0000 </r>
       <r>   -14.8719     0.0000     6.0000 </r>
       <r>   -14.7832     0.0000     6.0000 </r>
       <r>   -14.6946     0.0000     6.0000 </r>
       <r>   -14.6059     0.0009     6.0001 </r>
       <r>   -14.5172     0.0330     6.0030 </r>
       <r>   -14.4285     0.3032     6.0299 </r>
       <r>   -14.3398     0.8818     6.1081 </r>
       <r>   -14.2511     1.4809     6.2394 </r>
       <r>   -14.1625     2.4022     6.4525 </r>
       <r>   -14.0738     2.5648     6.6799 </r>
       <r>   -13.9851     2.2206     6.8768 </r>
       <r>   -13.8964     2.3001     7.0808 </r>
       <r>   -13.8077     3.1000     7.3557 </r>
       <r>   -13.7191     3.2089     7.6403 </r>
       <r>   -13.6304     1.5229     7.7754 </r>
       <r>   -13.5417     0.7565     7.8424 </r>
       <r>   -13.4530     0.9978     7.9309 </r>
       <r>   -13.3643     1.3142     8.0475 </r>
       <r>   -13.2757     1.6747     8.1960 </r>
       <r>   -13.1870     1.5016     8.3291 </r>
       <r>   -13.0983     1.0556     8.4228 </r>
       <r>   -13.0096     0.6428     8.4798 </r>
       <r>   -12.9209     0.7229     8.5439 </r>
       <r>   -12.8322     1.5831     8.6843 </r>
       <r>   -12.7436     2.3928     8.8964 </r>
       <r>   -12.6549     1.7223     9.0492 </r>
       <r>   -12.5662     1.1382     9.1501 </r>
       <r>   -12.4775     1.0521     9.2434 </r>
       <r>   -12.3888     1.6413     9.3890 </r>
       <r>   -12.3002     1.8847     9.5561 </r>
       <r>   -12.2115     1.3451     9.6754 </r>
       <r>   -12.1228     0.9765     9.7620 </r>
       <r>   -12.0341     1.2872     9.8761 </r>
       <r>   -11.9454     1.9302    10.0473 </r>
       <r>   -11.8567     1.5145    10.1816 </r>
       <r>   -11.7681     1.2176    10.2896 </r>
       <r>   -11.6794     0.9830    10.3768 </r>
       <r>   -11.5907     0.5978    10.4298 </r>
       <r>   -11.5020     0.4861    10.4729 </r>
       <r>   -11.4133     1.1666    10.5763 </r>
       <r>   -11.3247     1.4664    10.7064 </r>
       <r>   -11.2360     0.6924    10.7678 </r>
       <r>   -11.1473     0.2390    10.7890 </r>
       <r>   -11.0586     0.6670    10.8481 </r>
       <r>   -10.9699     1.0927    10.9450 </r>
       <r>   -10.8812     1.3613    11.0658 </r>
       <r>   -10.7926     1.6892    11.2156 </r>
       <r>   -10.7039     1.3820    11.3381 </r>
       <r>   -10.6152     1.1506    11.4402 </r>
       <r>   -10.5265     1.2815    11.5538 </r>
       <r>   -10.4378     1.2907    11.6683 </r>
       <r>   -10.3492     2.0165    11.8471 </r>
       <r>   -10.2605     2.8689    12.1015 </r>
       <r>   -10.1718     2.9327    12.3616 </r>
       <r>   -10.0831     2.0037    12.5393 </r>
       <r>    -9.9944     1.5642    12.6780 </r>
       <r>    -9.9058     1.9096    12.8474 </r>
       <r>    -9.8171     2.1691    13.0397 </r>
       <r>    -9.7284     1.8911    13.2074 </r>
       <r>    -9.6397     1.8899    13.3750 </r>
       <r>    -9.5510     2.5478    13.6010 </r>
       <r>    -9.4623     2.4382    13.8172 </r>
       <r>    -9.3737     2.0857    14.0022 </r>
       <r>    -9.2850     1.4113    14.1273 </r>
       <r>    -9.1963     0.8437    14.2021 </r>
       <r>    -9.1076     1.1334    14.3026 </r>
       <r>    -9.0189     2.2322    14.5006 </r>
       <r>    -8.9303     3.3106    14.7942 </r>
       <r>    -8.8416     2.2711    14.9956 </r>
       <r>    -8.7529     1.2515    15.1066 </r>
       <r>    -8.6642     0.9865    15.1940 </r>
       <r>    -8.5755     1.1738    15.2981 </r>
       <r>    -8.4868     2.5788    15.5268 </r>
       <r>    -8.3982     3.2022    15.8108 </r>
       <r>    -8.3095     2.9905    16.0760 </r>
       <r>    -8.2208     3.3189    16.3703 </r>
       <r>    -8.1321     3.4889    16.6797 </r>
       <r>    -8.0434     3.3635    16.9780 </r>
       <r>    -7.9548     3.9300    17.3265 </r>
       <r>    -7.8661     3.2517    17.6149 </r>
       <r>    -7.7774     2.6635    17.8511 </r>
       <r>    -7.6887     3.2533    18.1396 </r>
       <r>    -7.6000     4.1479    18.5074 </r>
       <r>    -7.5113     4.4492    18.9020 </r>
       <r>    -7.4227     3.5530    19.2171 </r>
       <r>    -7.3340     2.8301    19.4681 </r>
       <r>    -7.2453     2.8213    19.7183 </r>
       <r>    -7.1566     2.6638    19.9545 </r>
       <r>    -7.0679     3.3414    20.2508 </r>
       <r>    -6.9793     3.4527    20.5570 </r>
       <r>    -6.8906     2.9269    20.8166 </r>
       <r>    -6.8019     4.3214    21.1998 </r>
       <r>    -6.7132     5.4101    21.6796 </r>
       <r>    -6.6245     5.9198    22.2046 </r>
       <r>    -6.5359     4.5819    22.6109 </r>
       <r>    -6.4472     3.6362    22.9333 </r>
       <r>    -6.3585     4.4154    23.3249 </r>
       <r>    -6.2698     4.1633    23.6941 </r>
       <r>    -6.1811     3.6594    24.0187 </r>
       <r>    -6.0924     3.0847    24.2922 </r>
       <r>    -6.0038     2.1830    24.4858 </r>
       <r>    -5.9151     2.3997    24.6986 </r>
       <r>    -5.8264     3.2083    24.9831 </r>
       <r>    -5.7377     3.5968    25.3021 </r>
       <r>    -5.6490     3.3279    25.5972 </r>
       <r>    -5.5604     2.5954    25.8274 </r>
       <r>    -5.4717     1.9491    26.0002 </r>
       <r>    -5.3830     3.8034    26.3375 </r>
       <r>    -5.2943     4.6232    26.7475 </r>
       <r>    -5.2056     2.3888    26.9594 </r>
       <r>    -5.1169     1.5260    27.0947 </r>
       <r>    -5.0283     3.1203    27.3714 </r>
       <r>    -4.9396     4.0799    27.7332 </r>
       <r>    -4.8509     3.5483    28.0479 </r>
       <r>    -4.7622     2.6927    28.2867 </r>
       <r>    -4.6735     3.3986    28.5881 </r>
       <r>    -4.5849     4.3200    28.9712 </r>
       <r>    -4.4962     3.5654    29.2873 </r>
       <r>    -4.4075     2.8475    29.5399 </r>
       <r>    -4.3188     2.2195    29.7367 </r>
       <r>    -4.2301     1.4459    29.8649 </r>
       <r>    -4.1414     0.9399    29.9483 </r>
       <r>    -4.0528     0.4635    29.9894 </r>
       <r>    -3.9641     0.1100    29.9991 </r>
       <r>    -3.8754     0.0101    30.0000 </r>
       <r>    -3.7867     0.0231    30.0021 </r>
       <r>    -3.6980     0.2464    30.0239 </r>
       <r>    -3.6094     0.7737    30.0925 </r>
       <r>    -3.5207     0.9244    30.1745 </r>
       <r>    -3.4320     1.0670    30.2691 </r>
       <r>    -3.3433     2.4667    30.4879 </r>
       <r>    -3.2546     3.2784    30.7786 </r>
       <r>    -3.1660     2.4597    30.9967 </r>
       <r>    -3.0773     1.6608    31.1440 </r>
       <r>    -2.9886     1.3948    31.2677 </r>
       <r>    -2.8999     1.9128    31.4374 </r>
       <r>    -2.8112     2.0148    31.6160 </r>
       <r>    -2.7225     1.0105    31.7056 </r>
       <r>    -2.6339     0.4073    31.7418 </r>
       <r>    -2.5452     0.4562    31.7822 </r>
       <r>    -2.4565     0.2702    31.8062 </r>
       <r>    -2.3678     0.3934    31.8411 </r>
       <r>    -2.2791     0.8673    31.9180 </r>
       <r>    -2.1905     0.5277    31.9648 </r>
       <r>    -2.1018     0.0809    31.9720 </r>
       <r>    -2.0131     0.0031    31.9722 </r>
       <r>    -1.9244     0.0065    31.9728 </r>
       <r>    -1.8357     0.0829    31.9802 </r>
       <r>    -1.7470     0.2667    32.0038 </r>
       <r>    -1.6584     0.2210    32.0234 </r>
       <r>    -1.5697     0.0469    32.0276 </r>
       <r>    -1.4810     0.0028    32.0278 </r>
       <r>    -1.3923     0.0174    32.0293 </r>
       <r>    -1.3036     0.2373    32.0504 </r>
       <r>    -1.2150     0.7970    32.1211 </r>
       <r>    -1.1263     0.7141    32.1844 </r>
       <r>    -1.0376     0.4029    32.2201 </r>
       <r>    -0.9489     0.4661    32.2615 </r>
       <r>    -0.8602     0.5182    32.3074 </r>
       <r>    -0.7715     1.8758    32.4738 </r>
       <r>    -0.6829     3.7861    32.8095 </r>
       <r>    -0.5942     3.4024    33.1113 </r>
       <r>    -0.5055     2.2669    33.3123 </r>
       <r>    -0.4168     1.7758    33.4698 </r>
       <r>    -0.3281     1.7497    33.6249 </r>
       <r>    -0.2395     1.8422    33.7883 </r>
       <r>    -0.1508     1.6678    33.9362 </r>
       <r>    -0.0621     1.2964    34.0512 </r>
       <r>     0.0266     1.2770    34.1644 </r>
       <r>     0.1153     0.8869    34.2431 </r>
       <r>     0.2039     0.2185    34.2625 </r>
       <r>     0.2926     0.0171    34.2640 </r>
       <r>     0.3813     0.0490    34.2683 </r>
       <r>     0.4700     0.4719    34.3102 </r>
       <r>     0.5587     1.2160    34.4180 </r>
       <r>     0.6474     0.8873    34.4967 </r>
       <r>     0.7360     0.2388    34.5179 </r>
       <r>     0.8247     0.3859    34.5521 </r>
       <r>     0.9134     1.1361    34.6528 </r>
       <r>     1.0021     2.2570    34.8530 </r>
       <r>     1.0908     2.5972    35.0833 </r>
       <r>     1.1794     2.5048    35.3054 </r>
       <r>     1.2681     2.6709    35.5423 </r>
       <r>     1.3568     2.2799    35.7445 </r>
       <r>     1.4455     2.4933    35.9656 </r>
       <r>     1.5342     2.3913    36.1776 </r>
       <r>     1.6229     2.4708    36.3968 </r>
       <r>     1.7115     2.6662    36.6332 </r>
       <r>     1.8002     3.1149    36.9094 </r>
       <r>     1.8889     3.0924    37.1837 </r>
       <r>     1.9776     2.2489    37.3831 </r>
       <r>     2.0663     2.5415    37.6085 </r>
       <r>     2.1549     3.9452    37.9584 </r>
       <r>     2.2436     4.5692    38.3636 </r>
       <r>     2.3323     3.8062    38.7011 </r>
       <r>     2.4210     3.6822    39.0276 </r>
       <r>     2.5097     3.3314    39.3231 </r>
       <r>     2.5984     3.8699    39.6663 </r>
       <r>     2.6870     4.7487    40.0874 </r>
       <r>     2.7757     4.3030    40.4690 </r>
       <r>     2.8644     3.6790    40.7952 </r>
       <r>     2.9531     3.7657    41.1292 </r>
       <r>     3.0418     3.8212    41.4681 </r>
       <r>     3.1304     3.4419    41.7733 </r>
       <r>     3.2191     4.0507    42.1325 </r>
       <r>     3.3078     4.0332    42.4902 </r>
       <r>     3.3965     3.8548    42.8320 </r>
       <r>     3.4852     3.6840    43.1587 </r>
       <r>     3.5738     3.5656    43.4749 </r>
       <r>     3.6625     4.4407    43.8687 </r>
       <r>     3.7512     4.5878    44.2756 </r>
       <r>     3.8399     3.7650    44.6095 </r>
       <r>     3.9286     4.2322    44.9848 </r>
       <r>     4.0173     4.6979    45.4014 </r>
       <r>     4.1059     3.7579    45.7347 </r>
       <r>     4.1946     3.0271    46.0031 </r>
       <r>     4.2833     3.5169    46.3150 </r>
       <r>     4.3720     4.4013    46.7053 </r>
       <r>     4.4607     3.3186    46.9996 </r>
       <r>     4.5493     2.5892    47.2292 </r>
       <r>     4.6380     2.3264    47.4355 </r>
       <r>     4.7267     2.2810    47.6378 </r>
       <r>     4.8154     2.3262    47.8441 </r>
       <r>     4.9041     1.4007    47.9683 </r>
       <r>     4.9928     0.3323    47.9978 </r>
       <r>     5.0814     0.0244    48.0000 </r>
       <r>     5.1701     0.0005    48.0000 </r>
       <r>     5.2588     0.0000    48.0000 </r>
       <r>     5.3475     0.0000    48.0000 </r>
       <r>     5.4362     0.0000    48.0000 </r>
       <r>     5.5248     0.0000    48.0000 </r>
       <r>     5.6135     0.0000    48.0000 </r>
       <r>     5.7022     0.0000    48.0000 </r>
       <r>     5.7909     0.0000    48.0000 </r>
       <r>     5.8796     0.0000    48.0000 </r>
       <r>     5.9683     0.0000    48.0000 </r>
       <r>     6.0569     0.0000    48.0000 </r>
      </set>
     </set>
    </array>
   </total>
  </dos>
 </calculation>
 <structure name="finalpos" >
  <crystal>
   <varray name="basis" >
    <v>       4.54663337       2.62000000       0.00000000 </v>
    <v>      -4.54663337       2.62000000       0.00000000 </v>
    <v>       0.00000000       0.00000000      15.00000000 </v>
   </varray>
   <i name="volume">    357.36538296 </i>
   <varray name="rec_basis" >
    <v>       0.10997148       0.19083969       0.00000000 </v>
    <v>      -0.10997148       0.19083969       0.00000000 </v>
    <v>       0.00000000       0.00000000       0.06666667 </v>
   </varray>
  </crystal>
  <varray name="positions" >
   <v>       0.33333300       0.66666600       0.25000000 </v>
   <v>       0.66666600       0.33333300       0.25000000 </v>
   <v>       0.16666600       0.33333300       0.25000000 </v>
   <v>       0.33333300       0.16666600       0.25000000 </v>
   <v>       0.16666600       0.83333300       0.25000000 </v>
   <v>       0.83333300       0.16666600       0.25000000 </v>
   <v>       0.66666600       0.83333300       0.25000000 </v>
   <v>       0.83333300       0.66666600       0.25000000 </v>
  </varray>
 </structure>
</modeling>
