       N       E                     dE             d eps       ncg     rms          rms(c)
DAV:   1    -0.281971149807E+01   -0.28197E+01   -0.91748E+02  1044   0.122E+02
DAV:   2    -0.375196693418E+01   -0.93226E+00   -0.92084E+00  1440   0.104E+01
DAV:   3    -0.375580375271E+01   -0.38368E-02   -0.38363E-02  1080   0.649E-01
DAV:   4    -0.375580637231E+01   -0.26196E-05   -0.26198E-05  1536   0.165E-02
DAV:   5    -0.375580637241E+01   -0.97998E-10   -0.33384E-09  1068   0.119E-04
DAV:   6    -0.375580637227E+01    0.13510E-09   -0.30110E-12  1608   0.276E-06
   1 F= -.37558064E+01 E0= -.37552555E+01  d E =-.110180E-02
