PROCAR lm decomposed
# of k-points:   40         # of bands:   12         # of ions:    1

 k-point     1 :    0.50000000 0.50000000 0.50000000     weight = 0.02500000

band     1 # energy   -3.81122680 # occ.  2.00000000
 
ion      s     py     pz     px    dxy    dyz    dz2    dxz  x2-y2    tot
    1  0.462  0.000  0.000  0.000  0.000  0.000  0.000  0.000  0.000  0.462
 
band     2 # energy   -0.47097047 # occ.  2.00000000
 
ion      s     py     pz     px    dxy    dyz    dz2    dxz  x2-y2    tot
    1  0.000  0.073  0.073  0.073  0.000  0.000  0.000  0.000  0.000  0.219
 
band     3 # energy    6.14835784 # occ.  0.00000000
 
ion      s     py     pz     px    dxy    dyz    dz2    dxz  x2-y2    tot
    1  0.000  0.131  0.302  0.035  0.000  0.000  0.000  0.000  0.000  0.468
 
band     4 # energy    6.14835784 # occ.  0.00000000
 
ion      s     py     pz     px    dxy    dyz    dz2    dxz  x2-y2    tot
    1  0.000  0.181  0.010  0.277  0.000  0.000  0.000  0.000  0.000  0.468
 
band     5 # energy   10.14531000 # occ.  0.00000000
 
ion      s     py     pz     px    dxy    dyz    dz2    dxz  x2-y2    tot
    1  0.155  0.000  0.000  0.000  0.000  0.000  0.000  0.000  0.000  0.155
 
band     6 # energy   11.51537892 # occ.  0.00000000
 
ion      s     py     pz     px    dxy    dyz    dz2    dxz  x2-y2    tot
    1  0.000  0.000  0.000  0.000  0.000  0.000  0.000  0.000  0.000  0.000
 
band     7 # energy   11.51537892 # occ.  0.00000000
 
ion      s     py     pz     px    dxy    dyz    dz2    dxz  x2-y2    tot
    1  0.000  0.000  0.000  0.000  0.000  0.000  0.000  0.000  0.000  0.000
 
band     8 # energy   14.66947969 # occ.  0.00000000
 
ion      s     py     pz     px    dxy    dyz    dz2    dxz  x2-y2    tot
    1  0.000  0.015  0.015  0.015  0.000  0.000  0.000  0.000  0.000  0.046
 
band     9 # energy   18.78184208 # occ.  0.00000000
 
ion      s     py     pz     px    dxy    dyz    dz2    dxz  x2-y2    tot
    1  0.000  0.000  0.000  0.000  0.000  0.000  0.000  0.000  0.000  0.000
 
band    10 # energy   18.78184208 # occ.  0.00000000
 
ion      s     py     pz     px    dxy    dyz    dz2    dxz  x2-y2    tot
    1  0.000  0.000  0.000  0.000  0.000  0.000  0.000  0.000  0.000  0.000
 
band    11 # energy   20.10839257 # occ.  0.00000000
 
ion      s     py     pz     px    dxy    dyz    dz2    dxz  x2-y2    tot
    1  0.000  0.122  0.122  0.122  0.000  0.000  0.000  0.000  0.000  0.367
 
band    12 # energy   23.08344979 # occ.  0.00000000
 
ion      s     py     pz     px    dxy    dyz    dz2    dxz  x2-y2    tot
    1  0.000  0.000  0.042  0.049  0.000  0.000  0.000  0.000  0.000  0.092
 

 k-point     2 :    0.44444444 0.44444444 0.44444444     weight = 0.02500000

band     1 # energy   -3.99673995 # occ.  2.00000000
 
ion      s     py     pz     px    dxy    dyz    dz2    dxz  x2-y2    tot
    1  0.439  0.002  0.002  0.002  0.000  0.000  0.000  0.000  0.000  0.444
 
band     2 # energy   -0.19604644 # occ.  2.00000000
 
ion      s     py     pz     px    dxy    dyz    dz2    dxz  x2-y2    tot
    1  0.022  0.072  0.072  0.072  0.000  0.000  0.000  0.000  0.000  0.238
 
band     3 # energy    6.16742650 # occ.  0.00000000
 
ion      s     py     pz     px    dxy    dyz    dz2    dxz  x2-y2    tot
    1  0.000  0.076  0.096  0.296  0.000  0.000  0.000  0.000  0.000  0.468
 
band     4 # energy    6.16742650 # occ.  0.00000000
 
ion      s     py     pz     px    dxy    dyz    dz2    dxz  x2-y2    tot
    1  0.000  0.236  0.216  0.016  0.000  0.000  0.000  0.000  0.000  0.468
 
band     5 # energy   10.17248639 # occ.  0.00000000
 
ion      s     py     pz     px    dxy    dyz    dz2    dxz  x2-y2    tot
    1  0.153  0.000  0.000  0.000  0.000  0.000  0.000  0.000  0.000  0.154
 
band     6 # energy   11.57508436 # occ.  0.00000000
 
ion      s     py     pz     px    dxy    dyz    dz2    dxz  x2-y2    tot
    1  0.000  0.000  0.000  0.001  0.000  0.000  0.000  0.000  0.000  0.001
 
band     7 # energy   11.57508436 # occ.  0.00000000
 
ion      s     py     pz     px    dxy    dyz    dz2    dxz  x2-y2    tot
    1  0.000  0.000  0.001  0.000  0.000  0.000  0.000  0.000  0.000  0.001
 
band     8 # energy   14.73860918 # occ.  0.00000000
 
ion      s     py     pz     px    dxy    dyz    dz2    dxz  x2-y2    tot
    1  0.000  0.016  0.016  0.016  0.000  0.000  0.000  0.000  0.000  0.049
 
band     9 # energy   18.37086688 # occ.  0.00000000
 
ion      s     py     pz     px    dxy    dyz    dz2    dxz  x2-y2    tot
    1  0.000  0.001  0.003  0.005  0.000  0.000  0.000  0.000  0.000  0.009
 
band    10 # energy   18.37086688 # occ.  0.00000000
 
ion      s     py     pz     px    dxy    dyz    dz2    dxz  x2-y2    tot
    1  0.000  0.005  0.003  0.001  0.000  0.000  0.000  0.000  0.000  0.009
 
band    11 # energy   19.78177484 # occ.  0.00000000
 
ion      s     py     pz     px    dxy    dyz    dz2    dxz  x2-y2    tot
    1  0.021  0.112  0.112  0.112  0.000  0.000  0.000  0.000  0.000  0.356
 
band    12 # energy   23.59011991 # occ.  0.00000000
 
ion      s     py     pz     px    dxy    dyz    dz2    dxz  x2-y2    tot
    1  0.000  0.019  0.016  0.044  0.000  0.000  0.000  0.000  0.000  0.080
 

 k-point     3 :    0.38888889 0.38888889 0.38888889     weight = 0.02500000

band     1 # energy   -4.42435912 # occ.  2.00000000
 
ion      s     py     pz     px    dxy    dyz    dz2    dxz  x2-y2    tot
    1  0.403  0.004  0.004  0.004  0.000  0.000  0.000  0.000  0.000  0.415
 
band     2 # energy    0.49852499 # occ.  2.00000000
 
ion      s     py     pz     px    dxy    dyz    dz2    dxz  x2-y2    tot
    1  0.055  0.073  0.073  0.073  0.000  0.000  0.000  0.000  0.000  0.272
 
band     3 # energy    6.22452193 # occ.  0.00000000
 
ion      s     py     pz     px    dxy    dyz    dz2    dxz  x2-y2    tot
    1  0.000  0.311  0.087  0.071  0.000  0.000  0.000  0.000  0.000  0.468
 
band     4 # energy    6.22452193 # occ.  0.00000000
 
ion      s     py     pz     px    dxy    dyz    dz2    dxz  x2-y2    tot
    1  0.000  0.002  0.225  0.241  0.000  0.000  0.000  0.000  0.000  0.468
 
band     5 # energy   10.25985452 # occ.  0.00000000
 
ion      s     py     pz     px    dxy    dyz    dz2    dxz  x2-y2    tot
    1  0.146  0.001  0.001  0.001  0.000  0.000  0.000  0.000  0.000  0.149
 
band     6 # energy   11.74924451 # occ.  0.00000000
 
ion      s     py     pz     px    dxy    dyz    dz2    dxz  x2-y2    tot
    1  0.000  0.003  0.001  0.000  0.000  0.000  0.000  0.000  0.000  0.004
 
band     7 # energy   11.74924451 # occ.  0.00000000
 
ion      s     py     pz     px    dxy    dyz    dz2    dxz  x2-y2    tot
    1  0.000  0.000  0.001  0.003  0.000  0.000  0.000  0.000  0.000  0.004
 
band     8 # energy   14.93769057 # occ.  0.00000000
 
ion      s     py     pz     px    dxy    dyz    dz2    dxz  x2-y2    tot
    1  0.000  0.020  0.020  0.020  0.000  0.000  0.000  0.000  0.000  0.060
 
band     9 # energy   17.50103123 # occ.  0.00000000
 
ion      s     py     pz     px    dxy    dyz    dz2    dxz  x2-y2    tot
    1  0.000  0.001  0.008  0.011  0.000  0.000  0.000  0.000  0.000  0.020
 
band    10 # energy   17.50103123 # occ.  0.00000000
 
ion      s     py     pz     px    dxy    dyz    dz2    dxz  x2-y2    tot
    1  0.000  0.012  0.006  0.002  0.000  0.000  0.000  0.000  0.000  0.020
 
band    11 # energy   19.01016388 # occ.  0.00000000
 
ion      s     py     pz     px    dxy    dyz    dz2    dxz  x2-y2    tot
    1  0.062  0.091  0.091  0.091  0.000  0.000  0.000  0.000  0.000  0.336
 
band    12 # energy   24.75281561 # occ.  0.00000000
 
ion      s     py     pz     px    dxy    dyz    dz2    dxz  x2-y2    tot
    1  0.000  0.023  0.001  0.034  0.000  0.000  0.000  0.000  0.000  0.058
 

 k-point     4 :    0.33333333 0.33333333 0.33333333     weight = 0.02500000

band     1 # energy   -4.91734120 # occ.  2.00000000
 
ion      s     py     pz     px    dxy    dyz    dz2    dxz  x2-y2    tot
    1  0.378  0.004  0.004  0.004  0.000  0.000  0.000  0.000  0.000  0.392
 
band     2 # energy    1.43035384 # occ.  2.00000000
 
ion      s     py     pz     px    dxy    dyz    dz2    dxz  x2-y2    tot
    1  0.075  0.077  0.077  0.077  0.000  0.000  0.000  0.000  0.000  0.305
 
band     3 # energy    6.31951503 # occ.  0.00000000
 
ion      s     py     pz     px    dxy    dyz    dz2    dxz  x2-y2    tot
    1  0.000  0.180  0.270  0.020  0.000  0.000  0.000  0.000  0.000  0.470
 
band     4 # energy    6.31951503 # occ.  0.00000000
 
ion      s     py     pz     px    dxy    dyz    dz2    dxz  x2-y2    tot
    1  0.000  0.134  0.043  0.294  0.000  0.000  0.000  0.000  0.000  0.470
 
band     5 # energy   10.41320648 # occ.  0.00000000
 
ion      s     py     pz     px    dxy    dyz    dz2    dxz  x2-y2    tot
    1  0.136  0.002  0.002  0.002  0.000  0.000  0.000  0.000  0.000  0.142
 
band     6 # energy   12.02802298 # occ.  0.00000000
 
ion      s     py     pz     px    dxy    dyz    dz2    dxz  x2-y2    tot
    1  0.000  0.001  0.002  0.006  0.000  0.000  0.000  0.000  0.000  0.009
 
band     7 # energy   12.02802298 # occ.  0.00000000
 
ion      s     py     pz     px    dxy    dyz    dz2    dxz  x2-y2    tot
    1  0.000  0.005  0.004  0.000  0.000  0.000  0.000  0.000  0.000  0.009
 
band     8 # energy   15.23102939 # occ.  0.00000000
 
ion      s     py     pz     px    dxy    dyz    dz2    dxz  x2-y2    tot
    1  0.002  0.028  0.028  0.028  0.000  0.000  0.000  0.000  0.000  0.087
 
band     9 # energy   16.56166299 # occ.  0.00000000
 
ion      s     py     pz     px    dxy    dyz    dz2    dxz  x2-y2    tot
    1  0.000  0.013  0.000  0.010  0.000  0.000  0.000  0.000  0.000  0.023
 
band    10 # energy   16.56166299 # occ.  0.00000000
 
ion      s     py     pz     px    dxy    dyz    dz2    dxz  x2-y2    tot
    1  0.000  0.003  0.015  0.006  0.000  0.000  0.000  0.000  0.000  0.023
 
band    11 # energy   18.10220205 # occ.  0.00000000
 
ion      s     py     pz     px    dxy    dyz    dz2    dxz  x2-y2    tot
    1  0.102  0.068  0.068  0.068  0.000  0.000  0.000  0.000  0.000  0.306
 
band    12 # energy   24.56598709 # occ.  0.00000000
 
ion      s     py     pz     px    dxy    dyz    dz2    dxz  x2-y2    tot
    1  0.020  0.009  0.009  0.009  0.000  0.000  0.000  0.000  0.000  0.048
 

 k-point     5 :    0.27777778 0.27777778 0.27777778     weight = 0.02500000

band     1 # energy   -5.38638440 # occ.  2.00000000
 
ion      s     py     pz     px    dxy    dyz    dz2    dxz  x2-y2    tot
    1  0.363  0.004  0.004  0.004  0.000  0.000  0.000  0.000  0.000  0.375
 
band     2 # energy    2.49768289 # occ.  2.00000000
 
ion      s     py     pz     px    dxy    dyz    dz2    dxz  x2-y2    tot
    1  0.082  0.084  0.084  0.084  0.000  0.000  0.000  0.000  0.000  0.334
 
band     3 # energy    6.44809197 # occ.  0.00000000
 
ion      s     py     pz     px    dxy    dyz    dz2    dxz  x2-y2    tot
    1  0.000  0.289  0.127  0.057  0.000  0.000  0.000  0.000  0.000  0.473
 
band     4 # energy    6.44809197 # occ.  0.00000000
 
ion      s     py     pz     px    dxy    dyz    dz2    dxz  x2-y2    tot
    1  0.000  0.026  0.188  0.258  0.000  0.000  0.000  0.000  0.000  0.473
 
band     5 # energy   10.62846099 # occ.  0.00000000
 
ion      s     py     pz     px    dxy    dyz    dz2    dxz  x2-y2    tot
    1  0.121  0.004  0.004  0.004  0.000  0.000  0.000  0.000  0.000  0.132
 
band     6 # energy   12.34905782 # occ.  0.00000000
 
ion      s     py     pz     px    dxy    dyz    dz2    dxz  x2-y2    tot
    1  0.000  0.010  0.001  0.005  0.000  0.000  0.000  0.000  0.000  0.016
 
band     7 # energy   12.34905782 # occ.  0.00000000
 
ion      s     py     pz     px    dxy    dyz    dz2    dxz  x2-y2    tot
    1  0.000  0.001  0.009  0.006  0.000  0.000  0.000  0.000  0.000  0.016
 
band     8 # energy   15.47898887 # occ.  0.00000000
 
ion      s     py     pz     px    dxy    dyz    dz2    dxz  x2-y2    tot
    1  0.021  0.050  0.050  0.050  0.000  0.000  0.000  0.000  0.000  0.170
 
band     9 # energy   15.68066914 # occ.  0.00000000
 
ion      s     py     pz     px    dxy    dyz    dz2    dxz  x2-y2    tot
    1  0.000  0.011  0.008  0.000  0.000  0.000  0.000  0.000  0.000  0.019
 
band    10 # energy   15.68066914 # occ.  0.00000000
 
ion      s     py     pz     px    dxy    dyz    dz2    dxz  x2-y2    tot
    1  0.000  0.002  0.004  0.012  0.000  0.000  0.000  0.000  0.000  0.019
 
band    11 # energy   17.32355983 # occ.  0.00000000
 
ion      s     py     pz     px    dxy    dyz    dz2    dxz  x2-y2    tot
    1  0.122  0.034  0.034  0.034  0.000  0.000  0.000  0.000  0.000  0.225
 
band    12 # energy   22.61895280 # occ.  0.00000000
 
ion      s     py     pz     px    dxy    dyz    dz2    dxz  x2-y2    tot
    1  0.020  0.009  0.009  0.009  0.000  0.000  0.000  0.000  0.000  0.046
 

 k-point     6 :    0.22222222 0.22222222 0.22222222     weight = 0.02500000

band     1 # energy   -5.79276618 # occ.  2.00000000
 
ion      s     py     pz     px    dxy    dyz    dz2    dxz  x2-y2    tot
    1  0.355  0.003  0.003  0.003  0.000  0.000  0.000  0.000  0.000  0.363
 
band     2 # energy    3.64109154 # occ.  1.99999321
 
ion      s     py     pz     px    dxy    dyz    dz2    dxz  x2-y2    tot
    1  0.078  0.095  0.095  0.095  0.000  0.000  0.000  0.000  0.000  0.365
 
band     3 # energy    6.60391321 # occ.  0.00000000
 
ion      s     py     pz     px    dxy    dyz    dz2    dxz  x2-y2    tot
    1  0.000  0.269  0.189  0.021  0.000  0.000  0.000  0.000  0.000  0.479
 
band     4 # energy    6.60391321 # occ.  0.00000000
 
ion      s     py     pz     px    dxy    dyz    dz2    dxz  x2-y2    tot
    1  0.000  0.050  0.130  0.299  0.000  0.000  0.000  0.000  0.000  0.479
 
band     5 # energy   10.90837344 # occ.  0.00000000
 
ion      s     py     pz     px    dxy    dyz    dz2    dxz  x2-y2    tot
    1  0.102  0.005  0.005  0.005  0.000  0.000  0.000  0.000  0.000  0.117
 
band     6 # energy   12.61916254 # occ.  0.00000000
 
ion      s     py     pz     px    dxy    dyz    dz2    dxz  x2-y2    tot
    1  0.000  0.010  0.013  0.001  0.000  0.000  0.000  0.000  0.000  0.024
 
band     7 # energy   12.61916254 # occ.  0.00000000
 
ion      s     py     pz     px    dxy    dyz    dz2    dxz  x2-y2    tot
    1  0.000  0.006  0.003  0.015  0.000  0.000  0.000  0.000  0.000  0.024
 
band     8 # energy   15.06782794 # occ.  0.00000000
 
ion      s     py     pz     px    dxy    dyz    dz2    dxz  x2-y2    tot
    1  0.000  0.000  0.005  0.004  0.000  0.000  0.000  0.000  0.000  0.010
 
band     9 # energy   15.06782794 # occ.  0.00000000
 
ion      s     py     pz     px    dxy    dyz    dz2    dxz  x2-y2    tot
    1  0.000  0.006  0.002  0.002  0.000  0.000  0.000  0.000  0.000  0.010
 
band    10 # energy   15.25459177 # occ.  0.00000000
 
ion      s     py     pz     px    dxy    dyz    dz2    dxz  x2-y2    tot
    1  0.111  0.069  0.069  0.069  0.000  0.000  0.000  0.000  0.000  0.318
 
band    11 # energy   17.13114620 # occ.  0.00000000
 
ion      s     py     pz     px    dxy    dyz    dz2    dxz  x2-y2    tot
    1  0.074  0.002  0.002  0.002  0.000  0.000  0.000  0.000  0.000  0.080
 
band    12 # energy   20.79799055 # occ.  0.00000000
 
ion      s     py     pz     px    dxy    dyz    dz2    dxz  x2-y2    tot
    1  0.022  0.005  0.005  0.005  0.000  0.000  0.000  0.000  0.000  0.038
 

 k-point     7 :    0.16666667 0.16666667 0.16666667     weight = 0.02500000

band     1 # energy   -6.11890381 # occ.  2.00000000
 
ion      s     py     pz     px    dxy    dyz    dz2    dxz  x2-y2    tot
    1  0.351  0.002  0.002  0.002  0.000  0.000  0.000  0.000  0.000  0.356
 
band     2 # energy    4.80336620 # occ.  0.00000000
 
ion      s     py     pz     px    dxy    dyz    dz2    dxz  x2-y2    tot
    1  0.066  0.111  0.111  0.111  0.000  0.000  0.000  0.000  0.000  0.401
 
band     3 # energy    6.77307371 # occ.  0.00000000
 
ion      s     py     pz     px    dxy    dyz    dz2    dxz  x2-y2    tot
    1  0.000  0.049  0.284  0.155  0.000  0.000  0.000  0.000  0.000  0.488
 
band     4 # energy    6.77307371 # occ.  0.00000000
 
ion      s     py     pz     px    dxy    dyz    dz2    dxz  x2-y2    tot
    1  0.000  0.276  0.041  0.171  0.000  0.000  0.000  0.000  0.000  0.488
 
band     5 # energy   11.25334487 # occ.  0.00000000
 
ion      s     py     pz     px    dxy    dyz    dz2    dxz  x2-y2    tot
    1  0.079  0.006  0.006  0.006  0.000  0.000  0.000  0.000  0.000  0.096
 
band     6 # energy   12.64570499 # occ.  0.00000000
 
ion      s     py     pz     px    dxy    dyz    dz2    dxz  x2-y2    tot
    1  0.000  0.012  0.009  0.004  0.000  0.000  0.000  0.000  0.000  0.026
 
band     7 # energy   12.64570499 # occ.  0.00000000
 
ion      s     py     pz     px    dxy    dyz    dz2    dxz  x2-y2    tot
    1  0.000  0.005  0.008  0.013  0.000  0.000  0.000  0.000  0.000  0.026
 
band     8 # energy   14.53948406 # occ.  0.00000000
 
ion      s     py     pz     px    dxy    dyz    dz2    dxz  x2-y2    tot
    1  0.200  0.056  0.056  0.056  0.000  0.000  0.000  0.000  0.000  0.368
 
band     9 # energy   14.91667355 # occ.  0.00000000
 
ion      s     py     pz     px    dxy    dyz    dz2    dxz  x2-y2    tot
    1  0.000  0.000  0.000  0.001  0.000  0.000  0.000  0.000  0.000  0.001
 
band    10 # energy   14.91667355 # occ.  0.00000000
 
ion      s     py     pz     px    dxy    dyz    dz2    dxz  x2-y2    tot
    1  0.000  0.000  0.001  0.000  0.000  0.000  0.000  0.000  0.000  0.001
 
band    11 # energy   17.42356674 # occ.  0.00000000
 
ion      s     py     pz     px    dxy    dyz    dz2    dxz  x2-y2    tot
    1  0.024  0.002  0.002  0.002  0.000  0.000  0.000  0.000  0.000  0.029
 
band    12 # energy   19.32404627 # occ.  0.00000000
 
ion      s     py     pz     px    dxy    dyz    dz2    dxz  x2-y2    tot
    1  0.029  0.001  0.001  0.001  0.000  0.000  0.000  0.000  0.000  0.032
 

 k-point     8 :    0.11111111 0.11111111 0.11111111     weight = 0.02500000

band     1 # energy   -6.35612181 # occ.  2.00000000
 
ion      s     py     pz     px    dxy    dyz    dz2    dxz  x2-y2    tot
    1  0.348  0.001  0.001  0.001  0.000  0.000  0.000  0.000  0.000  0.351
 
band     2 # energy    5.89573820 # occ.  0.00000000
 
ion      s     py     pz     px    dxy    dyz    dz2    dxz  x2-y2    tot
    1  0.045  0.133  0.133  0.133  0.000  0.000  0.000  0.000  0.000  0.445
 
band     3 # energy    6.93234196 # occ.  0.00000000
 
ion      s     py     pz     px    dxy    dyz    dz2    dxz  x2-y2    tot
    1  0.000  0.296  0.085  0.119  0.000  0.000  0.000  0.000  0.000  0.500
 
band     4 # energy    6.93234196 # occ.  0.00000000
 
ion      s     py     pz     px    dxy    dyz    dz2    dxz  x2-y2    tot
    1  0.000  0.037  0.248  0.215  0.000  0.000  0.000  0.000  0.000  0.500
 
band     5 # energy   11.64230908 # occ.  0.00000000
 
ion      s     py     pz     px    dxy    dyz    dz2    dxz  x2-y2    tot
    1  0.048  0.006  0.006  0.006  0.000  0.000  0.000  0.000  0.000  0.065
 
band     6 # energy   12.42265494 # occ.  0.00000000
 
ion      s     py     pz     px    dxy    dyz    dz2    dxz  x2-y2    tot
    1  0.000  0.000  0.009  0.008  0.000  0.000  0.000  0.000  0.000  0.016
 
band     7 # energy   12.42265494 # occ.  0.00000000
 
ion      s     py     pz     px    dxy    dyz    dz2    dxz  x2-y2    tot
    1  0.000  0.011  0.002  0.003  0.000  0.000  0.000  0.000  0.000  0.016
 
band     8 # energy   13.75743068 # occ.  0.00000000
 
ion      s     py     pz     px    dxy    dyz    dz2    dxz  x2-y2    tot
    1  0.277  0.034  0.034  0.034  0.000  0.000  0.000  0.000  0.000  0.379
 
band     9 # energy   15.20522552 # occ.  0.00000000
 
ion      s     py     pz     px    dxy    dyz    dz2    dxz  x2-y2    tot
    1  0.000  0.000  0.000  0.000  0.000  0.000  0.000  0.000  0.000  0.000
 
band    10 # energy   15.20522552 # occ.  0.00000000
 
ion      s     py     pz     px    dxy    dyz    dz2    dxz  x2-y2    tot
    1  0.000  0.000  0.000  0.000  0.000  0.000  0.000  0.000  0.000  0.000
 
band    11 # energy   17.05488696 # occ.  0.00000000
 
ion      s     py     pz     px    dxy    dyz    dz2    dxz  x2-y2    tot
    1  0.001  0.002  0.002  0.002  0.000  0.000  0.000  0.000  0.000  0.007
 
band    12 # energy   19.02720595 # occ.  0.00000000
 
ion      s     py     pz     px    dxy    dyz    dz2    dxz  x2-y2    tot
    1  0.031  0.002  0.002  0.002  0.000  0.000  0.000  0.000  0.000  0.037
 

 k-point     9 :    0.05555556 0.05555556 0.05555556     weight = 0.02500000

band     1 # energy   -6.49995615 # occ.  2.00000000
 
ion      s     py     pz     px    dxy    dyz    dz2    dxz  x2-y2    tot
    1  0.347  0.000  0.000  0.000  0.000  0.000  0.000  0.000  0.000  0.348
 
band     2 # energy    6.74996943 # occ.  0.00000000
 
ion      s     py     pz     px    dxy    dyz    dz2    dxz  x2-y2    tot
    1  0.016  0.158  0.158  0.158  0.000  0.000  0.000  0.000  0.000  0.491
 
band     3 # energy    7.04979439 # occ.  0.00000000
 
ion      s     py     pz     px    dxy    dyz    dz2    dxz  x2-y2    tot
    1  0.000  0.034  0.158  0.318  0.000  0.000  0.000  0.000  0.000  0.510
 
band     4 # energy    7.04979439 # occ.  0.00000000
 
ion      s     py     pz     px    dxy    dyz    dz2    dxz  x2-y2    tot
    1  0.000  0.306  0.182  0.023  0.000  0.000  0.000  0.000  0.000  0.510
 
band     5 # energy   11.97362619 # occ.  0.00000000
 
ion      s     py     pz     px    dxy    dyz    dz2    dxz  x2-y2    tot
    1  0.012  0.004  0.004  0.004  0.000  0.000  0.000  0.000  0.000  0.023
 
band     6 # energy   12.18635394 # occ.  0.00000000
 
ion      s     py     pz     px    dxy    dyz    dz2    dxz  x2-y2    tot
    1  0.000  0.000  0.003  0.002  0.000  0.000  0.000  0.000  0.000  0.005
 
band     7 # energy   12.18635394 # occ.  0.00000000
 
ion      s     py     pz     px    dxy    dyz    dz2    dxz  x2-y2    tot
    1  0.000  0.003  0.000  0.001  0.000  0.000  0.000  0.000  0.000  0.005
 
band     8 # energy   13.14523553 # occ.  0.00000000
 
ion      s     py     pz     px    dxy    dyz    dz2    dxz  x2-y2    tot
    1  0.355  0.010  0.010  0.010  0.000  0.000  0.000  0.000  0.000  0.385
 
band     9 # energy   15.62048502 # occ.  0.00000000
 
ion      s     py     pz     px    dxy    dyz    dz2    dxz  x2-y2    tot
    1  0.000  0.000  0.000  0.000  0.000  0.000  0.000  0.000  0.000  0.000
 
band    10 # energy   15.62048502 # occ.  0.00000000
 
ion      s     py     pz     px    dxy    dyz    dz2    dxz  x2-y2    tot
    1  0.000  0.000  0.000  0.000  0.000  0.000  0.000  0.000  0.000  0.000
 
band    11 # energy   16.19857050 # occ.  0.00000000
 
ion      s     py     pz     px    dxy    dyz    dz2    dxz  x2-y2    tot
    1  0.000  0.000  0.000  0.000  0.000  0.000  0.000  0.000  0.000  0.001
 
band    12 # energy   19.66107548 # occ.  0.00000000
 
ion      s     py     pz     px    dxy    dyz    dz2    dxz  x2-y2    tot
    1  0.013  0.007  0.007  0.007  0.000  0.000  0.000  0.000  0.000  0.035
 

 k-point    10 :    0.00000000 0.00000000 0.00000000     weight = 0.02500000

band     1 # energy   -6.54801214 # occ.  2.00000000
 
ion      s     py     pz     px    dxy    dyz    dz2    dxz  x2-y2    tot
    1  0.347  0.000  0.000  0.000  0.000  0.000  0.000  0.000  0.000  0.347
 
band     2 # energy    7.09391354 # occ.  0.00000000
 
ion      s     py     pz     px    dxy    dyz    dz2    dxz  x2-y2    tot
    1  0.000  0.172  0.172  0.172  0.000  0.000  0.000  0.000  0.000  0.516
 
band     3 # energy    7.09391602 # occ.  0.00000000
 
ion      s     py     pz     px    dxy    dyz    dz2    dxz  x2-y2    tot
    1  0.000  0.215  0.085  0.216  0.000  0.000  0.000  0.000  0.000  0.516
 
band     4 # energy    7.09391602 # occ.  0.00000000
 
ion      s     py     pz     px    dxy    dyz    dz2    dxz  x2-y2    tot
    1  0.000  0.129  0.259  0.128  0.000  0.000  0.000  0.000  0.000  0.516
 
band     5 # energy   12.09624899 # occ.  0.00000000
 
ion      s     py     pz     px    dxy    dyz    dz2    dxz  x2-y2    tot
    1  0.000  0.000  0.000  0.000  0.000  0.000  0.000  0.000  0.000  0.000
 
band     6 # energy   12.09624916 # occ.  0.00000000
 
ion      s     py     pz     px    dxy    dyz    dz2    dxz  x2-y2    tot
    1  0.000  0.000  0.000  0.000  0.000  0.000  0.000  0.000  0.000  0.000
 
band     7 # energy   12.09624916 # occ.  0.00000000
 
ion      s     py     pz     px    dxy    dyz    dz2    dxz  x2-y2    tot
    1  0.000  0.000  0.000  0.000  0.000  0.000  0.000  0.000  0.000  0.000
 
band     8 # energy   12.92726588 # occ.  0.00000000
 
ion      s     py     pz     px    dxy    dyz    dz2    dxz  x2-y2    tot
    1  0.387  0.000  0.000  0.000  0.000  0.000  0.000  0.000  0.000  0.387
 
band     9 # energy   15.82525434 # occ.  0.00000000
 
ion      s     py     pz     px    dxy    dyz    dz2    dxz  x2-y2    tot
    1  0.000  0.000  0.000  0.000  0.000  0.000  0.000  0.000  0.000  0.000
 
band    10 # energy   15.84732586 # occ.  0.00000000
 
ion      s     py     pz     px    dxy    dyz    dz2    dxz  x2-y2    tot
    1  0.000  0.000  0.000  0.000  0.000  0.000  0.000  0.000  0.000  0.000
 
band    11 # energy   15.84732586 # occ.  0.00000000
 
ion      s     py     pz     px    dxy    dyz    dz2    dxz  x2-y2    tot
    1  0.000  0.000  0.000  0.000  0.000  0.000  0.000  0.000  0.000  0.000
 
band    12 # energy   20.08512100 # occ.  0.00000000
 
ion      s     py     pz     px    dxy    dyz    dz2    dxz  x2-y2    tot
    1  0.000  0.003  0.001  0.029  0.000  0.000  0.000  0.000  0.000  0.033
 

 k-point    11 :    0.00000000 0.00000000 0.00000000     weight = 0.02500000

band     1 # energy   -6.54801214 # occ.  2.00000000
 
ion      s     py     pz     px    dxy    dyz    dz2    dxz  x2-y2    tot
    1  0.347  0.000  0.000  0.000  0.000  0.000  0.000  0.000  0.000  0.347
 
band     2 # energy    7.09391354 # occ.  0.00000000
 
ion      s     py     pz     px    dxy    dyz    dz2    dxz  x2-y2    tot
    1  0.000  0.172  0.172  0.172  0.000  0.000  0.000  0.000  0.000  0.516
 
band     3 # energy    7.09391602 # occ.  0.00000000
 
ion      s     py     pz     px    dxy    dyz    dz2    dxz  x2-y2    tot
    1  0.000  0.293  0.180  0.043  0.000  0.000  0.000  0.000  0.000  0.516
 
band     4 # energy    7.09391602 # occ.  0.00000000
 
ion      s     py     pz     px    dxy    dyz    dz2    dxz  x2-y2    tot
    1  0.000  0.051  0.164  0.301  0.000  0.000  0.000  0.000  0.000  0.516
 
band     5 # energy   12.09624899 # occ.  0.00000000
 
ion      s     py     pz     px    dxy    dyz    dz2    dxz  x2-y2    tot
    1  0.000  0.000  0.000  0.000  0.000  0.000  0.000  0.000  0.000  0.000
 
band     6 # energy   12.09624916 # occ.  0.00000000
 
ion      s     py     pz     px    dxy    dyz    dz2    dxz  x2-y2    tot
    1  0.000  0.000  0.000  0.000  0.000  0.000  0.000  0.000  0.000  0.000
 
band     7 # energy   12.09624916 # occ.  0.00000000
 
ion      s     py     pz     px    dxy    dyz    dz2    dxz  x2-y2    tot
    1  0.000  0.000  0.000  0.000  0.000  0.000  0.000  0.000  0.000  0.000
 
band     8 # energy   12.92726588 # occ.  0.00000000
 
ion      s     py     pz     px    dxy    dyz    dz2    dxz  x2-y2    tot
    1  0.387  0.000  0.000  0.000  0.000  0.000  0.000  0.000  0.000  0.387
 
band     9 # energy   15.82525434 # occ.  0.00000000
 
ion      s     py     pz     px    dxy    dyz    dz2    dxz  x2-y2    tot
    1  0.000  0.000  0.000  0.000  0.000  0.000  0.000  0.000  0.000  0.000
 
band    10 # energy   15.84732586 # occ.  0.00000000
 
ion      s     py     pz     px    dxy    dyz    dz2    dxz  x2-y2    tot
    1  0.000  0.000  0.000  0.000  0.000  0.000  0.000  0.000  0.000  0.000
 
band    11 # energy   15.84732586 # occ.  0.00000000
 
ion      s     py     pz     px    dxy    dyz    dz2    dxz  x2-y2    tot
    1  0.000  0.000  0.000  0.000  0.000  0.000  0.000  0.000  0.000  0.000
 
band    12 # energy   20.08512099 # occ.  0.00000000
 
ion      s     py     pz     px    dxy    dyz    dz2    dxz  x2-y2    tot
    1  0.000  0.010  0.003  0.020  0.000  0.000  0.000  0.000  0.000  0.033
 

 k-point    12 :    0.00000000 0.05555556 0.05555556     weight = 0.02500000

band     1 # energy   -6.48385617 # occ.  2.00000000
 
ion      s     py     pz     px    dxy    dyz    dz2    dxz  x2-y2    tot
    1  0.348  0.000  0.001  0.000  0.000  0.000  0.000  0.000  0.000  0.348
 
band     2 # energy    6.85147478 # occ.  0.00000000
 
ion      s     py     pz     px    dxy    dyz    dz2    dxz  x2-y2    tot
    1  0.023  0.000  0.485  0.000  0.000  0.000  0.000  0.000  0.000  0.508
 
band     3 # energy    6.92711074 # occ.  0.00000000
 
ion      s     py     pz     px    dxy    dyz    dz2    dxz  x2-y2    tot
    1  0.000  0.248  0.000  0.248  0.000  0.000  0.000  0.000  0.000  0.497
 
band     4 # energy    6.92711232 # occ.  0.00000000
 
ion      s     py     pz     px    dxy    dyz    dz2    dxz  x2-y2    tot
    1  0.000  0.248  0.000  0.248  0.000  0.000  0.000  0.000  0.000  0.497
 
band     5 # energy   11.75239608 # occ.  0.00000000
 
ion      s     py     pz     px    dxy    dyz    dz2    dxz  x2-y2    tot
    1  0.000  0.000  0.000  0.000  0.000  0.000  0.000  0.000  0.000  0.000
 
band     6 # energy   12.33707079 # occ.  0.00000000
 
ion      s     py     pz     px    dxy    dyz    dz2    dxz  x2-y2    tot
    1  0.000  0.009  0.000  0.009  0.000  0.000  0.000  0.000  0.000  0.019
 
band     7 # energy   12.33707098 # occ.  0.00000000
 
ion      s     py     pz     px    dxy    dyz    dz2    dxz  x2-y2    tot
    1  0.000  0.009  0.000  0.009  0.000  0.000  0.000  0.000  0.000  0.019
 
band     8 # energy   13.17032584 # occ.  0.00000000
 
ion      s     py     pz     px    dxy    dyz    dz2    dxz  x2-y2    tot