 running on   12 total cores
 distrk:  each k-point on   12 cores,    1 groups
 distr:  one band on    1 cores,   12 groups
 using from now: INCAR     
 vasp.5.4.4.18Apr17-6-g9f103f2a35 (build Mar 30 2023 15:39:25) complex          
  
 POSCAR found :  1 types and       1 ions
 scaLAPACK will be used

 ----------------------------------------------------------------------------- 
|                                                                             |
|           W    W    AA    RRRRR   N    N  II  N    N   GGGG   !!!           |
|           W    W   A  A   R    R  NN   N  II  NN   N  G    G  !!!           |
|           W    W  A    A  R    R  N N  N  II  N N  N  G       !!!           |
|           W WW W  AAAAAA  RRRRR   N  N N  II  N  N N  G  GGG   !            |
|           WW  WW  A    A  R   R   N   NN  II  N   NN  G    G                |
|           W    W  A    A  R    R  N    N  II  N    N   GGGG   !!!           |
|                                                                             |
|      For optimal performance we recommend to set                            |
|        NCORE= 4 - approx SQRT( number of cores)                             |
|      NCORE specifies how many cores store one orbital (NPAR=cpu/NCORE).     |
|      This setting can  greatly improve the performance of VASP for DFT.     |
|      The default,   NCORE=1            might be grossly inefficient         |
|      on modern multi-core architectures or massively parallel machines.     |
|      Do your own testing !!!!                                               |
|      Unfortunately you need to use the default for GW and RPA calculations. |
|      (for HF NCORE is supported but not extensively tested yet)             |
|                                                                             |
 ----------------------------------------------------------------------------- 

 LDA part: xc-table for Pade appr. of Perdew
 WARNING: stress and forces are not correct
 POSCAR, INCAR and KPOINTS ok, starting setup
 FFT: planning ...
 WAVECAR not read
 charge-density read from file: fcc                                     
 entering main loop
       N       E                     dE             d eps       ncg     rms          rms(c)
DAV:   1    -0.281971149807E+01   -0.28197E+01   -0.91748E+02  1044   0.122E+02
DAV:   2    -0.375196693418E+01   -0.93226E+00   -0.92084E+00  1440   0.104E+01
DAV:   3    -0.375580375271E+01   -0.38368E-02   -0.38363E-02  1080   0.649E-01
DAV:   4    -0.375580637231E+01   -0.26196E-05   -0.26198E-05  1536   0.165E-02
DAV:   5    -0.375580637241E+01   -0.97998E-10   -0.33384E-09  1068   0.119E-04
DAV:   6    -0.375580637227E+01    0.13510E-09   -0.30110E-12  1608   0.276E-06
   1 F= -.37558064E+01 E0= -.37552555E+01  d E =-.110180E-02
 writing wavefunctions
