<?xml version="1.0" encoding="ISO-8859-1"?>
<modeling>
 <generator>
  <i name="program" type="string">vasp </i>
  <i name="version" type="string">5.4.4.18Apr17-6-g9f103f2a35  </i>
  <i name="subversion" type="string">(build Mar 30 2023 15:39:25) complex            parallel </i>
  <i name="platform" type="string">LinuxIFC </i>
  <i name="date" type="string">2023 06 23 </i>
  <i name="time" type="string">18:59:45 </i>
 </generator>
 <incar>
  <i type="string" name="SYSTEM"> BC3-optical</i>
  <i type="int" name="ISTART">     1</i>
  <i type="string" name="PREC">accurate</i>
  <i type="string" name="ALGO"> Exact</i>
  <i type="int" name="ICHARG">     2</i>
  <i name="EDIFF">      0.00000001</i>
  <i name="ENCUT">    450.00000000</i>
  <i type="int" name="NBANDS">  1024</i>
  <i type="int" name="NEDOS">  2400</i>
  <i type="logical" name="LREAL"> F  </i>
  <i type="int" name="ISMEAR">     0</i>
  <i name="SIGMA">      0.01000000</i>
  <i type="int" name="NWRITE">     3</i>
  <i type="logical" name="LOPTICS"> T  </i>
  <v type="int" name="KPOINT_BSE">    -1     0     0     0</v>
  <i name="CSHIFT">      0.10000000</i>
  <i name="CSHIFT">      0.10000000</i>
 </incar>
 <structure name="primitive_cell" >
  <crystal>
   <varray name="basis" >
    <v>       4.48084843       2.58701885       0.00000000 </v>
    <v>      -4.48084843       2.58701885       0.00000000 </v>
    <v>       0.00000000       0.00000000       8.52022140 </v>
   </varray>
   <i name="volume">    197.53348383 </i>
   <varray name="rec_basis" >
    <v>       0.11158601       0.19327265       0.00000000 </v>
    <v>      -0.11158601       0.19327265       0.00000000 </v>
    <v>       0.00000000       0.00000000       0.11736784 </v>
   </varray>
  </crystal>
  <varray name="positions" >
   <v>       0.33333300      -0.33333400       0.25000000 </v>
   <v>       0.15869124       0.31738348       0.25000000 </v>
   <v>      -0.31738448      -0.15869224       0.25000000 </v>
   <v>       0.15869124      -0.15869224       0.25000000 </v>
   <v>      -0.15869224       0.15869124       0.25000000 </v>
   <v>       0.31738348       0.15869124       0.25000000 </v>
   <v>      -0.15869224      -0.31738448       0.25000000 </v>
   <v>      -0.33333400       0.33333300       0.25000000 </v>
  </varray>
 </structure>
 <varray name="primitive_index" >
  <v type="int" >        1 </v>
  <v type="int" >        3 </v>
  <v type="int" >        7 </v>
  <v type="int" >        5 </v>
  <v type="int" >        6 </v>
  <v type="int" >        4 </v>
  <v type="int" >        8 </v>
  <v type="int" >        2 </v>
 </varray>
 <kpoints>
  <generation param="Gamma">
   <v type="int" name="divisions">      12       12        1 </v>
   <v name="usershift">      0.00000000       0.00000000       0.00000000 </v>
   <v name="genvec1">      0.08333333       0.00000000       0.00000000 </v>
   <v name="genvec2">      0.00000000       0.08333333       0.00000000 </v>
   <v name="genvec3">      0.00000000       0.00000000       1.00000000 </v>
   <v name="shift">      0.00000000       0.00000000       0.00000000 </v>
  </generation>
  <varray name="kpointlist" >
   <v>       0.00000000       0.00000000       0.00000000 </v>
   <v>       0.08333333       0.00000000       0.00000000 </v>
   <v>       0.16666667       0.00000000       0.00000000 </v>
   <v>       0.25000000      -0.00000000       0.00000000 </v>
   <v>       0.33333333      -0.00000000       0.00000000 </v>
   <v>       0.41666667       0.00000000       0.00000000 </v>
   <v>       0.50000000      -0.00000000       0.00000000 </v>
   <v>       0.08333333       0.08333333       0.00000000 </v>
   <v>       0.16666667       0.08333333       0.00000000 </v>
   <v>       0.25000000       0.08333333       0.00000000 </v>
   <v>       0.33333333       0.08333333       0.00000000 </v>
   <v>       0.41666667       0.08333333       0.00000000 </v>
   <v>       0.16666667       0.16666667       0.00000000 </v>
   <v>       0.25000000       0.16666667       0.00000000 </v>
   <v>       0.33333333       0.16666667       0.00000000 </v>
   <v>       0.41666667       0.16666667       0.00000000 </v>
   <v>       0.25000000       0.25000000       0.00000000 </v>
   <v>       0.33333333       0.25000000       0.00000000 </v>
   <v>       0.33333333       0.33333333       0.00000000 </v>
  </varray>
  <varray name="weights" >
   <v>       0.00694444 </v>
   <v>       0.04166667 </v>
   <v>       0.04166667 </v>
   <v>       0.04166667 </v>
   <v>       0.04166667 </v>
   <v>       0.04166667 </v>
   <v>       0.02083333 </v>
   <v>       0.04166667 </v>
   <v>       0.08333333 </v>
   <v>       0.08333333 </v>
   <v>       0.08333333 </v>
   <v>       0.08333333 </v>
   <v>       0.04166667 </v>
   <v>       0.08333333 </v>
   <v>       0.08333333 </v>
   <v>       0.04166667 </v>
   <v>       0.04166667 </v>
   <v>       0.08333333 </v>
   <v>       0.01388889 </v>
  </varray>
 </kpoints>
 <parameters>
  <separator name="general" >
   <i type="string" name="SYSTEM">BC3-optical</i>
   <i type="logical" name="LCOMPAT"> F  </i>
  </separator>
  <separator name="electronic" >
   <i type="string" name="PREC">accura</i>
   <i name="ENMAX">    450.00000000</i>
   <i name="ENAUG">    644.87300000</i>
   <i name="EDIFF">      0.00000001</i>
   <i type="int" name="IALGO">    90</i>
   <i type="int" name="IWAVPR">    10</i>
   <i type="int" name="NBANDS">  1032</i>
   <i name="NELECT">     30.00000000</i>
   <i type="int" name="TURBO">     0</i>
   <i type="int" name="IRESTART">     0</i>
   <i type="int" name="NREBOOT">     0</i>
   <i type="int" name="NMIN">     0</i>
   <i name="EREF">      0.00000000</i>
   <separator name="electronic smearing" >
    <i type="int" name="ISMEAR">     0</i>
    <i name="SIGMA">      0.01000000</i>
    <i name="KSPACING">      0.50000000</i>
    <i type="logical" name="KGAMMA"> T  </i>
   </separator>
   <separator name="electronic projectors" >
    <i type="logical" name="LREAL"> F  </i>
    <v name="ROPT">      0.00000000      0.00000000</v>
    <i type="int" name="LMAXPAW">  -100</i>
    <i type="int" name="LMAXMIX">     2</i>
    <i type="logical" name="NLSPLINE"> F  </i>
   </separator>
   <separator name="electronic startup" >
    <i type="int" name="ISTART">     1</i>
    <i type="int" name="ICHARG">     2</i>
    <i type="int" name="INIWAV">     1</i>
   </separator>
   <separator name="electronic spin" >
    <i type="int" name="ISPIN">     1</i>
    <i type="logical" name="LNONCOLLINEAR"> F  </i>
    <v name="MAGMOM">      1.00000000      1.00000000      1.00000000      1.00000000      1.00000000      1.00000000      1.00000000      1.00000000</v>
    <i name="NUPDOWN">     -1.00000000</i>
    <i type="logical" name="LSORBIT"> F  </i>
    <v name="SAXIS">      0.00000000      0.00000000      1.00000000</v>
    <i type="logical" name="LSPIRAL"> F  </i>
    <v name="QSPIRAL">      0.00000000      0.00000000      0.00000000</v>
    <i type="logical" name="LZEROZ"> F  </i>
   </separator>
   <separator name="electronic exchange-correlation" >
    <i type="logical" name="LASPH"> F  </i>
    <i type="logical" name="LMETAGGA"> F  </i>
   </separator>
   <separator name="electronic convergence" >
    <i type="int" name="NELM">    60</i>
    <i type="int" name="NELMDL">     0</i>
    <i type="int" name="NELMIN">     2</i>
    <i name="ENINI">    450.00000000</i>
    <separator name="electronic convergence detail" >
     <i type="logical" name="LDIAG"> T  </i>
     <i type="logical" name="LSUBROT"> F  </i>
     <i name="WEIMIN">      0.00000000</i>
     <i name="EBREAK">      0.00000000</i>
     <i name="DEPER">      0.30000000</i>
     <i type="int" name="NRMM">     4</i>
     <i name="TIME">      0.40000000</i>
    </separator>
   </separator>
   <separator name="electronic mixer" >
    <i name="AMIX">      0.40000000</i>
    <i name="BMIX">      1.00000000</i>
    <i name="AMIN">      0.10000000</i>
    <i name="AMIX_MAG">      1.60000000</i>
    <i name="BMIX_MAG">      1.00000000</i>
    <separator name="electronic mixer details" >
     <i type="int" name="IMIX">     4</i>
     <i type="logical" name="MIXFIRST"> F  </i>
     <i type="int" name="MAXMIX">   -45</i>
     <i name="WC">    100.00000000</i>
     <i type="int" name="INIMIX">     1</i>
     <i type="int" name="MIXPRE">     1</i>
     <i type="int" name="MREMOVE">     5</i>
    </separator>
   </separator>
   <separator name="electronic dipolcorrection" >
    <i type="logical" name="LDIPOL"> F  </i>
    <i type="logical" name="LMONO"> F  </i>
    <i type="int" name="IDIPOL">     0</i>
    <i name="EPSILON">      1.00000000</i>
    <v name="DIPOL">   -100.00000000   -100.00000000   -100.00000000</v>
    <i name="EFIELD">      0.00000000</i>
   </separator>
  </separator>
  <separator name="grids" >
   <i type="int" name="NGX">    36</i>
   <i type="int" name="NGY">    36</i>
   <i type="int" name="NGZ">    60</i>
   <i type="int" name="NGXF">    72</i>
   <i type="int" name="NGYF">    72</i>
   <i type="int" name="NGZF">   120</i>
   <i type="logical" name="ADDGRID"> F  </i>
  </separator>
  <separator name="ionic" >
   <i type="int" name="NSW">     0</i>
   <i type="int" name="IBRION">    -1</i>
   <i type="int" name="MDALGO">     0</i>
   <i type="int" name="ISIF">     2</i>
   <i name="PSTRESS">      0.00000000</i>
   <i name="EDIFFG">      0.00000010</i>
   <i type="int" name="NFREE">     0</i>
   <i name="POTIM">      0.50000000</i>
   <i name="SMASS">     -3.00000000</i>
   <i name="SCALEE">      1.00000000</i>
  </separator>
  <separator name="ionic md" >
   <i name="TEBEG">      0.00010000</i>
   <i name="TEEND">      0.00010000</i>
   <i type="int" name="NBLOCK">     1</i>
   <i type="int" name="KBLOCK">     1</i>
   <i type="int" name="NPACO">   256</i>
   <i name="APACO">     16.00000000</i>
  </separator>
  <separator name="symmetry" >
   <i type="int" name="ISYM">     2</i>
   <i name="SYMPREC">      0.00001000</i>
  </separator>
  <separator name="dos" >
   <i type="int" name="LORBIT">     0</i>
   <v name="RWIGS">     -1.00000000     -1.00000000</v>
   <i type="int" name="NEDOS">  2400</i>
   <i name="EMIN">     10.00000000</i>
   <i name="EMAX">    -10.00000000</i>
   <i name="EFERMI">      0.00000000</i>
  </separator>
  <separator name="writing" >
   <i type="int" name="NWRITE">     3</i>
   <i type="logical" name="LWAVE"> T  </i>
   <i type="logical" name="LDOWNSAMPLE"> F  </i>
   <i type="logical" name="LCHARG"> T  </i>
   <i type="logical" name="LPARD"> F  </i>
   <i type="logical" name="LVTOT"> F  </i>
   <i type="logical" name="LVHAR"> F  </i>
   <i type="logical" name="LELF"> F  </i>
   <i type="logical" name="LOPTICS"> T  </i>
   <v name="STM">      0.00000000      0.00000000      0.00000000      0.00000000      0.00000000      0.00000000      0.00000000</v>
  </separator>
  <separator name="performance" >
   <i type="int" name="NPAR">    12</i>
   <i type="int" name="NSIM">     4</i>
   <i type="int" name="NBLK">    -1</i>
   <i type="logical" name="LPLANE"> T  </i>
   <i type="logical" name="LSCALAPACK"> T  </i>
   <i type="logical" name="LSCAAWARE"> T  </i>
   <i type="logical" name="LSCALU"> F  </i>
   <i type="logical" name="LASYNC"> F  </i>
   <i type="logical" name="LORBITALREAL"> F  </i>
  </separator>
  <separator name="miscellaneous" >
   <i type="int" name="IDIOT">     3</i>
   <i type="int" name="ISPECIAL">     0</i>
   <i type="logical" name="LMUSIC"> F  </i>
   <v name="POMASS">     10.81100000     12.01100000</v>
   <v name="DARWINR">      0.00000000      0.00000000</v>
   <v name="DARWINV">      1.00000000      1.00000000</v>
   <i type="logical" name="LCORR"> T  </i>
  </separator>
  <i type="logical" name="GGA_COMPAT"> T  </i>
  <i type="logical" name="LBERRY"> F  </i>
  <i type="int" name="ICORELEVEL">     0</i>
  <i type="logical" name="LDAU"> F  </i>
  <i type="int" name="I_CONSTRAINED_M">     0</i>
  <separator name="electronic exchange-correlation" >
   <i type="string" name="GGA">--</i>
   <i type="int" name="VOSKOWN">     0</i>
   <i type="logical" name="LHFCALC"> F  </i>
   <i type="string" name="PRECFOCK"></i>
   <i type="logical" name="LSYMGRAD"> F  </i>
   <i type="logical" name="LHFONE"> F  </i>
   <i type="logical" name="LRHFCALC"> F  </i>
   <i type="logical" name="LTHOMAS"> F  </i>
   <i type="logical" name="LMODELHF"> F  </i>
   <i name="ENCUT4O">     -1.00000000</i>
   <i type="int" name="EXXOEP">     0</i>
   <i type="int" name="FOURORBIT">     0</i>
   <i name="AEXX">      0.00000000</i>
   <i name="HFALPHA">      0.00000000</i>
   <i name="MCALPHA">      0.00000000</i>
   <i name="ALDAX">      1.00000000</i>
   <i name="AGGAX">      1.00000000</i>
   <i name="ALDAC">      1.00000000</i>
   <i name="AGGAC">      1.00000000</i>
   <i type="int" name="NKREDX">     1</i>
   <i type="int" name="NKREDY">     1</i>
   <i type="int" name="NKREDZ">     1</i>
   <i type="logical" name="SHIFTRED"> F  </i>
   <i type="logical" name="ODDONLY"> F  </i>
   <i type="logical" name="EVENONLY"> F  </i>
   <i type="int" name="LMAXFOCK">     0</i>
   <i type="int" name="NMAXFOCKAE">     0</i>
   <i type="logical" name="LFOCKAEDFT"> F  </i>
   <i name="HFSCREEN">      0.00000000</i>
   <i name="HFSCREENC">      0.00000000</i>
   <i type="int" name="NBANDSGWLOW">     0</i>
  </separator>
  <separator name="vdW DFT" >
   <i type="logical" name="LUSE_VDW"> F  </i>
   <i name="Zab_VDW">     -0.84910000</i>
   <i name="PARAM1">      0.12340000</i>
   <i name="PARAM2">      1.00000000</i>
   <i name="PARAM3">      0.00000000</i>
  </separator>
  <separator name="model GW" >
   <i type="int" name="MODEL_GW">     0</i>
   <i name="MODEL_EPS0">     14.81501129</i>
   <i name="MODEL_ALPHA">      1.00000000</i>
  </separator>
  <separator name="linear response parameters" >
   <i type="logical" name="LEPSILON"> F  </i>
   <i type="logical" name="LRPA"> F  </i>
   <i type="logical" name="LNABLA"> F  </i>
   <i type="logical" name="LVEL"> F  </i>
   <i type="int" name="KINTER">     0</i>
   <i name="CSHIFT">      0.10000000</i>
   <i name="OMEGAMAX">     -1.00000000</i>
   <i name="DEG_THRESHOLD">      0.00200000</i>
   <i name="RTIME">     -0.10000000</i>
   <i name="WPLASMAI">      0.00000000</i>
   <v name="DFIELD">      0.00000000      0.00000000      0.00000000</v>
   <v name="WPLASMA">      0.00000000      0.00000000      0.00000000      0.00000000      0.00000000      0.00000000      0.00000000      0.00000000      0.00000000</v>
  </separator>
  <separator name="orbital magnetization" >
   <i type="logical" name="NUCIND"> F  </i>
   <v name="MAGPOS">      0.00000000      0.00000000      0.00000000</v>
   <i type="logical" name="LNICSALL"> T  </i>
   <i type="logical" name="ORBITALMAG"> F  </i>
   <i type="logical" name="LMAGBLOCH"> F  </i>
   <i type="logical" name="LCHIMAG"> F  </i>
   <i type="logical" name="LGAUGE"> T  </i>
   <i type="int" name="MAGATOM">     0</i>
   <v name="MAGDIPOL">      0.00000000      0.00000000      0.00000000</v>
   <v name="AVECCONST">      0.00000000      0.00000000      0.00000000</v>
  </separator>
  <separator name="response functions" >
   <i type="logical" name="LADDER"> F  </i>
   <i type="logical" name="LRPAFORCE"> F  </i>
   <i type="logical" name="LFXC"> F  </i>
   <i type="logical" name="LHARTREE"> T  </i>
   <i type="int" name="IBSE">     0</i>
   <v type="int" name="KPOINT">    -1     0     0     0</v>
   <i type="logical" name="LTCTE"> F  </i>
   <i type="logical" name="LTETE"> F  </i>
   <i type="logical" name="LTRIPLET"> F  </i>
   <i type="logical" name="LFXCEPS"> F  </i>
   <i type="logical" name="LFXHEG"> F  </i>
   <i type="int" name="NATURALO">     2</i>
   <i type="logical" name="L2ORDER"> F  </i>
   <i type="logical" name="LMP2LT"> F  </i>
   <i type="logical" name="LUSEW"> F  </i>
   <i name="ENCUTGW">     -2.00000000</i>
   <i name="ENCUTGWSOFT">     -2.00000000</i>
   <i name="ENCUTLF">     -1.00000000</i>
   <i type="int" name="LMAXMP2">    -1</i>
   <i name="SCISSOR">      0.00000000</i>
   <i type="int" name="NOMEGA">     0</i>
   <i type="int" name="NOMEGAR">     0</i>
   <i type="int" name="NBANDSGW">    -1</i>
   <i type="int" name="NBANDSO">    -1</i>
   <i type="int" name="NBANDSV">    -1</i>
   <i type="int" name="NELM">     1</i>
   <i type="int" name="NELMHF">     1</i>
   <i type="int" name="DIM">     3</i>
   <i type="int" name="ANTIRES">     0</i>
   <i name="OMEGAMAX">    -30.00000000</i>
   <i name="OMEGAMIN">    -30.00000000</i>
   <i name="OMEGATL">   -200.00000000</i>
   <i type="int" name="OMEGAGRID">   140</i>
   <i name="CSHIFT">      0.10000000</i>
   <i type="logical" name="SELFENERGY"> F  </i>
   <i type="logical" name="LSPECTRAL"> F  </i>
   <i type="logical" name="LSPECTRALGW"> F  </i>
   <i type="logical" name="LSINGLES"> F  </i>
   <i type="logical" name="LFERMIGW"> F  </i>
   <i type="logical" name="ODDONLYGW"> F  </i>
   <i type="logical" name="EVENONLYGW"> F  </i>
   <i type="int" name="NKREDLFX">     1</i>
   <i type="int" name="NKREDLFY">     1</i>
   <i type="int" name="NKREDLFZ">     1</i>
   <i type="int" name="MAXMEM">  2800</i>
   <i type="int" name="TELESCOPE">     0</i>
   <i type="int" name="TAUPAR">     1</i>
   <i type="int" name="OMEGAPAR">    -1</i>
   <i name="LAMBDA">      1.00000000</i>
  </separator>
  <separator name="External order field" >
   <i name="OFIELD_KAPPA">      0.00000000</i>
   <v name="OFIELD_K">      0.00000000      0.00000000      0.00000000</v>
   <i name="OFIELD_Q6_NEAR">      0.00000000</i>
   <i name="OFIELD_Q6_FAR">      0.00000000</i>
   <i name="OFIELD_A">      0.00000000</i>
  </separator>
 </parameters>
 <atominfo>
  <atoms>       8 </atoms>
  <types>       2 </types>
  <array name="atoms" >
   <dimension dim="1">ion</dimension>
   <field type="string">element</field>
   <field type="int">atomtype</field>
   <set>
    <rc><c>B </c><c>   1</c></rc>
    <rc><c>B </c><c>   1</c></rc>
    <rc><c>C </c><c>   2</c></rc>
    <rc><c>C </c><c>   2</c></rc>
    <rc><c>C </c><c>   2</c></rc>
    <rc><c>C </c><c>   2</c></rc>
    <rc><c>C </c><c>   2</c></rc>
    <rc><c>C </c><c>   2</c></rc>
   </set>
  </array>
  <array name="atomtypes" >
   <dimension dim="1">type</dimension>
   <field type="int">atomspertype</field>
   <field type="string">element</field>
   <field>mass</field>
   <field>valence</field>
   <field type="string">pseudopotential</field>
   <set>
    <rc><c>   2</c><c>B </c><c>     10.81100000</c><c>      3.00000000</c><c>  PAW_PBE B 06Sep2000                   </c></rc>
    <rc><c>   6</c><c>C </c><c>     12.01100000</c><c>      4.00000000</c><c>  PAW_PBE C 08Apr2002                   </c></rc>
   </set>
  </array>
 </atominfo>
 <structure name="initialpos" >
  <crystal>
   <varray name="basis" >
    <v>       4.48084843       2.58701885       0.00000000 </v>
    <v>      -4.48084843       2.58701885       0.00000000 </v>
    <v>       0.00000000       0.00000000       8.52022140 </v>
   </varray>
   <i name="volume">    197.53348383 </i>
   <varray name="rec_basis" >
    <v>       0.11158601       0.19327265       0.00000000 </v>
    <v>      -0.11158601       0.19327265       0.00000000 </v>
    <v>       0.00000000       0.00000000       0.11736784 </v>
   </varray>
  </crystal>
  <varray name="positions" >
   <v>       0.33333300       0.66666600       0.25000000 </v>
   <v>       0.66666600       0.33333300       0.25000000 </v>
   <v>       0.15869124       0.31738348       0.25000000 </v>
   <v>       0.31738348       0.15869124       0.25000000 </v>
   <v>       0.15869124       0.84130776       0.25000000 </v>
   <v>       0.84130776       0.15869124       0.25000000 </v>
   <v>       0.68261552       0.84130776       0.25000000 </v>
   <v>       0.84130776       0.68261552       0.25000000 </v>
  </varray>
 </structure>
 <calculation>
  <scstep>
   <time name="diag"> 1023.86 1146.61</time>
   <time name="total"> 1024.38 1147.16</time>
   <energy>
    <i name="alphaZ">     25.67921176 </i>
    <i name="ewald">    700.27145080 </i>
    <i name="hartreedc">  -1524.76618073 </i>
    <i name="XCdc">     91.14273073 </i>
    <i name="pawpsdc">    738.13200929 </i>
    <i name="pawaedc">   -739.83780425 </i>
    <i name="eentropy">     -0.00000000 </i>
    <i name="bandstr">   -389.26594481 </i>
    <i name="atom">   1025.20389953 </i>
    <i name="e_fr_energy">    -73.44062769 </i>
    <i name="e_wo_entrp">    -73.44062769 </i>
    <i name="e_0_energy">    -73.44062769 </i>
   </energy>
  </scstep>
  <scstep>
   <time name="diag"> 1019.97 1153.70</time>
   <time name="total"> 1020.32 1154.33</time>
   <energy>
    <i name="e_fr_energy">    -68.99901163 </i>
    <i name="e_wo_entrp">    -68.99901163 </i>
    <i name="e_0_energy">    -68.99901163 </i>
   </energy>
  </scstep>
  <scstep>
   <time name="diag"> 1020.73 1153.55</time>
   <time name="total"> 1020.89 1153.71</time>
   <energy>
    <i name="e_fr_energy">    -67.35394036 </i>
    <i name="e_wo_entrp">    -67.35394036 </i>
    <i name="e_0_energy">    -67.35394036 </i>
   </energy>
  </scstep>
  <scstep>
   <time name="diag"> 1018.03 1160.29</time>
   <time name="total"> 1018.31 1160.57</time>
   <energy>
    <i name="e_fr_energy">    -67.24757337 </i>
    <i name="e_wo_entrp">    -67.24757337 </i>
    <i name="e_0_energy">    -67.24757337 </i>
   </energy>
  </scstep>
  <scstep>
   <time name="diag"> 1012.70 1145.49</time>
   <time name="total"> 1012.94 1145.73</time>
   <energy>
    <i name="e_fr_energy">    -67.22049319 </i>
    <i name="e_wo_entrp">    -67.22049319 </i>
    <i name="e_0_energy">    -67.22049319 </i>
   </energy>
  </scstep>
  <scstep>
   <time name="diag"> 1038.84 1168.34</time>
   <time name="total"> 1039.19 1168.95</time>
   <energy>
    <i name="e_fr_energy">    -67.21907962 </i>
    <i name="e_wo_entrp">    -67.21907962 </i>
    <i name="e_0_energy">    -67.21907962 </i>
   </energy>
  </scstep>
  <scstep>
   <time name="diag"> 1020.68 1148.61</time>
   <time name="total"> 1021.07 1148.99</time>
   <energy>
    <i name="e_fr_energy">    -67.22295241 </i>
    <i name="e_wo_entrp">    -67.22295241 </i>
    <i name="e_0_energy">    -67.22295241 </i>
   </energy>
  </scstep>
  <scstep>
   <time name="diag">  945.73 1050.28</time>
   <time name="total">  945.95 1050.49</time>
   <energy>
    <i name="e_fr_energy">    -67.22702477 </i>
    <i name="e_wo_entrp">    -67.22702477 </i>
    <i name="e_0_energy">    -67.22702477 </i>
   </energy>
  </scstep>
  <scstep>
   <time name="diag">  551.48  551.51</time>
   <time name="total">  551.62  551.65</time>
   <energy>
    <i name="e_fr_energy">    -67.22770203 </i>
    <i name="e_wo_entrp">    -67.22770203 </i>
    <i name="e_0_energy">    -67.22770203 </i>
   </energy>
  </scstep>
  <scstep>
   <time name="diag">  550.62  550.64</time>
   <time name="total">  550.76  550.79</time>
   <energy>
    <i name="e_fr_energy">    -67.22771724 </i>
    <i name="e_wo_entrp">    -67.22771724 </i>
    <i name="e_0_energy">    -67.22771724 </i>
   </energy>
  </scstep>
  <scstep>
   <time name="diag">  550.73  550.76</time>
   <time name="total">  550.87  550.90</time>
   <energy>
    <i name="e_fr_energy">    -67.22773009 </i>
    <i name="e_wo_entrp">    -67.22773009 </i>
    <i name="e_0_energy">    -67.22773009 </i>
   </energy>
  </scstep>
  <scstep>
   <time name="diag">  550.64  550.67</time>
   <time name="total">  550.78  550.81</time>
   <energy>
    <i name="e_fr_energy">    -67.22773016 </i>
    <i name="e_wo_entrp">    -67.22773016 </i>
    <i name="e_0_energy">    -67.22773016 </i>
   </energy>
  </scstep>
  <scstep>
   <time name="diag">  550.58  550.61</time>
   <time name="total">  550.72  550.75</time>
   <energy>
    <i name="e_fr_energy">    -67.22773024 </i>
    <i name="e_wo_entrp">    -67.22773024 </i>
    <i name="e_0_energy">    -67.22773024 </i>
   </energy>
  </scstep>
  <scstep>
   <time name="diag">  550.12  550.15</time>
   <time name="total">  550.21  550.23</time>
   <energy>
    <i name="alphaZ">     25.67921176 </i>
    <i name="ewald">    700.27145080 </i>
    <i name="hartreedc">  -1646.75291200 </i>
    <i name="XCdc">     96.02426133 </i>
    <i name="pawpsdc">   2894.38113019 </i>
    <i name="pawaedc">  -2896.90834128 </i>
    <i name="eentropy">     -0.00000000 </i>
    <i name="bandstr">   -265.12643058 </i>
    <i name="atom">   1025.20389953 </i>
    <i name="e_fr_energy">    -67.22773025 </i>
    <i name="e_wo_entrp">    -67.22773025 </i>
    <i name="e_0_energy">    -67.22773025 </i>
   </energy>
  </scstep>
  <structure>
   <crystal>
    <varray name="basis" >
     <v>       4.48084843       2.58701885       0.00000000 </v>
     <v>      -4.48084843       2.58701885       0.00000000 </v>
     <v>       0.00000000       0.00000000       8.52022140 </v>
    </varray>
    <i name="volume">    197.53348383 </i>
    <varray name="rec_basis" >
     <v>       0.11158601       0.19327265       0.00000000 </v>
     <v>      -0.11158601       0.19327265       0.00000000 </v>
     <v>       0.00000000       0.00000000       0.11736784 </v>
    </varray>
   </crystal>
   <varray name="positions" >
    <v>       0.33333300       0.66666600       0.25000000 </v>
    <v>       0.66666600       0.33333300       0.25000000 </v>
    <v>       0.15869124       0.31738348       0.25000000 </v>
    <v>       0.31738348       0.15869124       0.25000000 </v>
    <v>       0.15869124       0.84130776       0.25000000 </v>
    <v>       0.84130776       0.15869124       0.25000000 </v>
    <v>       0.68261552       0.84130776       0.25000000 </v>
    <v>       0.84130776       0.68261552       0.25000000 </v>
   </varray>
  </structure>
  <varray name="forces" >
   <v>      -0.00000000      -0.00000000      -0.00000000 </v>
   <v>      -0.00000000      -0.00000000      -0.00000000 </v>
   <v>      -0.00064694       0.00112054       0.00000000 </v>
   <v>       0.00064694       0.00112054       0.00000000 </v>
   <v>       0.00129389      -0.00000000      -0.00000000 </v>
   <v>      -0.00129389      -0.00000000      -0.00000000 </v>
   <v>      -0.00064694      -0.00112054      -0.00000000 </v>
   <v>       0.00064694      -0.00112054      -0.00000000 </v>
  </varray>
  <varray name="stress" >
   <v>      -0.53277498       0.00000000      -0.00000000 </v>
   <v>       0.00000000      -0.53277490      -0.00000000 </v>
   <v>      -0.00000000       0.00000000      -1.27118547 </v>
  </varray>
  <energy>
   <i name="e_fr_energy">    -67.22773025 </i>
   <i name="e_wo_entrp">    -67.22773025 </i>
   <i name="e_0_energy">     -0.00000000 </i>
  </energy>
  <time name="totalsc">11420.8412453.61</time>
  <eigenvalues>
   <array>
    <dimension dim="1">band</dimension>
    <dimension dim="2">kpoint</dimension>
    <dimension dim="3">spin</dimension>
    <field>eigene</field>
    <field>occ</field>
    <set>
     <set comment="spin 1">
      <set comment="kpoint 1">
       <r>  -18.5403    1.0000 </r>
       <r>  -14.6488    1.0000 </r>
       <r>  -14.6488    1.0000 </r>
       <r>  -12.2992    1.0000 </r>
       <r>  -12.2992    1.0000 </r>
       <r>  -11.2307    1.0000 </r>
       <r>   -9.9135    1.0000 </r>
       <r>   -7.3452    1.0000 </r>
       <r>   -7.1249    1.0000 </r>
       <r>   -4.9710    1.0000 </r>
       <r>   -4.9710    1.0000 </r>
       <r>   -3.1493    1.0000 </r>
       <r>   -3.1492    1.0000 </r>
       <r>   -2.4667    1.0000 </r>
       <r>   -2.4666    1.0000 </r>
       <r>   -0.6315    0.0000 </r>
       <r>    1.1011    0.0000 </r>
       <r>    1.1012    0.0000 </r>
       <r>    1.7906    0.0000 </r>
       <r>    1.9217    0.0000 </r>
       <r>    4.5207    0.0000 </r>
       <r>    5.9130    0.0000 </r>
       <r>    6.3151    0.0000 </r>
       <r>    6.3151    0.0000 </r>
       <r>    7.6726    0.0000 </r>
       <r>    8.0796    0.0000 </r>
       <r>    8.0797    0.0000 </r>
       <r>    8.9955    0.0000 </r>
       <r>    9.1419    0.0000 </r>
       <r>    9.1419    0.0000 </r>
       <r>    9.2976    0.0000 </r>
       <r>    9.2976    0.0000 </r>
       <r>    9.5160    0.0000 </r>
       <r>   10.3273    0.0000 </r>
       <r>   10.6836    0.0000 </r>
       <r>   10.6836    0.0000 </r>
       <r>   11.3540    0.0000 </r>
       <r>   11.3541    0.0000 </r>
       <r>   11.3922    0.0000 </r>
       <r>   11.3995    0.0000 </r>
       <r>   11.9841    0.0000 </r>
       <r>   13.0008    0.0000 </r>
       <r>   13.0008    0.0000 </r>
       <r>   13.0285    0.0000 </r>
       <r>   13.1319    0.0000 </r>
       <r>   13.1319    0.0000 </r>
       <r>   13.1825    0.0000 </r>
       <r>   13.5279    0.0000 </r>
       <r>   15.6135    0.0000 </r>
       <r>   15.8008    0.0000 </r>
       <r>   15.8008    0.0000 </r>
       <r>   16.4913    0.0000 </r>
       <r>   18.2923    0.0000 </r>
       <r>   18.2923    0.0000 </r>
       <r>   18.8601    0.0000 </r>
       <r>   18.8602    0.0000 </r>
       <r>   19.1473    0.0000 </r>
       <r>   19.2290    0.0000 </r>
       <r>   19.5333    0.0000 </r>
       <r>   19.5333    0.0000 </r>
       <r>   19.7217    0.0000 </r>
       <r>   19.9888    0.0000 </r>
       <r>   19.9888    0.0000 </r>
       <r>   20.0167    0.0000 </r>
       <r>   20.4546    0.0000 </r>
       <r>   21.0813    0.0000 </r>
       <r>   21.3027    0.0000 </r>
       <r>   21.3027    0.0000 </r>
       <r>   22.8793    0.0000 </r>
       <r>   23.2968    0.0000 </r>
       <r>   23.2968    0.0000 </r>
       <r>   23.4397    0.0000 </r>
       <r>   23.4397    0.0000 </r>
       <r>   23.5738    0.0000 </r>
       <r>   24.0936    0.0000 </r>
       <r>   24.0936    0.0000 </r>
       <r>   24.4126    0.0000 </r>
       <r>   24.4126    0.0000 </r>
       <r>   24.5372    0.0000 </r>
       <r>   24.6374    0.0000 </r>
       <r>   24.8763    0.0000 </r>
       <r>   25.2174    0.0000 </r>
       <r>   25.2174    0.0000 </r>
       <r>   26.6516    0.0000 </r>
       <r>   26.6516    0.0000 </r>
       <r>   26.7538    0.0000 </r>
       <r>   26.7538    0.0000 </r>
       <r>   26.8463    0.0000 </r>
       <r>   27.0341    0.0000 </r>
       <r>   27.1216    0.0000 </r>
       <r>   27.7308    0.0000 </r>
       <r>   27.7308    0.0000 </r>
       <r>   27.7998    0.0000 </r>
       <r>   27.7998    0.0000 </r>
       <r>   27.8401    0.0000 </r>
       <r>   28.2967    0.0000 </r>
       <r>   28.2967    0.0000 </r>
       <r>   28.7936    0.0000 </r>
       <r>   28.7936    0.0000 </r>
       <r>   28.9524    0.0000 </r>
       <r>   29.6489    0.0000 </r>
       <r>   30.2897    0.0000 </r>
       <r>   31.1920    0.0000 </r>
       <r>   31.1920    0.0000 </r>
       <r>   31.4239    0.0000 </r>
       <r>   31.4816    0.0000 </r>
       <r>   31.4816    0.0000 </r>
       <r>   31.8841    0.0000 </r>
       <r>   32.0865    0.0000 </r>
       <r>   32.0865    0.0000 </r>
       <r>   32.4044    0.0000 </r>
       <r>   32.6844    0.0000 </r>
       <r>   33.2983    0.0000 </r>
       <r>   33.2983    0.0000 </r>
       <r>   33.3127    0.0000 </r>
       <r>   33.3127    0.0000 </r>
       <r>   33.4606    0.0000 </r>
       <r>   34.0099    0.0000 </r>
       <r>   34.9816    0.0000 </r>
       <r>   34.9816    0.0000 </r>
       <r>   35.0442    0.0000 </r>
       <r>   35.0442    0.0000 </r>
       <r>   35.2268    0.0000 </r>
       <r>   35.2268    0.0000 </r>
       <r>   35.8334    0.0000 </r>
       <r>   35.8655    0.0000 </r>
       <r>   35.8655    0.0000 </r>
       <r>   36.0454    0.0000 </r>
       <r>   36.6964    0.0000 </r>
       <r>   36.6964    0.0000 </r>
       <r>   37.0546    0.0000 </r>
       <r>   37.3010    0.0000 </r>
       <r>   37.3124    0.0000 </r>
       <r>   37.3124    0.0000 </r>
       <r>   37.3416    0.0000 </r>
       <r>   37.3416    0.0000 </r>
       <r>   37.3663    0.0000 </r>
       <r>   37.4564    0.0000 </r>
       <r>   37.4564    0.0000 </r>
       <r>   37.6595    0.0000 </r>
       <r>   37.8898    0.0000 </r>
       <r>   37.9469    0.0000 </r>
       <r>   38.2105    0.0000 </r>
       <r>   38.2105    0.0000 </r>
       <r>   38.5577    0.0000 </r>
       <r>   38.8474    0.0000 </r>
       <r>   38.8474    0.0000 </r>
       <r>   40.8943    0.0000 </r>
       <r>   42.2089    0.0000 </r>
       <r>   42.2089    0.0000 </r>
       <r>   42.3915    0.0000 </r>
       <r>   43.7541    0.0000 </r>
       <r>   43.7541    0.0000 </r>
       <r>   43.9385    0.0000 </r>
       <r>   43.9385    0.0000 </r>
       <r>   44.3103    0.0000 </r>
       <r>   44.3103    0.0000 </r>
       <r>   44.3566    0.0000 </r>
       <r>   44.4926    0.0000 </r>
       <r>   44.4926    0.0000 </r>
       <r>   44.7977    0.0000 </r>
       <r>   45.3264    0.0000 </r>
       <r>   45.3264    0.0000 </r>
       <r>   45.6092    0.0000 </r>
       <r>   45.6092    0.0000 </r>
       <r>   46.0655    0.0000 </r>
       <r>   46.5987    0.0000 </r>
       <r>   46.8263    0.0000 </r>
       <r>   47.8871    0.0000 </r>
       <r>   47.9682    0.0000 </r>
       <r>   48.7262    0.0000 </r>
       <r>   48.7262    0.0000 </r>
       <r>   48.9385    0.0000 </r>
       <r>   49.0206    0.0000 </r>
       <r>   49.0207    0.0000 </r>
       <r>   49.1895    0.0000 </r>
       <r>   49.3789    0.0000 </r>
       <r>   49.5076    0.0000 </r>
       <r>   49.5077    0.0000 </r>
       <r>   49.7124    0.0000 </r>
       <r>   49.7124    0.0000 </r>
       <r>   50.1370    0.0000 </r>
       <r>   50.3457    0.0000 </r>
       <r>   50.3458    0.0000 </r>
       <r>   50.5718    0.0000 </r>
       <r>   50.6150    0.0000 </r>
       <r>   50.6150    0.0000 </r>
       <r>   51.5785    0.0000 </r>
       <r>   51.5785    0.0000 </r>
       <r>   51.7184    0.0000 </r>
       <r>   52.0203    0.0000 </r>
       <r>   52.4951    0.0000 </r>
       <r>   52.4951    0.0000 </r>
       <r>   52.5049    0.0000 </r>
       <r>   52.5049    0.0000 </r>
       <r>   52.8867    0.0000 </r>
       <r>   53.4918    0.0000 </r>
       <r>   53.4918    0.0000 </r>
       <r>   53.4926    0.0000 </r>
       <r>   53.8300    0.0000 </r>
       <r>   53.8300    0.0000 </r>
       <r>   53.9143    0.0000 </r>
       <r>   54.2916    0.0000 </r>
       <r>   54.3186    0.0000 </r>
       <r>   54.3186    0.0000 </r>
       <r>   54.4694    0.0000 </r>
       <r>   54.4695    0.0000 </r>
       <r>   54.6490    0.0000 </r>
       <r>   54.9433    0.0000 </r>
       <r>   54.9433    0.0000 </r>
       <r>   55.2684    0.0000 </r>
       <r>   55.3383    0.0000 </r>
       <r>   55.6000    0.0000 </r>
       <r>   55.7091    0.0000 </r>
       <r>   55.8562    0.0000 </r>
       <r>   55.8562    0.0000 </r>
       <r>   55.9784    0.0000 </r>
       <r>   55.9785    0.0000 </r>
       <r>   56.0273    0.0000 </r>
       <r>   56.4062    0.0000 </r>
       <r>   56.4062    0.0000 </r>
       <r>   57.0541    0.0000 </r>
       <r>   57.0541    0.0000 </r>
       <r>   57.1684    0.0000 </r>
       <r>   57.1813    0.0000 </r>
       <r>   57.1813    0.0000 </r>
       <r>   57.4345    0.0000 </r>
       <r>   57.4759    0.0000 </r>
       <r>   57.4759    0.0000 </r>
       <r>   57.6909    0.0000 </r>
       <r>   57.6909    0.0000 </r>
       <r>   57.8660    0.0000 </r>
       <r>   57.8786    0.0000 </r>
       <r>   57.9830    0.0000 </r>
       <r>   57.9830    0.0000 </r>
       <r>   58.0113    0.0000 </r>
       <r>   58.0225    0.0000 </r>
       <r>   58.1490    0.0000 </r>
       <r>   58.1490    0.0000 </r>
       <r>   58.1727    0.0000 </r>
       <r>   58.3631    0.0000 </r>
       <r>   58.3631    0.0000 </r>
       <r>   58.3839    0.0000 </r>
       <r>   58.3839    0.0000 </r>
       <r>   58.8988    0.0000 </r>
       <r>   58.8988    0.0000 </r>
       <r>   59.0563    0.0000 </r>
       <r>   59.7119    0.0000 </r>
       <r>   59.7119    0.0000 </r>
       <r>   59.9710    0.0000 </r>
       <r>   60.2200    0.0000 </r>
       <r>   60.6108    0.0000 </r>
       <r>   60.6108    0.0000 </r>
       <r>   60.9781    0.0000 </r>
       <r>   61.1585    0.0000 </r>
       <r>   61.1585    0.0000 </r>
       <r>   62.1187    0.0000 </r>
       <r>   62.1187    0.0000 </r>
       <r>   62.7654    0.0000 </r>
       <r>   63.2527    0.0000 </r>
       <r>   63.6720    0.0000 </r>
       <r>   63.6720    0.0000 </r>
       <r>   65.3916    0.0000 </r>
       <r>   65.3916    0.0000 </r>
       <r>   65.7610    0.0000 </r>
       <r>   65.7610    0.0000 </r>
       <r>   65.9659    0.0000 </r>
       <r>   66.0271    0.0000 </r>
       <r>   66.1788    0.0000 </r>
       <r>   66.1788    0.0000 </r>
       <r>   66.2120    0.0000 </r>
       <r>   66.2537    0.0000 </r>
       <r>   66.3494    0.0000 </r>
       <r>   66.3494    0.0000 </r>
       <r>   66.5925    0.0000 </r>
       <r>   66.7507    0.0000 </r>
       <r>   66.7508    0.0000 </r>
       <r>   66.8896    0.0000 </r>
       <r>   67.0713    0.0000 </r>
       <r>   67.0713    0.0000 </r>
       <r>   67.2113    0.0000 </r>
       <r>   67.2989    0.0000 </r>
       <r>   67.2989    0.0000 </r>
       <r>   67.3851    0.0000 </r>
       <r>   67.6908    0.0000 </r>
       <r>   67.6908    0.0000 </r>
       <r>   68.2115    0.0000 </r>
       <r>   68.2115    0.0000 </r>
       <r>   68.5114    0.0000 </r>
       <r>   68.5114    0.0000 </r>
       <r>   68.6015    0.0000 </r>
       <r>   68.6015    0.0000 </r>
       <r>   68.6157    0.0000 </r>
       <r>   68.6247    0.0000 </r>
       <r>   68.6344    0.0000 </r>
       <r>   68.9972    0.0000 </r>
       <r>   69.2825    0.0000 </r>
       <r>   69.3119    0.0000 </r>
       <r>   69.3119    0.0000 </r>
       <r>   69.4176    0.0000 </r>
       <r>   69.4177    0.0000 </r>
       <r>   69.5744    0.0000 </r>
       <r>   69.9786    0.0000 </r>
       <r>   69.9786    0.0000 </r>
       <r>   70.2573    0.0000 </r>
       <r>   70.7134    0.0000 </r>
       <r>   70.7134    0.0000 </r>
       <r>   71.1024    0.0000 </r>
       <r>   71.2748    0.0000 </r>
       <r>   71.7878    0.0000 </r>
       <r>   72.4061    0.0000 </r>
       <r>   72.4061    0.0000 </r>
       <r>   72.4156    0.0000 </r>
       <r>   72.6734    0.0000 </r>
       <r>   72.7043    0.0000 </r>
       <r>   72.7043    0.0000 </r>
       <r>   72.7429    0.0000 </r>
       <r>   72.7472    0.0000 </r>
       <r>   72.7472    0.0000 </r>
       <r>   73.3727    0.0000 </r>
       <r>   73.3727    0.0000 </r>
       <r>   73.3751    0.0000 </r>
       <r>   73.3751    0.0000 </r>
       <r>   73.4653    0.0000 </r>
       <r>   73.4653    0.0000 </r>
       <r>   73.6715    0.0000 </r>
       <r>   73.9920    0.0000 </r>
       <r>   74.0075    0.0000 </r>
       <r>   74.0075    0.0000 </r>
       <r>   74.4828    0.0000 </r>
       <r>   75.0597    0.0000 </r>
       <r>   75.0597    0.0000 </r>
       <r>   75.1478    0.0000 </r>
       <r>   75.8349    0.0000 </r>
       <r>   76.6256    0.0000 </r>
       <r>   76.6256    0.0000 </r>
       <r>   76.8710    0.0000 </r>
       <r>   77.0277    0.0000 </r>
       <r>   77.5077    0.0000 </r>
       <r>   77.7840    0.0000 </r>
       <r>   77.7840    0.0000 </r>
       <r>   77.8734    0.0000 </r>
       <r>   77.8734    0.0000 </r>
       <r>   77.9113    0.0000 </r>
       <r>   77.9113    0.0000 </r>
       <r>   78.0212    0.0000 </r>
       <r>   78.3211    0.0000 </r>
       <r>   78.3211    0.0000 </r>
       <r>   78.6119    0.0000 </r>
       <r>   78.6120    0.0000 </r>
       <r>   78.6572    0.0000 </r>
       <r>   78.9605    0.0000 </r>
       <r>   78.9606    0.0000 </r>
       <r>   79.3666    0.0000 </r>
       <r>   79.4510    0.0000 </r>
       <r>   79.4510    0.0000 </r>
       <r>   79.9352    0.0000 </r>
       <r>   79.9352    0.0000 </r>
       <r>   80.0121    0.0000 </r>
       <r>   80.0897    0.0000 </r>
       <r>   80.7824    0.0000 </r>
       <r>   80.7825    0.0000 </r>
       <r>   81.0321    0.0000 </r>
       <r>   81.0321    0.0000 </r>
       <r>   81.1526    0.0000 </r>
       <r>   81.3520    0.0000 </r>
       <r>   81.3520    0.0000 </r>
       <r>   81.3784    0.0000 </r>
       <r>   81.4070    0.0000 </r>
       <r>   81.5901    0.0000 </r>
       <r>   81.8722    0.0000 </r>
       <r>   81.9254    0.0000 </r>
       <r>   81.9254    0.0000 </r>
       <r>   81.9366    0.0000 </r>
       <r>   81.9366    0.0000 </r>
       <r>   82.3570    0.0000 </r>
       <r>   82.6418    0.0000 </r>
       <r>   82.6418    0.0000 </r>
       <r>   82.6462    0.0000 </r>
       <r>   82.7812    0.0000 </r>
       <r>   82.7880    0.0000 </r>
       <r>   82.9769    0.0000 </r>
       <r>   83.0263    0.0000 </r>
       <r>   83.0263    0.0000 </r>
       <r>   83.0285    0.0000 </r>
       <r>   83.0285    0.0000 </r>
       <r>   84.1896    0.0000 </r>
       <r>   84.1896    0.0000 </r>
       <r>   84.2833    0.0000 </r>
       <r>   84.2833    0.0000 </r>
       <r>   84.9984    0.0000 </r>
       <r>   84.9984    0.0000 </r>
       <r>   85.6300    0.0000 </r>
       <r>   85.6549    0.0000 </r>
       <r>   85.6549    0.0000 </r>
       <r>   86.5747    0.0000 </r>
       <r>   86.8479    0.0000 </r>
       <r>   86.8479    0.0000 </r>
       <r>   87.6634    0.0000 </r>
       <r>   88.4822    0.0000 </r>
       <r>   88.4822    0.0000 </r>
       <r>   89.1168    0.0000 </r>
       <r>   89.7621    0.0000 </r>
       <r>   89.7621    0.0000 </r>
       <r>   90.2041    0.0000 </r>
       <r>   90.2041    0.0000 </r>
       <r>   90.3667    0.0000 </r>
       <r>   91.1495    0.0000 </r>
       <r>   91.7127    0.0000 </r>
       <r>   91.7128    0.0000 </r>
       <r>   91.7477    0.0000 </r>
       <r>   91.7477    0.0000 </r>
       <r>   91.7833    0.0000 </r>
       <r>   92.0133    0.0000 </r>
       <r>   92.0926    0.0000 </r>
       <r>   92.1247    0.0000 </r>
       <r>   92.1961    0.0000 </r>
       <r>   92.1961    0.0000 </r>
       <r>   92.2186    0.0000 </r>
       <r>   92.2186    0.0000 </r>
       <r>   92.2763    0.0000 </r>
       <r>   92.5633    0.0000 </r>
       <r>   93.0951    0.0000 </r>
       <r>   93.2759    0.0000 </r>
       <r>   93.2759    0.0000 </r>
       <r>   93.5665    0.0000 </r>
       <r>   93.5665    0.0000 </r>
       <r>   93.8782    0.0000 </r>
       <r>   94.5586    0.0000 </r>
       <r>   94.5586    0.0000 </r>
       <r>   94.6939    0.0000 </r>
       <r>   94.6939    0.0000 </r>
       <r>   95.2238    0.0000 </r>
       <r>   95.2238    0.0000 </r>
       <r>   95.3031    0.0000 </r>
       <r>   95.4568    0.0000 </r>
       <r>   95.4740    0.0000 </r>
       <r>   95.5496    0.0000 </r>
       <r>   95.5496    0.0000 </r>
       <r>   95.5565    0.0000 </r>
       <r>   95.5565    0.0000 </r>
       <r>   95.5648    0.0000 </r>
       <r>   95.6407    0.0000 </r>
       <r>   95.6407    0.0000 </r>
       <r>   95.6413    0.0000 </r>
       <r>   95.8103    0.0000 </r>
       <r>   95.8103    0.0000 </r>
       <r>   95.8886    0.0000 </r>
       <r>   95.8974    0.0000 </r>
       <r>   95.8974    0.0000 </r>
       <r>   95.9135    0.0000 </r>
       <r>   95.9762    0.0000 </r>
       <r>   96.3296    0.0000 </r>
       <r>   96.3296    0.0000 </r>
       <r>   96.3488    0.0000 </r>
       <r>   96.6568    0.0000 </r>
       <r>   96.6568    0.0000 </r>
       <r>   96.9390    0.0000 </r>
       <r>   97.1876    0.0000 </r>
       <r>   97.2840    0.0000 </r>
       <r>   97.2841    0.0000 </r>
       <r>   97.3371    0.0000 </r>
       <r>   97.9581    0.0000 </r>
       <r>   97.9581    0.0000 </r>
       <r>   98.0972    0.0000 </r>
       <r>   98.4877    0.0000 </r>
       <r>   98.4877    0.0000 </r>
       <r>   98.7806    0.0000 </r>
       <r>   98.9778    0.0000 </r>
       <r>   98.9778    0.0000 </r>
       <r>   99.0057    0.0000 </r>
       <r>   99.0240    0.0000 </r>
       <r>   99.0507    0.0000 </r>
       <r>   99.0507    0.0000 </r>
       <r>   99.1151    0.0000 </r>
       <r>   99.1151    0.0000 </r>
       <r>   99.4659    0.0000 </r>
       <r>   99.4659    0.0000 </r>
       <r>   99.5170    0.0000 </r>
       <r>   99.5659    0.0000 </r>
       <r>   99.5659    0.0000 </r>
       <r>   99.7694    0.0000 </r>
       <r>   99.7695    0.0000 </r>
       <r>   99.8003    0.0000 </r>
       <r>   99.8003    0.0000 </r>
       <r>   99.8280    0.0000 </r>
       <r>   99.8525    0.0000 </r>
       <r>   99.8823    0.0000 </r>
       <r>   99.9428    0.0000 </r>
       <r>   99.9428    0.0000 </r>
       <r>   99.9738    0.0000 </r>
       <r>  100.1660    0.0000 </r>
       <r>  100.2554    0.0000 </r>
       <r>  100.2554    0.0000 </r>
       <r>  100.4135    0.0000 </r>
       <r>  100.4135    0.0000 </r>
       <r>  100.5639    0.0000 </r>
       <r>  100.5639    0.0000 </r>
       <r>  100.8155    0.0000 </r>
       <r>  100.8155    0.0000 </r>
       <r>  100.9114    0.0000 </r>
       <r>  100.9114    0.0000 </r>
       <r>  101.0315    0.0000 </r>
       <r>  101.4289    0.0000 </r>
       <r>  101.6459    0.0000 </r>
       <r>  102.3055    0.0000 </r>
       <r>  102.3365    0.0000 </r>
       <r>  102.3755    0.0000 </r>
       <r>  102.3755    0.0000 </r>
       <r>  102.4342    0.0000 </r>
       <r>  102.4342    0.0000 </r>
       <r>  102.4403    0.0000 </r>
       <r>  102.4595    0.0000 </r>
       <r>  102.4595    0.0000 </r>
       <r>  102.4843    0.0000 </r>
       <r>  102.4844    0.0000 </r>
       <r>  102.7086    0.0000 </r>
       <r>  102.9973    0.0000 </r>
       <r>  102.9973    0.0000 </r>
       <r>  103.0083    0.0000 </r>
       <r>  103.0181    0.0000 </r>
       <r>  103.0181    0.0000 </r>
       <r>  103.0190    0.0000 </r>
       <r>  103.0190    0.0000 </r>
       <r>  103.1456    0.0000 </r>
       <r>  103.2270    0.0000 </r>
       <r>  103.2270    0.0000 </r>
       <r>  103.2581    0.0000 </r>
       <r>  103.4691    0.0000 </r>
       <r>  103.8035    0.0000 </r>
       <r>  103.8274    0.0000 </r>
       <r>  103.8274    0.0000 </r>
       <r>  103.9244    0.0000 </r>
       <r>  103.9244    0.0000 </r>
       <r>  103.9770    0.0000 </r>
       <r>  104.1463    0.0000 </r>
       <r>  104.2894    0.0000 </r>
       <r>  104.2973    0.0000 </r>
       <r>  104.2973    0.0000 </r>
       <r>  104.6206    0.0000 </r>
       <r>  104.6346    0.0000 </r>
       <r>  104.6346    0.0000 </r>
       <r>  104.7635    0.0000 </r>
       <r>  104.7635    0.0000 </r>
       <r>  104.9462    0.0000 </r>
       <r>  104.9462    0.0000 </r>
       <r>  105.1310    0.0000 </r>
       <r>  105.1310    0.0000 </r>
       <r>  105.2829    0.0000 </r>
       <r>  105.3854    0.0000 </r>
       <r>  105.4548    0.0000 </r>
       <r>  105.7256    0.0000 </r>
       <r>  105.7256    0.0000 </r>
       <r>  106.4792    0.0000 </r>
       <r>  106.4793    0.0000 </r>
       <r>  106.7740    0.0000 </r>
       <r>  107.2867    0.0000 </r>
       <r>  109.0757    0.0000 </r>
       <r>  109.3786    0.0000 </r>
       <r>  109.3787    0.0000 </r>
       <r>  109.7770    0.0000 </r>
       <r>  110.2026    0.0000 </r>
       <r>  110.7323    0.0000 </r>
       <r>  110.7323    0.0000 </r>
       <r>  110.8428    0.0000 </r>
       <r>  110.8428    0.0000 </r>
       <r>  110.9040    0.0000 </r>
       <r>  110.9040    0.0000 </r>
       <r>  111.0109    0.0000 </r>
       <r>  111.0109    0.0000 </r>
       <r>  111.0808    0.0000 </r>
       <r>  111.2936    0.0000 </r>
       <r>  111.6566    0.0000 </r>
       <r>  111.7524    0.0000 </r>
       <r>  111.7524    0.0000 </r>
       <r>  111.9668    0.0000 </r>
       <r>  112.4779    0.0000 </r>
       <r>  112.4779    0.0000 </r>
       <r>  112.5821    0.0000 </r>
       <r>  112.8012    0.0000 </r>
       <r>  112.8012    0.0000 </r>
       <r>  112.8909    0.0000 </r>
       <r>  113.1192    0.0000 </r>
       <r>  113.3813    0.0000 </r>
       <r>  113.3813    0.0000 </r>
       <r>  113.3855    0.0000 </r>
       <r>  113.5689    0.0000 </r>
       <r>  113.5689    0.0000 </r>
       <r>  113.5958    0.0000 </r>
       <r>  114.1032    0.0000 </r>
       <r>  114.2520    0.0000 </r>
       <r>  114.4246    0.0000 </r>
       <r>  114.4246    0.0000 </r>
       <r>  115.6621    0.0000 </r>
       <r>  115.6621    0.0000 </r>
       <r>  115.7439    0.0000 </r>
       <r>  115.7439    0.0000 </r>
       <r>  115.7596    0.0000 </r>
       <r>  115.7597    0.0000 </r>
       <r>  115.9165    0.0000 </r>
       <r>  115.9165    0.0000 </r>
       <r>  116.1772    0.0000 </r>
       <r>  116.1920    0.0000 </r>
       <r>  116.7095    0.0000 </r>
       <r>  116.7096    0.0000 </r>
       <r>  116.7707    0.0000 </r>
       <r>  117.1651    0.0000 </r>
       <r>  117.1651    0.0000 </r>
       <r>  117.4723    0.0000 </r>
       <r>  117.8334    0.0000 </r>
       <r>  117.9092    0.0000 </r>
       <r>  117.9093    0.0000 </r>
       <r>  118.2504    0.0000 </r>
       <r>  118.2504    0.0000 </r>
       <r>  118.2787    0.0000 </r>
       <r>  118.6033    0.0000 </r>
       <r>  118.6033    0.0000 </r>
       <r>  118.9321    0.0000 </r>
       <r>  119.0199    0.0000 </r>
       <r>  119.0299    0.0000 </r>
       <r>  119.0299    0.0000 </r>
       <r>  119.0984    0.0000 </r>
       <r>  119.0984    0.0000 </r>
       <r>  119.2610    0.0000 </r>
       <r>  119.2611    0.0000 </r>
       <r>  119.3294    0.0000 </r>
       <r>  119.3672    0.0000 </r>
       <r>  119.3672    0.0000 </r>
       <r>  119.4976    0.0000 </r>
       <r>  119.4976    0.0000 </r>
       <r>  119.5809    0.0000 </r>
       <r>  119.5963    0.0000 </r>
       <r>  119.6247    0.0000 </r>
       <r>  119.6247    0.0000 </r>
       <r>  120.4011    0.0000 </r>
       <r>  120.4216    0.0000 </r>
       <r>  120.6693    0.0000 </r>
       <r>  120.6693    0.0000 </r>
       <r>  121.5502    0.0000 </r>
       <r>  121.5502    0.0000 </r>
       <r>  121.7043    0.0000 </r>
       <r>  121.7043    0.0000 </r>
       <r>  121.7688    0.0000 </r>
       <r>  121.8704    0.0000 </r>
       <r>  121.9091    0.0000 </r>
       <r>  121.9713    0.0000 </r>
       <r>  122.0125    0.0000 </r>
       <r>  122.0125    0.0000 </r>
       <r>  122.0868    0.0000 </r>
       <r>  122.2067    0.0000 </r>
       <r>  122.5516    0.0000 </r>
       <r>  122.5516    0.0000 </r>
       <r>  122.6387    0.0000 </r>
       <r>  123.0205    0.0000 </r>
       <r>  123.0205    0.0000 </r>
       <r>  123.0609    0.0000 </r>
       <r>  123.1216    0.0000 </r>
       <r>  123.1216    0.0000 </r>
       <r>  123.1880    0.0000 </r>
       <r>  123.1880    0.0000 </r>
       <r>  123.2791    0.0000 </r>
       <r>  123.7403    0.0000 </r>
       <r>  124.1527    0.0000 </r>
       <r>  124.1527    0.0000 </r>
       <r>  124.5410    0.0000 </r>
       <r>  124.8512    0.0000 </r>
       <r>  124.8512    0.0000 </r>
       <r>  124.9536    0.0000 </r>
       <r>  124.9536    0.0000 </r>
       <r>  125.0030    0.0000 </r>
       <r>  125.0592    0.0000 </r>
       <r>  125.1061    0.0000 </r>
       <r>  125.3789    0.0000 </r>
       <r>  125.3789    0.0000 </r>
       <r>  125.4428    0.0000 </r>
       <r>  125.4428    0.0000 </r>
       <r>  125.4568    0.0000 </r>
       <r>  125.4568    0.0000 </r>
       <r>  125.4634    0.0000 </r>
       <r>  125.5114    0.0000 </r>
       <r>  125.5702    0.0000 </r>
       <r>  125.6247    0.0000 </r>
       <r>  125.6248    0.0000 </r>
       <r>  125.6543    0.0000 </r>
       <r>  125.7136    0.0000 </r>
       <r>  125.7572    0.0000 </r>
       <r>  125.7572    0.0000 </r>
       <r>  125.8025    0.0000 </r>
       <r>  125.9061    0.0000 </r>
       <r>  125.9061    0.0000 </r>
       <r>  126.4095    0.0000 </r>
       <r>  126.4095    0.0000 </r>
       <r>  126.4254    0.0000 </r>
       <r>  126.4254    0.0000 </r>
       <r>  126.7172    0.0000 </r>
       <r>  126.7618    0.0000 </r>
       <r>  126.7618    0.0000 </r>
       <r>  126.9473    0.0000 </r>
       <r>  126.9473    0.0000 </r>
       <r>  127.0594    0.0000 </r>
       <r>  127.0594    0.0000 </r>
       <r>  127.1584    0.0000 </r>
       <r>  127.6750    0.0000 </r>
       <r>  127.6750    0.0000 </r>
       <r>  127.7843    0.0000 </r>
       <r>  127.7844    0.0000 </r>
       <r>  127.8774    0.0000 </r>
       <r>  127.8774    0.0000 </r>
       <r>  127.9511    0.0000 </r>
       <r>  128.7547    0.0000 </r>
       <r>  129.1731    0.0000 </r>
       <r>  129.5288    0.0000 </r>
       <r>  130.0870    0.0000 </r>
       <r>  130.2537    0.0000 </r>
       <r>  130.9571    0.0000 </r>
       <r>  130.9571    0.0000 </r>
       <r>  131.5025    0.0000 </r>
       <r>  131.5025    0.0000 </r>
       <r>  131.8019    0.0000 </r>
       <r>  131.8019    0.0000 </r>
       <r>  132.2475    0.0000 </r>
       <r>  132.5667    0.0000 </r>
       <r>  132.6453    0.0000 </r>
       <r>  132.6453    0.0000 </r>
       <r>  132.9926    0.0000 </r>
       <r>  132.9926    0.0000 </r>
       <r>  133.0527    0.0000 </r>
       <r>  133.7333    0.0000 </r>
       <r>  133.7333    0.0000 </r>
       <r>  133.7502    0.0000 </r>
       <r>  133.9666    0.0000 </r>
       <r>  134.2418    0.0000 </r>
       <r>  134.2419    0.0000 </r>
       <r>  134.2774    0.0000 </r>
       <r>  134.2774    0.0000 </r>
       <r>  134.4814    0.0000 </r>
       <r>  134.4814    0.0000 </r>
       <r>  134.9663    0.0000 </r>
       <r>  135.2338    0.0000 </r>
       <r>  135.2338    0.0000 </r>
       <r>  135.3561    0.0000 </r>
       <r>  135.6591    0.0000 </r>
       <r>  136.1282    0.0000 </r>
       <r>  136.1282    0.0000 </r>
       <r>  136.3174    0.0000 </r>
       <r>  136.4170    0.0000 </r>
       <r>  136.4171    0.0000 </r>
       <r>  136.4904    0.0000 </r>
       <r>  136.8715    0.0000 </r>
       <r>  136.9137    0.0000 </r>
       <r>  137.1281    0.0000 </r>
       <r>  137.1281    0.0000 </r>
       <r>  137.2249    0.0000 </r>
       <r>  137.2250    0.0000 </r>
       <r>  137.2726    0.0000 </r>
       <r>  137.2726    0.0000 </r>
       <r>  137.3574    0.0000 </r>
       <r>  137.3574    0.0000 </r>
       <r>  137.3974    0.0000 </r>
       <r>  137.5792    0.0000 </r>
       <r>  137.5792    0.0000 </r>
       <r>  137.6610    0.0000 </r>
       <r>  137.6610    0.0000 </r>
       <r>  137.7893    0.0000 </r>
       <r>  137.7893    0.0000 </r>
       <r>  137.8400    0.0000 </r>
       <r>  137.9019    0.0000 </r>
       <r>  137.9019    0.0000 </r>
       <r>  137.9123    0.0000 </r>
       <r>  138.0320    0.0000 </r>
       <r>  138.0490    0.0000 </r>
       <r>  138.2788    0.0000 </r>
       <r>  138.2788    0.0000 </r>
       <r>  138.3089    0.0000 </r>
       <r>  138.6152    0.0000 </r>
       <r>  138.9558    0.0000 </r>
       <r>  139.1115    0.0000 </r>
       <r>  139.1115    0.0000 </r>
       <r>  139.1531    0.0000 </r>
       <r>  139.2256    0.0000 </r>
       <r>  139.2256    0.0000 </r>
       <r>  140.7538    0.0000 </r>
       <r>  141.5608    0.0000 </r>
       <r>  141.5608    0.0000 </r>
       <r>  141.7526    0.0000 </r>
       <r>  142.3754    0.0000 </r>
       <r>  142.3754    0.0000 </r>
       <r>  142.6351    0.0000 </r>
       <r>  142.8474    0.0000 </r>
       <r>  142.8474    0.0000 </r>
       <r>  143.1536    0.0000 </r>
       <r>  143.2385    0.0000 </r>
       <r>  143.2385    0.0000 </r>
       <r>  143.2540    0.0000 </r>
       <r>  143.5420    0.0000 </r>
       <r>  143.5421    0.0000 </r>
       <r>  143.9101    0.0000 </r>
       <r>  143.9101    0.0000 </r>
       <r>  143.9255    0.0000 </r>
       <r>  143.9497    0.0000 </r>
       <r>  143.9799    0.0000 </r>
       <r>  143.9799    0.0000 </r>
       <r>  144.1216    0.0000 </r>
       <r>  144.1823    0.0000 </r>
       <r>  144.1823    0.0000 </r>
       <r>  144.2031    0.0000 </r>
       <r>  144.2031    0.0000 </r>
       <r>  144.2557    0.0000 </r>
       <r>  144.2750    0.0000 </r>
       <r>  145.0153    0.0000 </r>
       <r>  145.0154    0.0000 </r>
       <r>  145.1518    0.0000 </r>
       <r>  145.1518    0.0000 </r>
       <r>  145.1612    0.0000 </r>
       <r>  145.3714    0.0000 </r>
       <r>  145.4643    0.0000 </r>
       <r>  145.4643    0.0000 </r>
       <r>  145.7636    0.0000 </r>
       <r>  145.8357    0.0000 </r>
       <r>  145.8845    0.0000 </r>
       <r>  145.8845    0.0000 </r>
       <r>  146.1666    0.0000 </r>
       <r>  146.2609    0.0000 </r>
       <r>  146.2609    0.0000 </r>
       <r>  146.3366    0.0000 </r>
       <r>  146.3366    0.0000 </r>
       <r>  146.7004    0.0000 </r>
       <r>  146.8648    0.0000 </r>
       <r>  146.8825    0.0000 </r>
       <r>  146.8826    0.0000 </r>
       <r>  147.1292    0.0000 </r>
       <r>  147.2353    0.0000 </r>
       <r>  147.2922    0.0000 </r>
       <r>  147.2922    0.0000 </r>
       <r>  147.3871    0.0000 </r>
       <r>  147.3871    0.0000 </r>
       <r>  147.7043    0.0000 </r>
       <r>  147.7658    0.0000 </r>
       <r>  147.7658    0.0000 </r>
       <r>  147.7867    0.0000 </r>
       <r>  147.8015    0.0000 </r>
       <r>  147.8016    0.0000 </r>
       <r>  147.8816    0.0000 </r>
       <r>  147.9834    0.0000 </r>
       <r>  148.0478    0.0000 </r>
       <r>  148.0478    0.0000 </r>
       <r>  148.0486    0.0000 </r>
       <r>  148.0486    0.0000 </r>
       <r>  148.1141    0.0000 </r>
       <r>  148.1141    0.0000 </r>
       <r>  148.1530    0.0000 </r>
       <r>  148.2573    0.0000 </r>
       <r>  148.2634    0.0000 </r>
       <r>  148.2634    0.0000 </r>
       <r>  148.3830    0.0000 </r>
       <r>  148.4322    0.0000 </r>
       <r>  148.4736    0.0000 </r>
       <r>  148.4736    0.0000 </r>
       <r>  148.6882    0.0000 </r>
       <r>  148.7834    0.0000 </r>
       <r>  148.7835    0.0000 </r>
       <r>  148.9452    0.0000 </r>
       <r>  148.9452    0.0000 </r>
       <r>  149.1357    0.0000 </r>
       <r>  149.1357    0.0000 </r>
       <r>  149.2137    0.0000 </r>
       <r>  149.2137    0.0000 </r>
       <r>  149.3440    0.0000 </r>
       <r>  149.3441    0.0000 </r>
       <r>  149.3898    0.0000 </r>
       <r>  149.3898    0.0000 </r>
       <r>  149.6234    0.0000 </r>
       <r>  149.7758    0.0000 </r>
       <r>  149.8047    0.0000 </r>
       <r>  150.5311    0.0000 </r>
       <r>  150.5311    0.0000 </r>
       <r>  150.5722    0.0000 </r>
       <r>  150.6229    0.0000 </r>
       <r>  150.6398    0.0000 </r>
       <r>  150.9924    0.0000 </r>
       <r>  150.9924    0.0000 </r>
       <r>  151.1220    0.0000 </r>
       <r>  151.1220    0.0000 </r>
       <r>  151.3416    0.0000 </r>
       <r>  151.3416    0.0000 </r>
       <r>  151.5643    0.0000 </r>
       <r>  151.5644    0.0000 </r>
       <r>  151.6866    0.0000 </r>
       <r>  151.6935    0.0000 </r>
       <r>  151.7505    0.0000 </r>
       <r>  151.7505    0.0000 </r>
       <r>  151.9570    0.0000 </r>
       <r>  152.2394    0.0000 </r>
       <r>  152.5671    0.0000 </r>
       <r>  152.9403    0.0000 </r>
       <r>  153.2404    0.0000 </r>
       <r>  153.2404    0.0000 </r>
       <r>  153.4722    0.0000 </r>
       <r>  153.6049    0.0000 </r>
       <r>  153.6131    0.0000 </r>
       <r>  153.6795    0.0000 </r>
       <r>  153.6795    0.0000 </r>
       <r>  153.7320    0.0000 </r>
       <r>  153.7320    0.0000 </r>
       <r>  153.8482    0.0000 </r>
       <r>  154.0230    0.0000 </r>
       <r>  154.0230    0.0000 </r>
       <r>  154.8847    0.0000 </r>
       <r>  154.8847    0.0000 </r>
       <r>  155.1223    0.0000 </r>
       <r>  155.7473    0.0000 </r>
       <r>  155.7473    0.0000 </r>
       <r>  156.2780    0.0000 </r>
       <r>  156.2780    0.0000 </r>
       <r>  156.4083    0.0000 </r>
       <r>  156.4083    0.0000 </r>
       <r>  156.5138    0.0000 </r>
       <r>  156.6085    0.0000 </r>
       <r>  156.7110    0.0000 </r>
       <r>  156.9516    0.0000 </r>
       <r>  156.9516    0.0000 </r>
       <r>  157.0335    0.0000 </r>
       <r>  157.0920    0.0000 </r>
       <r>  157.0921    0.0000 </r>
       <r>  157.1663    0.0000 </r>
       <r>  157.1663    0.0000 </r>
       <r>  157.1965    0.0000 </r>
       <r>  157.1965    0.0000 </r>
       <r>  157.2189    0.0000 </r>
       <r>  157.2567    0.0000 </r>
       <r>  157.2630    0.0000 </r>
       <r>  157.2630    0.0000 </r>
       <r>  157.5810    0.0000 </r>
       <r>  157.6042    0.0000 </r>
       <r>  157.6042    0.0000 </r>
       <r>  157.6696    0.0000 </r>
       <r>  157.6696    0.0000 </r>
       <r>  157.7670    0.0000 </r>
       <r>  157.7958    0.0000 </r>
       <r>  157.7958    0.0000 </r>
       <r>  158.2552    0.0000 </r>
       <r>  158.6498    0.0000 </r>
       <r>  158.6499    0.0000 </r>
       <r>  158.9527    0.0000 </r>
       <r>  158.9527    0.0000 </r>
       <r>  159.1141    0.0000 </r>
       <r>  159.2324    0.0000 </r>
       <r>  159.2324    0.0000 </r>
       <r>  159.4379    0.0000 </r>
       <r>  159.4601    0.0000 </r>
       <r>  159.4601    0.0000 </r>
       <r>  159.5315    0.0000 </r>
       <r>  159.5581    0.0000 </r>
       <r>  160.0461    0.0000 </r>
       <r>  160.0462    0.0000 </r>
       <r>  160.1677    0.0000 </r>
       <r>  160.1677    0.0000 </r>
       <r>  160.1913    0.0000 </r>
       <r>  160.1913    0.0000 </r>
       <r>  160.2847    0.0000 </r>
       <r>  160.3467    0.0000 </r>
       <r>  160.3467    0.0000 </r>
       <r>  160.6347    0.0000 </r>
       <r>  160.6347    0.0000 </r>
       <r>  160.7285    0.0000 </r>
       <r>  160.7306    0.0000 </r>
       <r>  161.0342    0.0000 </r>
       <r>  161.0358    0.0000 </r>
       <r>  161.0359    0.0000 </r>
       <r>  161.4830    0.0000 </r>
       <r>  161.5128    0.0000 </r>
       <r>  161.5128    0.0000 </r>
       <r>  161.7836    0.0000 </r>
       <r>  162.0216    0.0000 </r>
       <r>  162.0216    0.0000 </r>
       <r>  162.3210    0.0000 </r>
       <r>  162.3847    0.0000 </r>
       <r>  162.3847    0.0000 </r>
       <r>  162.5279    0.0000 </r>
       <r>  162.6083    0.0000 </r>
       <r>  162.6268    0.0000 </r>
       <r>  162.6497    0.0000 </r>
       <r>  162.6497    0.0000 </r>
       <r>  162.7521    0.0000 </r>
       <r>  162.7522    0.0000 </r>
       <r>  162.8903    0.0000 </r>
       <r>  162.9757    0.0000 </r>
       <r>  162.9757    0.0000 </r>
       <r>  163.2413    0.0000 </r>
       <r>  163.2413    0.0000 </r>
       <r>  163.2607    0.0000 </r>
       <r>  163.2627    0.0000 </r>
       <r>  163.2627    0.0000 </r>
       <r>  163.3385    0.0000 </r>
       <r>  163.3385    0.0000 </r>
       <r>  163.4034    0.0000 </r>
       <r>  163.4672    0.0000 </r>
       <r>  163.4672    0.0000 </r>
       <r>  163.4696    0.0000 </r>
       <r>  163.5184    0.0000 </r>
       <r>  163.7221    0.0000 </r>
       <r>  163.7340    0.0000 </r>
       <r>  163.8008    0.0000 </r>
       <r>  163.8008    0.0000 </r>
       <r>  164.3886    0.0000 </r>
       <r>  164.4268    0.0000 </r>
       <r>  164.4823    0.0000 </r>
       <r>  164.4823    0.0000 </r>
       <r>  164.6001    0.0000 </r>
       <r>  164.9415    0.0000 </r>
       <r>  164.9415    0.0000 </r>
       <r>  165.0662    0.0000 </r>
       <r>  165.0748    0.0000 </r>
       <r>  165.0748    0.0000 </r>
       <r>  165.8069    0.0000 </r>
       <r>  165.9773    0.0000 </r>
       <r>  165.9773    0.0000 </r>
       <r>  166.0350    0.0000 </r>
       <r>  166.1674    0.0000 </r>
       <r>  166.2289    0.0000 </r>
       <r>  166.2291    0.0000 </r>
       <r>  166.2713    0.0000 </r>
       <r>  166.2713    0.0000 </r>
       <r>  166.5668    0.0000 </r>
       <r>  167.0939    0.0000 </r>
       <r>  167.0939    0.0000 </r>
       <r>  167.4700    0.0000 </r>
       <r>  167.4896    0.0000 </r>
       <r>  167.4896    0.0000 </r>
       <r>  167.5392    0.0000 </r>
       <r>  167.5392    0.0000 </r>
       <r>  167.7144    0.0000 </r>
      </set>
      <set comment="kpoint 2">
       <r>  -18.5132    1.0000 </r>
       <r>  -14.7809    1.0000 </r>
       <r>  -14.6912    1.0000 </r>
       <r>  -12.3384    1.0000 </r>
       <r>  -12.2008    1.0000 </r>
       <r>  -11.0961    1.0000 </r>
       <r>   -9.7531    1.0000 </r>
       <r>   -7.3040    1.0000 </r>
       <r>   -7.1822    1.0000 </r>
       <r>   -5.0944    1.0000 </r>
       <r>   -4.9934    1.0000 </r>
       <r>   -3.2737    1.0000 </r>
       <r>   -3.1697    1.0000 </r>
       <r>   -2.6092    1.0000 </r>
       <r>   -2.5354    1.0000 </r>
       <r>   -0.8361    0.0000 </r>
       <r>    1.1605    0.0000 </r>
       <r>    1.4116    0.0000 </r>
       <r>    1.9153    0.0000 </r>
       <r>    1.9734    0.0000 </r>
       <r>    4.5728    0.0000 </r>
       <r>    5.9692    0.0000 </r>
       <r>    6.3866    0.0000 </r>
       <r>    6.4781    0.0000 </r>
       <r>    7.6627    0.0000 </r>
       <r>    8.0377    0.0000 </r>
       <r>    8.2336    0.0000 </r>
       <r>    8.2352    0.0000 </r>
       <r>    8.6808    0.0000 </r>
       <r>    8.7555    0.0000 </r>
       <r>    9.8480    0.0000 </r>
       <r>    9.8619    0.0000 </r>
       <r>    9.9124    0.0000 </r>
       <r>   10.3759    0.0000 </r>
       <r>   10.3995    0.0000 </r>
       <r>   10.4193    0.0000 </r>
       <r>   10.9077    0.0000 </r>
       <r>   11.4137    0.0000 </r>
       <r>   11.6687    0.0000 </r>
       <r>   12.0448    0.0000 </r>
       <r>   12.1516    0.0000 </r>
       <r>   12.3345    0.0000 </r>
       <r>   12.5608    0.0000 </r>
       <r>   12.8381    0.0000 </r>
       <r>   13.0972    0.0000 </r>
       <r>   13.6279    0.0000 </r>
       <r>   13.8001    0.0000 </r>
       <r>   14.2603    0.0000 </r>
       <r>   15.5623    0.0000 </r>
       <r>   15.6614    0.0000 </r>
       <r>   15.7181    0.0000 </r>
       <r>   16.2792    0.0000 </r>
       <r>   18.0211    0.0000 </r>
       <r>   18.0716    0.0000 </r>
       <r>   18.6452    0.0000 </r>
       <r>   18.9834    0.0000 </r>
       <r>   18.9928    0.0000 </r>
       <r>   19.3961    0.0000 </r>
       <r>   19.4430    0.0000 </r>
       <r>   19.8594    0.0000 </r>
       <r>   19.9227    0.0000 </r>
       <r>   19.9355    0.0000 </r>
       <r>   20.0222    0.0000 </r>
       <r>   20.0695    0.0000 </r>
       <r>   20.4469    0.0000 </r>
       <r>   20.9480    0.0000 </r>
       <r>   21.1306    0.0000 </r>
       <r>   21.1701    0.0000 </r>
       <r>   22.3006    0.0000 </r>
       <r>   22.5129    0.0000 </r>
       <r>   23.0923    0.0000 </r>
       <r>   23.5592    0.0000 </r>
       <r>   23.5744    0.0000 </r>
       <r>   23.6015    0.0000 </r>
       <r>   23.8165    0.0000 </r>
       <r>   24.0248    0.0000 </r>
       <r>   24.2674    0.0000 </r>
       <r>   24.5217    0.0000 </r>
       <r>   24.8306    0.0000 </r>
       <r>   24.9676    0.0000 </r>
       <r>   25.0475    0.0000 </r>
       <r>   25.5521    0.0000 </r>
       <r>   25.6964    0.0000 </r>
       <r>   25.7980    0.0000 </r>
       <r>   25.9189    0.0000 </r>
       <r>   26.1275    0.0000 </r>
       <r>   26.3973    0.0000 </r>
       <r>   26.9094    0.0000 </r>
       <r>   26.9234    0.0000 </r>
       <r>   27.0815    0.0000 </r>
       <r>   27.0849    0.0000 </r>
       <r>   27.5813    0.0000 </r>
       <r>   27.8918    0.0000 </r>
       <r>   28.1065    0.0000 </r>
       <r>   28.6632    0.0000 </r>
       <r>   28.9184    0.0000 </r>
       <r>   29.0466    0.0000 </r>
       <r>   29.1763    0.0000 </r>
       <r>   29.2646    0.0000 </r>
       <r>   29.6366    0.0000 </r>
       <r>   29.6478    0.0000 </r>
       <r>   30.1213    0.0000 </r>
       <r>   30.1818    0.0000 </r>
       <r>   30.7678    0.0000 </r>
       <r>   31.1259    0.0000 </r>
       <r>   31.8749    0.0000 </r>
       <r>   31.9108    0.0000 </r>
       <r>   32.0148    0.0000 </r>
       <r>   32.0886    0.0000 </r>
       <r>   32.5461    0.0000 </r>
       <r>   32.6542    0.0000 </r>
       <r>   32.9444    0.0000 </r>
       <r>   33.0816    0.0000 </r>
       <r>   33.3384    0.0000 </r>
       <r>   33.4640    0.0000 </r>
       <r>   33.5848    0.0000 </r>
       <r>   33.6087    0.0000 </r>
       <r>   33.8445    0.0000 </r>
       <r>   34.0075    0.0000 </r>
       <r>   34.0686    0.0000 </r>
       <r>   34.1281    0.0000 </r>
       <r>   34.2291    0.0000 </r>
       <r>   35.1281    0.0000 </r>
       <r>   35.9146    0.0000 </r>
       <r>   35.9610    0.0000 </r>
       <r>   35.9882    0.0000 </r>
       <r>   36.2332    0.0000 </r>
       <r>   36.3840    0.0000 </r>
       <r>   36.5942    0.0000 </r>
       <r>   36.7596    0.0000 </r>
       <r>   36.8647    0.0000 </r>
       <r>   37.0219    0.0000 </r>
       <r>   37.1188    0.0000 </r>
       <r>   37.2090    0.0000 </r>
       <r>   37.4568    0.0000 </r>
       <r>   37.5348    0.0000 </r>
       <r>   37.8830    0.0000 </r>
       <r>   37.9740    0.0000 </r>
       <r>   38.0606    0.0000 </r>
       <r>   38.1707    0.0000 </r>
       <r>   38.3342    0.0000 </r>
       <r>   38.4488    0.0000 </r>
       <r>   38.9582    0.0000 </r>
       <r>   39.0151    0.0000 </r>
       <r>   39.1512    0.0000 </r>
       <r>   39.7411    0.0000 </r>
       <r>   39.8913    0.0000 </r>
       <r>   40.4036    0.0000 </r>
       <r>   41.6591    0.0000 </r>
       <r>   41.7874    0.0000 </r>
       <r>   42.0183    0.0000 </r>
       <r>   43.0529    0.0000 </r>
       <r>   43.1371    0.0000 </r>
       <r>   43.1853    0.0000 </r>
       <r>   43.3711    0.0000 </r>
       <r>   43.6680    0.0000 </r>
       <r>   43.9100    0.0000 </r>
       <r>   44.3356    0.0000 </r>
       <r>   44.4581    0.0000 </r>
       <r>   44.7940    0.0000 </r>
       <r>   44.8728    0.0000 </r>
       <r>   45.0487    0.0000 </r>
       <r>   45.2335    0.0000 </r>
       <r>   46.1032    0.0000 </r>
       <r>   46.2269    0.0000 </r>
       <r>   46.3651    0.0000 </r>
       <r>   46.4216    0.0000 </r>
       <r>   46.8963    0.0000 </r>
       <r>   47.1013    0.0000 </r>
       <r>   48.0085    0.0000 </r>
       <r>   48.2044    0.0000 </r>
       <r>   48.2685    0.0000 </r>
       <r>   48.4867    0.0000 </r>
       <r>   48.4867    0.0000 </r>
       <r>   48.6077    0.0000 </r>
       <r>   49.4193    0.0000 </r>
       <r>   49.4674    0.0000 </r>
       <r>   49.4813    0.0000 </r>
       <r>   49.4971    0.0000 </r>
       <r>   50.1891    0.0000 </r>
       <r>   50.2489    0.0000 </r>
       <r>   50.3481    0.0000 </r>
       <r>   50.4411    0.0000 </r>
       <r>   50.7495    0.0000 </r>
       <r>   50.7703    0.0000 </r>
       <r>   51.0252    0.0000 </r>
       <r>   51.0836    0.0000 </r>
       <r>   51.2201    0.0000 </r>
       <r>   51.2372    0.0000 </r>
       <r>   51.3233    0.0000 </r>
       <r>   52.0790    0.0000 </r>
       <r>   52.1310    0.0000 </r>
       <r>   52.3383    0.0000 </r>
       <r>   52.5341    0.0000 </r>
       <r>   52.6621    0.0000 </r>
       <r>   52.7051    0.0000 </r>
       <r>   52.7968    0.0000 </r>
       <r>   52.9839    0.0000 </r>
       <r>   53.1591    0.0000 </r>
       <r>   53.4564    0.0000 </r>
       <r>   53.6301    0.0000 </r>
       <r>   53.6776    0.0000 </r>
       <r>   53.8575    0.0000 </r>
       <r>   54.1638    0.0000 </r>
       <r>   54.4158    0.0000 </r>
       <r>   54.5037    0.0000 </r>
       <r>   54.6902    0.0000 </r>
       <r>   54.7543    0.0000 </r>
       <r>   54.8263    0.0000 </r>
       <r>   54.8421    0.0000 </r>
       <r>   54.8679    0.0000 </r>
       <r>   55.0431    0.0000 </r>
       <r>   55.0736    0.0000 </r>
       <r>   55.3025    0.0000 </r>
       <r>   55.4662    0.0000 </r>
       <r>   55.5311    0.0000 </r>
       <r>   55.6692    0.0000 </r>
       <r>   56.1756    0.0000 </r>
       <r>   56.1912    0.0000 </r>
       <r>   56.2449    0.0000 </r>
       <r>   56.3750    0.0000 </r>
       <r>   56.4639    0.0000 </r>
       <r>   56.5464    0.0000 </r>
       <r>   56.5747    0.0000 </r>
       <r>   56.8251    0.0000 </r>
       <r>   56.8859    0.0000 </r>
       <r>   57.0189    0.0000 </r>
       <r>   57.0577    0.0000 </r>
       <r>   57.1652    0.0000 </r>
       <r>   57.2095    0.0000 </r>
       <r>   57.4579    0.0000 </r>
       <r>   57.6391    0.0000 </r>
       <r>   57.6791    0.0000 </r>
       <r>   57.7261    0.0000 </r>
       <r>   58.0939    0.0000 </r>
       <r>   58.1463    0.0000 </r>
       <r>   58.2340    0.0000 </r>
       <r>   58.6067    0.0000 </r>
       <r>   58.7254    0.0000 </r>
       <r>   58.7317    0.0000 </r>
       <r>   59.1755    0.0000 </r>
       <r>   59.4085    0.0000 </r>
       <r>   59.5037    0.0000 </r>
       <r>   60.0199    0.0000 </r>
       <r>   60.0306    0.0000 </r>
       <r>   60.2943    0.0000 </r>
       <r>   60.3322    0.0000 </r>
       <r>   60.4211    0.0000 </r>
       <r>   60.5725    0.0000 </r>
       <r>   60.5849    0.0000 </r>
       <r>   60.7327    0.0000 </r>
       <r>   61.0217    0.0000 </r>
       <r>   61.0341    0.0000 </r>
       <r>   61.3763    0.0000 </r>
       <r>   61.5507    0.0000 </r>
       <r>   61.6702    0.0000 </r>
       <r>   62.1374    0.0000 </r>
       <r>   62.2604    0.0000 </r>
       <r>   62.7760    0.0000 </r>
       <r>   63.5386    0.0000 </r>
       <r>   63.8106    0.0000 </r>
       <r>   64.0655    0.0000 </r>
       <r>   64.1332    0.0000 </r>
       <r>   64.1393    0.0000 </r>
       <r>   64.1615    0.0000 </r>
       <r>   64.2112    0.0000 </r>
       <r>   64.4574    0.0000 </r>
       <r>   65.0710    0.0000 </r>
       <r>   65.2099    0.0000 </r>
       <r>   65.3051    0.0000 </r>
       <r>   65.6032    0.0000 </r>
       <r>   65.6439    0.0000 </r>
       <r>   65.8292    0.0000 </r>
       <r>   66.3752    0.0000 </r>
       <r>   66.4268    0.0000 </r>
       <r>   66.4561    0.0000 </r>
       <r>   66.6966    0.0000 </r>
       <r>   66.7485    0.0000 </r>
       <r>   66.8655    0.0000 </r>
       <r>   66.8769    0.0000 </r>
       <r>   67.1461    0.0000 </r>
       <r>   67.1550    0.0000 </r>
       <r>   67.4064    0.0000 </r>
       <r>   67.5691    0.0000 </r>
       <r>   67.6359    0.0000 </r>
       <r>   67.8043    0.0000 </r>
       <r>   67.8925    0.0000 </r>
       <r>   68.2152    0.0000 </r>
       <r>   68.3085    0.0000 </r>
       <r>   68.5106    0.0000 </r>
       <r>   68.5845    0.0000 </r>
       <r>   69.0390    0.0000 </r>
       <r>   69.1340    0.0000 </r>
       <r>   69.1491    0.0000 </r>
       <r>   69.3886    0.0000 </r>
       <r>   69.7238    0.0000 </r>
       <r>   69.7471    0.0000 </r>
       <r>   69.8479    0.0000 </r>
       <r>   69.8762    0.0000 </r>
       <r>   70.1228    0.0000 </r>
       <r>   70.3301    0.0000 </r>
       <r>   70.4921    0.0000 </r>
       <r>   70.4967    0.0000 </r>
       <r>   70.6342    0.0000 </r>
       <r>   70.6996    0.0000 </r>
       <r>   70.9202    0.0000 </r>
       <r>   70.9263    0.0000 </r>
       <r>   71.0767    0.0000 </r>
       <r>   71.3548    0.0000 </r>
       <r>   71.4285    0.0000 </r>
       <r>   71.4422    0.0000 </r>
       <r>   71.4481    0.0000 </r>
       <r>   71.5697    0.0000 </r>
       <r>   71.6282    0.0000 </r>
       <r>   72.8180    0.0000 </r>
       <r>   72.9641    0.0000 </r>
       <r>   72.9941    0.0000 </r>
       <r>   73.0840    0.0000 </r>
       <r>   73.5707    0.0000 </r>
       <r>   73.6158    0.0000 </r>
       <r>   73.7438    0.0000 </r>
       <r>   73.7774    0.0000 </r>
       <r>   74.0381    0.0000 </r>
       <r>   74.0873    0.0000 </r>
       <r>   74.2790    0.0000 </r>
       <r>   74.5998    0.0000 </r>
       <r>   74.6212    0.0000 </r>
       <r>   74.6645    0.0000 </r>
       <r>   74.8909    0.0000 </r>
       <r>   74.9799    0.0000 </r>
       <r>   75.3516    0.0000 </r>
       <r>   75.5207    0.0000 </r>
       <r>   75.9478    0.0000 </r>
       <r>   76.2251    0.0000 </r>
       <r>   76.3269    0.0000 </r>
       <r>   76.4378    0.0000 </r>
       <r>   76.6432    0.0000 </r>
       <r>   77.0400    0.0000 </r>
       <r>   77.0610    0.0000 </r>
       <r>   77.2144    0.0000 </r>
       <r>   77.3628    0.0000 </r>
       <r>   77.4198    0.0000 </r>
       <r>   77.5806    0.0000 </r>
       <r>   77.7200    0.0000 </r>
       <r>   77.9108    0.0000 </r>
       <r>   78.2082    0.0000 </r>
       <r>   78.2427    0.0000 </r>
       <r>   78.2612    0.0000 </r>
       <r>   78.2907    0.0000 </r>
       <r>   78.6760    0.0000 </r>
       <r>   78.7094    0.0000 </r>
       <r>   78.7275    0.0000 </r>
       <r>   79.0150    0.0000 </r>
       <r>   79.1421    0.0000 </r>
       <r>   79.1515    0.0000 </r>
       <r>   79.2345    0.0000 </r>
       <r>   79.2612    0.0000 </r>
       <r>   79.3174    0.0000 </r>
       <r>   79.5721    0.0000 </r>
       <r>   79.6689    0.0000 </r>
       <r>   79.8982    0.0000 </r>
       <r>   79.9118    0.0000 </r>
       <r>   80.1923    0.0000 </r>
       <r>   80.2444    0.0000 </r>
       <r>   80.4263    0.0000 </r>
       <r>   80.4901    0.0000 </r>
       <r>   80.5611    0.0000 </r>
       <r>   80.9882    0.0000 </r>
       <r>   81.2651    0.0000 </r>
       <r>   81.3481    0.0000 </r>
       <r>   81.8540    0.0000 </r>
       <r>   81.8852    0.0000 </r>
       <r>   82.0023    0.0000 </r>
       <r>   82.2395    0.0000 </r>
       <r>   82.6005    0.0000 </r>
       <r>   82.7009    0.0000 </r>
       <r>   82.9487    0.0000 </r>
       <r>   83.1451    0.0000 </r>
       <r>   83.1783    0.0000 </r>
       <r>   83.4019    0.0000 </r>
       <r>   83.4858    0.0000 </r>
       <r>   83.9376    0.0000 </r>
       <r>   84.0937    0.0000 </r>
       <r>   84.1838    0.0000 </r>
       <r>   84.3310    0.0000 </r>
       <r>   84.6606    0.0000 </r>
       <r>   84.8569    0.0000 </r>
       <r>   84.8822    0.0000 </r>
       <r>   85.1654    0.0000 </r>
       <r>   85.4277    0.0000 </r>
       <r>   85.4483    0.0000 </r>
       <r>   85.6360    0.0000 </r>
       <r>   85.9702    0.0000 </r>
       <r>   85.9975    0.0000 </r>
       <r>   86.1189    0.0000 </r>
       <r>   86.2743    0.0000 </r>
       <r>   86.7391    0.0000 </r>
       <r>   87.2595    0.0000 </r>
       <r>   87.3630    0.0000 </r>
       <r>   87.9322    0.0000 </r>
       <r>   87.9946    0.0000 </r>
       <r>   88.1374    0.0000 </r>
       <r>   88.2755    0.0000 </r>
       <r>   88.4795    0.0000 </r>
       <r>   88.7955    0.0000 </r>
       <r>   89.8355    0.0000 </r>
       <r>   90.5749    0.0000 </r>
       <r>   90.6763    0.0000 </r>
       <r>   90.7112    0.0000 </r>
       <r>   91.1599    0.0000 </r>
       <r>   91.1680    0.0000 </r>
       <r>   91.2909    0.0000 </r>
       <r>   91.3412    0.0000 </r>
       <r>   91.6520    0.0000 </r>
       <r>   91.9248    0.0000 </r>
       <r>   91.9549    0.0000 </r>
       <r>   92.0274    0.0000 </r>
       <r>   92.0603    0.0000 </r>
       <r>   92.1269    0.0000 </r>
       <r>   92.1423    0.0000 </r>
       <r>   92.2067    0.0000 </r>
       <r>   92.2102    0.0000 </r>
       <r>   92.7072    0.0000 </r>
       <r>   92.7229    0.0000 </r>
       <r>   92.9206    0.0000 </r>
       <r>   93.2587    0.0000 </r>
       <r>   93.3464    0.0000 </r>
       <r>   93.3774    0.0000 </r>
       <r>   93.4009    0.0000 </r>
       <r>   93.6882    0.0000 </r>
       <r>   93.7349    0.0000 </r>
       <r>   94.0006    0.0000 </r>
       <r>   94.0550    0.0000 </r>
       <r>   94.3248    0.0000 </r>
       <r>   94.4155    0.0000 </r>
       <r>   94.4392    0.0000 </r>
       <r>   94.6421    0.0000 </r>
       <r>   94.7394    0.0000 </r>
       <r>   94.7541    0.0000 </r>
       <r>   95.1124    0.0000 </r>
[...]
       <r>   146.1226    19.1121  1675.5369 </r>
       <r>   146.2089    26.1478  1677.8539 </r>
       <r>   146.2952    15.0950  1679.3415 </r>
       <r>   146.3815    10.0901  1680.3432 </r>
       <r>   146.4679    16.4597  1682.0319 </r>
       <r>   146.5542    16.6929  1683.7477 </r>
       <r>   146.6405    13.6923  1685.0707 </r>
       <r>   146.7268    16.8827  1686.5278 </r>
       <r>   146.8131    17.0638  1688.0563 </r>
       <r>   146.8994    18.3994  1689.6795 </r>
       <r>   146.9857    13.6099  1690.9272 </r>
       <r>   147.0720    13.9922  1692.1679 </r>
       <r>   147.1583    25.5306  1694.3968 </r>
       <r>   147.2446    19.3603  1696.1054 </r>
       <r>   147.3309     5.7732  1696.7210 </r>
       <r>   147.4172    14.1619  1698.1472 </r>
       <r>   147.5035    16.3709  1699.6380 </r>
       <r>   147.5898    11.4735  1700.8017 </r>
       <r>   147.6761    20.3838  1702.7429 </r>
       <r>   147.7624     6.2844  1703.4468 </r>
       <r>   147.8487     8.5776  1704.4419 </r>
       <r>   147.9350     9.8547  1705.4200 </r>
       <r>   148.0213    16.2513  1707.0830 </r>
       <r>   148.1076    21.4185  1709.3724 </r>
       <r>   148.1939    14.8554  1710.7828 </r>
       <r>   148.2802    19.1033  1712.5377 </r>
       <r>   148.3665    21.3558  1714.5565 </r>
       <r>   148.4528     7.3287  1715.4416 </r>
       <r>   148.5391    12.9030  1716.7587 </r>
       <r>   148.6254    16.9632  1718.2982 </r>
       <r>   148.7117    16.5307  1719.7905 </r>
       <r>   148.7980    15.7707  1721.3469 </r>
       <r>   148.8843    10.6568  1722.3103 </r>
       <r>   148.9706    16.0807  1723.7461 </r>
       <r>   149.0570     7.2065  1724.3781 </r>
       <r>   149.1433     6.4784  1724.9645 </r>
       <r>   149.2296    15.0251  1726.2971 </r>
       <r>   149.3159    19.1278  1728.0056 </r>
       <r>   149.4022    16.8562  1729.5540 </r>
       <r>   149.4885    15.1306  1731.0436 </r>
       <r>   149.5748    15.9106  1732.6398 </r>
       <r>   149.6611     9.2681  1733.5646 </r>
       <r>   149.7474    16.8732  1735.0435 </r>
       <r>   149.8337     9.5213  1736.0168 </r>
       <r>   149.9200     9.3269  1736.8744 </r>
       <r>   150.0063    13.9127  1738.2103 </r>
       <r>   150.0926    19.1306  1739.8987 </r>
       <r>   150.1789    18.1609  1741.5422 </r>
       <r>   150.2652    15.3379  1742.9732 </r>
       <r>   150.3515    18.1672  1744.6306 </r>
       <r>   150.4378    18.9951  1746.2812 </r>
       <r>   150.5241    15.7748  1747.7875 </r>
       <r>   150.6104    13.9478  1749.0165 </r>
       <r>   150.6967     8.8684  1749.7824 </r>
       <r>   150.7830    10.3574  1750.7689 </r>
       <r>   150.8693    16.7760  1752.4071 </r>
       <r>   150.9556    24.7194  1754.9894 </r>
       <r>   151.0419    17.9482  1756.6220 </r>
       <r>   151.1282    26.4611  1758.9974 </r>
       <r>   151.2145    13.8263  1760.2410 </r>
       <r>   151.3008    14.0771  1761.4928 </r>
       <r>   151.3871    19.4282  1763.2776 </r>
       <r>   151.4734    17.6251  1765.1617 </r>
       <r>   151.5598    11.4833  1766.2825 </r>
       <r>   151.6461    15.8008  1767.9616 </r>
       <r>   151.7324    14.9158  1769.3632 </r>
       <r>   151.8187    13.4589  1770.7000 </r>
       <r>   151.9050    18.9821  1772.4457 </r>
       <r>   151.9913    12.7204  1773.6490 </r>
       <r>   152.0776    12.4398  1774.7672 </r>
       <r>   152.1639    20.8460  1776.6059 </r>
       <r>   152.2502    19.8140  1778.3260 </r>
       <r>   152.3365    13.6366  1779.5279 </r>
       <r>   152.4228    10.9088  1780.5945 </r>
       <r>   152.5091    12.9062  1782.1007 </r>
       <r>   152.5954    10.1180  1782.9844 </r>
       <r>   152.6817    10.7194  1783.9685 </r>
       <r>   152.7680    19.3349  1785.7104 </r>
       <r>   152.8543    15.0744  1787.1995 </r>
       <r>   152.9406    12.3010  1788.4783 </r>
       <r>   153.0269    22.4110  1790.4556 </r>
       <r>   153.1132    11.7621  1791.6158 </r>
       <r>   153.1995    17.0254  1793.2094 </r>
       <r>   153.2858     9.6700  1794.1854 </r>
       <r>   153.3721    16.0230  1795.6747 </r>
       <r>   153.4584    13.7945  1797.0239 </r>
       <r>   153.5447    17.7957  1798.8610 </r>
       <r>   153.6310    10.9197  1799.9017 </r>
       <r>   153.7173    12.9317  1801.0466 </r>
       <r>   153.8036    16.9518  1802.5483 </r>
       <r>   153.8899    24.2187  1804.6413 </r>
       <r>   153.9762     4.0375  1805.3655 </r>
       <r>   154.0626    15.0523  1806.8825 </r>
       <r>   154.1489     8.9428  1807.8009 </r>
       <r>   154.2352    17.0312  1809.3663 </r>
       <r>   154.3215    11.3763  1810.3548 </r>
       <r>   154.4078    14.4606  1811.6092 </r>
       <r>   154.4941    17.6971  1813.1494 </r>
       <r>   154.5804    22.5998  1815.2141 </r>
       <r>   154.6667    11.1345  1816.3791 </r>
       <r>   154.7530    11.9975  1817.4681 </r>
       <r>   154.8393    14.4646  1818.7375 </r>
       <r>   154.9256    12.3699  1819.8648 </r>
       <r>   155.0119    14.5546  1821.2424 </r>
       <r>   155.0982    13.1360  1822.7144 </r>
       <r>   155.1845    20.9600  1824.6310 </r>
       <r>   155.2708    17.0987  1826.2233 </r>
       <r>   155.3571    14.0488  1827.6738 </r>
       <r>   155.4434    18.5965  1829.3411 </r>
       <r>   155.5297    14.8519  1830.8164 </r>
       <r>   155.6160    15.3918  1832.3588 </r>
       <r>   155.7023    12.1054  1833.6704 </r>
       <r>   155.7886    17.3212  1835.3060 </r>
       <r>   155.8749     7.5952  1836.0942 </r>
       <r>   155.9612    20.7957  1837.9800 </r>
       <r>   156.0475    21.3145  1839.8270 </r>
       <r>   156.1338    12.6067  1841.0919 </r>
       <r>   156.2201    20.1687  1842.8661 </r>
       <r>   156.3064    23.0237  1844.8983 </r>
       <r>   156.3927    13.0960  1846.2350 </r>
       <r>   156.4790    14.2963  1847.5539 </r>
       <r>   156.5653    12.7454  1848.7805 </r>
       <r>   156.6517    19.3018  1850.4635 </r>
       <r>   156.7380    17.5460  1852.1810 </r>
       <r>   156.8243    22.1337  1854.1094 </r>
       <r>   156.9106     5.6701  1854.7896 </r>
       <r>   156.9969    21.4060  1856.7413 </r>
       <r>   157.0832    22.3259  1858.9026 </r>
       <r>   157.1695    17.5276  1860.5327 </r>
       <r>   157.2558    13.2687  1861.7467 </r>
       <r>   157.3421    12.5208  1862.9182 </r>
       <r>   157.4284    16.7164  1864.3884 </r>
       <r>   157.5147     8.9670  1865.1787 </r>
       <r>   157.6010    15.4749  1866.5323 </r>
       <r>   157.6873    19.9071  1868.4146 </r>
       <r>   157.7736     7.0902  1869.1626 </r>
       <r>   157.8599    16.6487  1870.6626 </r>
       <r>   157.9462    20.3177  1872.4750 </r>
       <r>   158.0325    12.1796  1873.8154 </r>
       <r>   158.1188    16.1096  1875.2317 </r>
       <r>   158.2051    11.5251  1876.3462 </r>
       <r>   158.2914    14.9315  1877.7170 </r>
       <r>   158.3777    20.8995  1879.5415 </r>
       <r>   158.4640    11.2695  1880.5900 </r>
       <r>   158.5503     7.1423  1881.2843 </r>
       <r>   158.6366    21.8113  1883.2329 </r>
       <r>   158.7229    11.7143  1884.2541 </r>
       <r>   158.8092    21.5026  1886.1891 </r>
       <r>   158.8955     7.4851  1886.9048 </r>
       <r>   158.9818    19.1023  1888.6606 </r>
       <r>   159.0681    12.0343  1889.8375 </r>
       <r>   159.1545    18.9189  1891.6657 </r>
       <r>   159.2408    12.5892  1892.9495 </r>
       <r>   159.3271     8.1397  1893.7998 </r>
       <r>   159.4134    11.3846  1894.8570 </r>
       <r>   159.4997    16.1591  1896.2516 </r>
       <r>   159.5860     7.2563  1896.9060 </r>
       <r>   159.6723    18.4283  1898.5616 </r>
       <r>   159.7586    16.5483  1900.0916 </r>
       <r>   159.8449    10.8159  1901.1561 </r>
       <r>   159.9312    19.4734  1902.8373 </r>
       <r>   160.0175    19.6561  1904.7397 </r>
       <r>   160.1038    15.1900  1906.1357 </r>
       <r>   160.1901    13.5202  1907.5144 </r>
       <r>   160.2764    15.4215  1908.9265 </r>
       <r>   160.3627    16.9589  1910.4506 </r>
       <r>   160.4490    17.7940  1912.2261 </r>
       <r>   160.5353    21.3727  1914.1412 </r>
       <r>   160.6216     7.1254  1914.8514 </r>
       <r>   160.7079    16.4478  1916.4483 </r>
       <r>   160.7942    18.8328  1918.0949 </r>
       <r>   160.8805    18.4880  1919.7405 </r>
       <r>   160.9668    14.9634  1921.1865 </r>
       <r>   161.0531    19.8971  1923.0647 </r>
       <r>   161.1394    16.0911  1924.5014 </r>
       <r>   161.2257    16.1951  1925.9766 </r>
       <r>   161.3120    16.2715  1927.6343 </r>
       <r>   161.3983    18.0182  1929.2564 </r>
       <r>   161.4846    15.5929  1930.7200 </r>
       <r>   161.5709    19.9801  1932.5162 </r>
       <r>   161.6572    15.6828  1933.9445 </r>
       <r>   161.7436    13.3966  1935.4201 </r>
       <r>   161.8299    13.1718  1936.6925 </r>
       <r>   161.9162    18.9780  1938.4907 </r>
       <r>   162.0025     9.2836  1939.6246 </r>
       <r>   162.0888    16.2577  1941.0514 </r>
       <r>   162.1751    23.3886  1943.3216 </r>
       <r>   162.2614    10.9904  1944.4623 </r>
       <r>   162.3477    17.6994  1946.0847 </r>
       <r>   162.4340    10.1531  1947.0589 </r>
       <r>   162.5203    14.6264  1948.3460 </r>
       <r>   162.6066    13.4732  1949.5431 </r>
       <r>   162.6929     9.6276  1950.4004 </r>
       <r>   162.7792    17.1641  1951.9530 </r>
       <r>   162.8655    17.9518  1953.5904 </r>
       <r>   162.9518     8.6488  1954.4258 </r>
       <r>   163.0381    19.0066  1956.2071 </r>
       <r>   163.1244    17.9172  1957.9095 </r>
       <r>   163.2107    11.5751  1959.3383 </r>
       <r>   163.2970    24.1196  1961.4201 </r>
       <r>   163.3833    16.0614  1963.1368 </r>
       <r>   163.4696    15.4009  1964.5625 </r>
       <r>   163.5559     6.3809  1965.2255 </r>
       <r>   163.6422    14.6536  1966.5358 </r>
       <r>   163.7285    10.9377  1967.6564 </r>
       <r>   163.8148    13.0515  1968.8049 </r>
       <r>   163.9011    12.1728  1970.2348 </r>
       <r>   163.9874    16.1356  1971.6804 </r>
       <r>   164.0737    15.1328  1973.1392 </r>
       <r>   164.1600    23.0612  1975.2381 </r>
       <r>   164.2464    20.1595  1977.0962 </r>
       <r>   164.3327     9.5706  1978.1142 </r>
       <r>   164.4190    18.5685  1979.8143 </r>
       <r>   164.5053     9.9568  1980.7226 </r>
       <r>   164.5916    14.6065  1982.0570 </r>
       <r>   164.6779    23.3201  1984.1323 </r>
       <r>   164.7642    20.1938  1985.8829 </r>
       <r>   164.8505    14.9819  1987.3158 </r>
       <r>   164.9368    18.5792  1989.2027 </r>
       <r>   165.0231    11.8872  1990.4866 </r>
       <r>   165.1094    16.8286  1992.0461 </r>
       <r>   165.1957    21.6250  1993.9575 </r>
       <r>   165.2820    19.3979  1995.7632 </r>
       <r>   165.3683    11.7954  1996.8513 </r>
       <r>   165.4546    25.5482  1999.4003 </r>
       <r>   165.5409    13.1313  2000.6218 </r>
       <r>   165.6272    23.0575  2002.9220 </r>
       <r>   165.7135    23.6479  2005.0403 </r>
       <r>   165.7998    14.2362  2006.4587 </r>
       <r>   165.8861    14.6782  2007.9967 </r>
       <r>   165.9724    26.4195  2010.2768 </r>
       <r>   166.0587    14.4500  2011.6518 </r>
       <r>   166.1450    19.7580  2013.3831 </r>
       <r>   166.2313    10.3967  2014.5249 </r>
       <r>   166.3176    21.7477  2016.5473 </r>
       <r>   166.4039    14.2893  2017.9554 </r>
       <r>   166.4902    26.6195  2020.6337 </r>
       <r>   166.5765     8.5441  2021.4318 </r>
       <r>   166.6628    18.9386  2023.2205 </r>
       <r>   166.7492    20.0723  2025.0240 </r>
       <r>   166.8355    15.2776  2026.4266 </r>
       <r>   166.9218     9.7848  2027.5684 </r>
       <r>   167.0081    21.4230  2029.4616 </r>
       <r>   167.0944    16.6074  2031.0430 </r>
       <r>   167.1807    20.6486  2032.9396 </r>
       <r>   167.2670    19.4096  2034.7189 </r>
       <r>   167.3533    11.5202  2035.7921 </r>
       <r>   167.4396    17.1552  2037.2825 </r>
       <r>   167.5259    14.8900  2038.5831 </r>
       <r>   167.6122    19.6070  2040.3372 </r>
       <r>   167.6985    13.2055  2041.4951 </r>
       <r>   167.7848    16.0797  2042.9149 </r>
       <r>   167.8711     9.8141  2043.9209 </r>
       <r>   167.9574     8.9165  2044.7045 </r>
       <r>   168.0437    23.1673  2046.8470 </r>
       <r>   168.1300    14.1492  2048.1527 </r>
       <r>   168.2163     9.3340  2048.9584 </r>
       <r>   168.3026    10.2194  2049.8408 </r>
       <r>   168.3889    15.1670  2051.2093 </r>
       <r>   168.4752    11.3641  2052.3490 </r>
       <r>   168.5615    18.5439  2054.0032 </r>
       <r>   168.6478    12.8234  2055.2045 </r>
       <r>   168.7341    13.6945  2056.4251 </r>
       <r>   168.8204    18.8909  2058.0805 </r>
       <r>   168.9067     6.7584  2058.7084 </r>
       <r>   168.9930    10.0813  2059.6634 </r>
       <r>   169.0793     5.8510  2060.1827 </r>
       <r>   169.1656     7.9630  2060.8970 </r>
       <r>   169.2519     7.3967  2061.6801 </r>
       <r>   169.3383     6.5884  2062.3186 </r>
       <r>   169.4246     8.6015  2063.1644 </r>
       <r>   169.5109     2.8968  2063.5000 </r>
       <r>   169.5972     3.8609  2063.8332 </r>
       <r>   169.6835     1.6515  2063.9759 </r>
       <r>   169.7698     0.0000  2064.0000 </r>
       <r>   169.8561     0.0000  2064.0000 </r>
       <r>   169.9424     0.0000  2064.0000 </r>
       <r>   170.0287     0.0000  2064.0000 </r>
       <r>   170.1150     0.0000  2064.0000 </r>
       <r>   170.2013     0.0000  2064.0000 </r>
       <r>   170.2876     0.0000  2064.0000 </r>
       <r>   170.3739     0.0000  2064.0000 </r>
       <r>   170.4602     0.0000  2064.0000 </r>
       <r>   170.5465     0.0000  2064.0000 </r>
       <r>   170.6328     0.0000  2064.0000 </r>
       <r>   170.7191     0.0000  2064.0000 </r>
       <r>   170.8054     0.0000  2064.0000 </r>
       <r>   170.8917     0.0000  2064.0000 </r>
       <r>   170.9780     0.0000  2064.0000 </r>
       <r>   171.0643     0.0000  2064.0000 </r>
       <r>   171.1506     0.0000  2064.0000 </r>
       <r>   171.2369     0.0000  2064.0000 </r>
       <r>   171.3232     0.0000  2064.0000 </r>
       <r>   171.4095     0.0000  2064.0000 </r>
       <r>   171.4958     0.0000  2064.0000 </r>
       <r>   171.5821     0.0000  2064.0000 </r>
       <r>   171.6684     0.0000  2064.0000 </r>
       <r>   171.7547     0.0000  2064.0000 </r>
       <r>   171.8411     0.0000  2064.0000 </r>
       <r>   171.9274     0.0000  2064.0000 </r>
       <r>   172.0137     0.0000  2064.0000 </r>
       <r>   172.1000     0.0000  2064.0000 </r>
       <r>   172.1863     0.0000  2064.0000 </r>
       <r>   172.2726     0.0000  2064.0000 </r>
       <r>   172.3589     0.0000  2064.0000 </r>
       <r>   172.4452     0.0000  2064.0000 </r>
       <r>   172.5315     0.0000  2064.0000 </r>
       <r>   172.6178     0.0000  2064.0000 </r>
       <r>   172.7041     0.0000  2064.0000 </r>
       <r>   172.7904     0.0000  2064.0000 </r>
       <r>   172.8767     0.0000  2064.0000 </r>
       <r>   172.9630     0.0000  2064.0000 </r>
       <r>   173.0493     0.0000  2064.0000 </r>
       <r>   173.1356     0.0000  2064.0000 </r>
       <r>   173.2219     0.0000  2064.0000 </r>
       <r>   173.3082     0.0000  2064.0000 </r>
       <r>   173.3945     0.0000  2064.0000 </r>
       <r>   173.4808     0.0000  2064.0000 </r>
       <r>   173.5671     0.0000  2064.0000 </r>
       <r>   173.6534     0.0000  2064.0000 </r>
       <r>   173.7397     0.0000  2064.0000 </r>
       <r>   173.8260     0.0000  2064.0000 </r>
       <r>   173.9123     0.0000  2064.0000 </r>
       <r>   173.9986     0.0000  2064.0000 </r>
       <r>   174.0849     0.0000  2064.0000 </r>
       <r>   174.1712     0.0000  2064.0000 </r>
       <r>   174.2575     0.0000  2064.0000 </r>
       <r>   174.3438     0.0000  2064.0000 </r>
       <r>   174.4302     0.0000  2064.0000 </r>
       <r>   174.5165     0.0000  2064.0000 </r>
       <r>   174.6028     0.0000  2064.0000 </r>
       <r>   174.6891     0.0000  2064.0000 </r>
       <r>   174.7754     0.0000  2064.0000 </r>
       <r>   174.8617     0.0000  2064.0000 </r>
       <r>   174.9480     0.0000  2064.0000 </r>
       <r>   175.0343     0.0000  2064.0000 </r>
       <r>   175.1206     0.0000  2064.0000 </r>
       <r>   175.2069     0.0000  2064.0000 </r>
       <r>   175.2932     0.0000  2064.0000 </r>
       <r>   175.3795     0.0000  2064.0000 </r>
       <r>   175.4658     0.0000  2064.0000 </r>
       <r>   175.5521     0.0000  2064.0000 </r>
       <r>   175.6384     0.0000  2064.0000 </r>
       <r>   175.7247     0.0000  2064.0000 </r>
       <r>   175.8110     0.0000  2064.0000 </r>
       <r>   175.8973     0.0000  2064.0000 </r>
       <r>   175.9836     0.0000  2064.0000 </r>
       <r>   176.0699     0.0000  2064.0000 </r>
       <r>   176.1562     0.0000  2064.0000 </r>
       <r>   176.2425     0.0000  2064.0000 </r>
       <r>   176.3288     0.0000  2064.0000 </r>
       <r>   176.4151     0.0000  2064.0000 </r>
       <r>   176.5014     0.0000  2064.0000 </r>
       <r>   176.5877     0.0000  2064.0000 </r>
       <r>   176.6740     0.0000  2064.0000 </r>
       <r>   176.7603     0.0000  2064.0000 </r>
       <r>   176.8466     0.0000  2064.0000 </r>
       <r>   176.9330     0.0000  2064.0000 </r>
       <r>   177.0193     0.0000  2064.0000 </r>
       <r>   177.1056     0.0000  2064.0000 </r>
       <r>   177.1919     0.0000  2064.0000 </r>
       <r>   177.2782     0.0000  2064.0000 </r>
       <r>   177.3645     0.0000  2064.0000 </r>
       <r>   177.4508     0.0000  2064.0000 </r>
       <r>   177.5371     0.0000  2064.0000 </r>
       <r>   177.6234     0.0000  2064.0000 </r>
       <r>   177.7097     0.0000  2064.0000 </r>
       <r>   177.7960     0.0000  2064.0000 </r>
       <r>   177.8823     0.0000  2064.0000 </r>
       <r>   177.9686     0.0000  2064.0000 </r>
       <r>   178.0549     0.0000  2064.0000 </r>
       <r>   178.1412     0.0000  2064.0000 </r>
       <r>   178.2275     0.0000  2064.0000 </r>
       <r>   178.3138     0.0000  2064.0000 </r>
       <r>   178.4001     0.0000  2064.0000 </r>
       <r>   178.4864     0.0000  2064.0000 </r>
       <r>   178.5727     0.0000  2064.0000 </r>
       <r>   178.6590     0.0000  2064.0000 </r>
       <r>   178.7453     0.0000  2064.0000 </r>
       <r>   178.8316     0.0000  2064.0000 </r>
       <r>   178.9179     0.0000  2064.0000 </r>
       <r>   179.0042     0.0000  2064.0000 </r>
       <r>   179.0905     0.0000  2064.0000 </r>
      </set>
     </set>
    </array>
   </total>
  </dos>
 </calculation>
 <structure name="finalpos" >
  <crystal>
   <varray name="basis" >
    <v>       4.48084843       2.58701885       0.00000000 </v>
    <v>      -4.48084843       2.58701885       0.00000000 </v>
    <v>       0.00000000       0.00000000       8.52022140 </v>
   </varray>
   <i name="volume">    197.53348383 </i>
   <varray name="rec_basis" >
    <v>       0.11158601       0.19327265       0.00000000 </v>
    <v>      -0.11158601       0.19327265       0.00000000 </v>
    <v>       0.00000000       0.00000000       0.11736784 </v>
   </varray>
  </crystal>
  <varray name="positions" >
   <v>       0.33333300       0.66666600       0.25000000 </v>
   <v>       0.66666600       0.33333300       0.25000000 </v>
   <v>       0.15869124       0.31738348       0.25000000 </v>
   <v>       0.31738348       0.15869124       0.25000000 </v>
   <v>       0.15869124       0.84130776       0.25000000 </v>
   <v>       0.84130776       0.15869124       0.25000000 </v>
   <v>       0.68261552       0.84130776       0.25000000 </v>
   <v>       0.84130776       0.68261552       0.25000000 </v>
  </varray>
 </structure>
</modeling>
