Warning: no access to tty (Bad file descriptor).
Thus no job control in this shell.
Loading compiler-rt version 2021.4.0
Loading mpi version 2021.4.0
Loading mkl version 2021.4.0
Loading tbb version 2021.4.0

Loading mkl
  Loading requirement: tbb
 running on   12 total cores
 distrk:  each k-point on   12 cores,    1 groups
 distr:  one band on    1 cores,   12 groups
 using from now: INCAR     
 vasp.5.4.4.18Apr17-6-g9f103f2a35 (build Mar 30 2023 15:39:25) complex          
  
 POSCAR found :  1 types and       2 ions
 scaLAPACK will be used

 ----------------------------------------------------------------------------- 
|                                                                             |
|           W    W    AA    RRRRR   N    N  II  N    N   GGGG   !!!           |
|           W    W   A  A   R    R  NN   N  II  NN   N  G    G  !!!           |
|           W    W  A    A  R    R  N N  N  II  N N  N  G       !!!           |
|           W WW W  AAAAAA  RRRRR   N  N N  II  N  N N  G  GGG   !            |
|           WW  WW  A    A  R   R   N   NN  II  N   NN  G    G                |
|           W    W  A    A  R    R  N    N  II  N    N   GGGG   !!!           |
|                                                                             |
|      For optimal performance we recommend to set                            |
|        NCORE= 4 - approx SQRT( number of cores)                             |
|      NCORE specifies how many cores store one orbital (NPAR=cpu/NCORE).     |
|      This setting can  greatly improve the performance of VASP for DFT.     |
|      The default,   NCORE=1            might be grossly inefficient         |
|      on modern multi-core architectures or massively parallel machines.     |
|      Do your own testing !!!!                                               |
|      Unfortunately you need to use the default for GW and RPA calculations. |
|      (for HF NCORE is supported but not extensively tested yet)             |
|                                                                             |
 ----------------------------------------------------------------------------- 

 LDA part: xc-table for Pade appr. of Perdew
 POSCAR, INCAR and KPOINTS ok, starting setup
 FFT: planning ...
 WAVECAR not read
 entering main loop
       N       E                     dE             d eps       ncg     rms          rms(c)
DAV:   1    -0.550470572084E+01   -0.55047E+01   -0.21008E+03  7080   0.282E+02
DAV:   2    -0.109459029125E+02   -0.54412E+01   -0.53580E+01 10476   0.332E+01
DAV:   3    -0.109810531334E+02   -0.35150E-01   -0.35150E-01  8184   0.313E+00
DAV:   4    -0.109811373236E+02   -0.84190E-04   -0.84191E-04 11964   0.154E-01
DAV:   5    -0.109811373354E+02   -0.11734E-07   -0.11703E-07  8232   0.130E-03    0.518E+00
DAV:   6    -0.108728069792E+02    0.10833E+00   -0.69272E-02  8616   0.910E-01    0.315E+00
DAV:   7    -0.108222959957E+02    0.50511E-01   -0.13435E-01  9504   0.136E+00    0.156E-01
DAV:   8    -0.108233319464E+02   -0.10360E-02   -0.27424E-03  7908   0.251E-01    0.774E-02
DAV:   9    -0.108235489216E+02   -0.21698E-03   -0.24160E-04 11016   0.782E-02    0.581E-02
DAV:  10    -0.108235606780E+02   -0.11756E-04   -0.85319E-06  9972   0.157E-02    0.576E-03
DAV:  11    -0.108235623282E+02   -0.16502E-05   -0.24425E-06 10764   0.713E-03    0.328E-03
DAV:  12    -0.108235626515E+02   -0.32331E-06   -0.49497E-07  9636   0.376E-03
   1 F= -.10823563E+02 E0= -.10823563E+02  d E =-.191945E-08
 writing wavefunctions
