PROCAR lm decomposed
# of k-points:  286         # of bands:   12         # of ions:    2

 k-point     1 :    0.00000000 0.00000000 0.00000000     weight = 0.00010798

band     1 # energy   -6.25279598 # occ.  2.00000000
 
ion      s     py     pz     px    dxy    dyz    dz2    dxz  x2-y2    tot
    1  0.212  0.000  0.000  0.000  0.000  0.000  0.000  0.000  0.000  0.212
    2  0.212  0.000  0.000  0.000  0.000  0.000  0.000  0.000  0.000  0.212
tot    0.424  0.000  0.000  0.000  0.000  0.000  0.000  0.000  0.000  0.424
 
band     2 # energy    5.45925888 # occ.  1.99999423
 
ion      s     py     pz     px    dxy    dyz    dz2    dxz  x2-y2    tot
    1  0.000  0.072  0.072  0.072  0.000  0.000  0.000  0.000  0.000  0.215
    2  0.000  0.072  0.072  0.072  0.000  0.000  0.000  0.000  0.000  0.215
tot    0.000  0.144  0.144  0.144  0.000  0.000  0.000  0.000  0.000  0.431
 
band     3 # energy    5.45926035 # occ.  1.99999423
 
ion      s     py     pz     px    dxy    dyz    dz2    dxz  x2-y2    tot
    1  0.000  0.008  0.132  0.075  0.000  0.000  0.000  0.000  0.000  0.215
    2  0.000  0.008  0.132  0.075  0.000  0.000  0.000  0.000  0.000  0.215
tot    0.000  0.016  0.264  0.151  0.000  0.000  0.000  0.000  0.000  0.431
 
band     4 # energy    5.45926035 # occ.  1.99999423
 
ion      s     py     pz     px    dxy    dyz    dz2    dxz  x2-y2    tot
    1  0.000  0.135  0.012  0.068  0.000  0.000  0.000  0.000  0.000  0.215
    2  0.000  0.135  0.012  0.068  0.000  0.000  0.000  0.000  0.000  0.215
tot    0.000  0.271  0.023  0.137  0.000  0.000  0.000  0.000  0.000  0.431
 
band     5 # energy    8.01106371 # occ.  0.00000000
 
ion      s     py     pz     px    dxy    dyz    dz2    dxz  x2-y2    tot
    1  0.000  0.051  0.051  0.051  0.000  0.000  0.000  0.000  0.000  0.153
    2  0.000  0.051  0.051  0.051  0.000  0.000  0.000  0.000  0.000  0.153
tot    0.000  0.102  0.102  0.102  0.000  0.000  0.000  0.000  0.000  0.305
 
band     6 # energy    8.01106494 # occ.  0.00000000
 
ion      s     py     pz     px    dxy    dyz    dz2    dxz  x2-y2    tot
    1  0.000  0.068  0.073  0.011  0.000  0.000  0.000  0.000  0.000  0.153
    2  0.000  0.068  0.073  0.011  0.000  0.000  0.000  0.000  0.000  0.153
tot    0.000  0.135  0.147  0.023  0.000  0.000  0.000  0.000  0.000  0.305
 
band     7 # energy    8.01106494 # occ.  0.00000000
 
ion      s     py     pz     px    dxy    dyz    dz2    dxz  x2-y2    tot
    1  0.000  0.034  0.028  0.090  0.000  0.000  0.000  0.000  0.000  0.153
    2  0.000  0.034  0.028  0.090  0.000  0.000  0.000  0.000  0.000  0.153
tot    0.000  0.068  0.057  0.181  0.000  0.000  0.000  0.000  0.000  0.305
 
band     8 # energy    8.38769084 # occ.  0.00000000
 
ion      s     py     pz     px    dxy    dyz    dz2    dxz  x2-y2    tot
    1  0.361  0.000  0.000  0.000  0.000  0.000  0.000  0.000  0.000  0.361
    2  0.361  0.000  0.000  0.000  0.000  0.000  0.000  0.000  0.000  0.361
tot    0.722  0.000  0.000  0.000  0.000  0.000  0.000  0.000  0.000  0.722
 
band     9 # energy   13.23078739 # occ.  0.00000000
 
ion      s     py     pz     px    dxy    dyz    dz2    dxz  x2-y2    tot
    1  0.000  0.000  0.000  0.000  0.000  0.000  0.000  0.000  0.000  0.000
    2  0.000  0.000  0.000  0.000  0.000  0.000  0.000  0.000  0.000  0.000
tot    0.000  0.000  0.000  0.000  0.000  0.000  0.000  0.000  0.000  0.000
 
band    10 # energy   13.23078739 # occ.  0.00000000
 
ion      s     py     pz     px    dxy    dyz    dz2    dxz  x2-y2    tot
    1  0.000  0.000  0.000  0.000  0.000  0.000  0.000  0.000  0.000  0.000
    2  0.000  0.000  0.000  0.000  0.000  0.000  0.000  0.000  0.000  0.000
tot    0.000  0.000  0.000  0.000  0.000  0.000  0.000  0.000  0.000  0.000
 
band    11 # energy   13.26025393 # occ.  0.00000000
 
ion      s     py     pz     px    dxy    dyz    dz2    dxz  x2-y2    tot
    1  0.100  0.000  0.000  0.000  0.000  0.000  0.000  0.000  0.000  0.100
    2  0.100  0.000  0.000  0.000  0.000  0.000  0.000  0.000  0.000  0.100
tot    0.200  0.000  0.000  0.000  0.000  0.000  0.000  0.000  0.000  0.200
 
band    12 # energy   16.60422937 # occ.  0.00000000
 
ion      s     py     pz     px    dxy    dyz    dz2    dxz  x2-y2    tot
    1  0.000  0.000  0.014  0.025  0.000  0.000  0.000  0.000  0.000  0.039
    2  0.000  0.000  0.014  0.025  0.000  0.000  0.000  0.000  0.000  0.039
tot    0.000  0.000  0.027  0.050  0.000  0.000  0.000  0.000  0.000  0.077
 

 k-point     2 :    0.04761905 0.00000000 0.00000000     weight = 0.00086384

band     1 # energy   -6.22391877 # occ.  2.00000000
 
ion      s     py     pz     px    dxy    dyz    dz2    dxz  x2-y2    tot
    1  0.212  0.000  0.000  0.000  0.000  0.000  0.000  0.000  0.000  0.213
    2  0.212  0.000  0.000  0.000  0.000  0.000  0.000  0.000  0.000  0.213
tot    0.424  0.000  0.000  0.000  0.000  0.000  0.000  0.000  0.000  0.425
 
band     2 # energy    5.12821987 # occ.  2.00000000
 
ion      s     py     pz     px    dxy    dyz    dz2    dxz  x2-y2    tot
    1  0.023  0.065  0.065  0.065  0.000  0.000  0.000  0.000  0.000  0.219
    2  0.023  0.065  0.065  0.065  0.000  0.000  0.000  0.000  0.000  0.219
tot    0.046  0.131  0.131  0.131  0.000  0.000  0.000  0.000  0.000  0.438
 
band     3 # energy    5.41187455 # occ.  1.99999981
 
ion      s     py     pz     px    dxy    dyz    dz2    dxz  x2-y2    tot
    1  0.000  0.036  0.036  0.143  0.000  0.000  0.000  0.000  0.000  0.215
    2  0.000  0.036  0.036  0.143  0.000  0.000  0.000  0.000  0.000  0.215
tot    0.000  0.072  0.072  0.286  0.000  0.000  0.000  0.000  0.000  0.429
 
band     4 # energy    5.41187585 # occ.  1.99999981
 
ion      s     py     pz     px    dxy    dyz    dz2    dxz  x2-y2    tot
    1  0.000  0.107  0.107  0.000  0.000  0.000  0.000  0.000  0.000  0.215
    2  0.000  0.107  0.107  0.000  0.000  0.000  0.000  0.000  0.000  0.215
tot    0.000  0.215  0.215  0.000  0.000  0.000  0.000  0.000  0.000  0.429
 
band     5 # energy    8.03861948 # occ.  0.00000000
 
ion      s     py     pz     px    dxy    dyz    dz2    dxz  x2-y2    tot
    1  0.042  0.044  0.044  0.044  0.000  0.000  0.000  0.000  0.000  0.174
    2  0.042  0.044  0.044  0.044  0.000  0.000  0.000  0.000  0.000  0.174
tot    0.084  0.088  0.088  0.088  0.000  0.000  0.000  0.000  0.000  0.349
 
band     6 # energy    8.08229616 # occ.  0.00000000
 
ion      s     py     pz     px    dxy    dyz    dz2    dxz  x2-y2    tot
    1  0.000  0.026  0.026  0.103  0.000  0.000  0.000  0.000  0.000  0.154
    2  0.000  0.026  0.026  0.103  0.000  0.000  0.000  0.000  0.000  0.154
tot    0.000  0.051  0.051  0.205  0.000  0.000  0.000  0.000  0.000  0.308
 
band     7 # energy    8.08229727 # occ.  0.00000000
 
ion      s     py     pz     px    dxy    dyz    dz2    dxz  x2-y2    tot
    1  0.000  0.077  0.077  0.000  0.000  0.000  0.000  0.000  0.000  0.154
    2  0.000  0.077  0.077  0.000  0.000  0.000  0.000  0.000  0.000  0.154
tot    0.000  0.154  0.154  0.000  0.000  0.000  0.000  0.000  0.000  0.308
 
band     8 # energy    8.64288371 # occ.  0.00000000
 
ion      s     py     pz     px    dxy    dyz    dz2    dxz  x2-y2    tot
    1  0.298  0.012  0.012  0.012  0.000  0.000  0.000  0.000  0.000  0.334
    2  0.298  0.012  0.012  0.012  0.000  0.000  0.000  0.000  0.000  0.334
tot    0.596  0.024  0.024  0.024  0.000  0.000  0.000  0.000  0.000  0.668
 
band     9 # energy   13.13080257 # occ.  0.00000000
 
ion      s     py     pz     px    dxy    dyz    dz2    dxz  x2-y2    tot
    1  0.000  0.000  0.000  0.000  0.000  0.000  0.000  0.000  0.000  0.001
    2  0.000  0.000  0.000  0.000  0.000  0.000  0.000  0.000  0.000  0.001
tot    0.000  0.000  0.000  0.001  0.000  0.000  0.000  0.000  0.000  0.001
 
band    10 # energy   13.13080257 # occ.  0.00000000
 
ion      s     py     pz     px    dxy    dyz    dz2    dxz  x2-y2    tot
    1  0.000  0.000  0.000  0.000  0.000  0.000  0.000  0.000  0.000  0.001
    2  0.000  0.000  0.000  0.000  0.000  0.000  0.000  0.000  0.000  0.001
tot    0.000  0.001  0.001  0.000  0.000  0.000  0.000  0.000  0.000  0.001
 
band    11 # energy   13.38781294 # occ.  0.00000000
 
ion      s     py     pz     px    dxy    dyz    dz2    dxz  x2-y2    tot
    1  0.097  0.002  0.002  0.002  0.000  0.000  0.000  0.000  0.000  0.102
    2  0.097  0.002  0.002  0.002  0.000  0.000  0.000  0.000  0.000  0.102
tot    0.193  0.004  0.004  0.004  0.000  0.000  0.000  0.000  0.000  0.204
 
band    12 # energy   16.48851695 # occ.  0.00000000
 
ion      s     py     pz     px    dxy    dyz    dz2    dxz  x2-y2    tot
    1  0.003  0.012  0.012  0.012  0.000  0.000  0.000  0.000  0.000  0.038
    2  0.003  0.012  0.012  0.012  0.000  0.000  0.000  0.000  0.000  0.038
tot    0.005  0.023  0.023  0.023  0.000  0.000  0.000  0.000  0.000  0.075
 

 k-point     3 :    0.09523810 0.00000000 0.00000000     weight = 0.00086384

band     1 # energy   -6.13777281 # occ.  2.00000000
 
ion      s     py     pz     px    dxy    dyz    dz2    dxz  x2-y2    tot
    1  0.212  0.000  0.000  0.000  0.000  0.000  0.000  0.000  0.000  0.213
    2  0.212  0.000  0.000  0.000  0.000  0.000  0.000  0.000  0.000  0.213
tot    0.424  0.001  0.001  0.001  0.000  0.000  0.000  0.000  0.000  0.426
 
band     2 # energy    4.39720260 # occ.  2.00000000
 
ion      s     py     pz     px    dxy    dyz    dz2    dxz  x2-y2    tot
    1  0.054  0.056  0.056  0.056  0.000  0.000  0.000  0.000  0.000  0.222
    2  0.054  0.056  0.056  0.056  0.000  0.000  0.000  0.000  0.000  0.222
tot    0.107  0.112  0.112  0.112  0.000  0.000  0.000  0.000  0.000  0.444
 
band     3 # energy    5.28449927 # occ.  2.00000000
 
ion      s     py     pz     px    dxy    dyz    dz2    dxz  x2-y2    tot
    1  0.000  0.036  0.036  0.142  0.000  0.000  0.000  0.000  0.000  0.213
    2  0.000  0.036  0.036  0.142  0.000  0.000  0.000  0.000  0.000  0.213
tot    0.000  0.071  0.071  0.284  0.000  0.000  0.000  0.000  0.000  0.427
 
band     4 # energy    5.28450056 # occ.  2.00000000
 
ion      s     py     pz     px    dxy    dyz    dz2    dxz  x2-y2    tot
    1  0.000  0.107  0.107  0.000  0.000  0.000  0.000  0.000  0.000  0.213
    2  0.000  0.107  0.107  0.000  0.000  0.000  0.000  0.000  0.000  0.213
tot    0.000  0.213  0.213  0.000  0.000  0.000  0.000  0.000  0.000  0.427
 
band     5 # energy    7.94656274 # occ.  0.00000000
 
ion      s     py     pz     px    dxy    dyz    dz2    dxz  x2-y2    tot
    1  0.101  0.033  0.033  0.033  0.000  0.000  0.000  0.000  0.000  0.200
    2  0.101  0.033  0.033  0.033  0.000  0.000  0.000  0.000  0.000  0.200
tot    0.202  0.066  0.066  0.066  0.000  0.000  0.000  0.000  0.000  0.401
 
band     6 # energy    8.27027214 # occ.  0.00000000
 
ion      s     py     pz     px    dxy    dyz    dz2    dxz  x2-y2    tot
    1  0.000  0.026  0.026  0.104  0.000  0.000  0.000  0.000  0.000  0.156
    2  0.000  0.026  0.026  0.104  0.000  0.000  0.000  0.000  0.000  0.156
tot    0.000  0.052  0.052  0.207  0.000  0.000  0.000  0.000  0.000  0.311
 
band     7 # energy    8.27027327 # occ.  0.00000000
 
ion      s     py     pz     px    dxy    dyz    dz2    dxz  x2-y2    tot
    1  0.000  0.078  0.078  0.000  0.000  0.000  0.000  0.000  0.000  0.156
    2  0.000  0.078  0.078  0.000  0.000  0.000  0.000  0.000  0.000  0.156
tot    0.000  0.156  0.156  0.000  0.000  0.000  0.000  0.000  0.000  0.311
 
band     8 # energy    9.33049164 # occ.  0.00000000
 
ion      s     py     pz     px    dxy    dyz    dz2    dxz  x2-y2    tot
    1  0.214  0.029  0.029  0.029  0.000  0.000  0.000  0.000  0.000  0.300
    2  0.214  0.029  0.029  0.029  0.000  0.000  0.000  0.000  0.000  0.300
tot    0.429  0.057  0.057  0.057  0.000  0.000  0.000  0.000  0.000  0.600
 
band     9 # energy   12.90309417 # occ.  0.00000000
 
ion      s     py     pz     px    dxy    dyz    dz2    dxz  x2-y2    tot
    1  0.000  0.000  0.000  0.001  0.000  0.000  0.000  0.000  0.000  0.001
    2  0.000  0.000  0.000  0.001  0.000  0.000  0.000  0.000  0.000  0.001
tot    0.000  0.000  0.000  0.002  0.000  0.000  0.000  0.000  0.000  0.003
 
band    10 # energy   12.90309419 # occ.  0.00000000
 
ion      s     py     pz     px    dxy    dyz    dz2    dxz  x2-y2    tot
    1  0.000  0.001  0.001  0.000  0.000  0.000  0.000  0.000  0.000  0.001
    2  0.000  0.001  0.001  0.000  0.000  0.000  0.000  0.000  0.000  0.001
tot    0.000  0.001  0.001  0.000  0.000  0.000  0.000  0.000  0.000  0.003
 
band    11 # energy   13.73980149 # occ.  0.00000000
 
ion      s     py     pz     px    dxy    dyz    dz2    dxz  x2-y2    tot
    1  0.087  0.007  0.007  0.007  0.000  0.000  0.000  0.000  0.000  0.107
    2  0.087  0.007  0.007  0.007  0.000  0.000  0.000  0.000  0.000  0.107
tot    0.173  0.014  0.014  0.014  0.000  0.000  0.000  0.000  0.000  0.214
 
band    12 # energy   16.21699190 # occ.  0.00000000
 
ion      s     py     pz     px    dxy    dyz    dz2    dxz  x2-y2    tot
    1  0.009  0.009  0.009  0.009  0.000  0.000  0.000  0.000  0.000  0.036
    2  0.009  0.009  0.009  0.009  0.000  0.000  0.000  0.000  0.000  0.036
tot    0.018  0.018  0.018  0.018  0.000  0.000  0.000  0.000  0.000  0.072
 

 k-point     4 :    0.14285714 0.00000000 0.00000000     weight = 0.00086384

band     1 # energy   -5.99530216 # occ.  2.00000000
 
ion      s     py     pz     px    dxy    dyz    dz2    dxz  x2-y2    tot
    1  0.211  0.001  0.001  0.001  0.000  0.000  0.000  0.000  0.000  0.214
    2  0.211  0.001  0.001  0.001  0.000  0.000  0.000  0.000  0.000  0.214
tot    0.422  0.002  0.002  0.002  0.000  0.000  0.000  0.000  0.000  0.428
 
band     2 # energy    3.54044306 # occ.  2.00000000
 
ion      s     py     pz     px    dxy    dyz    dz2    dxz  x2-y2    tot
    1  0.074  0.049  0.049  0.049  0.000  0.000  0.000  0.000  0.000  0.221
    2  0.074  0.049  0.049  0.049  0.000  0.000  0.000  0.000  0.000  0.221
tot    0.148  0.098  0.098  0.098  0.000  0.000  0.000  0.000  0.000  0.443
 
band     3 # energy    5.11470191 # occ.  2.00000000
 
ion      s     py     pz     px    dxy    dyz    dz2    dxz  x2-y2    tot
    1  0.000  0.035  0.035  0.142  0.000  0.000  0.000  0.000  0.000  0.212
    2  0.000  0.035  0.035  0.142  0.000  0.000  0.000  0.000  0.000  0.212
tot    0.000  0.071  0.071  0.283  0.000  0.000  0.000  0.000  0.000  0.425
 
band     4 # energy    5.11470319 # occ.  2.00000000
 
ion      s     py     pz     px    dxy    dyz    dz2    dxz  x2-y2    tot
    1  0.000  0.106  0.106  0.000  0.000  0.000  0.000  0.000  0.000  0.212
    2  0.000  0.106  0.106  0.000  0.000  0.000  0.000  0.000  0.000  0.212
tot    0.000  0.212  0.212  0.000  0.000  0.000  0.000  0.000  0.000  0.425
 
band     5 # energy    7.77981172 # occ.  0.00000000
 
ion      s     py     pz     px    dxy    dyz    dz2    dxz  x2-y2    tot
    1  0.127  0.027  0.027  0.027  0.000  0.000  0.000  0.000  0.000  0.207
    2  0.127  0.027  0.027  0.027  0.000  0.000  0.000  0.000  0.000  0.207
tot    0.254  0.053  0.053  0.053  0.000  0.000  0.000  0.000  0.000  0.413
 
band     6 # energy    8.51657088 # occ.  0.00000000
 
ion      s     py     pz     px    dxy    dyz    dz2    dxz  x2-y2    tot
    1  0.000  0.026  0.026  0.104  0.000  0.000  0.000  0.000  0.000  0.156
    2  0.000  0.026  0.026  0.104  0.000  0.000  0.000  0.000  0.000  0.156
tot    0.000  0.052  0.052  0.208  0.000  0.000  0.000  0.000  0.000  0.312
 
band     7 # energy    8.51657203 # occ.  0.00000000
 
ion      s     py     pz     px    dxy    dyz    dz2    dxz  x2-y2    tot
    1  0.000  0.078  0.078  0.000  0.000  0.000  0.000  0.000  0.000  0.156
    2  0.000  0.078  0.078  0.000  0.000  0.000  0.000  0.000  0.000  0.156
tot    0.000  0.156  0.156  0.000  0.000  0.000  0.000  0.000  0.000  0.312
 
band     8 # energy   10.16257724 # occ.  0.00000000
 
ion      s     py     pz     px    dxy    dyz    dz2    dxz  x2-y2    tot
    1  0.173  0.038  0.038  0.038  0.000  0.000  0.000  0.000  0.000  0.286
    2  0.173  0.038  0.038  0.038  0.000  0.000  0.000  0.000  0.000  0.286
tot    0.346  0.075  0.075  0.075  0.000  0.000  0.000  0.000  0.000  0.572
 
band     9 # energy   12.67712574 # occ.  0.00000000
 
ion      s     py     pz     px    dxy    dyz    dz2    dxz  x2-y2    tot
    1  0.000  0.000  0.000  0.002  0.000  0.000  0.000  0.000  0.000  0.002
    2  0.000  0.000  0.000  0.002  0.000  0.000  0.000  0.000  0.000  0.002
tot    0.000  0.001  0.001  0.003  0.000  0.000  0.000  0.000  0.000  0.005
 
band    10 # energy   12.67712577 # occ.  0.00000000
 
ion      s     py     pz     px    dxy    dyz    dz2    dxz  x2-y2    tot
    1  0.000  0.001  0.001  0.000  0.000  0.000  0.000  0.000  0.000  0.002
    2  0.000  0.001  0.001  0.000  0.000  0.000  0.000  0.000  0.000  0.002
tot    0.000  0.002  0.002  0.000  0.000  0.000  0.000  0.000  0.000  0.005
 
band    11 # energy   14.19902834 # occ.  0.00000000
 
ion      s     py     pz     px    dxy    dyz    dz2    dxz  x2-y2    tot
    1  0.071  0.013  0.013  0.013  0.000  0.000  0.000  0.000  0.000  0.109
    2  0.071  0.013  0.013  0.013  0.000  0.000  0.000  0.000  0.000  0.109
tot    0.141  0.026  0.026  0.026  0.000  0.000  0.000  0.000  0.000  0.219
 
band    12 # energy   15.98925820 # occ.  0.00000000
 
ion      s     py     pz     px    dxy    dyz    dz2    dxz  x2-y2    tot
    1  0.019  0.007  0.007  0.007  0.000  0.000  0.000  0.000  0.000  0.039
    2  0.019  0.007  0.007  0.007  0.000  0.000  0.000  0.000  0.000  0.039
tot    0.038  0.013  0.013  0.013  0.000  0.000  0.000  0.000  0.000  0.078
 

 k-point     5 :    0.19047619 0.00000000 0.00000000     weight = 0.00086384

band     1 # energy   -5.79818499 # occ.  2.00000000
 
ion      s     py     pz     px    dxy    dyz    dz2    dxz  x2-y2    tot
    1  0.210  0.002  0.002  0.002  0.000  0.000  0.000  0.000  0.000  0.215
    2  0.210  0.002  0.002  0.002  0.000  0.000  0.000  0.000  0.000  0.215
tot    0.421  0.003  0.003  0.003  0.000  0.000  0.000  0.000  0.000  0.430
 
band     2 # energy    2.66282003 # occ.  2.00000000
 
ion      s     py     pz     px    dxy    dyz    dz2    dxz  x2-y2    tot
    1  0.088  0.044  0.044  0.044  0.000  0.000  0.000  0.000  0.000  0.220
    2  0.088  0.044  0.044  0.044  0.000  0.000  0.000  0.000  0.000  0.220
tot    0.176  0.088  0.088  0.088  0.000  0.000  0.000  0.000  0.000  0.440
 
band     3 # energy    4.93304918 # occ.  2.00000000
 
ion      s     py     pz     px    dxy    dyz    dz2    dxz  x2-y2    tot
    1  0.000  0.035  0.035  0.141  0.000  0.000  0.000  0.000  0.000  0.212
    2  0.000  0.035  0.035  0.141  0.000  0.000  0.000  0.000  0.000  0.212
tot    0.000  0.071  0.071  0.282  0.000  0.000  0.000  0.000  0.000  0.424
 
band     4 # energy    4.93305044 # occ.  2.00000000
 
ion      s     py     pz     px    dxy    dyz    dz2    dxz  x2-y2    tot
    1  0.000  0.106  0.106  0.000  0.000  0.000  0.000  0.000  0.000  0.212
    2  0.000  0.106  0.106  0.000  0.000  0.000  0.000  0.000  0.000  0.212
tot    0.000  0.212  0.212  0.000  0.000  0.000  0.000  0.000  0.000  0.424
 
band     5 # energy    7.58982542 # occ.  0.00000000
 
ion      s     py     pz     px    dxy    dyz    dz2    dxz  x2-y2    tot
    1  0.144  0.021  0.021  0.021  0.000  0.000  0.000  0.000  0.000  0.208
    2  0.144  0.021  0.021  0.021  0.000  0.000  0.000  0.000  0.000  0.208
tot    0.287  0.043  0.043  0.043  0.000  0.000  0.000  0.000  0.000  0.416
 
band     6 # energy    8.75260129 # occ.  0.00000000
 
ion      s     py     pz     px    dxy    dyz    dz2    dxz  x2-y2    tot
    1  0.000  0.026  0.026  0.102  0.000  0.000  0.000  0.000  0.000  0.153
    2  0.000  0.026  0.026  0.102  0.000  0.000  0.000  0.000  0.000  0.153
tot    0.000  0.051  0.051  0.204  0.000  0.000  0.000  0.000  0.000  0.306
 
band     7 # energy    8.75260243 # occ.  0.00000000
 
ion      s     py     pz     px    dxy    dyz    dz2    dxz  x2-y2    tot
    1  0.000  0.077  0.077  0.000  0.000  0.000  0.000  0.000  0.000  0.153
    2  0.000  0.077  0.077  0.000  0.000  0.000  0.000  0.000  0.000  0.153
tot    0.000  0.153  0.153  0.000  0.000  0.000  0.000  0.000  0.000  0.306
 
band     8 # energy   11.02118747 # occ.  0.00000000
 
ion      s     py     pz     px    dxy    dyz    dz2    dxz  x2-y2    tot
    1  0.145  0.044  0.044  0.044  0.000  0.000  0.000  0.000  0.000  0.277
    2  0.145  0.044  0.044  0.044  0.000  0.000  0.000  0.000  0.000  0.277
tot    0.290  0.088  0.088  0.088  0.000  0.000  0.000  0.000  0.000  0.553
 
band     9 # energy   12.56117641 # occ.  0.00000000
 
ion      s     py     pz     px    dxy    dyz    dz2    dxz  x2-y2    tot
    1  0.000  0.001  0.001  0.004  0.000  0.000  0.000  0.000  0.000  0.005
    2  0.000  0.001  0.001  0.004  0.000  0.000  0.000  0.000  0.000  0.005
tot    0.000  0.002  0.002  0.007  0.000  0.000  0.000  0.000  0.000  0.011
 
band    10 # energy   12.56117647 # occ.  0.00000000
 
ion      s     py     pz     px    dxy    dyz    dz2    dxz  x2-y2    tot
    1  0.000  0.003  0.003  0.000  0.000  0.000  0.000  0.000  0.000  0.005
    2  0.000  0.003  0.003  0.000  0.000  0.000  0.000  0.000  0.000  0.005
tot    0.000  0.005  0.005  0.000  0.000  0.000  0.000  0.000  0.000  0.011
 
band    11 # energy   14.46568228 # occ.  0.00000000
 
ion      s     py     pz     px    dxy    dyz    dz2    dxz  x2-y2    tot
    1  0.050  0.014  0.014  0.014  0.000  0.000  0.000  0.000  0.000  0.091
    2  0.050  0.014  0.014  0.014  0.000  0.000  0.000  0.000  0.000  0.091
tot    0.100  0.028  0.028  0.028  0.000  0.000  0.000  0.000  0.000  0.183
 
band    12 # energy   16.14417301 # occ.  0.00000000
 
ion      s     py     pz     px    dxy    dyz    dz2    dxz  x2-y2    tot
    1  0.034  0.011  0.011  0.011  0.000  0.000  0.000  0.000  0.000  0.065
    2  0.034  0.011  0.011  0.011  0.000  0.000  0.000  0.000  0.000  0.065
tot    0.067  0.021  0.021  0.021  0.000  0.000  0.000  0.000  0.000  0.131
 

 k-point     6 :    0.23809524 0.00000000 0.00000000     weight = 0.00086384

band     1 # energy   -5.54951192 # occ.  2.00000000
 
ion      s     py     pz     px    dxy    dyz    dz2    dxz  x2-y2    tot
    1  0.210  0.002  0.002  0.002  0.000  0.000  0.000  0.000  0.000  0.217
    2  0.210  0.002  0.002  0.002  0.000  0.000  0.000  0.000  0.000  0.217
tot    0.420  0.005  0.005  0.005  0.000  0.000  0.000  0.000  0.000  0.434
 
band     2 # energy    1.80326879 # occ.  2.00000000
 
ion      s     py     pz     px    dxy    dyz    dz2    dxz  x2-y2    tot
    1  0.097  0.040  0.040  0.040  0.000  0.000  0.000  0.000  0.000  0.217
    2  0.097  0.040  0.040  0.040  0.000  0.000  0.000  0.000  0.000  0.217
tot    0.195  0.079  0.079  0.079  0.000  0.000  0.000  0.000  0.000  0.433
 
band     3 # energy    4.76075236 # occ.  2.00000000
 
ion      s     py     pz     px    dxy    dyz    dz2    dxz  x2-y2    tot
    1  0.000  0.035  0.035  0.141  0.000  0.000  0.000  0.000  0.000  0.212
    2  0.000  0.035  0.035  0.141  0.000  0.000  0.000  0.000  0.000  0.212
tot    0.000  0.071  0.071  0.283  0.000  0.000  0.000  0.000  0.000  0.424
 
band     4 # energy    4.76075363 # occ.  2.00000000
 
ion      s     py     pz     px    dxy    dyz    dz2    dxz  x2-y2    tot
    1  0.000  0.106  0.106  0.000  0.000  0.000  0.000  0.000  0.000  0.212
    2  0.000  0.106  0.106  0.000  0.000  0.000  0.000  0.000  0.000  0.212
tot    0.000  0.212  0.212  0.000  0.000  0.000  0.000  0.000  0.000  0.424
 
band     5 # energy    7.40461417 # occ.  0.00000000
 
ion      s     py     pz     px    dxy    dyz    dz2    dxz  x2-y2    tot
    1  0.156  0.017  0.017  0.017  0.000  0.000  0.000  0.000  0.000  0.208
    2  0.156  0.017  0.017  0.017  0.000  0.000  0.000  0.000  0.000  0.208
tot    0.312  0.035  0.035  0.035  0.000  0.000  0.000  0.000  0.000  0.417
 
band     6 # energy    8.91662447 # occ.  0.00000000
 
ion      s     py     pz     px    dxy    dyz    dz2    dxz  x2-y2    tot
    1  0.000  0.024  0.024  0.096  0.000  0.000  0.000  0.000  0.000  0.144
    2  0.000  0.024  0.024  0.096  0.000  0.000  0.000  0.000  0.000  0.144
tot    0.000  0.048  0.048  0.192  0.000  0.000  0.000  0.000  0.000  0.288
 
band     7 # energy    8.91662555 # occ.  0.00000000
 
ion      s     py     pz     px    dxy    dyz    dz2    dxz  x2-y2    tot
    1  0.000  0.072  0.072  0.000  0.000  0.000  0.000  0.000  0.000  0.144
    2  0.000  0.072  0.072  0.000  0.000  0.000  0.000  0.000  0.000  0.144
tot    0.000  0.144  0.144  0.000  0.000  0.000  0.000  0.000  0.000  0.288
 
band     8 # energy   11.86780341 # occ.  0.00000000
 
ion      s     py     pz     px    dxy    dyz    dz2    dxz  x2-y2    tot
    1  0.117  0.050  0.050  0.050  0.000  0.000  0.000  0.000  0.000  0.268
    2  0.117  0.050  0.050  0.050  0.000  0.000  0.000  0.000  0.000  0.268
tot    0.235  0.100  0.100  0.100  0.000  0.000  0.000  0.000  0.000  0.535
 
band     9 # energy   12.62942297 # occ.  0.00000000
 
ion      s     py     pz     px    dxy    dyz    dz2    dxz  x2-y2    tot
    1  0.000  0.002  0.002  0.009  0.000  0.000  0.000  0.000  0.000  0.013
    2  0.000  0.002  0.002  0.009  0.000  0.000  0.000  0.000  0.000  0.013
tot    0.000  0.004  0.004  0.018  0.000  0.000  0.000  0.000  0.000  0.026
 
band    10 # energy   12.62942311 # occ.  0.00000000
 
ion      s     py     pz     px    dxy    dyz    dz2    dxz  x2-y2    tot
    1  0.000  0.007  0.007  0.000  0.000  0.000  0.000  0.000  0.000  0.013
    2  0.000  0.007  0.007  0.000  0.000  0.000  0.000  0.000  0.000  0.013
tot    0.000  0.013  0.013  0.000  0.000  0.000  0.000  0.000  0.000  0.026
 
band    11 # energy   14.38062047 # occ.  0.00000000
 
ion      s     py     pz     px    dxy    dyz    dz2    dxz  x2-y2    tot
    1  0.044  0.009  0.009  0.009  0.000  0.000  0.000  0.000  0.000  0.071
    2  0.044  0.009  0.009  0.009  0.000  0.000  0.000  0.000  0.000  0.071
tot    0.088  0.018  0.018  0.018  0.000  0.000  0.000  0.000  0.000  0.141
 
band    12 # energy   16.85128613 # occ.  0.00000000
 
ion      s     py     pz     px    dxy    dyz    dz2    dxz  x2-y2    tot
    1  0.037  0.022  0.022  0.022  0.000  0.000  0.000  0.000  0.000  0.102
    2  0.037  0.022  0.022  0.022  0.000  0.000  0.000  0.000  0.000  0.102
tot    0.073  0.043  0.043  0.043  0.000  0.000  0.000  0.000  0.000  0.204
 

 k-point     7 :    0.28571429 0.00000000 0.00000000     weight = 0.00086384

band     1 # energy   -5.25484765 # occ.  2.00000000
 
ion      s     py     pz     px    dxy    dyz    dz2    dxz  x2-y2    tot
    1  0.210  0.003  0.003  0.003  0.000  0.000  0.000  0.000  0.000  0.219
    2  0.210  0.003  0.003  0.003  0.000  0.000  0.000  0.000  0.000  0.219
tot    0.419  0.006  0.006  0.006  0.000  0.000  0.000  0.000  0.000  0.438
 
band     2 # energy    0.98562452 # occ.  2.00000000
 
ion      s     py     pz     px    dxy    dyz    dz2    dxz  x2-y2    tot
    1  0.104  0.036  0.036  0.036  0.000  0.000  0.000  0.000  0.000  0.213
    2  0.104  0.036  0.036  0.036  0.000  0.000  0.000  0.000  0.000  0.213
tot    0.209  0.073  0.073  0.073  0.000  0.000  0.000  0.000  0.000  0.427
 
band     3 # energy    4.60942542 # occ.  2.00000000
 
ion      s     py     pz     px    dxy    dyz    dz2    dxz  x2-y2    tot
    1  0.000  0.035  0.035  0.142  0.000  0.000  0.000  0.000  0.000  0.213
    2  0.000  0.035  0.035  0.142  0.000  0.000  0.000  0.000  0.000  0.213
tot    0.000  0.071  0.071  0.284  0.000  0.000  0.000  0.000  0.000  0.426
 
band     4 # energy    4.60942668 # occ.  2.00000000
 
ion      s     py     pz     px    dxy    dyz    dz2    dxz  x2-y2    tot
    1  0.000  0.106  0.106  0.000  0.000  0.000  0.000  0.000  0.000  0.213
    2  0.000  0.106  0.106  0.000  0.000  0.000  0.000  0.000  0.000  0.213
tot    0.000  0.213  0.213  0.000  0.000  0.000  0.000  0.000  0.000  0.426
 
band     5 # energy    7.23539696 # occ.  0.00000000
 
ion      s     py     pz     px    dxy    dyz    dz2    dxz  x2-y2    tot
    1  0.166  0.014  0.014  0.014  0.000  0.000  0.000  0.000  0.000  0.208
    2  0.166  0.014  0.014  0.014  0.000  0.000  0.000  0.000  0.000  0.208
tot    0.332  0.028  0.028  0.028  0.000  0.000  0.000  0.000  0.000  0.416
 
band     6 # energy    8.98282312 # occ.  0.00000000
 
ion      s     py     pz     px    dxy    dyz    dz2    dxz  x2-y2    tot
    1  0.000  0.022  0.022  0.087  0.000  0.000  0.000  0.000  0.000  0.131
    2  0.000  0.022  0.022  0.087  0.000  0.000  0.000  0.000  0.000  0.131
tot    0.000  0.044  0.044  0.175  0.000  0.000  0.000  0.000  0.000  0.262
 
band     7 # energy    8.98282411 # occ.  0.00000000
 
ion      s     py     pz     px    dxy    dyz    dz2    dxz  x2-y2    tot
    1  0.000  0.066  0.066  0.000  0.000  0.000  0.000  0.000  0.000  0.131
    2  0.000  0.066  0.066  0.000  0.000  0.000  0.000  0.000  0.000  0.131
tot    0.000  0.131  0.131  0.000  0.000  0.000  0.000  0.000  0.000  0.262
 
band     8 # energy   12.64236634 # occ.  0.00000000
 
ion      s     py     pz     px    dxy    dyz    dz2    dxz  x2-y2    tot
    1  0.080  0.055  0.055  0.055  0.000  0.000  0.000  0.000  0.000  0.244
    2  0.080  0.055  0.055  0.055  0.000  0.000  0.000  0.000  0.000  0.244
tot    0.160  0.109  0.109  0.109  0.000  0.000  0.000  0.000  0.000  0.488
 
band     9 # energy   12.92789000 # occ.  0.00000000
 
ion      s     py     pz     px    dxy    dyz    dz2    dxz  x2-y2    tot
    1  0.000  0.004  0.004  0.016  0.000  0.000  0.000  0.000  0.000  0.024
    2  0.000  0.004  0.004  0.016  0.000  0.000  0.000  0.000  0.000  0.024
tot    0.000  0.008  0.008  0.032  0.000  0.000  0.000  0.000  0.000  0.048
 
band    10 # energy   12.92789023 # occ.  0.00000000
 
ion      s     py     pz     px    dxy    dyz    dz2    dxz  x2-y2    tot
    1  0.000  0.012  0.012  0.000  0.000  0.000  0.000  0.000  0.000  0.024