       N       E                     dE             d eps       ncg     rms          rms(c)
DAV:   1     0.166046066688E+01    0.16605E+01   -0.33977E+03  2976   0.564E+02
DAV:   2    -0.561361383098E+01   -0.72741E+01   -0.68632E+01  3144   0.563E+01
DAV:   3    -0.565095172789E+01   -0.37338E-01   -0.37320E-01  3648   0.493E+00
DAV:   4    -0.565113904463E+01   -0.18732E-03   -0.18732E-03  3636   0.219E-01
DAV:   5    -0.565113981435E+01   -0.76972E-06   -0.76981E-06  3612   0.887E-03    0.817E+00
DAV:   6    -0.558564520983E+01    0.65495E-01   -0.25220E+01  2688   0.483E+01    0.968E+00
DAV:   7    -0.478509794892E+01    0.80055E+00   -0.64272E+00  2688   0.215E+01    0.119E+00
DAV:   8    -0.478344985742E+01    0.16481E-02   -0.33348E-03  2880   0.532E-01    0.722E-01
DAV:   9    -0.478170152926E+01    0.17483E-02   -0.37202E-03  3420   0.413E-01    0.279E-01
DAV:  10    -0.478107950357E+01    0.62203E-03   -0.38622E-03  3504   0.457E-01    0.848E-02
DAV:  11    -0.478112809695E+01   -0.48593E-04   -0.10546E-03  2856   0.250E-01    0.114E-01
DAV:  12    -0.478111807065E+01    0.10026E-04   -0.26192E-04  2964   0.128E-01    0.138E-02
DAV:  13    -0.478111940464E+01   -0.13340E-05   -0.24833E-06  3492   0.105E-02    0.114E-02
DAV:  14    -0.478111920589E+01    0.19876E-06   -0.11473E-06  2904   0.846E-03
   1 F= -.47811192E+01 E0= -.47783652E+01  d E =-.826204E-02  mag=     0.7706
