    1    1    1    1
  0.3125000E+02  0.3535534E-09  0.3535534E-09  0.3535534E-09  0.5000000E-15
  1.000000000000000E-004
  CAR 
 fcc Si bandstructure                    
      4     40     12
 
  0.5000000E+00  0.5000000E+00  0.5000000E+00  0.2500000E-01
    1       -3.811227   1.000000
    2       -0.470970   1.000000
    3        6.148358   0.000000
    4        6.148358   0.000000
    5       10.145310   0.000000
    6       11.515379   0.000000
    7       11.515379   0.000000
    8       14.669480   0.000000
    9       18.781842   0.000000
   10       18.781842   0.000000
   11       20.108393   0.000000
   12       23.083450   0.000000
 
  0.4444444E+00  0.4444444E+00  0.4444444E+00  0.2500000E-01
    1       -3.996740   1.000000
    2       -0.196046   1.000000
    3        6.167426   0.000000
    4        6.167426   0.000000
    5       10.172486   0.000000
    6       11.575084   0.000000
    7       11.575084   0.000000
    8       14.738609   0.000000
    9       18.370867   0.000000
   10       18.370867   0.000000
   11       19.781775   0.000000
   12       23.590120   0.000000
 
  0.3888889E+00  0.3888889E+00  0.3888889E+00  0.2500000E-01
    1       -4.424359   1.000000
    2        0.498525   1.000000
    3        6.224522   0.000000
    4        6.224522   0.000000
    5       10.259855   0.000000
    6       11.749245   0.000000
    7       11.749245   0.000000
    8       14.937691   0.000000
    9       17.501031   0.000000
   10       17.501031   0.000000
   11       19.010164   0.000000
   12       24.752816   0.000000
 
  0.3333333E+00  0.3333333E+00  0.3333333E+00  0.2500000E-01
    1       -4.917341   1.000000
    2        1.430354   1.000000
    3        6.319515   0.000000
    4        6.319515   0.000000
    5       10.413206   0.000000
    6       12.028023   0.000000
    7       12.028023   0.000000
    8       15.231029   0.000000
    9       16.561663   0.000000
   10       16.561663   0.000000
   11       18.102202   0.000000
   12       24.565987   0.000000
 
  0.2777778E+00  0.2777778E+00  0.2777778E+00  0.2500000E-01
    1       -5.386384   1.000000
    2        2.497683   1.000000
    3        6.448092   0.000000
    4        6.448092   0.000000
    5       10.628461   0.000000
    6       12.349058   0.000000
    7       12.349058   0.000000
    8       15.478989   0.000000
    9       15.680669   0.000000
   10       15.680669   0.000000
   11       17.323560   0.000000
   12       22.618953   0.000000
 
  0.2222222E+00  0.2222222E+00  0.2222222E+00  0.2500000E-01
    1       -5.792766   1.000000
    2        3.641092   0.999997
    3        6.603913   0.000000
    4        6.603913   0.000000
    5       10.908373   0.000000
    6       12.619163   0.000000
    7       12.619163   0.000000
    8       15.067828   0.000000
    9       15.067828   0.000000
   10       15.254592   0.000000
   11       17.131146   0.000000
   12       20.797991   0.000000
 
  0.1666667E+00  0.1666667E+00  0.1666667E+00  0.2500000E-01
    1       -6.118904   1.000000
    2        4.803366   0.000000
    3        6.773074   0.000000
    4        6.773074   0.000000
    5       11.253345   0.000000
    6       12.645705   0.000000
    7       12.645705   0.000000
    8       14.539484   0.000000
    9       14.916674   0.000000
   10       14.916674   0.000000
   11       17.423567   0.000000
   12       19.324046   0.000000
 
  0.1111111E+00  0.1111111E+00  0.1111111E+00  0.2500000E-01
    1       -6.356122   1.000000
    2        5.895738   0.000000
    3        6.932342   0.000000
    4        6.932342   0.000000
    5       11.642309   0.000000
    6       12.422655   0.000000
    7       12.422655   0.000000
    8       13.757431   0.000000
    9       15.205226   0.000000
   10       15.205226   0.000000
   11       17.054887   0.000000
   12       19.027206   0.000000
 
  0.5555556E-01  0.5555556E-01  0.5555556E-01  0.2500000E-01
    1       -6.499956   1.000000
    2        6.749969   0.000000
    3        7.049794   0.000000
    4        7.049794   0.000000
    5       11.973626   0.000000
    6       12.186354   0.000000
    7       12.186354   0.000000
    8       13.145236   0.000000
    9       15.620485   0.000000
   10       15.620485   0.000000
   11       16.198570   0.000000
   12       19.661075   0.000000
 
  0.0000000E+00  0.0000000E+00  0.0000000E+00  0.2500000E-01
    1       -6.548012   1.000000
    2        7.093914   0.000000
    3        7.093916   0.000000
    4        7.093916   0.000000
    5       12.096249   0.000000
    6       12.096249   0.000000
    7       12.096249   0.000000
    8       12.927266   0.000000
    9       15.825254   0.000000
   10       15.847326   0.000000
   11       15.847326   0.000000
   12       20.085121   0.000000
 
  0.0000000E+00  0.0000000E+00  0.0000000E+00  0.2500000E-01
    1       -6.548012   1.000000
    2        7.093914   0.000000
    3        7.093916   0.000000
    4        7.093916   0.000000
    5       12.096249   0.000000
    6       12.096249   0.000000
    7       12.096249   0.000000
    8       12.927266   0.000000
    9       15.825254   0.000000
   10       15.847326   0.000000
   11       15.847326   0.000000
   12       20.085121   0.000000
 
  0.0000000E+00  0.5555556E-01  0.5555556E-01  0.2500000E-01
    1       -6.483856   1.000000
    2        6.851475   0.000000
    3        6.927111   0.000000
    4        6.927112   0.000000
    5       11.752396   0.000000
    6       12.337071   0.000000
    7       12.337071   0.000000
    8       13.170326   0.000000
    9       15.263713   0.000000
   10       15.894398   0.000000
   11       16.311503   0.000000
   12       20.123460   0.000000
 
  0.0000000E+00  0.1111111E+00  0.1111111E+00  0.2500000E-01
    1       -6.291945   1.000000
    2        6.232057   0.000000
    3        6.513041   0.000000
    4        6.513042   0.000000
    5       11.028151   0.000000
    6       12.980177   0.000000
    7       12.980177   0.000000
    8       13.242119   0.000000
    9       14.638846   0.000000
   10       16.075623   0.000000
   11       17.462493   0.000000
   12       20.309207   0.000000
 
  0.0000000E+00  0.1666667E+00  0.1666667E+00  0.2500000E-01
    1       -5.974912   1.000000
    2        5.405556   0.000000
    3        5.998435   0.000000
    4        5.998436   0.000000
    5       10.249018   0.000000
    6       12.024255   0.000000
    7       13.860533   0.000000
    8       13.860534   0.000000
    9       15.469149   0.000000
   10       16.372822   0.000000
   11       18.949467   0.000000
   12       20.669738   0.000000
 
  0.0000000E+00  0.2222222E+00  0.2222222E+00  0.2500000E-01
    1       -5.537825   1.000000
    2        4.470758   0.000000
    3        5.484779   0.000000
    4        5.484780   0.000000
    5        9.537734   0.000000
    6       10.663167   0.000000
    7       14.870110   0.000000
    8       14.870111   0.000000
    9       16.705539   0.000000
   10       16.776362   0.000000
   11       20.649876   0.000000
   12       21.195269   0.000000
 
  0.0000000E+00  0.2777778E+00  0.2777778E+00  0.2500000E-01
    1       -4.989404   1.000000
    2        3.472196   1.000000
    3        5.026419   0.000000
    4        5.026420   0.000000
    5        8.936485   0.000000
    6        9.492120   0.000000
    7       15.971874   0.000000
    8       15.971874   0.000000
    9       17.273569   0.000000
   10       18.029624   0.000000
   11       21.927275   0.000000
   12       22.522582   0.000000
 
  0.0000000E+00  0.3333333E+00  0.3333333E+00  0.2500000E-01
    1       -4.348354   1.000000
    2        2.443404   1.000000
    3        4.650920   0.000000
    4        4.650921   0.000000
    5        8.451736   0.000000
    6        8.569712   0.000000
    7       17.076306   0.000000
    8       17.076307   0.000000
    9       17.814588   0.000000
   10       19.283920   0.000000
   11       22.867477   0.000000
   12       23.976897   0.000000
 
  0.0000000E+00  0.3888889E+00  0.3888889E+00  0.2500000E-01
    1       -3.653558   1.000000
    2        1.444438   1.000000
    3        4.375096   0.000000
    4        4.375097   0.000000
    5        7.921420   0.000000
    6        8.107407   0.000000
    7       18.212905   0.000000
    8       18.212906   0.000000
    9       18.372113   0.000000
   10       20.327306   0.000000
   11       23.693672   0.000000
   12       23.694281   0.000000
 
  0.0000000E+00  0.4444444E+00  0.4444444E+00  0.2500000E-01
    1       -3.011060   1.000000
    2        0.605468   1.000000
    3        4.206819   0.000232
    4        4.206820   0.000232
    5        7.536924   0.000000
    6        7.902234   0.000000
    7       18.802013   0.000000
    8       19.288691   0.000000
    9       19.288691   0.000000
   10       21.027860   0.000000
   11       22.680615   0.000000
   12       22.680616   0.000000
 
  0.0000000E+00  0.5000000E+00  0.5000000E+00  0.2500000E-01
    1       -2.706249   1.000000
    2        0.232722   1.000000
    3        4.150279   0.003459
    4        4.150281   0.003459
    5        7.411365   0.000000
    6        7.832597   0.000000
    7       18.969785   0.000000
    8       19.879815   0.000000
    9       19.879815   0.000000
   10       21.278535   0.000000
   11       22.063908   0.000000
   12       22.063909   0.000000
 
  0.0000000E+00  0.5000000E+00  0.5000000E+00  0.2500000E-01
    1       -2.706249   1.000000
    2        0.232722   1.000000
    3        4.150279   0.003459
    4        4.150281   0.003459
    5        7.411365   0.000000
    6        7.832597   0.000000
    7       18.969785   0.000000
    8       19.879815   0.000000
    9       19.879815   0.000000
   10       21.278535   0.000000
   11       22.063908   0.000000
   12       22.063909   0.000000
 
  0.2777778E-01  0.5138889E+00  0.5138889E+00  0.2500000E-01
    1       -2.703975   1.000000
    2        0.240889   1.000000
    3        4.071108   0.056924
    4        4.156961   0.002593
    5        7.457217   0.000000
    6        7.893857   0.000000
    7       18.884211   0.000000
    8       19.720901   0.000000
    9       19.842679   0.000000
   10       21.441835   0.000000
   11       22.016020   0.000000
   12       22.161241   0.000000
 
  0.5555556E-01  0.5277778E+00  0.5277778E+00  0.2500000E-01
    1       -2.697453   1.000000
    2        0.265381   1.000000
    3        3.857541   0.924948
    4        4.176972   0.001041
    5        7.545647   0.000000
    6        8.102979   0.000000
    7       18.654561   0.000000
    8       19.366909   0.000000
    9       19.734059   0.000000
   10       21.808713   0.000000
   11       21.878871   0.000000
   12       22.425981   0.000000
 
  0.8333333E-01  0.5416667E+00  0.5416667E+00  0.2500000E-01
    1       -2.687660   1.000000
    2        0.306174   1.000000
    3        3.557461   1.000000
    4        4.210225   0.000194
    5        7.626219   0.000000
    6        8.458328   0.000000
    7       18.319215   0.000000
    8       18.937671   0.000000
    9       19.560867   0.000000
   10       21.668853   0.000000
   11       22.246520   0.000000
   12       22.803187   0.000000
 
  0.1111111E+00  0.5555556E+00  0.5555556E+00  0.2500000E-01
    1       -2.676177   1.000000
    2        0.363237   1.000000
    3        3.216047   1.000000
    4        4.256589   0.000013
    5        7.704389   0.000000
    6        8.919073   0.000000
    7       17.950027   0.000000
    8       18.497435   0.000000
    9       19.334741   0.000000
   10       21.406153   0.000000
   11       22.712927   0.000000
   12       23.251368   0.000000
 
  0.1388889E+00  0.5694444E+00  0.5694444E+00  0.2500000E-01
    1       -2.665444   1.000000
    2        0.436556   1.000000
    3        2.861907   1.000000
    4        4.315864   0.000000
    5        7.790718   0.000000
    6        9.447526   0.000000
    7       17.560888   0.000000
    8       18.057438   0.000000
    9       19.066589   0.000000
   10       21.109812   0.000000
   11       23.192848   0.000000
   12       23.744780   0.000000
 
  0.1666667E+00  0.5833333E+00  0.5833333E+00  0.2500000E-01
    1       -2.658922   1.000000
    2        0.525932   1.000000
    3        2.514596   1.000000
    4        4.387619   0.000000
    5        7.886577   0.000000
    6       10.009934   0.000000
    7       17.150565   0.000000
    8       17.610049   0.000000
    9       18.752593   0.000000
   10       20.794453   0.000000
   11       23.658954   0.000000
   12       24.254088   0.000000
 
  0.1944444E+00  0.5972222E+00  0.5972222E+00  0.2500000E-01
    1       -2.660732   1.000000
    2        0.631401   1.000000
    3        2.188127   1.000000
    4        4.471754   0.000000
    5        8.000126   0.000000
    6       10.598005   0.000000
    7       16.749326   0.000000
    8       17.168134   0.000000
    9       18.421884   0.000000
   10       20.475425   0.000000
   11       24.108699   0.000000
   12       24.783236   0.000000
 
  0.2222222E+00  0.6111111E+00  0.6111111E+00  0.2500000E-01
    1       -2.676040   1.000000
    2        0.752803   1.000000
    3        1.893900   1.000000
    4        4.567699   0.000000
    5        8.129376   0.000000
    6       11.199843   0.000000
    7       16.361723   0.000000
    8       16.745562   0.000000
    9       18.084042   0.000000
   10       20.163497   0.000000
   11       24.540726   0.000000
   12       24.541701   0.000000
 
  0.2500000E+00  0.6250000E+00  0.6250000E+00  0.2500000E-01
    1       -2.710656   1.000000
    2        0.890011   1.000000
    3        1.641467   1.000000
    4        4.675269   0.000000
    5        8.275179   0.000000
    6       11.805963   0.000000
    7       15.996338   0.000000
    8       16.334718   0.000000
    9       17.737825   0.000000
   10       19.869689   0.000000
   11       24.204065   0.000000
   12       24.906292   0.000000
 
  0.3750000E+00  0.7500000E+00  0.3750000E+00  0.2500000E-01
    1       -2.710656   1.000000
    2        0.890011   1.000000
    3        1.641467   1.000000
    4        4.675269   0.000000
    5        8.275179   0.000000
    6       11.805963   0.000000
    7       15.996338   0.000000
    8       16.334718   0.000000
    9       17.737825   0.000000
   10       19.869689   0.000000
   11       24.204065   0.000000
   12       24.906320   0.000000
 
  0.3333333E+00  0.6666667E+00  0.3333333E+00  0.2500000E-01
    1       -2.979348   1.000000
    2        1.206048   1.000000
    3        1.394481   1.000000
    4        5.057211   0.000000
    5        8.805098   0.000000
    6       13.505332   0.000000
    7       14.961045   0.000000
    8       15.175859   0.000000
    9       16.674142   0.000000
   10       19.230612   0.000000
   11       23.182243   0.000000
   12       24.367091   0.000000
 
  0.2916667E+00  0.5833333E+00  0.2916667E+00  0.2500000E-01
    1       -3.505151   1.000000
    2        1.287197   1.000000
    3        2.033033   1.000000
    4        5.508087   0.000000
    5        9.476951   0.000000
    6       14.124043   0.000000
    7       14.154319   0.000000
    8       14.596002   0.000000
    9       15.674392   0.000000
   10       19.343858   0.000000
   11       22.343885   0.000000
   12       23.164738   0.000000
 
  0.2500000E+00  0.5000000E+00  0.2500000E+00  0.2500000E-01
    1       -4.167032   1.000000
    2        1.775509   1.000000
    3        2.793920   1.000000
    4        5.984222   0.000000
    5       10.263703   0.000000
    6       13.272238   0.000000
    7       13.520466   0.000000
    8       14.711400   0.000000
    9       14.753731   0.000000
   10       19.982238   0.000000
   11       22.056368   0.000000
   12       22.228235   0.000000
 
  0.2083333E+00  0.4166667E+00  0.2083333E+00  0.2500000E-01
    1       -4.831991   1.000000
    2        2.538415   1.000000
    3        3.656802   0.999991
    4        6.425379   0.000000
    5       11.136036   0.000000
    6       12.560212   0.000000
    7       13.230127   0.000000
    8       13.959028   0.000000
    9       14.355739   0.000000
   10       19.716525   0.000000
   11       20.998368   0.000000
   12       21.047931   0.000000
 
  0.1666667E+00  0.3333333E+00  0.1666667E+00  0.2500000E-01
    1       -5.424414   1.000000
    2        3.489815   1.000000
    3        4.585955   0.000000
    4        6.766079   0.000000
    5       11.993960   0.000000
    6       12.031704   0.000000
    7       13.293691   0.000000
    8       13.299734   0.000000
    9       13.987930   0.000000
   10       18.545780   0.000000
   11       19.701574   0.000000
   12       20.064247   0.000000
 
  0.1250000E+00  0.2500000E+00  0.1250000E+00  0.2500000E-01
    1       -5.906985   1.000000
    2        4.565753   0.000000
    3        5.516777   0.000000
    4        6.972015   0.000000
    5       11.727667   0.000000
    6       12.531516   0.000000
    7       12.771073   0.000000
    8       13.750135   0.000000
    9       13.925790   0.000000
   10       16.826319   0.000000
   11       18.939623   0.000000
   12       19.288418   0.000000
 
  0.8333333E-01  0.1666667E+00  0.8333333E-01  0.2500000E-01
    1       -6.260635   1.000000
    2        5.681883   0.000000
    3        6.336075   0.000000
    4        7.063091   0.000000
    5       11.697120   0.000000
    6       12.395271   0.000000
    7       12.524786   0.000000
    8       13.949198   0.000000
    9       14.508339   0.000000
   10       15.691124   0.000000
   11       17.599469   0.000000
   12       19.277703   0.000000
 
  0.4166667E-01  0.8333333E-01  0.4166667E-01  0.2500000E-01
    1       -6.475898   1.000000
    2        6.657909   0.000000
    3        6.897081   0.000000
    4        7.089752   0.000000
    5       11.913935   0.000000
    6       12.168488   0.000000
    7       12.295864   0.000000
    8       13.254547   0.000000
    9       15.367318   0.000000
   10       15.703165   0.000000
   11       16.369087   0.000000
   12       19.679404   0.000000
 
  0.0000000E+00  0.0000000E+00  0.0000000E+00  0.2500000E-01
    1       -6.548012   1.000000
    2        7.093914   0.000000
    3        7.093916   0.000000
    4        7.093916   0.000000
    5       12.096249   0.000000
    6       12.096249   0.000000
    7       12.096249   0.000000
    8       12.927266   0.000000
    9       15.825254   0.000000
   10       15.847326   0.000000
   11       15.847326   0.000000
   12       20.085121   0.000000
