 vasp.5.4.4.18Apr17-6-g9f103f2a35 (build Mar 30 2023 15:39:25) complex          
  
 executed on             LinuxIFC date 2023.05.03  17:30:05
 running on   12 total cores
 distrk:  each k-point on   12 cores,    1 groups
 distr:  one band on NCORES_PER_BAND=   1 cores,   12 groups


--------------------------------------------------------------------------------------------------------


 INCAR:
 POTCAR:    PAW_PBE Ni 02Aug2007                  

 ----------------------------------------------------------------------------- 
|                                                                             |
|           W    W    AA    RRRRR   N    N  II  N    N   GGGG   !!!           |
|           W    W   A  A   R    R  NN   N  II  NN   N  G    G  !!!           |
|           W    W  A    A  R    R  N N  N  II  N N  N  G       !!!           |
|           W WW W  AAAAAA  RRRRR   N  N N  II  N  N N  G  GGG   !            |
|           WW  WW  A    A  R   R   N   NN  II  N   NN  G    G                |
|           W    W  A    A  R    R  N    N  II  N    N   GGGG   !!!           |
|                                                                             |
|      For optimal performance we recommend to set                            |
|        NCORE= 4 - approx SQRT( number of cores)                             |
|      NCORE specifies how many cores store one orbital (NPAR=cpu/NCORE).     |
|      This setting can  greatly improve the performance of VASP for DFT.     |
|      The default,   NCORE=1            might be grossly inefficient         |
|      on modern multi-core architectures or massively parallel machines.     |
|      Do your own testing !!!!                                               |
|      Unfortunately you need to use the default for GW and RPA calculations. |
|      (for HF NCORE is supported but not extensively tested yet)             |
|                                                                             |
 ----------------------------------------------------------------------------- 

 POTCAR:    PAW_PBE Ni 02Aug2007                  
   SHA256 =  0534bc51ca8003dfef23f56753fef9fdd3e22eac8d719fccacb59f3e6b7a69c7 Ni
   COPYR  = (c) Copyright 02Aug2007 Georg Kresse                                
   COPYR  = This file is part of the software VASP. Any use, copying, and all ot
   COPYR  = If you do not have a valid VASP license, you may not use, copy or di
   VRHFIN =Ni:                                                                  
   LEXCH  = PE                                                                  
   EATOM  =  1077.6739 eV,   79.2068 Ry                                         
                                                                                
   TITEL  = PAW_PBE Ni 02Aug2007                                                
   LULTRA =        F    use ultrasoft PP ?                                      
   IUNSCR =        1    unscreen: 0-lin 1-nonlin 2-no                           
   RPACOR =    2.000    partial core radius                                     
   POMASS =   58.690; ZVAL   =   10.000    mass and valenz                      
   RCORE  =    2.300    outmost cutoff radius                                   
   RWIGS  =    2.430; RWIGS  =    1.286    wigner-seitz radius (au A)           
   ENMAX  =  269.532; ENMIN  =  202.149 eV                                      
   RCLOC  =    1.201    cutoff for local pot                                    
   LCOR   =        T    correct aug charges                                     
   LPAW   =        T    paw PP                                                  
   EAUG   =  544.565                                                            
   DEXC   =    0.000                                                            
   RMAX   =    2.357    core radius for proj-oper                               
   RAUG   =    1.300    factor for augmentation sphere                          
   RDEP   =    2.390    radius for radial grids                                 
   RDEPT  =    1.838    core radius for aug-charge                              
                                                                                
   Atomic configuration                                                         
    9 entries                                                                   
     n  l   j            E        occ.                                          
     1  0  0.50     -8206.4253   2.0000                                         
     2  0  0.50      -976.1748   2.0000                                         
     2  1  1.50      -839.0571   6.0000                                         
     3  0  0.50      -105.9991   2.0000                                         
     3  1  1.50       -66.4603   6.0000                                         
     3  2  2.50        -4.6458   9.0000                                         
     4  0  0.50        -4.4926   1.0000                                         
     4  1  1.50        -4.0817   0.0000                                         
     4  3  2.50        -1.3606   0.0000                                         
   Description                                                                  
     l       E           TYP  RCUT    TYP  RCUT                                 
     2     -4.6457903     23  2.300                                             
     2     -6.0063729     23  2.300                                             
     0     -4.4925590     23  2.300                                             
     0      5.0102601     23  2.300                                             
     1     -2.7211652     23  2.300                                             
     1     16.5183231     23  2.300                                             
  local pseudopotential read in
  partial core-charges read in
  partial kinetic energy density read in
  atomic valenz-charges read in
  non local Contribution for L=           2  read in
    real space projection operators read in
  non local Contribution for L=           2  read in
    real space projection operators read in
  non local Contribution for L=           0  read in
    real space projection operators read in
  non local Contribution for L=           0  read in
    real space projection operators read in
  non local Contribution for L=           1  read in
    real space projection operators read in
  non local Contribution for L=           1  read in
    real space projection operators read in
    PAW grid and wavefunctions read in
 
   number of l-projection  operators is LMAX  =           6
   number of lm-projection operators is LMMAX =          18
 
  PAW_PBE Ni 02Aug2007                  :
 energy of atom  1       EATOM=-1077.6739
 kinetic energy error for atom=    0.0378 (will be added to EATOM!!)
 
 
 POSCAR: fcc:                                    
  positions in cartesian coordinates
  No initial velocities read in
 exchange correlation table for  LEXCH =        8
   RHO(1)=    0.500       N(1)  =     2000
   RHO(2)=  100.500       N(2)  =     4000
 


--------------------------------------------------------------------------------------------------------


 ion  position               nearest neighbor table
   1  0.000  0.000  0.000-
 
  LATTYP: Found a face centered cubic cell.
 ALAT       =     3.5300000000
  
  Lattice vectors:
  
 A1 = (   1.7650000000,   1.7650000000,   0.0000000000)
 A2 = (   0.0000000000,   1.7650000000,   1.7650000000)
 A3 = (   1.7650000000,   0.0000000000,   1.7650000000)


Analysis of symmetry for initial positions (statically):
=====================================================================
 Subroutine PRICEL returns:
 Original cell was already a primitive cell.
 

 Routine SETGRP: Setting up the symmetry group for a 
 face centered cubic supercell.


 Subroutine GETGRP returns: Found 48 space group operations
 (whereof 48 operations were pure point group operations)
 out of a pool of 48 trial point group operations.


The static configuration has the point symmetry O_h .


Analysis of symmetry for dynamics (positions and initial velocities):
=====================================================================
 Subroutine PRICEL returns:
 Original cell was already a primitive cell.
 

 Routine SETGRP: Setting up the symmetry group for a 
 face centered cubic supercell.


 Subroutine GETGRP returns: Found 48 space group operations
 (whereof 48 operations were pure point group operations)
 out of a pool of 48 trial point group operations.


The dynamic configuration has the point symmetry O_h .


Analysis of structural, dynamic, and magnetic symmetry:
=====================================================================
 Subroutine PRICEL returns:
 Original cell was already a primitive cell.
 

 Routine SETGRP: Setting up the symmetry group for a 
 face centered cubic supercell.


 Subroutine GETGRP returns: Found 48 space group operations
 (whereof 48 operations were pure point group operations)
 out of a pool of 48 trial point group operations.


The magnetic configuration has the point symmetry O_h .


 Subroutine INISYM returns: Found 48 space group operations
 (whereof 48 operations are pure point group operations),
 and found     1 'primitive' translations

 
 
 KPOINTS: k-points                                

Automatic generation of k-mesh.
Space group operators:
 irot       det(A)        alpha          n_x          n_y          n_z        tau_x        tau_y        tau_z
    1     1.000000     0.000000     1.000000     0.000000     0.000000     0.000000     0.000000     0.000000
    2    -1.000000     0.000000     1.000000     0.000000     0.000000     0.000000     0.000000     0.000000
    3     1.000000   120.000000    -0.577350    -0.577350    -0.577350     0.000000     0.000000     0.000000
    4    -1.000000   120.000000    -0.577350    -0.577350    -0.577350     0.000000     0.000000     0.000000
    5     1.000000   120.000000     0.577350     0.577350     0.577350     0.000000     0.000000     0.000000
    6    -1.000000   120.000000     0.577350     0.577350     0.577350     0.000000     0.000000     0.000000
    7     1.000000    90.000000     0.000000    -1.000000     0.000000     0.000000     0.000000     0.000000
    8    -1.000000    90.000000     0.000000    -1.000000     0.000000     0.000000     0.000000     0.000000
    9     1.000000   180.000000     0.707107     0.707107     0.000000     0.000000     0.000000     0.000000
   10    -1.000000   180.000000     0.707107     0.707107     0.000000     0.000000     0.000000     0.000000
   11     1.000000    90.000000     1.000000     0.000000     0.000000     0.000000     0.000000     0.000000
   12    -1.000000    90.000000     1.000000     0.000000     0.000000     0.000000     0.000000     0.000000
   13     1.000000   180.000000     0.000000     1.000000     0.000000     0.000000     0.000000     0.000000
   14    -1.000000   180.000000     0.000000     1.000000     0.000000     0.000000     0.000000     0.000000
   15     1.000000   120.000000     0.577350     0.577350    -0.577350     0.000000     0.000000     0.000000
   16    -1.000000   120.000000     0.577350     0.577350    -0.577350     0.000000     0.000000     0.000000
   17     1.000000   120.000000     0.577350    -0.577350    -0.577350     0.000000     0.000000     0.000000
   18    -1.000000   120.000000     0.577350    -0.577350    -0.577350     0.000000     0.000000     0.000000
   19     1.000000    90.000000     0.000000     1.000000     0.000000     0.000000     0.000000     0.000000
   20    -1.000000    90.000000     0.000000     1.000000     0.000000     0.000000     0.000000     0.000000
   21     1.000000    90.000000     0.000000     0.000000    -1.000000     0.000000     0.000000     0.000000
   22    -1.000000    90.000000     0.000000     0.000000    -1.000000     0.000000     0.000000     0.000000
   23     1.000000   180.000000     0.000000     0.707107     0.707107     0.000000     0.000000     0.000000
   24    -1.000000   180.000000     0.000000     0.707107     0.707107     0.000000     0.000000     0.000000
   25     1.000000   120.000000    -0.577350     0.577350     0.577350     0.000000     0.000000     0.000000
   26    -1.000000   120.000000    -0.577350     0.577350     0.577350     0.000000     0.000000     0.000000
   27     1.000000   120.000000    -0.577350     0.577350    -0.577350     0.000000     0.000000     0.000000
   28    -1.000000   120.000000    -0.577350     0.577350    -0.577350     0.000000     0.000000     0.000000
   29     1.000000   180.000000     0.000000     0.000000     1.000000     0.000000     0.000000     0.000000
   30    -1.000000   180.000000     0.000000     0.000000     1.000000     0.000000     0.000000     0.000000
   31     1.000000    90.000000    -1.000000     0.000000     0.000000     0.000000     0.000000     0.000000
   32    -1.000000    90.000000    -1.000000     0.000000     0.000000     0.000000     0.000000     0.000000
   33     1.000000   180.000000     0.707107     0.000000     0.707107     0.000000     0.000000     0.000000
   34    -1.000000   180.000000     0.707107     0.000000     0.707107     0.000000     0.000000     0.000000
   35     1.000000    90.000000     0.000000     0.000000     1.000000     0.000000     0.000000     0.000000
   36    -1.000000    90.000000     0.000000     0.000000     1.000000     0.000000     0.000000     0.000000
   37     1.000000   120.000000    -0.577350    -0.577350     0.577350     0.000000     0.000000     0.000000
   38    -1.000000   120.000000    -0.577350    -0.577350     0.577350     0.000000     0.000000     0.000000
   39     1.000000   180.000000     1.000000     0.000000     0.000000     0.000000     0.000000     0.000000
   40    -1.000000   180.000000     1.000000     0.000000     0.000000     0.000000     0.000000     0.000000
   41     1.000000   120.000000     0.577350    -0.577350     0.577350     0.000000     0.000000     0.000000
   42    -1.000000   120.000000     0.577350    -0.577350     0.577350     0.000000     0.000000     0.000000
   43     1.000000   180.000000     0.707107    -0.707107     0.000000     0.000000     0.000000     0.000000
   44    -1.000000   180.000000     0.707107    -0.707107     0.000000     0.000000     0.000000     0.000000
   45     1.000000   180.000000     0.707107     0.000000    -0.707107     0.000000     0.000000     0.000000
   46    -1.000000   180.000000     0.707107     0.000000    -0.707107     0.000000     0.000000     0.000000
   47     1.000000   180.000000     0.000000    -0.707107     0.707107     0.000000     0.000000     0.000000
   48    -1.000000   180.000000     0.000000    -0.707107     0.707107     0.000000     0.000000     0.000000
 
 Subroutine IBZKPT returns following result:
 ===========================================
 
 Found    286 irreducible k-points:
 
 Following reciprocal coordinates:
            Coordinates               Weight
  0.000000  0.000000  0.000000      1.000000
  0.047619  0.000000  0.000000      8.000000
  0.095238  0.000000  0.000000      8.000000
  0.142857  0.000000  0.000000      8.000000
  0.190476  0.000000  0.000000      8.000000
  0.238095  0.000000  0.000000      8.000000
  0.285714  0.000000  0.000000      8.000000
  0.333333  0.000000  0.000000      8.000000
  0.380952  0.000000  0.000000      8.000000
  0.428571  0.000000  0.000000      8.000000
  0.476190  0.000000  0.000000      8.000000
  0.047619  0.047619  0.000000      6.000000
  0.095238  0.047619  0.000000     24.000000
  0.142857  0.047619  0.000000     24.000000
  0.190476  0.047619  0.000000     24.000000
  0.238095  0.047619  0.000000     24.000000
  0.285714  0.047619  0.000000     24.000000
  0.333333  0.047619  0.000000     24.000000
  0.380952  0.047619  0.000000     24.000000
  0.428571  0.047619  0.000000     24.000000
  0.476190  0.047619  0.000000     24.000000
 -0.476190  0.047619  0.000000     24.000000
 -0.428571  0.047619  0.000000     24.000000
 -0.380952  0.047619  0.000000     24.000000
 -0.333333  0.047619  0.000000     24.000000
 -0.285714  0.047619  0.000000     24.000000
 -0.238095  0.047619  0.000000     24.000000
 -0.190476  0.047619  0.000000     24.000000
 -0.142857  0.047619  0.000000     24.000000
 -0.095238  0.047619  0.000000     24.000000
 -0.047619  0.047619  0.000000     12.000000
  0.095238  0.095238  0.000000      6.000000
  0.142857  0.095238  0.000000     24.000000
  0.190476  0.095238  0.000000     24.000000
  0.238095  0.095238  0.000000     24.000000
  0.285714  0.095238  0.000000     24.000000
  0.333333  0.095238  0.000000     24.000000
  0.380952  0.095238  0.000000     24.000000
  0.428571  0.095238  0.000000     24.000000
  0.476190  0.095238  0.000000     24.000000
 -0.476190  0.095238  0.000000     24.000000
 -0.428571  0.095238  0.000000     24.000000
 -0.380952  0.095238  0.000000     24.000000
 -0.333333  0.095238  0.000000     24.000000
 -0.285714  0.095238  0.000000     24.000000
 -0.238095  0.095238  0.000000     24.000000
 -0.190476  0.095238  0.000000     24.000000
 -0.142857  0.095238  0.000000     24.000000
 -0.095238  0.095238  0.000000     12.000000
  0.142857  0.142857  0.000000      6.000000
  0.190476  0.142857  0.000000     24.000000
  0.238095  0.142857  0.000000     24.000000
  0.285714  0.142857  0.000000     24.000000
  0.333333  0.142857  0.000000     24.000000
  0.380952  0.142857  0.000000     24.000000
  0.428571  0.142857  0.000000     24.000000
  0.476190  0.142857  0.000000     24.000000
 -0.476190  0.142857  0.000000     24.000000
 -0.428571  0.142857  0.000000     24.000000
 -0.380952  0.142857  0.000000     24.000000
 -0.333333  0.142857  0.000000     24.000000
 -0.285714  0.142857  0.000000     24.000000
 -0.238095  0.142857  0.000000     24.000000
 -0.190476  0.142857  0.000000     24.000000
 -0.142857  0.142857  0.000000     12.000000
  0.190476  0.190476  0.000000      6.000000
  0.238095  0.190476  0.000000     24.000000
  0.285714  0.190476  0.000000     24.000000
  0.333333  0.190476  0.000000     24.000000
  0.380952  0.190476  0.000000     24.000000
  0.428571  0.190476  0.000000     24.000000
  0.476190  0.190476  0.000000     24.000000
 -0.476190  0.190476  0.000000     24.000000
 -0.428571  0.190476  0.000000     24.000000
 -0.380952  0.190476  0.000000     24.000000
 -0.333333  0.190476  0.000000     24.000000
 -0.285714  0.190476  0.000000     24.000000
 -0.238095  0.190476  0.000000     24.000000
 -0.190476  0.190476  0.000000     12.000000
  0.238095  0.238095  0.000000      6.000000
  0.285714  0.238095  0.000000     24.000000
  0.333333  0.238095  0.000000     24.000000
  0.380952  0.238095  0.000000     24.000000
  0.428571  0.238095  0.000000     24.000000
  0.476190  0.238095  0.000000     24.000000
 -0.476190  0.238095  0.000000     24.000000
 -0.428571  0.238095  0.000000     24.000000
 -0.380952  0.238095  0.000000     24.000000
 -0.333333  0.238095  0.000000     24.000000
 -0.285714  0.238095  0.000000     24.000000
 -0.238095  0.238095  0.000000     12.000000
  0.285714  0.285714  0.000000      6.000000
  0.333333  0.285714  0.000000     24.000000
  0.380952  0.285714  0.000000     24.000000
  0.428571  0.285714  0.000000     24.000000
  0.476190  0.285714  0.000000     24.000000
 -0.476190  0.285714  0.000000     24.000000
 -0.428571  0.285714  0.000000     24.000000
 -0.380952  0.285714  0.000000     24.000000
 -0.333333  0.285714  0.000000     24.000000
 -0.285714  0.285714  0.000000     12.000000
  0.333333  0.333333  0.000000      6.000000
  0.380952  0.333333  0.000000     24.000000
  0.428571  0.333333  0.000000     24.000000
  0.476190  0.333333  0.000000     24.000000
 -0.476190  0.333333  0.000000     24.000000
 -0.428571  0.333333  0.000000     24.000000
 -0.380952  0.333333  0.000000     24.000000
 -0.333333  0.333333  0.000000     12.000000
  0.380952  0.380952  0.000000      6.000000
  0.428571  0.380952  0.000000     24.000000
  0.476190  0.380952  0.000000     24.000000
 -0.476190  0.380952  0.000000     24.000000
 -0.428571  0.380952  0.000000     24.000000
 -0.380952  0.380952  0.000000     12.000000
  0.428571  0.428571  0.000000      6.000000
  0.476190  0.428571  0.000000     24.000000
 -0.476190  0.428571  0.000000     24.000000
 -0.428571  0.428571  0.000000     12.000000
  0.476190  0.476190  0.000000      6.000000
 -0.476190  0.476190  0.000000     12.000000
  0.142857  0.095238  0.047619     24.000000
  0.190476  0.095238  0.047619     48.000000
  0.238095  0.095238  0.047619     48.000000
  0.285714  0.095238  0.047619     48.000000
  0.333333  0.095238  0.047619     48.000000
  0.380952  0.095238  0.047619     48.000000
  0.428571  0.095238  0.047619     48.000000
  0.476190  0.095238  0.047619     48.000000
 -0.476190  0.095238  0.047619     48.000000
  0.190476  0.142857  0.047619     24.000000
  0.238095  0.142857  0.047619     48.000000
  0.285714  0.142857  0.047619     48.000000
  0.333333  0.142857  0.047619     48.000000
  0.380952  0.142857  0.047619     48.000000
  0.428571  0.142857  0.047619     48.000000
  0.476190  0.142857  0.047619     48.000000
 -0.476190  0.142857  0.047619     48.000000
 -0.428571  0.142857  0.047619     48.000000
 -0.380952  0.142857  0.047619     48.000000
 -0.333333  0.142857  0.047619     48.000000
 -0.285714  0.142857  0.047619     48.000000
 -0.238095  0.142857  0.047619     48.000000
 -0.190476  0.142857  0.047619     48.000000
 -0.142857  0.142857  0.047619     48.000000
 -0.095238  0.142857  0.047619     24.000000
  0.238095  0.190476  0.047619     24.000000
  0.285714  0.190476  0.047619     48.000000
  0.333333  0.190476  0.047619     48.000000
  0.380952  0.190476  0.047619     48.000000
  0.428571  0.190476  0.047619     48.000000
  0.476190  0.190476  0.047619     48.000000
 -0.476190  0.190476  0.047619     48.000000
 -0.428571  0.190476  0.047619     48.000000
 -0.380952  0.190476  0.047619     48.000000
 -0.333333  0.190476  0.047619     48.000000
 -0.285714  0.190476  0.047619     48.000000
 -0.238095  0.190476  0.047619     48.000000
 -0.190476  0.190476  0.047619     48.000000
 -0.142857  0.190476  0.047619     24.000000
  0.285714  0.238095  0.047619     24.000000
  0.333333  0.238095  0.047619     48.000000
  0.380952  0.238095  0.047619     48.000000
  0.428571  0.238095  0.047619     48.000000
  0.476190  0.238095  0.047619     48.000000
 -0.476190  0.238095  0.047619     48.000000
 -0.428571  0.238095  0.047619     48.000000
 -0.380952  0.238095  0.047619     48.000000
 -0.333333  0.238095  0.047619     48.000000
 -0.285714  0.238095  0.047619     48.000000
 -0.238095  0.238095  0.047619     48.000000
 -0.190476  0.238095  0.047619     24.000000
  0.333333  0.285714  0.047619     24.000000
  0.380952  0.285714  0.047619     48.000000
  0.428571  0.285714  0.047619     48.000000
  0.476190  0.285714  0.047619     48.000000
 -0.476190  0.285714  0.047619     48.000000
 -0.428571  0.285714  0.047619     48.000000
 -0.380952  0.285714  0.047619     48.000000
 -0.333333  0.285714  0.047619     48.000000
 -0.285714  0.285714  0.047619     48.000000
 -0.238095  0.285714  0.047619     24.000000
  0.380952  0.333333  0.047619     24.000000
  0.428571  0.333333  0.047619     48.000000
  0.476190  0.333333  0.047619     48.000000
 -0.476190  0.333333  0.047619     48.000000
 -0.428571  0.333333  0.047619     48.000000
 -0.380952  0.333333  0.047619     48.000000
 -0.333333  0.333333  0.047619     48.000000
 -0.285714  0.333333  0.047619     24.000000
  0.428571  0.380952  0.047619     24.000000
  0.476190  0.380952  0.047619     48.000000
 -0.476190  0.380952  0.047619     48.000000
 -0.428571  0.380952  0.047619     48.000000
 -0.380952  0.380952  0.047619     48.000000
 -0.333333  0.380952  0.047619     24.000000
  0.476190  0.428571  0.047619     24.000000
 -0.476190  0.428571  0.047619     48.000000
 -0.428571  0.428571  0.047619     48.000000
 -0.380952  0.428571  0.047619     24.000000
 -0.476190  0.476190  0.047619     24.000000
 -0.428571  0.476190  0.047619     24.000000
  0.285714  0.190476  0.095238     24.000000
  0.333333  0.190476  0.095238     48.000000
  0.380952  0.190476  0.095238     48.000000
  0.428571  0.190476  0.095238     48.000000
  0.476190  0.190476  0.095238     48.000000
 -0.476190  0.190476  0.095238     48.000000
 -0.428571  0.190476  0.095238     48.000000
  0.333333  0.238095  0.095238     24.000000
  0.380952  0.238095  0.095238     48.000000
  0.428571  0.238095  0.095238     48.000000
  0.476190  0.238095  0.095238     48.000000
 -0.476190  0.238095  0.095238     48.000000
 -0.428571  0.238095  0.095238     48.000000
 -0.380952  0.238095  0.095238     48.000000
 -0.333333  0.238095  0.095238     48.000000
 -0.285714  0.238095  0.095238     48.000000
 -0.238095  0.238095  0.095238     48.000000
 -0.190476  0.238095  0.095238     48.000000
 -0.142857  0.238095  0.095238     24.000000
  0.380952  0.285714  0.095238     24.000000
  0.428571  0.285714  0.095238     48.000000
  0.476190  0.285714  0.095238     48.000000
 -0.476190  0.285714  0.095238     48.000000
 -0.428571  0.285714  0.095238     48.000000
 -0.380952  0.285714  0.095238     48.000000
 -0.333333  0.285714  0.095238     48.000000
 -0.285714  0.285714  0.095238     48.000000
 -0.238095  0.285714  0.095238     48.000000
 -0.190476  0.285714  0.095238     24.000000
  0.428571  0.333333  0.095238     24.000000
  0.476190  0.333333  0.095238     48.000000
 -0.476190  0.333333  0.095238     48.000000
 -0.428571  0.333333  0.095238     48.000000
 -0.380952  0.333333  0.095238     48.000000
 -0.333333  0.333333  0.095238     48.000000
 -0.285714  0.333333  0.095238     48.000000
 -0.238095  0.333333  0.095238     24.000000
  0.476190  0.380952  0.095238     24.000000
 -0.476190  0.380952  0.095238     48.000000
 -0.428571  0.380952  0.095238     48.000000
 -0.380952  0.380952  0.095238     48.000000
 -0.333333  0.380952  0.095238     48.000000
 -0.285714  0.380952  0.095238     24.000000
 -0.476190  0.428571  0.095238     24.000000
 -0.428571  0.428571  0.095238     48.000000
 -0.380952  0.428571  0.095238     48.000000
 -0.333333  0.428571  0.095238     24.000000
 -0.428571  0.476190  0.095238     24.000000
 -0.380952  0.476190  0.095238     24.000000
  0.428571  0.285714  0.142857     24.000000
  0.476190  0.285714  0.142857     48.000000
 -0.476190  0.285714  0.142857     48.000000
 -0.428571  0.285714  0.142857     48.000000
 -0.380952  0.285714  0.142857     48.000000
  0.476190  0.333333  0.142857     24.000000
 -0.476190  0.333333  0.142857     48.000000
 -0.428571  0.333333  0.142857     48.000000
 -0.380952  0.333333  0.142857     48.000000
 -0.333333  0.333333  0.142857     48.000000
 -0.285714  0.333333  0.142857     48.000000
 -0.238095  0.333333  0.142857     48.000000
 -0.190476  0.333333  0.142857     24.000000
 -0.476190  0.380952  0.142857     24.000000
 -0.428571  0.380952  0.142857     48.000000
 -0.380952  0.380952  0.142857     48.000000
 -0.333333  0.380952  0.142857     48.000000
 -0.285714  0.380952  0.142857     48.000000
 -0.238095  0.380952  0.142857     24.000000
 -0.428571  0.428571  0.142857     24.000000
 -0.380952  0.428571  0.142857     48.000000
 -0.333333  0.428571  0.142857     48.000000
 -0.285714  0.428571  0.142857     24.000000
 -0.380952  0.476190  0.142857     24.000000
 -0.333333  0.476190  0.142857     24.000000
 -0.428571  0.380952  0.190476     24.000000
 -0.380952  0.380952  0.190476     48.000000
 -0.333333  0.380952  0.190476     48.000000
 -0.380952  0.428571  0.190476     24.000000
 -0.333333  0.428571  0.190476     48.000000
 -0.285714  0.428571  0.190476     48.000000
 -0.238095  0.428571  0.190476     24.000000
 -0.333333  0.476190  0.190476     24.000000
 -0.285714  0.476190  0.190476     24.000000
 -0.285714  0.476190  0.238095     24.000000
 
 Following cartesian coordinates:
            Coordinates               Weight
  0.000000  0.000000  0.000000      1.000000
  0.047619  0.047619 -0.047619      8.000000
  0.095238  0.095238 -0.095238      8.000000
  0.142857  0.142857 -0.142857      8.000000
  0.190476  0.190476 -0.190476      8.000000
  0.238095  0.238095 -0.238095      8.000000
  0.285714  0.285714 -0.285714      8.000000
  0.333333  0.333333 -0.333333      8.000000
  0.380952  0.380952 -0.380952      8.000000
  0.428571  0.428571 -0.428571      8.000000
  0.476190  0.476190 -0.476190      8.000000
  0.000000  0.095238  0.000000      6.000000
  0.047619  0.142857 -0.047619     24.000000
  0.095238  0.190476 -0.095238     24.000000
  0.142857  0.238095 -0.142857     24.000000
  0.190476  0.285714 -0.190476     24.000000
  0.238095  0.333333 -0.238095     24.000000
  0.285714  0.380952 -0.285714     24.000000
  0.333333  0.428571 -0.333333     24.000000
  0.380952  0.476190 -0.380952     24.000000
  0.428571  0.523810 -0.428571     24.000000
 -0.523810 -0.428571  0.523810     24.000000
 -0.476190 -0.380952  0.476190     24.000000
 -0.428571 -0.333333  0.428571     24.000000
 -0.380952 -0.285714  0.380952     24.000000
 -0.333333 -0.238095  0.333333     24.000000
 -0.285714 -0.190476  0.285714     24.000000
 -0.238095 -0.142857  0.238095     24.000000
 -0.190476 -0.095238  0.190476     24.000000
 -0.142857 -0.047619  0.142857     24.000000
 -0.095238  0.000000  0.095238     12.000000
  0.000000  0.190476  0.000000      6.000000
  0.047619  0.238095 -0.047619     24.000000
  0.095238  0.285714 -0.095238     24.000000
  0.142857  0.333333 -0.142857     24.000000
  0.190476  0.380952 -0.190476     24.000000
  0.238095  0.428571 -0.238095     24.000000
  0.285714  0.476190 -0.285714     24.000000
  0.333333  0.523810 -0.333333     24.000000
  0.380952  0.571429 -0.380952     24.000000
 -0.571429 -0.380952  0.571429     24.000000
 -0.523810 -0.333333  0.523810     24.000000
 -0.476190 -0.285714  0.476190     24.000000
 -0.428571 -0.238095  0.428571     24.000000
 -0.380952 -0.190476  0.380952     24.000000
 -0.333333 -0.142857  0.333333     24.000000
 -0.285714 -0.095238  0.285714     24.000000
 -0.238095 -0.047619  0.238095     24.000000
 -0.190476  0.000000  0.190476     12.000000
  0.000000  0.285714  0.000000      6.000000
  0.047619  0.333333 -0.047619     24.000000
  0.095238  0.380952 -0.095238     24.000000
  0.142857  0.428571 -0.142857     24.000000
  0.190476  0.476190 -0.190476     24.000000
  0.238095  0.523810 -0.238095     24.000000
  0.285714  0.571429 -0.285714     24.000000
  0.333333  0.619048 -0.333333     24.000000
 -0.619048 -0.333333  0.619048     24.000000
 -0.571429 -0.285714  0.571429     24.000000
 -0.523810 -0.238095  0.523810     24.000000
 -0.476190 -0.190476  0.476190     24.000000
 -0.428571 -0.142857  0.428571     24.000000
 -0.380952 -0.095238  0.380952     24.000000
 -0.333333 -0.047619  0.333333     24.000000
 -0.285714  0.000000  0.285714     12.000000
  0.000000  0.380952  0.000000      6.000000
  0.047619  0.428571 -0.047619     24.000000
  0.095238  0.476190 -0.095238     24.000000
  0.142857  0.523810 -0.142857     24.000000
  0.190476  0.571429 -0.190476     24.000000
  0.238095  0.619048 -0.238095     24.000000
  0.285714  0.666667 -0.285714     24.000000
 -0.666667 -0.285714  0.666667     24.000000
 -0.619048 -0.238095  0.619048     24.000000
 -0.571429 -0.190476  0.571429     24.000000
 -0.523810 -0.142857  0.523810     24.000000
 -0.476190 -0.095238  0.476190     24.000000
 -0.428571 -0.047619  0.428571     24.000000
 -0.380952  0.000000  0.380952     12.000000
  0.000000  0.476190  0.000000      6.000000
  0.047619  0.523810 -0.047619     24.000000
  0.095238  0.571429 -0.095238     24.000000
  0.142857  0.619048 -0.142857     24.000000
  0.190476  0.666667 -0.190476     24.000000
  0.238095  0.714286 -0.238095     24.000000
 -0.714286 -0.238095  0.714286     24.000000
 -0.666667 -0.190476  0.666667     24.000000
 -0.619048 -0.142857  0.619048     24.000000
 -0.571429 -0.095238  0.571429     24.000000
 -0.523810 -0.047619  0.523810     24.000000
 -0.476190  0.000000  0.476190     12.000000
  0.000000  0.571429  0.000000      6.000000
  0.047619  0.619048 -0.047619     24.000000
  0.095238  0.666667 -0.095238     24.000000
  0.142857  0.714286 -0.142857     24.000000
  0.190476  0.761905 -0.190476     24.000000
 -0.761905 -0.190476  0.761905     24.000000
 -0.714286 -0.142857  0.714286     24.000000
 -0.666667 -0.095238  0.666667     24.000000
 -0.619048 -0.047619  0.619048     24.000000
 -0.571429  0.000000  0.571429     12.000000
  0.000000  0.666667  0.000000      6.000000
  0.047619  0.714286 -0.047619     24.000000
  0.095238  0.761905 -0.095238     24.000000
  0.142857  0.809524 -0.142857     24.000000
 -0.809524 -0.142857  0.809524     24.000000
 -0.761905 -0.095238  0.761905     24.000000
 -0.714286 -0.047619  0.714286     24.000000
 -0.666667  0.000000  0.666667     12.000000
  0.000000  0.761905  0.000000      6.000000
  0.047619  0.809524 -0.047619     24.000000
  0.095238  0.857143 -0.095238     24.000000
 -0.857143 -0.095238  0.857143     24.000000
 -0.809524 -0.047619  0.809524     24.000000
 -0.761905  0.000000  0.761905     12.000000
  0.000000  0.857143  0.000000      6.000000
  0.047619  0.904762 -0.047619     24.000000
 -0.904762 -0.047619  0.904762     24.000000
 -0.857143  0.000000  0.857143     12.000000
  0.000000  0.952381  0.000000      6.000000
 -0.952381  0.000000  0.952381     12.000000
  0.095238  0.190476 -0.000000     24.000000
  0.142857  0.238095 -0.047619     48.000000
  0.190476  0.285714 -0.095238     48.000000
  0.238095  0.333333 -0.142857     48.000000
  0.285714  0.380952 -0.190476     48.000000
  0.333333  0.428571 -0.238095     48.000000
  0.380952  0.476190 -0.285714     48.000000
  0.428571  0.523810 -0.333333     48.000000
 -0.523810 -0.428571  0.619048     48.000000
  0.095238  0.285714  0.000000     24.000000
  0.142857  0.333333 -0.047619     48.000000
  0.190476  0.380952 -0.095238     48.000000
  0.238095  0.428571 -0.142857     48.000000
  0.285714  0.476190 -0.190476     48.000000
  0.333333  0.523810 -0.238095     48.000000
  0.380952  0.571429 -0.285714     48.000000
 -0.571429 -0.380952  0.666667     48.000000
 -0.523810 -0.333333  0.619048     48.000000
 -0.476190 -0.285714  0.571429     48.000000
 -0.428571 -0.238095  0.523810     48.000000
 -0.380952 -0.190476  0.476190     48.000000
 -0.333333 -0.142857  0.428571     48.000000
 -0.285714 -0.095238  0.380952     48.000000
 -0.238095 -0.047619  0.333333     48.000000
 -0.190476  0.000000  0.285714     24.000000
  0.095238  0.380952  0.000000     24.000000
  0.142857  0.428571 -0.047619     48.000000
  0.190476  0.476190 -0.095238     48.000000
  0.238095  0.523810 -0.142857     48.000000
  0.285714  0.571429 -0.190476     48.000000
  0.333333  0.619048 -0.238095     48.000000
 -0.619048 -0.333333  0.714286     48.000000
 -0.571429 -0.285714  0.666667     48.000000
 -0.523810 -0.238095  0.619048     48.000000
 -0.476190 -0.190476  0.571429     48.000000
 -0.428571 -0.142857  0.523810     48.000000
 -0.380952 -0.095238  0.476190     48.000000
 -0.333333 -0.047619  0.428571     48.000000
 -0.285714  0.000000  0.380952     24.000000
  0.095238  0.476190 -0.000000     24.000000
  0.142857  0.523810 -0.047619     48.000000
  0.190476  0.571429 -0.095238     48.000000
  0.238095  0.619048 -0.142857     48.000000
  0.285714  0.666667 -0.190476     48.000000
 -0.666667 -0.285714  0.761905     48.000000
 -0.619048 -0.238095  0.714286     48.000000
 -0.571429 -0.190476  0.666667     48.000000
 -0.523810 -0.142857  0.619048     48.000000
 -0.476190 -0.095238  0.571429     48.000000
 -0.428571 -0.047619  0.523810     48.000000
 -0.380952 -0.000000  0.476190     24.000000
  0.095238  0.571429  0.000000     24.000000
  0.142857  0.619048 -0.047619     48.000000
  0.190476  0.666667 -0.095238     48.000000
  0.238095  0.714286 -0.142857     48.000000
 -0.714286 -0.238095  0.809524     48.000000
 -0.666667 -0.190476  0.761905     48.000000
 -0.619048 -0.142857  0.714286     48.000000
 -0.571429 -0.095238  0.666667     48.000000
 -0.523810 -0.047619  0.619048     48.000000
 -0.476190  0.000000  0.571429     24.000000
  0.095238  0.666667 -0.000000     24.000000
  0.142857  0.714286 -0.047619     48.000000
  0.190476  0.761905 -0.095238     48.000000
 -0.761905 -0.190476  0.857143     48.000000
 -0.714286 -0.142857  0.809524     48.000000
 -0.666667 -0.095238  0.761905     48.000000
 -0.619048 -0.047619  0.714286     48.000000
 -0.571429  0.000000  0.666667     24.000000
  0.095238  0.761905 -0.000000     24.000000
  0.142857  0.809524 -0.047619     48.000000
 -0.809524 -0.142857  0.904762     48.000000
 -0.761905 -0.095238  0.857143     48.000000
 -0.714286 -0.047619  0.809524     48.000000
 -0.666667  0.000000  0.761905     24.000000
  0.095238  0.857143  0.000000     24.000000
 -0.857143 -0.095238  0.952381     48.000000
 -0.809524 -0.047619  0.904762     48.000000
 -0.761905 -0.000000  0.857143     24.000000
 -0.904762 -0.047619  1.000000     24.000000
 -0.857143 -0.000000  0.952381     24.000000
  0.190476  0.380952  0.000000     24.000000
  0.238095  0.428571 -0.047619     48.000000
  0.285714  0.476190 -0.095238     48.000000
  0.333333  0.523810 -0.142857     48.000000
  0.380952  0.571429 -0.190476     48.000000
 -0.571429 -0.380952  0.761905     48.000000
 -0.523810 -0.333333  0.714286     48.000000
  0.190476  0.476190 -0.000000     24.000000
  0.238095  0.523810 -0.047619     48.000000
  0.285714  0.571429 -0.095238     48.000000
  0.333333  0.619048 -0.142857     48.000000
 -0.619048 -0.333333  0.809524     48.000000
 -0.571429 -0.285714  0.761905     48.000000
 -0.523810 -0.238095  0.714286     48.000000
 -0.476190 -0.190476  0.666667     48.000000
 -0.428571 -0.142857  0.619048     48.000000
 -0.380952 -0.095238  0.571429     48.000000
 -0.333333 -0.047619  0.523810     48.000000
 -0.285714  0.000000  0.476190     24.000000
  0.190476  0.571429 -0.000000     24.000000
  0.238095  0.619048 -0.047619     48.000000
  0.285714  0.666667 -0.095238     48.000000
 -0.666667 -0.285714  0.857143     48.000000
 -0.619048 -0.238095  0.809524     48.000000
 -0.571429 -0.190476  0.761905     48.000000
 -0.523810 -0.142857  0.714286     48.000000
 -0.476190 -0.095238  0.666667     48.000000
 -0.428571 -0.047619  0.619048     48.000000
 -0.380952 -0.000000  0.571429     24.000000
  0.190476  0.666667 -0.000000     24.000000
  0.238095  0.714286 -0.047619     48.000000
 -0.714286 -0.238095  0.904762     48.000000
 -0.666667 -0.190476  0.857143     48.000000
 -0.619048 -0.142857  0.809524     48.000000
 -0.571429 -0.095238  0.761905     48.000000
 -0.523810 -0.047619  0.714286     48.000000
 -0.476190  0.000000  0.666667     24.000000
  0.190476  0.761905  0.000000     24.000000
 -0.761905 -0.190476  0.952381     48.000000
 -0.714286 -0.142857  0.904762     48.000000
 -0.666667 -0.095238  0.857143     48.000000
 -0.619048 -0.047619  0.809524     48.000000
 -0.571429  0.000000  0.761905     24.000000
 -0.809524 -0.142857  1.000000     24.000000
 -0.761905 -0.095238  0.952381     48.000000
 -0.714286 -0.047619  0.904762     48.000000
 -0.666667  0.000000  0.857143     24.000000
 -0.809524 -0.047619  1.000000     24.000000
 -0.761905 -0.000000  0.952381     24.000000
  0.285714  0.571429 -0.000000     24.000000
  0.333333  0.619048 -0.047619     48.000000
 -0.619048 -0.333333  0.904762     48.000000
 -0.571429 -0.285714  0.857143     48.000000
 -0.523810 -0.238095  0.809524     48.000000
  0.285714  0.666667  0.000000     24.000000
 -0.666667 -0.285714  0.952381     48.000000
 -0.619048 -0.238095  0.904762     48.000000
 -0.571429 -0.190476  0.857143     48.000000
 -0.523810 -0.142857  0.809524     48.000000
 -0.476190 -0.095238  0.761905     48.000000
 -0.428571 -0.047619  0.714286     48.000000
 -0.380952 -0.000000  0.666667     24.000000
 -0.714286 -0.238095  1.000000     24.000000
 -0.666667 -0.190476  0.952381     48.000000
 -0.619048 -0.142857  0.904762     48.000000
 -0.571429 -0.095238  0.857143     48.000000
 -0.523810 -0.047619  0.809524     48.000000
 -0.476190  0.000000  0.761905     24.000000
 -0.714286 -0.142857  1.000000     24.000000
 -0.666667 -0.095238  0.952381     48.000000
 -0.619048 -0.047619  0.904762     48.000000
 -0.571429  0.000000  0.857143     24.000000
 -0.714286 -0.047619  1.000000     24.000000
 -0.666667 -0.000000  0.952381     24.000000
 -0.619048 -0.238095  1.000000     24.000000
 -0.571429 -0.190476  0.952381     48.000000
 -0.523810 -0.142857  0.904762     48.000000
 -0.619048 -0.142857  1.000000     24.000000
 -0.571429 -0.095238  0.952381     48.000000
 -0.523810 -0.047619  0.904762     48.000000
 -0.476190  0.000000  0.857143     24.000000
 -0.619048 -0.047619  1.000000     24.000000
 -0.571429 -0.000000  0.952381     24.000000
 -0.523810 -0.047619  1.000000     24.000000
 


--------------------------------------------------------------------------------------------------------




 Dimension of arrays:
   k-points           NKPTS =    286   k-points in BZ     NKDIM =    286   number of bands    NBANDS=     12
   number of dos      NEDOS =    301   number of ions     NIONS =      1
   non local maximal  LDIM  =      6   non local SUM 2l+1 LMDIM =     18
   total plane-waves  NPLWV =   2744
   max r-space proj   IRMAX =      1   max aug-charges    IRDMAX=   8287
   dimension x,y,z NGX =    14 NGY =   14 NGZ =   14
   dimension x,y,z NGXF=    28 NGYF=   28 NGZF=   28
   support grid    NGXF=    28 NGYF=   28 NGZF=   28
   ions per type =               1
   NGX,Y,Z   is equivalent  to a cutoff of   9.32,  9.32,  9.32 a.u.
   NGXF,Y,Z  is equivalent  to a cutoff of  18.65, 18.65, 18.65 a.u.

 SYSTEM =  fcc Ni DOS                              
 POSCAR =  fcc:                                    

 Startparameter for this run:
   NWRITE =      2    write-flag & timer
   PREC   = accura    normal or accurate (medium, high low for compatibility)
   ISTART =      0    job   : 0-new  1-cont  2-samecut
   ICHARG =      2    charge: 1-file 2-atom 10-const
   ISPIN  =      2    spin polarized calculation?
   LNONCOLLINEAR =      F non collinear calculations
   LSORBIT =      F    spin-orbit coupling
   INIWAV =      1    electr: 0-lowe 1-rand  2-diag
   LASPH  =      F    aspherical Exc in radial PAW
   METAGGA=      F    non-selfconsistent MetaGGA calc.

 Electronic Relaxation 1
   ENCUT  =  270.0 eV  19.84 Ry    4.45 a.u.   3.34  3.34  3.34*2*pi/ulx,y,z
   ENINI  =  270.0     initial cutoff
   ENAUG  =  544.6 eV  augmentation charge cutoff
   NELM   =     60;   NELMIN=  2; NELMDL= -5     # of ELM steps 
   EDIFF  = 0.1E-05   stopping-criterion for ELM
   LREAL  =      F    real-space projection
   NLSPLINE    = F    spline interpolate recip. space projectors
   LCOMPAT=      F    compatible to vasp.4.4
   GGA_COMPAT  = T    GGA compatible to vasp.4.4-vasp.4.6
   LMAXPAW     = -100 max onsite density
   LMAXMIX     =    2 max onsite mixed and CHGCAR
   VOSKOWN=      0    Vosko Wilk Nusair interpolation
   ROPT   =    0.00000
 Ionic relaxation
   EDIFFG = -.1E-05   stopping-criterion for IOM
   NSW    =      0    number of steps for IOM
   NBLOCK =      1;   KBLOCK =      1    inner block; outer block 
   IBRION =     -1    ionic relax: 0-MD 1-quasi-New 2-CG
   NFREE  =      0    steps in history (QN), initial steepest desc. (CG)
   ISIF   =      2    stress and relaxation
   IWAVPR =     10    prediction:  0-non 1-charg 2-wave 3-comb
   ISYM   =      2    0-nonsym 1-usesym 2-fastsym
   LCORR  =      T    Harris-Foulkes like correction to forces

   POTIM  = 0.5000    time-step for ionic-motion
   TEIN   =    0.0    initial temperature
   TEBEG  =    0.0;   TEEND  =   0.0 temperature during run
   SMASS  =  -3.00    Nose mass-parameter (am)
   estimated Nose-frequenzy (Omega)   =  0.10E-29 period in steps =****** mass=  -0.142E-27a.u.
   SCALEE = 1.0000    scale energy and forces
   NPACO  =    256;   APACO  = 16.0  distance and # of slots for P.C.
   PSTRESS=    0.0 pullay stress

  Mass of Ions in am
   POMASS =  58.69
  Ionic Valenz
   ZVAL   =  10.00
  Atomic Wigner-Seitz radii
   RWIGS  =  -1.00
  virtual crystal weights 
   VCA    =   1.00
   NELECT =      10.0000    total number of electrons
   NUPDOWN=      -1.0000    fix difference up-down

 DOS related values:
   EMIN   =  10.00;   EMAX   =-10.00  energy-range for DOS
   EFERMI =   0.00
   ISMEAR =     1;   SIGMA  =   0.20  broadening in eV -4-tet -1-fermi 0-gaus

 Electronic relaxation 2 (details)
   IALGO  =     38    algorithm
   LDIAG  =      T    sub-space diagonalisation (order eigenvalues)
   LSUBROT=      F    optimize rotation matrix (better conditioning)
   TURBO    =      0    0=normal 1=particle mesh
   IRESTART =      0    0=no restart 2=restart with 2 vectors
   NREBOOT  =      0    no. of reboots
   NMIN     =      0    reboot dimension
   EREF     =   0.00    reference energy to select bands
   IMIX   =      4    mixing-type and parameters
     AMIX     =   0.40;   BMIX     =  1.00
     AMIX_MAG =   1.60;   BMIX_MAG =  1.00
     AMIN     =   0.10
     WC   =   100.;   INIMIX=   1;  MIXPRE=   1;  MAXMIX= -45

 Intra band minimization:
   WEIMIN = 0.0000     energy-eigenvalue tresh-hold
   EBREAK =  0.21E-08  absolut break condition
   DEPER  =   0.30     relativ break condition  

   TIME   =   0.40     timestep for ELM

  volume/ion in A,a.u.               =      11.00        74.21
  Fermi-wavevector in a.u.,A,eV,Ry     =   1.586062  2.997222 34.226710  2.515592
  Thomas-Fermi vector in A             =   2.685431
 
 Write flags
   LWAVE        =      T    write WAVECAR
   LDOWNSAMPLE  =      F    k-point downsampling of WAVECAR
   LCHARG       =      T    write CHGCAR
   LVTOT        =      F    write LOCPOT, total local potential
   LVHAR        =      F    write LOCPOT, Hartree potential only
   LELF         =      F    write electronic localiz. function (ELF)
   LORBIT       =     11    0 simple, 1 ext, 2 COOP (PROOUT), +10 PAW based schemes


 Dipole corrections
   LMONO  =      F    monopole corrections only (constant potential shift)
   LDIPOL =      F    correct potential (dipole corrections)
   IDIPOL =      0    1-x, 2-y, 3-z, 4-all directions 
   EPSILON=  1.0000000 bulk dielectric constant

 Exchange correlation treatment:
   GGA     =    --    GGA type
   LEXCH   =     8    internal setting for exchange type
   VOSKOWN=      0    Vosko Wilk Nusair interpolation
   LHFCALC =     F    Hartree Fock is set to
   LHFONE  =     F    Hartree Fock one center treatment
   AEXX    =    0.0000 exact exchange contribution

 Linear response parameters
   LEPSILON=     F    determine dielectric tensor
   LRPA    =     F    only Hartree local field effects (RPA)
   LNABLA  =     F    use nabla operator in PAW spheres
   LVEL    =     F    velocity operator in full k-point grid
   LINTERFAST=   F  fast interpolation
   KINTER  =     0    interpolate to denser k-point grid
   CSHIFT  =0.1000    complex shift for real part using Kramers Kronig
   OMEGAMAX=  -1.0    maximum frequency
   DEG_THRESHOLD= 0.2000000E-02 threshold for treating states as degnerate
   RTIME   =   -0.100 relaxation time in fs
  (WPLASMAI=    0.000 imaginary part of plasma frequency in eV, 0.658/RTIME)
   DFIELD  = 0.0000000 0.0000000 0.0000000 field for delta impulse in time
 
 Orbital magnetization related:
   ORBITALMAG=     F  switch on orbital magnetization
   LCHIMAG   =     F  perturbation theory with respect to B field
   DQ        =  0.001000  dq finite difference perturbation B field
   LLRAUG    =     F  two centre corrections for induced B field



--------------------------------------------------------------------------------------------------------


 Static calculation
 charge density and potential will be updated during run
 spin polarized calculation
 Variant of blocked Davidson
 Davidson routine will perform the subspace rotation
 perform sub-space diagonalisation
    after iterative eigenvector-optimisation
 modified Broyden-mixing scheme, WC =      100.0
 initial mixing is a Kerker type mixing with AMIX =  0.4000 and BMIX =      1.0000
 Hartree-type preconditioning will be used
 using additional bands            7
 reciprocal scheme for non local part
 use partial core corrections
 calculate Harris-corrections to forces 
   (improved forces if not selfconsistent)
 use gradient corrections 
 use of overlap-Matrix (Vanderbilt PP)
 Methfessel and Paxton  Order N= 1 SIGMA  =   0.20


--------------------------------------------------------------------------------------------------------


  energy-cutoff  :      270.00
  volume of cell :       11.00
      direct lattice vectors                 reciprocal lattice vectors
     1.765000000  1.765000000  0.000000000     0.283286119  0.283286119 -0.283286119
     0.000000000  1.765000000  1.765000000    -0.283286119  0.283286119  0.283286119
     1.765000000  0.000000000  1.765000000     0.283286119 -0.283286119  0.283286119

  length of vectors
     2.496086938  2.496086938  2.496086938     0.490665951  0.490665951  0.490665951


 
 k-points in units of 2pi/SCALE and weight: k-points                                
   0.00000000  0.00000000  0.00000000       0.000
   0.04761905  0.04761905 -0.04761905       0.001
   0.09523810  0.09523810 -0.09523810       0.001
   0.14285714  0.14285714 -0.14285714       0.001
   0.19047619  0.19047619 -0.19047619       0.001
   0.23809524  0.23809524 -0.23809524       0.001
   0.28571429  0.28571429 -0.28571429       0.001
   0.33333333  0.33333333 -0.33333333       0.001
   0.38095238  0.38095238 -0.38095238       0.001
   0.42857143  0.42857143 -0.42857143       0.001
   0.47619048  0.47619048 -0.47619048       0.001
   0.00000000  0.09523810  0.00000000       0.001
   0.04761905  0.14285714 -0.04761905       0.003
   0.09523810  0.19047619 -0.09523810       0.003
   0.14285714  0.23809524 -0.14285714       0.003
   0.19047619  0.28571429 -0.19047619       0.003
   0.23809524  0.33333333 -0.23809524       0.003
   0.28571429  0.38095238 -0.28571429       0.003
   0.33333333  0.42857143 -0.33333333       0.003
   0.38095238  0.47619048 -0.38095238       0.003
   0.42857143  0.52380952 -0.42857143       0.003
  -0.52380952 -0.42857143  0.52380952       0.003
  -0.47619048 -0.38095238  0.47619048       0.003
  -0.42857143 -0.33333333  0.42857143       0.003
  -0.38095238 -0.28571429  0.38095238       0.003
  -0.33333333 -0.23809524  0.33333333       0.003
  -0.28571429 -0.19047619  0.28571429       0.003
  -0.23809524 -0.14285714  0.23809524       0.003
  -0.19047619 -0.09523810  0.19047619       0.003
  -0.14285714 -0.04761905  0.14285714       0.003
  -0.09523810  0.00000000  0.09523810       0.001
   0.00000000  0.19047619  0.00000000       0.001
   0.04761905  0.23809524 -0.04761905       0.003
   0.09523810  0.28571429 -0.09523810       0.003
   0.14285714  0.33333333 -0.14285714       0.003
   0.19047619  0.38095238 -0.19047619       0.003
   0.23809524  0.42857143 -0.23809524       0.003
   0.28571429  0.47619048 -0.28571429       0.003
   0.33333333  0.52380952 -0.33333333       0.003
   0.38095238  0.57142857 -0.38095238       0.003
  -0.57142857 -0.38095238  0.57142857       0.003
  -0.52380952 -0.33333333  0.52380952       0.003
  -0.47619048 -0.28571429  0.47619048       0.003
  -0.42857143 -0.23809524  0.42857143       0.003
  -0.38095238 -0.19047619  0.38095238       0.003
  -0.33333333 -0.14285714  0.33333333       0.003
  -0.28571429 -0.09523810  0.28571429       0.003
  -0.23809524 -0.04761905  0.23809524       0.003
  -0.19047619  0.00000000  0.19047619       0.001
   0.00000000  0.28571429  0.00000000       0.001
   0.04761905  0.33333333 -0.04761905       0.003
   0.09523810  0.38095238 -0.09523810       0.003
   0.14285714  0.42857143 -0.14285714       0.003
   0.19047619  0.47619048 -0.19047619       0.003
   0.23809524  0.52380952 -0.23809524       0.003
   0.28571429  0.57142857 -0.28571429       0.003
   0.33333333  0.61904762 -0.33333333       0.003
  -0.61904762 -0.33333333  0.61904762       0.003
  -0.57142857 -0.28571429  0.57142857       0.003
  -0.52380952 -0.23809524  0.52380952       0.003
  -0.47619048 -0.19047619  0.47619048       0.003
  -0.42857143 -0.14285714  0.42857143       0.003
  -0.38095238 -0.09523810  0.38095238       0.003
  -0.33333333 -0.04761905  0.33333333       0.003
  -0.28571429  0.00000000  0.28571429       0.001
   0.00000000  0.38095238  0.00000000       0.001
   0.04761905  0.42857143 -0.04761905       0.003
   0.09523810  0.47619048 -0.09523810       0.003
   0.14285714  0.52380952 -0.14285714       0.003
   0.19047619  0.57142857 -0.19047619       0.003
   0.23809524  0.61904762 -0.23809524       0.003
   0.28571429  0.66666667 -0.28571429       0.003
  -0.66666667 -0.28571429  0.66666667       0.003
  -0.61904762 -0.23809524  0.61904762       0.003
  -0.57142857 -0.19047619  0.57142857       0.003
  -0.52380952 -0.14285714  0.52380952       0.003
  -0.47619048 -0.09523810  0.47619048       0.003
  -0.42857143 -0.04761905  0.42857143       0.003
  -0.38095238  0.00000000  0.38095238       0.001
   0.00000000  0.47619048  0.00000000       0.001
   0.04761905  0.52380952 -0.04761905       0.003
   0.09523810  0.57142857 -0.09523810       0.003
   0.14285714  0.61904762 -0.14285714       0.003
   0.19047619  0.66666667 -0.19047619       0.003
   0.23809524  0.71428571 -0.23809524       0.003
  -0.71428571 -0.23809524  0.71428571       0.003
  -0.66666667 -0.19047619  0.66666667       0.003
  -0.61904762 -0.14285714  0.61904762       0.003
  -0.57142857 -0.09523810  0.57142857       0.003
  -0.52380952 -0.04761905  0.52380952       0.003
  -0.47619048  0.00000000  0.47619048       0.001
   0.00000000  0.57142857  0.00000000       0.001
   0.04761905  0.61904762 -0.04761905       0.003
   0.09523810  0.66666667 -0.09523810       0.003
   0.14285714  0.71428571 -0.14285714       0.003
   0.19047619  0.76190476 -0.19047619       0.003
  -0.76190476 -0.19047619  0.76190476       0.003
  -0.71428571 -0.14285714  0.71428571       0.003
  -0.66666667 -0.09523810  0.66666667       0.003
  -0.61904762 -0.04761905  0.61904762       0.003
  -0.57142857  0.00000000  0.57142857       0.001
   0.00000000  0.66666667  0.00000000       0.001
   0.04761905  0.71428571 -0.04761905       0.003
   0.09523810  0.76190476 -0.09523810       0.003
   0.14285714  0.80952381 -0.14285714       0.003
  -0.80952381 -0.14285714  0.80952381       0.003
  -0.76190476 -0.09523810  0.76190476       0.003
  -0.71428571 -0.04761905  0.71428571       0.003
  -0.66666667  0.00000000  0.66666667       0.001
   0.00000000  0.76190476  0.00000000       0.001
   0.04761905  0.80952381 -0.04761905       0.003
   0.09523810  0.85714286 -0.09523810       0.003
  -0.85714286 -0.09523810  0.85714286       0.003
  -0.80952381 -0.04761905  0.80952381       0.003
  -0.76190476  0.00000000  0.76190476       0.001
   0.00000000  0.85714286  0.00000000       0.001
   0.04761905  0.90476190 -0.04761905       0.003
  -0.90476190 -0.04761905  0.90476190       0.003
  -0.85714286  0.00000000  0.85714286       0.001
   0.00000000  0.95238095  0.00000000       0.001
  -0.95238095  0.00000000  0.95238095       0.001
   0.09523810  0.19047619 -0.00000000       0.003
   0.14285714  0.23809524 -0.04761905       0.005
   0.19047619  0.28571429 -0.09523810       0.005
   0.23809524  0.33333333 -0.14285714       0.005
   0.28571429  0.38095238 -0.19047619       0.005
   0.33333333  0.42857143 -0.23809524       0.005
   0.38095238  0.47619048 -0.28571429       0.005
   0.42857143  0.52380952 -0.33333333       0.005
  -0.52380952 -0.42857143  0.61904762       0.005
   0.09523810  0.28571429  0.00000000       0.003
   0.14285714  0.33333333 -0.04761905       0.005
   0.19047619  0.38095238 -0.09523810       0.005
   0.23809524  0.42857143 -0.14285714       0.005
   0.28571429  0.47619048 -0.19047619       0.005
   0.33333333  0.52380952 -0.23809524       0.005
   0.38095238  0.57142857 -0.28571429       0.005
  -0.57142857 -0.38095238  0.66666667       0.005
  -0.52380952 -0.33333333  0.61904762       0.005
  -0.47619048 -0.28571429  0.57142857       0.005
  -0.42857143 -0.23809524  0.52380952       0.005
  -0.38095238 -0.19047619  0.47619048       0.005
  -0.33333333 -0.14285714  0.42857143       0.005
  -0.28571429 -0.09523810  0.38095238       0.005
  -0.23809524 -0.04761905  0.33333333       0.005
  -0.19047619  0.00000000  0.28571429       0.003
   0.09523810  0.38095238  0.00000000       0.003
   0.14285714  0.42857143 -0.04761905       0.005
   0.19047619  0.47619048 -0.09523810       0.005
   0.23809524  0.52380952 -0.14285714       0.005
   0.28571429  0.57142857 -0.19047619       0.005
   0.33333333  0.61904762 -0.23809524       0.005
  -0.61904762 -0.33333333  0.71428571       0.005
  -0.57142857 -0.28571429  0.66666667       0.005
  -0.52380952 -0.23809524  0.61904762       0.005
  -0.47619048 -0.19047619  0.57142857       0.005
  -0.42857143 -0.14285714  0.52380952       0.005
  -0.38095238 -0.09523810  0.47619048       0.005
  -0.33333333 -0.04761905  0.42857143       0.005
  -0.28571429  0.00000000  0.38095238       0.003
   0.09523810  0.47619048 -0.00000000       0.003
   0.14285714  0.52380952 -0.04761905       0.005
   0.19047619  0.57142857 -0.09523810       0.005
   0.23809524  0.61904762 -0.14285714       0.005
   0.28571429  0.66666667 -0.19047619       0.005
  -0.66666667 -0.28571429  0.76190476       0.005
  -0.61904762 -0.23809524  0.71428571       0.005
  -0.57142857 -0.19047619  0.66666667       0.005
  -0.52380952 -0.14285714  0.61904762       0.005
  -0.47619048 -0.09523810  0.57142857       0.005
  -0.42857143 -0.04761905  0.52380952       0.005
  -0.38095238 -0.00000000  0.47619048       0.003
   0.09523810  0.57142857  0.00000000       0.003
   0.14285714  0.61904762 -0.04761905       0.005
   0.19047619  0.66666667 -0.09523810       0.005
   0.23809524  0.71428571 -0.14285714       0.005
  -0.71428571 -0.23809524  0.80952381       0.005
  -0.66666667 -0.19047619  0.76190476       0.005
  -0.61904762 -0.14285714  0.71428571       0.005
  -0.57142857 -0.09523810  0.66666667       0.005
  -0.52380952 -0.04761905  0.61904762       0.005
  -0.47619048  0.00000000  0.57142857       0.003
   0.09523810  0.66666667 -0.00000000       0.003
   0.14285714  0.71428571 -0.04761905       0.005
   0.19047619  0.76190476 -0.09523810       0.005
  -0.76190476 -0.19047619  0.85714286       0.005
  -0.71428571 -0.14285714  0.80952381       0.005
  -0.66666667 -0.09523810  0.76190476       0.005
  -0.61904762 -0.04761905  0.71428571       0.005
  -0.57142857  0.00000000  0.66666667       0.003
   0.09523810  0.76190476 -0.00000000       0.003
   0.14285714  0.80952381 -0.04761905       0.005
  -0.80952381 -0.14285714  0.90476190       0.005
  -0.76190476 -0.09523810  0.85714286       0.005
  -0.71428571 -0.04761905  0.80952381       0.005
  -0.66666667  0.00000000  0.76190476       0.003
   0.09523810  0.85714286  0.00000000       0.003
  -0.85714286 -0.09523810  0.95238095       0.005
  -0.80952381 -0.04761905  0.90476190       0.005
  -0.76190476 -0.00000000  0.85714286       0.003
  -0.90476190 -0.04761905  1.00000000       0.003
  -0.85714286 -0.00000000  0.95238095       0.003
   0.19047619  0.38095238  0.00000000       0.003
   0.23809524  0.42857143 -0.04761905       0.005
   0.28571429  0.47619048 -0.09523810       0.005
   0.33333333  0.52380952 -0.14285714       0.005
   0.38095238  0.57142857 -0.19047619       0.005
  -0.57142857 -0.38095238  0.76190476       0.005
  -0.52380952 -0.33333333  0.71428571       0.005
   0.19047619  0.47619048 -0.00000000       0.003
   0.23809524  0.52380952 -0.04761905       0.005
   0.28571429  0.57142857 -0.09523810       0.005
   0.33333333  0.61904762 -0.14285714       0.005
  -0.61904762 -0.33333333  0.80952381       0.005
  -0.57142857 -0.28571429  0.76190476       0.005
  -0.52380952 -0.23809524  0.71428571       0.005
  -0.47619048 -0.19047619  0.66666667       0.005
  -0.42857143 -0.14285714  0.61904762       0.005
  -0.38095238 -0.09523810  0.57142857       0.005
  -0.33333333 -0.04761905  0.52380952       0.005
  -0.28571429  0.00000000  0.47619048       0.003
   0.19047619  0.57142857 -0.00000000       0.003
   0.23809524  0.61904762 -0.04761905       0.005
   0.28571429  0.66666667 -0.09523810       0.005
  -0.66666667 -0.28571429  0.85714286       0.005
  -0.61904762 -0.23809524  0.80952381       0.005
  -0.57142857 -0.19047619  0.76190476       0.005
  -0.52380952 -0.14285714  0.71428571       0.005
  -0.47619048 -0.09523810  0.66666667       0.005
  -0.42857143 -0.04761905  0.61904762       0.005
  -0.38095238 -0.00000000  0.57142857       0.003
   0.19047619  0.66666667 -0.00000000       0.003
   0.23809524  0.71428571 -0.04761905       0.005
  -0.71428571 -0.23809524  0.90476190       0.005
  -0.66666667 -0.19047619  0.85714286       0.005
  -0.61904762 -0.14285714  0.80952381       0.005
  -0.57142857 -0.09523810  0.76190476       0.005
  -0.52380952 -0.04761905  0.71428571       0.005
  -0.47619048  0.00000000  0.66666667       0.003
   0.19047619  0.76190476  0.00000000       0.003
  -0.76190476 -0.19047619  0.95238095       0.005
  -0.71428571 -0.14285714  0.90476190       0.005
  -0.66666667 -0.09523810  0.85714286       0.005
  -0.61904762 -0.04761905  0.80952381       0.005
  -0.57142857  0.00000000  0.76190476       0.003
  -0.80952381 -0.14285714  1.00000000       0.003
  -0.76190476 -0.09523810  0.95238095       0.005
  -0.71428571 -0.04761905  0.90476190       0.005
  -0.66666667  0.00000000  0.85714286       0.003
  -0.80952381 -0.04761905  1.00000000       0.003
  -0.76190476 -0.00000000  0.95238095       0.003
   0.28571429  0.57142857 -0.00000000       0.003
   0.33333333  0.61904762 -0.04761905       0.005
  -0.61904762 -0.33333333  0.90476190       0.005
  -0.57142857 -0.28571429  0.85714286       0.005
  -0.52380952 -0.23809524  0.80952381       0.005
   0.28571429  0.66666667  0.00000000       0.003
  -0.66666667 -0.28571429  0.95238095       0.005
  -0.61904762 -0.23809524  0.90476190       0.005
  -0.57142857 -0.19047619  0.85714286       0.005
  -0.52380952 -0.14285714  0.80952381       0.005
  -0.47619048 -0.09523810  0.76190476       0.005
  -0.42857143 -0.04761905  0.71428571       0.005
  -0.38095238 -0.00000000  0.66666667       0.003
  -0.71428571 -0.23809524  1.00000000       0.003
  -0.66666667 -0.19047619  0.95238095       0.005
  -0.61904762 -0.14285714  0.90476190       0.005
  -0.57142857 -0.09523810  0.85714286       0.005
  -0.52380952 -0.04761905  0.80952381       0.005
  -0.47619048  0.00000000  0.76190476       0.003
  -0.71428571 -0.14285714  1.00000000       0.003
  -0.66666667 -0.09523810  0.95238095       0.005
  -0.61904762 -0.04761905  0.90476190       0.005
  -0.57142857  0.00000000  0.85714286       0.003
  -0.71428571 -0.04761905  1.00000000       0.003
  -0.66666667 -0.00000000  0.95238095       0.003
  -0.61904762 -0.23809524  1.00000000       0.003
  -0.57142857 -0.19047619  0.95238095       0.005
  -0.52380952 -0.14285714  0.90476190       0.005
  -0.61904762 -0.14285714  1.00000000       0.003
  -0.57142857 -0.09523810  0.95238095       0.005
  -0.52380952 -0.04761905  0.90476190       0.005
  -0.47619048  0.00000000  0.85714286       0.003
  -0.61904762 -0.04761905  1.00000000       0.003
  -0.57142857 -0.00000000  0.95238095       0.003
  -0.52380952 -0.04761905  1.00000000       0.003
 
 k-points in reciprocal lattice and weights: k-points                                
   0.00000000  0.00000000  0.00000000       0.000
   0.04761905  0.00000000  0.00000000       0.001
   0.09523810  0.00000000  0.00000000       0.001
   0.14285714  0.00000000  0.00000000       0.001
   0.19047619  0.00000000  0.00000000       0.001
   0.23809524  0.00000000  0.00000000       0.001
   0.28571429  0.00000000  0.00000000       0.001
   0.33333333  0.00000000  0.00000000       0.001
   0.38095238  0.00000000  0.00000000       0.001
   0.42857143  0.00000000  0.00000000       0.001
   0.47619048  0.00000000  0.00000000       0.001
   0.04761905  0.04761905  0.00000000       0.001
   0.09523810  0.04761905  0.00000000       0.003
   0.14285714  0.04761905  0.00000000       0.003
   0.19047619  0.04761905  0.00000000       0.003
   0.23809524  0.04761905  0.00000000       0.003
   0.28571429  0.04761905  0.00000000       0.003
   0.33333333  0.04761905  0.00000000       0.003
   0.38095238  0.04761905  0.00000000       0.003
   0.42857143  0.04761905  0.00000000       0.003
   0.47619048  0.04761905  0.00000000       0.003
  -0.47619048  0.04761905  0.00000000       0.003
  -0.42857143  0.04761905  0.00000000       0.003
  -0.38095238  0.04761905  0.00000000       0.003
  -0.33333333  0.04761905  0.00000000       0.003
  -0.28571429  0.04761905  0.00000000       0.003
  -0.23809524  0.04761905  0.00000000       0.003
  -0.19047619  0.04761905  0.00000000       0.003
  -0.14285714  0.04761905  0.00000000       0.003
  -0.09523810  0.04761905  0.00000000       0.003
  -0.04761905  0.04761905  0.00000000       0.001
   0.09523810  0.09523810  0.00000000       0.001
   0.14285714  0.09523810  0.00000000       0.003
   0.19047619  0.09523810  0.00000000       0.003
   0.23809524  0.09523810  0.00000000       0.003
   0.28571429  0.09523810  0.00000000       0.003
   0.33333333  0.09523810  0.00000000       0.003
   0.38095238  0.09523810  0.00000000       0.003
   0.42857143  0.09523810  0.00000000       0.003
   0.47619048  0.09523810  0.00000000       0.003
  -0.47619048  0.09523810  0.00000000       0.003
  -0.42857143  0.09523810  0.00000000       0.003
  -0.38095238  0.09523810  0.00000000       0.003
  -0.33333333  0.09523810  0.00000000       0.003
  -0.28571429  0.09523810  0.00000000       0.003
  -0.23809524  0.09523810  0.00000000       0.003
  -0.19047619  0.09523810  0.00000000       0.003
  -0.14285714  0.09523810  0.00000000       0.003
  -0.09523810  0.09523810  0.00000000       0.001
   0.14285714  0.14285714  0.00000000       0.001
   0.19047619  0.14285714  0.00000000       0.003
   0.23809524  0.14285714  0.00000000       0.003
   0.28571429  0.14285714  0.00000000       0.003
   0.33333333  0.14285714  0.00000000       0.003
   0.38095238  0.14285714  0.00000000       0.003
   0.42857143  0.14285714  0.00000000       0.003
   0.47619048  0.14285714  0.00000000       0.003
  -0.47619048  0.14285714  0.00000000       0.003
  -0.42857143  0.14285714  0.00000000       0.003
  -0.38095238  0.14285714  0.00000000       0.003
  -0.33333333  0.14285714  0.00000000       0.003
  -0.28571429  0.14285714  0.00000000       0.003
  -0.23809524  0.14285714  0.00000000       0.003
  -0.19047619  0.14285714  0.00000000       0.003
  -0.14285714  0.14285714  0.00000000       0.001
   0.19047619  0.19047619  0.00000000       0.001
   0.23809524  0.19047619  0.00000000       0.003
   0.28571429  0.19047619  0.00000000       0.003
   0.33333333  0.19047619  0.00000000       0.003
   0.38095238  0.19047619  0.00000000       0.003
   0.42857143  0.19047619  0.00000000       0.003
   0.47619048  0.19047619  0.00000000       0.003
  -0.47619048  0.19047619  0.00000000       0.003
  -0.42857143  0.19047619  0.00000000       0.003
  -0.38095238  0.19047619  0.00000000       0.003
  -0.33333333  0.19047619  0.00000000       0.003
  -0.28571429  0.19047619  0.00000000       0.003
  -0.23809524  0.19047619  0.00000000       0.003
  -0.19047619  0.19047619  0.00000000       0.001
   0.23809524  0.23809524  0.00000000       0.001
   0.28571429  0.23809524  0.00000000       0.003
   0.33333333  0.23809524  0.00000000       0.003
   0.38095238  0.23809524  0.00000000       0.003
   0.42857143  0.23809524  0.00000000       0.003
   0.47619048  0.23809524  0.00000000       0.003
  -0.47619048  0.23809524  0.00000000       0.003
  -0.42857143  0.23809524  0.00000000       0.003
  -0.38095238  0.23809524  0.00000000       0.003
  -0.33333333  0.23809524  0.00000000       0.003
  -0.28571429  0.23809524  0.00000000       0.003
  -0.23809524  0.23809524  0.00000000       0.001
   0.28571429  0.28571429  0.00000000       0.001
   0.33333333  0.28571429  0.00000000       0.003
   0.38095238  0.28571429  0.00000000       0.003
   0.42857143  0.28571429  0.00000000       0.003
   0.47619048  0.28571429  0.00000000       0.003
  -0.47619048  0.28571429  0.00000000       0.003
  -0.42857143  0.28571429  0.00000000       0.003
  -0.38095238  0.28571429  0.00000000       0.003
  -0.33333333  0.28571429  0.00000000       0.003
  -0.28571429  0.28571429  0.00000000       0.001
   0.33333333  0.33333333  0.00000000       0.001
   0.38095238  0.33333333  0.00000000       0.003
   0.42857143  0.33333333  0.00000000       0.003
   0.47619048  0.33333333  0.00000000       0.003
  -0.47619048  0.33333333  0.00000000       0.003
  -0.42857143  0.33333333  0.00000000       0.003
  -0.38095238  0.33333333  0.00000000       0.003
  -0.33333333  0.33333333  0.00000000       0.001
   0.38095238  0.38095238  0.00000000       0.001
   0.42857143  0.38095238  0.00000000       0.003
   0.47619048  0.38095238  0.00000000       0.003
  -0.47619048  0.38095238  0.00000000       0.003
  -0.42857143  0.38095238  0.00000000       0.003
  -0.38095238  0.38095238  0.00000000       0.001
   0.42857143  0.42857143  0.00000000       0.001
   0.47619048  0.42857143  0.00000000       0.003
  -0.47619048  0.42857143  0.00000000       0.003
  -0.42857143  0.42857143  0.00000000       0.001
   0.47619048  0.47619048  0.00000000       0.001
  -0.47619048  0.47619048  0.00000000       0.001
   0.14285714  0.09523810  0.04761905       0.003
   0.19047619  0.09523810  0.04761905       0.005
   0.23809524  0.09523810  0.04761905       0.005
   0.28571429  0.09523810  0.04761905       0.005
   0.33333333  0.09523810  0.04761905       0.005
   0.38095238  0.09523810  0.04761905       0.005
   0.42857143  0.09523810  0.04761905       0.005
   0.47619048  0.09523810  0.04761905       0.005
  -0.47619048  0.09523810  0.04761905       0.005
   0.19047619  0.14285714  0.04761905       0.003
   0.23809524  0.14285714  0.04761905       0.005
   0.28571429  0.14285714  0.04761905       0.005
   0.33333333  0.14285714  0.04761905       0.005
   0.38095238  0.14285714  0.04761905       0.005
   0.42857143  0.14285714  0.04761905       0.005
   0.47619048  0.14285714  0.04761905       0.005
  -0.47619048  0.14285714  0.04761905       0.005
  -0.42857143  0.14285714  0.04761905       0.005
  -0.38095238  0.14285714  0.04761905       0.005
  -0.33333333  0.14285714  0.04761905       0.005
  -0.28571429  0.14285714  0.04761905       0.005
  -0.23809524  0.14285714  0.04761905       0.005
  -0.19047619  0.14285714  0.04761905       0.005
  -0.14285714  0.14285714  0.04761905       0.005
  -0.09523810  0.14285714  0.04761905       0.003
   0.23809524  0.19047619  0.04761905       0.003
   0.28571429  0.19047619  0.04761905       0.005
   0.33333333  0.19047619  0.04761905       0.005
   0.38095238  0.19047619  0.04761905       0.005
   0.42857143  0.19047619  0.04761905       0.005
   0.47619048  0.19047619  0.04761905       0.005
  -0.47619048  0.19047619  0.04761905       0.005
  -0.42857143  0.19047619  0.04761905       0.005
  -0.38095238  0.19047619  0.04761905       0.005
  -0.33333333  0.19047619  0.04761905       0.005
  -0.28571429  0.19047619  0.04761905       0.005
  -0.23809524  0.19047619  0.04761905       0.005
  -0.19047619  0.19047619  0.04761905       0.005
  -0.14285714  0.19047619  0.04761905       0.003
   0.28571429  0.23809524  0.04761905       0.003
   0.33333333  0.23809524  0.04761905       0.005
   0.38095238  0.23809524  0.04761905       0.005
   0.42857143  0.23809524  0.04761905       0.005
   0.47619048  0.23809524  0.04761905       0.005
  -0.47619048  0.23809524  0.04761905       0.005
  -0.42857143  0.23809524  0.04761905       0.005
  -0.38095238  0.23809524  0.04761905       0.005
  -0.33333333  0.23809524  0.04761905       0.005
  -0.28571429  0.23809524  0.04761905       0.005
  -0.23809524  0.23809524  0.04761905       0.005
  -0.19047619  0.23809524  0.04761905       0.003
   0.33333333  0.28571429  0.04761905       0.003
   0.38095238  0.28571429  0.04761905       0.005
   0.42857143  0.28571429  0.04761905       0.005
   0.47619048  0.28571429  0.04761905       0.005
  -0.47619048  0.28571429  0.04761905       0.005
  -0.42857143  0.28571429  0.04761905       0.005
  -0.38095238  0.28571429  0.04761905       0.005
  -0.33333333  0.28571429  0.04761905       0.005
  -0.28571429  0.28571429  0.04761905       0.005
  -0.23809524  0.28571429  0.04761905       0.003
   0.38095238  0.33333333  0.04761905       0.003
   0.42857143  0.33333333  0.04761905       0.005
   0.47619048  0.33333333  0.04761905       0.005
  -0.47619048  0.33333333  0.04761905       0.005
  -0.42857143  0.33333333  0.04761905       0.005
  -0.38095238  0.33333333  0.04761905       0.005
  -0.33333333  0.33333333  0.04761905       0.005
  -0.28571429  0.33333333  0.04761905       0.003
   0.42857143  0.38095238  0.04761905       0.003
   0.47619048  0.38095238  0.04761905       0.005
  -0.47619048  0.38095238  0.04761905       0.005
  -0.42857143  0.38095238  0.04761905       0.005
  -0.38095238  0.38095238  0.04761905       0.005
  -0.33333333  0.38095238  0.04761905       0.003
   0.47619048  0.42857143  0.04761905       0.003
  -0.47619048  0.42857143  0.04761905       0.005
  -0.42857143  0.42857143  0.04761905       0.005
  -0.38095238  0.42857143  0.04761905       0.003
  -0.47619048  0.47619048  0.04761905       0.003
  -0.42857143  0.47619048  0.04761905       0.003
   0.28571429  0.19047619  0.09523810       0.003
   0.33333333  0.19047619  0.09523810       0.005
   0.38095238  0.19047619  0.09523810       0.005
   0.42857143  0.19047619  0.09523810       0.005
   0.47619048  0.19047619  0.09523810       0.005
  -0.47619048  0.19047619  0.09523810       0.005
  -0.42857143  0.19047619  0.09523810       0.005
   0.33333333  0.23809524  0.09523810       0.003
   0.38095238  0.23809524  0.09523810       0.005
   0.42857143  0.23809524  0.09523810       0.005
   0.47619048  0.23809524  0.09523810       0.005
  -0.47619048  0.23809524  0.09523810       0.005
  -0.42857143  0.23809524  0.09523810       0.005
  -0.38095238  0.23809524  0.09523810       0.005
  -0.33333333  0.23809524  0.09523810       0.005
  -0.28571429  0.23809524  0.09523810       0.005
  -0.23809524  0.23809524  0.09523810       0.005
  -0.19047619  0.23809524  0.09523810       0.005
  -0.14285714  0.23809524  0.09523810       0.003
   0.38095238  0.28571429  0.09523810       0.003
   0.42857143  0.28571429  0.09523810       0.005
   0.47619048  0.28571429  0.09523810       0.005
  -0.47619048  0.28571429  0.09523810       0.005
  -0.42857143  0.28571429  0.09523810       0.005
  -0.38095238  0.28571429  0.09523810       0.005
  -0.33333333  0.28571429  0.09523810       0.005
  -0.28571429  0.28571429  0.09523810       0.005
  -0.23809524  0.28571429  0.09523810       0.005
  -0.19047619  0.28571429  0.09523810       0.003
   0.42857143  0.33333333  0.09523810       0.003
   0.47619048  0.33333333  0.09523810       0.005
  -0.47619048  0.33333333  0.09523810       0.005
  -0.42857143  0.33333333  0.09523810       0.005
  -0.38095238  0.33333333  0.09523810       0.005
  -0.33333333  0.33333333  0.09523810       0.005
  -0.28571429  0.33333333  0.09523810       0.005
  -0.23809524  0.33333333  0.09523810       0.003
   0.47619048  0.38095238  0.09523810       0.003
  -0.47619048  0.38095238  0.09523810       0.005
  -0.42857143  0.38095238  0.09523810       0.005
  -0.38095238  0.38095238  0.09523810       0.005
  -0.33333333  0.38095238  0.09523810       0.005
  -0.28571429  0.38095238  0.09523810       0.003
  -0.47619048  0.42857143  0.09523810       0.003
  -0.42857143  0.42857143  0.09523810       0.005
  -0.38095238  0.42857143  0.09523810       0.005
  -0.33333333  0.42857143  0.09523810       0.003
  -0.42857143  0.47619048  0.09523810       0.003
  -0.38095238  0.47619048  0.09523810       0.003
   0.42857143  0.28571429  0.14285714       0.003
   0.47619048  0.28571429  0.14285714       0.005
  -0.47619048  0.28571429  0.14285714       0.005
  -0.42857143  0.28571429  0.14285714       0.005
  -0.38095238  0.28571429  0.14285714       0.005
   0.47619048  0.33333333  0.14285714       0.003
  -0.47619048  0.33333333  0.14285714       0.005
  -0.42857143  0.33333333  0.14285714       0.005
  -0.38095238  0.33333333  0.14285714       0.005
  -0.33333333  0.33333333  0.14285714       0.005
  -0.28571429  0.33333333  0.14285714       0.005
  -0.23809524  0.33333333  0.14285714       0.005
  -0.19047619  0.33333333  0.14285714       0.003
  -0.47619048  0.38095238  0.14285714       0.003
  -0.42857143  0.38095238  0.14285714       0.005
  -0.38095238  0.38095238  0.14285714       0.005
  -0.33333333  0.38095238  0.14285714       0.005
  -0.28571429  0.38095238  0.14285714       0.005
  -0.23809524  0.38095238  0.14285714       0.003
  -0.42857143  0.42857143  0.14285714       0.003
  -0.38095238  0.42857143  0.14285714       0.005
  -0.33333333  0.42857143  0.14285714       0.005
  -0.28571429  0.42857143  0.14285714       0.003
  -0.38095238  0.47619048  0.14285714       0.003
  -0.33333333  0.47619048  0.14285714       0.003
  -0.42857143  0.38095238  0.19047619       0.003
  -0.38095238  0.38095238  0.19047619       0.005
  -0.33333333  0.38095238  0.19047619       0.005
  -0.38095238  0.42857143  0.19047619       0.003
  -0.33333333  0.42857143  0.19047619       0.005
  -0.28571429  0.42857143  0.19047619       0.005
  -0.23809524  0.42857143  0.19047619       0.003
  -0.33333333  0.47619048  0.19047619       0.003
  -0.28571429  0.47619048  0.19047619       0.003
  -0.28571429  0.47619048  0.23809524       0.003
 
 position of ions in fractional coordinates (direct lattice) 
   0.00000000  0.00000000  0.00000000
 
 position of ions in cartesian coordinates  (Angst):
   0.00000000  0.00000000  0.00000000
 


--------------------------------------------------------------------------------------------------------


 k-point  1 :   0.0000 0.0000 0.0000  plane waves:     113
 k-point  2 :   0.0476 0.0000 0.0000  plane waves:     113
 k-point  3 :   0.0952 0.0000 0.0000  plane waves:     113
 k-point  4 :   0.1429 0.0000 0.0000  plane waves:     116
 k-point  5 :   0.1905 0.0000 0.0000  plane waves:     110
 k-point  6 :   0.2381 0.0000 0.0000  plane waves:     113
 k-point  7 :   0.2857 0.0000 0.0000  plane waves:     114
 k-point  8 :   0.3333 0.0000 0.0000  plane waves:     111
 k-point  9 :   0.3810 0.0000 0.0000  plane waves:     114
 k-point 10 :   0.4286 0.0000 0.0000  plane waves:     114
 k-point 11 :   0.4762 0.0000 0.0000  plane waves:     108
 k-point 12 :   0.0476 0.0476 0.0000  plane waves:     113
 k-point 13 :   0.0952 0.0476 0.0000  plane waves:     113
 k-point 14 :   0.1429 0.0476 0.0000  plane waves:     116
 k-point 15 :   0.1905 0.0476 0.0000  plane waves:     116
 k-point 16 :   0.2381 0.0476 0.0000  plane waves:     112
 k-point 17 :   0.2857 0.0476 0.0000  plane waves:     112
 k-point 18 :   0.3333 0.0476 0.0000  plane waves:     111
 k-point 19 :   0.3810 0.0476 0.0000  plane waves:     110
 k-point 20 :   0.4286 0.0476 0.0000  plane waves:     112
 k-point 21 :   0.4762 0.0476 0.0000  plane waves:     112
 k-point 22 :  -0.4762 0.0476 0.0000  plane waves:     112
 k-point 23 :  -0.4286 0.0476 0.0000  plane waves:     110
 k-point 24 :  -0.3810 0.0476 0.0000  plane waves:     111
 k-point 25 :  -0.3333 0.0476 0.0000  plane waves:     113
 k-point 26 :  -0.2857 0.0476 0.0000  plane waves:     111
 k-point 27 :  -0.2381 0.0476 0.0000  plane waves:     111
 k-point 28 :  -0.1905 0.0476 0.0000  plane waves:     114
 k-point 29 :  -0.1429 0.0476 0.0000  plane waves:     118
 k-point 30 :  -0.0952 0.0476 0.0000  plane waves:     115
 k-point 31 :  -0.0476 0.0476 0.0000  plane waves:     113
[...]

 k-point   274 :      -0.2857    0.4286    0.1429
  band No.  band energies     occupation 
      1       5.9690      1.00000
      2       6.4127      1.00000
      3       7.1111      1.00000
      4       8.5215      1.00000
      5       9.4336     -0.03142
      6      15.9910      0.00000
      7      16.4273      0.00000
      8      19.6227      0.00000
      9      22.9059      0.00000
     10      35.6997      0.00000
     11      41.9978      0.00000
     12      42.9727      0.00000

 k-point   275 :      -0.3810    0.4762    0.1429
  band No.  band energies     occupation 
      1       5.4968      1.00000
      2       6.0406      1.00000
      3       7.9375      1.00000
      4       8.8774      1.01839
      5       9.5600     -0.01814
      6      13.9153     -0.00000
      7      19.1288      0.00000
      8      20.4570      0.00000
      9      21.7089      0.00000
     10      33.7694      0.00000
     11      37.0879      0.00000
     12      46.3341      0.00000

 k-point   276 :      -0.3333    0.4762    0.1429
  band No.  band energies     occupation 
      1       5.6423      1.00000
      2       6.1627      1.00000
      3       7.6589      1.00000
      4       8.7466      1.00214
      5       9.5591     -0.01834
      6      14.7823      0.00000
      7      18.7943      0.00000
      8      19.3598      0.00000
      9      21.7624      0.00000
     10      34.6686      0.00000
     11      38.6728      0.00000
     12      44.8960      0.00000

 k-point   277 :      -0.4286    0.3810    0.1905
  band No.  band energies     occupation 
      1       5.8186      1.00000
      2       6.4370      1.00000
      3       6.9921      1.00000
      4       8.6158      1.00009
      5       9.2150      0.51295
      6      12.3841     -0.00000
      7      19.8250      0.00000
      8      21.2986      0.00000
      9      23.7836      0.00000
     10      36.7424      0.00000
     11      38.4200      0.00000
     12      42.6962      0.00000

 k-point   278 :      -0.3810    0.3810    0.1905
  band No.  band energies     occupation 
      1       5.9726      1.00000
      2       6.5074      1.00000
      3       6.9075      1.00000
      4       8.5306      1.00001
      5       9.3346      0.08808
      6      13.5667     -0.00000
      7      18.3384      0.00000
      8      21.1360      0.00000
      9      22.9195      0.00000
     10      37.3200      0.00000
     11      38.9257      0.00000
     12      43.1313      0.00000

 k-point   279 :      -0.3333    0.3810    0.1905
  band No.  band energies     occupation 
      1       6.0532      1.00000
      2       6.5085      1.00000
      3       6.9093      1.00000
      4       8.4648      1.00000
      5       9.4047     -0.01670
      6      14.8641      0.00000
      7      16.7567      0.00000
      8      21.3980      0.00000
      9      22.2764      0.00000
     10      37.3709      0.00000
     11      39.3920      0.00000
     12      44.1140      0.00000

 k-point   280 :      -0.3810    0.4286    0.1905
  band No.  band energies     occupation 
      1       5.8075      1.00000
      2       6.3596      1.00000
      3       7.2051      1.00000
      4       8.6489      1.00022
      5       9.4353     -0.03190
      6      13.7886     -0.00000
      7      19.2458      0.00000
      8      20.7000      0.00000
      9      21.5945      0.00000
     10      36.4117      0.00000
     11      39.1400      0.00000
     12      42.9179      0.00000

 k-point   281 :      -0.3333    0.4286    0.1905
  band No.  band energies     occupation 
      1       5.8995      1.00000
      2       6.4849      1.00000
      3       7.0590      1.00000
      4       8.5478      1.00001
      5       9.4989     -0.03163
      6      15.1022      0.00000
      7      17.8862      0.00000
      8      20.3637      0.00000
      9      21.1826      0.00000
     10      37.2646      0.00000
     11      40.1257      0.00000
     12      42.4938      0.00000

 k-point   282 :      -0.2857    0.4286    0.1905
  band No.  band energies     occupation 
      1       5.9661      1.00000
      2       6.6134      1.00000
      3       6.8953      1.00000
      4       8.4912      1.00000
      5       9.4979     -0.03181
      6      16.1612      0.00000
      7      16.6879      0.00000
      8      20.0692      0.00000
      9      21.4658      0.00000
     10      37.7850      0.00000
     11      40.1840      0.00000
     12      42.9617      0.00000

 k-point   283 :      -0.2381    0.4286    0.1905
  band No.  band energies     occupation 
      1       5.9980      1.00000
      2       6.6977      1.00000
      3       6.7564      1.00000
      4       8.4974      1.00000
      5       9.4335     -0.03137
      6      14.8491      0.00000
      7      17.7913      0.00000
      8      20.1262      0.00000
      9      22.0939      0.00000
     10      38.2235      0.00000
     11      39.1003      0.00000
     12      43.3036      0.00000

 k-point   284 :      -0.3333    0.4762    0.1905
  band No.  band energies     occupation 
      1       5.7604      1.00000
      2       6.3181      1.00000
      3       7.3647      1.00000
      4       8.6396      1.00017
      5       9.5605     -0.01804
      6      15.1114      0.00000
      7      18.9382      0.00000
      8      19.3864      0.00000
      9      20.8989      0.00000
     10      36.2422      0.00000
     11      39.5237      0.00000
     12      43.2500      0.00000

 k-point   285 :      -0.2857    0.4762    0.1905
  band No.  band energies     occupation 
      1       5.8632      1.00000
      2       6.4759      1.00000
      3       7.1266      1.00000
      4       8.5442      1.00001
      5       9.5598     -0.01819
      6      16.0772      0.00000
      7      17.6894      0.00000
      8      19.3604      0.00000
      9      20.9324      0.00000
     10      37.2196      0.00000
     11      41.0835      0.00000
     12      41.8165      0.00000

 k-point   286 :      -0.2857    0.4762    0.2381
  band No.  band energies     occupation 
      1       5.9145      1.00000
      2       6.6793      1.00000
      3       6.8754      1.00000
      4       8.4979      1.00000
      5       9.5601     -0.01812
      6      16.3774      0.00000
      7      17.4683      0.00000
      8      19.5590      0.00000
      9      20.5260      0.00000
     10      38.9248      0.00000
     11      39.8539      0.00000
     12      41.9511      0.00000


--------------------------------------------------------------------------------------------------------


 soft charge-density along one line, spin component           1
         0         1         2         3         4         5         6         7         8         9
 total charge-density along one line
 
 soft charge-density along one line, spin component           2
         0         1         2         3         4         5         6         7         8         9
 total charge-density along one line
 
 pseudopotential strength for first ion, spin component:           1
 -0.688  -0.000  -0.000  -0.000  -0.000  -1.361  -0.000  -0.000
 -0.000  -0.688   0.000  -0.000  -0.000  -0.000  -1.361   0.000
 -0.000   0.000  -0.585   0.000   0.000  -0.000   0.000  -1.262
 -0.000  -0.000   0.000  -0.688   0.000  -0.000  -0.000   0.000
 -0.000  -0.000   0.000   0.000  -0.585  -0.000  -0.000   0.000
 -1.361  -0.000  -0.000  -0.000  -0.000  -1.962  -0.000  -0.000
 -0.000  -1.361   0.000  -0.000  -0.000  -0.000  -1.962   0.000
 -0.000   0.000  -1.262   0.000   0.000  -0.000   0.000  -1.868
 -0.000  -0.000   0.000  -1.361   0.000  -0.000  -0.000   0.000
 -0.000  -0.000   0.000   0.000  -1.262  -0.000  -0.000   0.000
 -0.000  -0.000   0.000  -0.000  -0.000  -0.000  -0.000   0.000
 -0.000  -0.000   0.000  -0.000  -0.000  -0.000  -0.000   0.000
  0.000   0.000   0.000  -0.000   0.000   0.000   0.000   0.000
 -0.000  -0.000   0.000   0.000  -0.000  -0.000  -0.000   0.000
 -0.000  -0.000  -0.000   0.000  -0.000  -0.000  -0.000  -0.000
 -0.000   0.000   0.000  -0.000   0.000   0.000   0.000   0.000
 -0.000  -0.000   0.000   0.000  -0.000  -0.000  -0.000   0.000
 -0.000  -0.000   0.000   0.000  -0.000  -0.000  -0.000  -0.000
 pseudopotential strength for first ion, spin component:           2
 -0.073  -0.000  -0.000  -0.000  -0.000  -0.774  -0.000  -0.000
 -0.000  -0.073   0.000  -0.000  -0.000  -0.000  -0.774   0.000
 -0.000   0.000  -0.098   0.000   0.000  -0.000   0.000  -0.799
 -0.000  -0.000   0.000  -0.073   0.000  -0.000  -0.000   0.000
 -0.000  -0.000   0.000   0.000  -0.098  -0.000  -0.000   0.000
 -0.774  -0.000  -0.000  -0.000  -0.000  -1.403  -0.000  -0.000
 -0.000  -0.774   0.000  -0.000  -0.000  -0.000  -1.403   0.000
 -0.000   0.000  -0.799   0.000   0.000  -0.000   0.000  -1.427
 -0.000  -0.000   0.000  -0.774   0.000  -0.000  -0.000   0.000
 -0.000  -0.000   0.000   0.000  -0.799  -0.000  -0.000   0.000
 -0.000  -0.000   0.000  -0.000   0.000  -0.000  -0.000   0.000
 -0.000  -0.000   0.000  -0.000   0.000  -0.000  -0.000   0.000
  0.000   0.000   0.000  -0.000   0.000   0.000   0.000   0.000
 -0.000   0.000   0.000   0.000  -0.000  -0.000   0.000   0.000
  0.000  -0.000  -0.000   0.000   0.000   0.000  -0.000  -0.000
  0.000   0.000   0.000  -0.000  -0.000   0.000   0.000   0.000
 -0.000   0.000   0.000   0.000  -0.000  -0.000  -0.000   0.000
 -0.000  -0.000  -0.000   0.000   0.000  -0.000  -0.000  -0.000
 total augmentation occupancy for first ion, spin component:           1
  2.664  -0.000  -0.000  -0.000   0.000  -1.170   0.000   0.000   0.000   0.000   0.000   0.000   0.000   0.000   0.000   0.000
 -0.000   2.664   0.000   0.000  -0.000  -0.000  -1.170   0.000   0.000   0.000   0.000  -0.000   0.000   0.000   0.000   0.000
 -0.000   0.000   3.402   0.000  -0.000   0.000   0.000  -1.489   0.000   0.000  -0.000   0.000   0.000   0.000   0.000   0.000
 -0.000   0.000   0.000   2.664  -0.000  -0.000   0.000  -0.000  -1.170  -0.000   0.000   0.000   0.000   0.000   0.000   0.000
 -0.000   0.000   0.000   0.000   3.402   0.000   0.000   0.000   0.000  -1.489   0.000   0.000   0.000   0.000   0.000   0.000
 -1.170  -0.000   0.000   0.000   0.000   1.384   0.000   0.000  -0.000   0.000   0.000   0.000   0.000   0.000   0.000   0.000
 -0.000  -1.170   0.000   0.000   0.000   0.000   1.384   0.000   0.000  -0.000   0.000   0.000   0.000   0.000   0.000   0.000
  0.000   0.000  -1.489  -0.000   0.000  -0.000  -0.000   1.404   0.000   0.000   0.000   0.000   0.000   0.000   0.000   0.000
 -0.000   0.000  -0.000  -1.170   0.000  -0.000   0.000   0.000   1.384   0.000   0.000  -0.000   0.000   0.000   0.000   0.000
 -0.000   0.000  -0.000   0.000  -1.489  -0.000   0.000   0.000   0.000   1.404   0.000   0.000   0.000   0.000   0.000   0.000
  0.000   0.000  -0.000  -0.000   0.000  -0.000  -0.000   0.000  -0.000   0.000   2.251  -0.306   0.000   0.000   0.000   0.000
  0.000  -0.000   0.000   0.000  -0.000   0.000   0.000   0.000  -0.000  -0.000  -0.306   0.049   0.000   0.000   0.000   0.000
  0.000   0.000   0.000   0.000   0.000   0.000   0.000   0.000   0.000   0.000   0.000   0.000   0.294   0.000   0.000  -0.030
  0.000   0.000   0.000   0.000   0.000   0.000   0.000   0.000   0.000   0.000   0.000   0.000   0.000   0.294   0.000   0.000
  0.000   0.000   0.000   0.000   0.000   0.000   0.000   0.000   0.000   0.000   0.000   0.000  -0.000   0.000   0.294   0.000
  0.000   0.000   0.000   0.000   0.000   0.000   0.000   0.000   0.000   0.000   0.000   0.000  -0.030   0.000   0.000   0.004
  0.000   0.000   0.000   0.000   0.000   0.000   0.000   0.000   0.000   0.000   0.000   0.000  -0.000  -0.030  -0.000   0.000
  0.000   0.000   0.000   0.000   0.000   0.000   0.000   0.000   0.000   0.000   0.000   0.000  -0.000  -0.000  -0.030   0.000
 total augmentation occupancy for first ion, spin component:           2
  0.997  -0.000   0.000  -0.000   0.000  -0.490   0.000  -0.000  -0.000  -0.000  -0.000  -0.000   0.000   0.000   0.000   0.000
  0.000   0.997  -0.000   0.000   0.000   0.000  -0.490   0.000   0.000   0.000   0.000   0.000   0.000   0.000   0.000   0.000
  0.000   0.000   0.558   0.000   0.000  -0.000   0.000  -0.273   0.000   0.000   0.000   0.000   0.000   0.000   0.000   0.000
 -0.000   0.000   0.000   0.997   0.000   0.000   0.000  -0.000  -0.490   0.000  -0.000  -0.000   0.000   0.000   0.000   0.000
 -0.000  -0.000   0.000   0.000   0.558  -0.000  -0.000  -0.000   0.000  -0.273   0.000   0.000   0.000   0.000   0.000   0.000
 -0.490   0.000   0.000   0.000  -0.000   0.158  -0.000  -0.000   0.000   0.000  -0.000  -0.000   0.000   0.000   0.000   0.000
 -0.000  -0.490   0.000   0.000  -0.000  -0.000   0.158  -0.000  -0.000   0.000  -0.000   0.000   0.000   0.000   0.000   0.000
 -0.000  -0.000  -0.273  -0.000   0.000   0.000  -0.000   0.072   0.000  -0.000   0.000   0.000   0.000   0.000   0.000   0.000
 -0.000   0.000  -0.000  -0.490   0.000   0.000  -0.000  -0.000   0.158   0.000   0.000   0.000   0.000   0.000   0.000   0.000
  0.000   0.000  -0.000  -0.000  -0.273  -0.000  -0.000  -0.000   0.000   0.072  -0.000  -0.000   0.000   0.000   0.000   0.000
 -0.000   0.000  -0.000  -0.000  -0.000  -0.000  -0.000   0.000   0.000   0.000  -0.126   0.041   0.000   0.000   0.000   0.000
 -0.000   0.000  -0.000  -0.000   0.000   0.000  -0.000  -0.000   0.000   0.000   0.041  -0.008   0.000   0.000   0.000   0.000
  0.000   0.000   0.000   0.000   0.000   0.000   0.000   0.000   0.000   0.000   0.000   0.000  -0.017   0.000   0.000   0.003
  0.000   0.000   0.000   0.000   0.000   0.000   0.000   0.000   0.000   0.000   0.000   0.000   0.000  -0.017   0.000   0.000
  0.000   0.000   0.000   0.000   0.000   0.000   0.000   0.000   0.000   0.000   0.000   0.000   0.000   0.000  -0.017   0.000
  0.000   0.000   0.000   0.000   0.000   0.000   0.000   0.000   0.000   0.000   0.000   0.000   0.003   0.000   0.000  -0.000
  0.000   0.000   0.000   0.000   0.000   0.000   0.000   0.000   0.000   0.000   0.000   0.000   0.000   0.003   0.000   0.000
  0.000   0.000   0.000   0.000   0.000   0.000   0.000   0.000   0.000   0.000   0.000   0.000   0.000   0.000   0.003   0.000


------------------------ aborting loop because EDIFF is reached ----------------------------------------


 


 total charge     
 
# of ion       s       p       d       tot
------------------------------------------
    1        0.492   0.486   8.312   9.290
 


 magnetization (x)
 
# of ion       s       p       d       tot
------------------------------------------
    1       -0.006  -0.025   0.659   0.628
 
    CHARGE:  cpu time    0.0254: real time    0.0254
    FORLOC:  cpu time    0.0001: real time    0.0001
    FORNL :  cpu time    0.0185: real time    0.0185
    STRESS:  cpu time    0.1685: real time    0.1685
    FORCOR:  cpu time    0.0046: real time    0.0046
    FORHAR:  cpu time    0.0005: real time    0.0005
    MIXING:  cpu time    0.0003: real time    0.0003
    OFIELD:  cpu time    0.0000: real time    0.0000

  FORCE on cell =-STRESS in cart. coord.  units (eV):
  Direction    XX          YY          ZZ          XY          YZ          ZX
  --------------------------------------------------------------------------------------
  Alpha Z    46.37682    46.37682    46.37682
  Ewald    -311.71407  -311.71407  -311.71407     0.00000     0.00000     0.00000
  Hartree    75.32318    75.32318    75.32318     0.00000     0.00000     0.00000
  E(xc)     -55.01296   -55.01296   -55.01296    -0.00001    -0.00001    -0.00001
  Local      -1.18617    -1.18617    -1.18617     0.00022     0.00022     0.00022
  n-local    -7.40686   -10.08891    -7.85747    -3.15466     1.60842     2.88717
  augment   176.12597   176.12597   176.12597    -0.00020    -0.00020    -0.00020
  Kinetic    77.37033    79.89018    76.98895     1.50277    -1.34088    -1.30326
  Fock        0.00000     0.00000     0.00000     0.00000     0.00000     0.00000
  -------------------------------------------------------------------------------------
  Total      -0.45516    -0.45516    -0.45516    -0.00000     0.00000    -0.00000
  in kB     -66.31441   -66.31441   -66.31441    -0.00000     0.00000    -0.00000
  external pressure =      -66.31 kB  Pullay stress =        0.00 kB


 VOLUME and BASIS-vectors are now :
 -----------------------------------------------------------------------------
  energy-cutoff  :      270.00
  volume of cell :       11.00
      direct lattice vectors                 reciprocal lattice vectors
     1.765000000  1.765000000  0.000000000     0.283286119  0.283286119 -0.283286119
     0.000000000  1.765000000  1.765000000    -0.283286119  0.283286119  0.283286119
     1.765000000  0.000000000  1.765000000     0.283286119 -0.283286119  0.283286119

  length of vectors
     2.496086938  2.496086938  2.496086938     0.490665951  0.490665951  0.490665951


 FORCES acting on ions
    electron-ion (+dipol)            ewald-force                    non-local-force                 convergence-correction
 -----------------------------------------------------------------------------------------------
   -.377E-13 0.384E-14 -.254E-13   -.779E-15 -.103E-14 0.569E-15   -.258E-25 -.775E-25 -.775E-25   -.410E-14 0.281E-13 -.306E-13
 -----------------------------------------------------------------------------------------------
   -.377E-13 0.384E-14 -.254E-13   -.779E-15 -.103E-14 0.569E-15   -.258E-25 -.775E-25 -.775E-25   -.410E-14 0.281E-13 -.306E-13
 
 
 POSITION                                       TOTAL-FORCE (eV/Angst)
 -----------------------------------------------------------------------------------
      0.00000      0.00000      0.00000         0.000000      0.000000      0.000000
 -----------------------------------------------------------------------------------
    total drift:                               -0.000000      0.000000     -0.000000


--------------------------------------------------------------------------------------------------------



  FREE ENERGIE OF THE ION-ELECTRON SYSTEM (eV)
  ---------------------------------------------------
  free  energy   TOTEN  =        -5.46390283 eV

  energy  without entropy=       -5.46099927  energy(sigma->0) =       -5.46293498
 


--------------------------------------------------------------------------------------------------------


    POTLOK:  cpu time    0.0110: real time    0.0110


--------------------------------------------------------------------------------------------------------


 writing wavefunctions
     LOOP+:  cpu time   17.2466: real time   18.9156
    4ORBIT:  cpu time    0.0000: real time    0.0000
 


 total charge     
 
# of ion       s       p       d       tot
------------------------------------------
    1        0.492   0.486   8.312   9.290
 


 magnetization (x)
 
# of ion       s       p       d       tot
------------------------------------------
    1       -0.006  -0.025   0.659   0.628
 

 total amount of memory used by VASP MPI-rank0    37393. kBytes
=======================================================================

   base      :      30000. kBytes
   nonl-proj :       5438. kBytes
   fftplans  :         93. kBytes
   grid      :        404. kBytes
   one-center:         31. kBytes
   wavefun   :       1427. kBytes
 
  
  
 General timing and accounting informations for this job:
 ========================================================
  
                  Total CPU time used (sec):       19.549
                            User time (sec):       18.938
                          System time (sec):        0.611
                         Elapsed time (sec):       21.837
  
                   Maximum memory used (kb):      101412.
                   Average memory used (kb):           0.
  
                          Minor page faults:        20890
                          Major page faults:            0
                 Voluntary context switches:         1327
