   8   8   0   0
  0.5796174E+02  0.5174000E-09  0.5174160E-09  0.2000000E-08  0.5000000E-15
  1.000000000000000E-004
  CAR 
 BC3 DOS                                 
      5.88461805    -22.24553161  301     -3.84107222      1.00000000
    -22.246  0.0000E+00  0.0000E+00
    -22.152  0.0000E+00  0.0000E+00
    -22.058  0.0000E+00  0.0000E+00
    -21.964  0.0000E+00  0.0000E+00
    -21.870  0.0000E+00  0.0000E+00
    -21.777  0.0000E+00  0.0000E+00
    -21.683  0.0000E+00  0.0000E+00
    -21.589  0.0000E+00  0.0000E+00
    -21.495  0.0000E+00  0.0000E+00
    -21.402  0.2220E-16  0.2082E-17
    -21.308  0.4447E-14  0.4191E-15
    -21.214  0.5882E-12  0.5557E-13
    -21.120  0.5065E-10  0.4805E-11
    -21.027  0.2845E-08  0.2716E-09
    -20.933  0.1044E-06  0.1006E-07
    -20.839  0.2511E-05  0.2455E-06
    -20.745  0.3967E-04  0.3966E-05
    -20.651  0.4137E-03  0.4276E-04
    -20.558  0.2865E-02  0.3114E-03
    -20.464  0.1331E-01  0.1560E-02
    -20.370  0.4217E-01  0.5514E-02
    -20.276  0.9383E-01  0.1431E-01
    -20.183  0.1543E+00  0.2878E-01
    -20.089  0.2039E+00  0.4790E-01
    -19.995  0.2408E+00  0.7048E-01
    -19.901  0.2758E+00  0.9634E-01
    -19.808  0.3055E+00  0.1250E+00
    -19.714  0.3033E+00  0.1534E+00
    -19.620  0.2467E+00  0.1766E+00
    -19.526  0.1532E+00  0.1909E+00
    -19.433  0.6921E-01  0.1974E+00
    -19.339  0.2201E-01  0.1995E+00
    -19.245  0.4822E-02  0.1999E+00
    -19.151  0.7183E-03  0.2000E+00
    -19.057  0.7206E-04  0.2000E+00
    -18.964  0.4835E-05  0.2000E+00
    -18.870  0.2159E-06  0.2000E+00
    -18.776  0.7005E-08  0.2000E+00
    -18.682  0.2609E-07  0.2000E+00
    -18.589  0.7120E-06  0.2000E+00
    -18.495  0.1286E-04  0.2000E+00
    -18.401  0.1537E-03  0.2000E+00
    -18.307  0.1225E-02  0.2001E+00
    -18.214  0.6572E-02  0.2007E+00
    -18.120  0.2412E-01  0.2030E+00
    -18.026  0.6201E-01  0.2088E+00
    -17.932  0.1160E+00  0.2197E+00
    -17.838  0.1669E+00  0.2354E+00
    -17.745  0.1989E+00  0.2540E+00
    -17.651  0.2084E+00  0.2735E+00
    -17.557  0.1964E+00  0.2920E+00
    -17.463  0.1708E+00  0.3080E+00
    -17.370  0.1521E+00  0.3222E+00
    -17.276  0.1553E+00  0.3368E+00
    -17.182  0.1751E+00  0.3532E+00
    -17.088  0.1983E+00  0.3718E+00
    -16.995  0.2243E+00  0.3928E+00
    -16.901  0.2650E+00  0.4177E+00
    -16.807  0.3159E+00  0.4473E+00
    -16.713  0.3419E+00  0.4794E+00
    -16.620  0.3224E+00  0.5096E+00
    -16.526  0.2815E+00  0.5360E+00
    -16.432  0.2442E+00  0.5589E+00
    -16.338  0.2006E+00  0.5777E+00
    -16.244  0.1367E+00  0.5905E+00
    -16.151  0.6934E-01  0.5970E+00
    -16.057  0.2471E-01  0.5993E+00
    -15.963  0.6001E-02  0.5999E+00
    -15.869  0.9776E-03  0.6000E+00
    -15.776  0.1058E-03  0.6000E+00
    -15.682  0.7562E-05  0.6000E+00
    -15.588  0.3555E-06  0.6000E+00
    -15.494  0.1095E-07  0.6000E+00
    -15.401  0.3429E-09  0.6000E+00
    -15.307  0.6248E-08  0.6000E+00
    -15.213  0.2090E-06  0.6000E+00
    -15.119  0.4600E-05  0.6000E+00
    -15.025  0.6682E-04  0.6000E+00
    -14.932  0.6441E-03  0.6001E+00
    -14.838  0.4150E-02  0.6005E+00
    -14.744  0.1805E-01  0.6021E+00
    -14.650  0.5384E-01  0.6072E+00
    -14.557  0.1129E+00  0.6178E+00
    -14.463  0.1741E+00  0.6341E+00
    -14.369  0.2148E+00  0.6542E+00
    -14.275  0.2421E+00  0.6769E+00
    -14.182  0.2780E+00  0.7030E+00
    -14.088  0.3176E+00  0.7328E+00
    -13.994  0.3267E+00  0.7634E+00
    -13.900  0.2862E+00  0.7903E+00
    -13.806  0.2174E+00  0.8107E+00
    -13.713  0.1563E+00  0.8253E+00
    -13.619  0.1202E+00  0.8366E+00
    -13.525  0.1080E+00  0.8467E+00
    -13.431  0.1086E+00  0.8569E+00
    -13.338  0.1099E+00  0.8672E+00
    -13.244  0.1118E+00  0.8777E+00
    -13.150  0.1247E+00  0.8894E+00
    -13.056  0.1538E+00  0.9038E+00
    -12.963  0.1898E+00  0.9216E+00
    -12.869  0.2138E+00  0.9416E+00
    -12.775  0.2109E+00  0.9614E+00
    -12.681  0.1828E+00  0.9786E+00
    -12.588  0.1475E+00  0.9924E+00
    -12.494  0.1239E+00  0.1004E+01
    -12.400  0.1168E+00  0.1015E+01
    -12.306  0.1160E+00  0.1026E+01
    -12.212  0.1091E+00  0.1036E+01
    -12.119  0.9385E-01  0.1045E+01
    -12.025  0.7775E-01  0.1052E+01
    -11.931  0.6707E-01  0.1058E+01
    -11.837  0.6419E-01  0.1064E+01
    -11.744  0.7163E-01  0.1071E+01
    -11.650  0.8867E-01  0.1079E+01
    -11.556  0.1060E+00  0.1089E+01
    -11.462  0.1142E+00  0.1100E+01
    -11.369  0.1155E+00  0.1111E+01
    -11.275  0.1179E+00  0.1122E+01
    -11.181  0.1225E+00  0.1134E+01
    -11.087  0.1281E+00  0.1146E+01
    -10.993  0.1358E+00  0.1158E+01
    -10.900  0.1450E+00  0.1172E+01
    -10.806  0.1547E+00  0.1186E+01
    -10.712  0.1662E+00  0.1202E+01
    -10.618  0.1754E+00  0.1218E+01
    -10.525  0.1754E+00  0.1235E+01
    -10.431  0.1724E+00  0.1251E+01
    -10.337  0.1817E+00  0.1268E+01
    -10.243  0.2051E+00  0.1287E+01
    -10.150  0.2264E+00  0.1309E+01
    -10.056  0.2297E+00  0.1330E+01
     -9.962  0.2175E+00  0.1350E+01
     -9.868  0.2067E+00  0.1370E+01
     -9.774  0.2079E+00  0.1389E+01
     -9.681  0.2190E+00  0.1410E+01
     -9.587  0.2329E+00  0.1432E+01
     -9.493  0.2440E+00  0.1455E+01
     -9.399  0.2480E+00  0.1478E+01
     -9.306  0.2420E+00  0.1501E+01
     -9.212  0.2321E+00  0.1522E+01
     -9.118  0.2360E+00  0.1544E+01
     -9.024  0.2619E+00  0.1569E+01
     -8.931  0.2890E+00  0.1596E+01
     -8.837  0.2893E+00  0.1623E+01
     -8.743  0.2591E+00  0.1647E+01
     -8.649  0.2226E+00  0.1668E+01
     -8.556  0.2114E+00  0.1688E+01
     -8.462  0.2355E+00  0.1710E+01
     -8.368  0.2805E+00  0.1737E+01
     -8.274  0.3278E+00  0.1767E+01
     -8.180  0.3625E+00  0.1801E+01
     -8.087  0.3708E+00  0.1836E+01
     -7.993  0.3431E+00  0.1868E+01
     -7.899  0.2795E+00  0.1894E+01
     -7.805  0.2023E+00  0.1913E+01
     -7.712  0.1485E+00  0.1927E+01
     -7.618  0.1349E+00  0.1940E+01
     -7.524  0.1452E+00  0.1954E+01
     -7.430  0.1529E+00  0.1968E+01
     -7.337  0.1482E+00  0.1982E+01
     -7.243  0.1430E+00  0.1995E+01
     -7.149  0.1574E+00  0.2010E+01
     -7.055  0.2064E+00  0.2029E+01
     -6.961  0.2955E+00  0.2057E+01
     -6.868  0.4175E+00  0.2096E+01
     -6.774  0.5409E+00  0.2147E+01
     -6.680  0.6060E+00  0.2204E+01
     -6.586  0.5738E+00  0.2258E+01
     -6.493  0.4743E+00  0.2302E+01
     -6.399  0.3694E+00  0.2337E+01
     -6.305  0.2923E+00  0.2364E+01
     -6.211  0.2452E+00  0.2387E+01
     -6.118  0.2224E+00  0.2408E+01
     -6.024  0.2167E+00  0.2428E+01
     -5.930  0.2177E+00  0.2449E+01
     -5.836  0.2194E+00  0.2469E+01
     -5.743  0.2265E+00  0.2490E+01
     -5.649  0.2421E+00  0.2513E+01
     -5.555  0.2618E+00  0.2538E+01
     -5.461  0.2882E+00  0.2565E+01
     -5.367  0.3351E+00  0.2596E+01
     -5.274  0.4088E+00  0.2635E+01
     -5.180  0.4933E+00  0.2681E+01
     -5.086  0.5538E+00  0.2733E+01
     -4.992  0.5575E+00  0.2785E+01
     -4.899  0.4979E+00  0.2832E+01
     -4.805  0.3940E+00  0.2869E+01
     -4.711  0.2809E+00  0.2895E+01
     -4.617  0.1947E+00  0.2913E+01
     -4.524  0.1492E+00  0.2927E+01
     -4.430  0.1371E+00  0.2940E+01
     -4.336  0.1464E+00  0.2954E+01
     -4.242  0.1590E+00  0.2969E+01
     -4.148  0.1487E+00  0.2983E+01
     -4.055  0.1063E+00  0.2993E+01
     -3.961  0.5467E-01  0.2998E+01
     -3.867  0.2103E-01  0.3000E+01
     -3.773  0.1343E-01  0.3001E+01
     -3.680  0.3073E-01  0.3004E+01
     -3.586  0.7114E-01  0.3010E+01
     -3.492  0.1213E+00  0.3022E+01
     -3.398  0.1575E+00  0.3037E+01
     -3.305  0.1712E+00  0.3053E+01
     -3.211  0.1781E+00  0.3069E+01
     -3.117  0.1928E+00  0.3087E+01
     -3.023  0.2046E+00  0.3107E+01
     -2.929  0.1943E+00  0.3125E+01
     -2.836  0.1648E+00  0.3140E+01
     -2.742  0.1352E+00  0.3153E+01
     -2.648  0.1171E+00  0.3164E+01
     -2.554  0.1090E+00  0.3174E+01
     -2.461  0.1005E+00  0.3184E+01
     -2.367  0.8194E-01  0.3191E+01
     -2.273  0.5376E-01  0.3196E+01
     -2.179  0.2659E-01  0.3199E+01
     -2.086  0.9468E-02  0.3200E+01
     -1.992  0.2348E-02  0.3200E+01
     -1.898  0.3964E-03  0.3200E+01
     -1.804  0.4490E-04  0.3200E+01
     -1.711  0.3405E-05  0.3200E+01
     -1.617  0.8396E-06  0.3200E+01
     -1.523  0.1064E-04  0.3200E+01
     -1.429  0.1112E-03  0.3200E+01
     -1.335  0.7720E-03  0.3200E+01
     -1.242  0.3593E-02  0.3200E+01
     -1.148  0.1138E-01  0.3201E+01
     -1.054  0.2527E-01  0.3204E+01
     -0.960  0.4190E-01  0.3208E+01
     -0.867  0.5918E-01  0.3213E+01
     -0.773  0.8604E-01  0.3221E+01
     -0.679  0.1377E+00  0.3234E+01
     -0.585  0.2115E+00  0.3254E+01
     -0.492  0.2710E+00  0.3280E+01
     -0.398  0.2783E+00  0.3306E+01
     -0.304  0.2407E+00  0.3328E+01
     -0.210  0.2001E+00  0.3347E+01
     -0.116  0.1862E+00  0.3364E+01
     -0.023  0.1979E+00  0.3383E+01
      0.071  0.2149E+00  0.3403E+01
      0.165  0.2234E+00  0.3424E+01
      0.259  0.2282E+00  0.3445E+01
      0.352  0.2366E+00  0.3468E+01
      0.446  0.2407E+00  0.3490E+01
      0.540  0.2302E+00  0.3512E+01
      0.634  0.2128E+00  0.3532E+01
      0.727  0.2069E+00  0.3551E+01
      0.821  0.2190E+00  0.3572E+01
      0.915  0.2418E+00  0.3594E+01
      1.009  0.2690E+00  0.3620E+01
      1.102  0.3030E+00  0.3648E+01
      1.196  0.3448E+00  0.3680E+01
      1.290  0.3813E+00  0.3716E+01
      1.384  0.3955E+00  0.3753E+01
      1.478  0.3896E+00  0.3790E+01
      1.571  0.3784E+00  0.3825E+01
      1.665  0.3708E+00  0.3860E+01
      1.759  0.3695E+00  0.3895E+01
      1.853  0.3750E+00  0.3930E+01
      1.946  0.3819E+00  0.3966E+01
      2.040  0.3802E+00  0.4001E+01
      2.134  0.3674E+00  0.4036E+01
      2.228  0.3566E+00  0.4069E+01
      2.321  0.3648E+00  0.4103E+01
      2.415  0.3958E+00  0.4140E+01
      2.509  0.4346E+00  0.4181E+01
      2.603  0.4583E+00  0.4224E+01
      2.697  0.4614E+00  0.4267E+01
      2.790  0.4661E+00  0.4311E+01
      2.884  0.4872E+00  0.4357E+01
      2.978  0.5057E+00  0.4404E+01
      3.072  0.4988E+00  0.4451E+01
      3.165  0.4759E+00  0.4496E+01
      3.259  0.4632E+00  0.4539E+01
      3.353  0.4686E+00  0.4583E+01
      3.447  0.4787E+00  0.4628E+01
      3.540  0.4763E+00  0.4673E+01
      3.634  0.4455E+00  0.4714E+01
      3.728  0.3744E+00  0.4749E+01
      3.822  0.2697E+00  0.4775E+01
      3.916  0.1597E+00  0.4790E+01
      4.009  0.7478E-01  0.4797E+01
      4.103  0.2664E-01  0.4799E+01
      4.197  0.6957E-02  0.4800E+01
      4.291  0.1292E-02  0.4800E+01
      4.384  0.1664E-03  0.4800E+01
      4.478  0.1462E-04  0.4800E+01
      4.572  0.8646E-06  0.4800E+01
      4.666  0.3412E-07  0.4800E+01
      4.759  0.8923E-09  0.4800E+01
      4.853  0.1538E-10  0.4800E+01
      4.947  0.1740E-12  0.4800E+01
      5.041  0.1283E-14  0.4800E+01
      5.134  0.4933E-17  0.4800E+01
      5.228  0.0000E+00  0.4800E+01
      5.322  0.0000E+00  0.4800E+01
      5.416  0.0000E+00  0.4800E+01
      5.510  0.0000E+00  0.4800E+01
      5.603  0.0000E+00  0.4800E+01
      5.697  0.0000E+00  0.4800E+01
      5.791  0.0000E+00  0.4800E+01
      5.885  0.0000E+00  0.4800E+01
