   8   8   0   0
  0.5796174E+02  0.5174000E-09  0.5174160E-09  0.2000000E-08  0.5000000E-15
  1.000000000000000E-004
  CAR 
 BC3 DOS                                 
      5.87581131    -22.31459121  301     -4.22574959      1.00000000
    -22.315  0.0000E+00  0.0000E+00
    -22.221  0.0000E+00  0.0000E+00
    -22.127  0.0000E+00  0.0000E+00
    -22.033  0.0000E+00  0.0000E+00
    -21.939  0.0000E+00  0.0000E+00
    -21.845  0.0000E+00  0.0000E+00
    -21.751  0.0000E+00  0.0000E+00
    -21.657  0.0000E+00  0.0000E+00
    -21.563  0.0000E+00  0.0000E+00
    -21.469  0.0000E+00  0.0000E+00
    -21.375  0.0000E+00  0.0000E+00
    -21.281  0.0000E+00  0.0000E+00
    -21.187  0.0000E+00  0.0000E+00
    -21.093  0.0000E+00  0.0000E+00
    -20.999  0.0000E+00  0.0000E+00
    -20.905  0.0000E+00  0.0000E+00
    -20.811  0.0000E+00  0.0000E+00
    -20.717  0.0000E+00  0.0000E+00
    -20.623  0.0000E+00  0.0000E+00
    -20.529  0.0000E+00  0.0000E+00
    -20.435  0.0000E+00  0.0000E+00
    -20.341  0.0000E+00  0.0000E+00
    -20.247  0.1833E+00  0.1195E-01
    -20.153  0.2062E+00  0.3045E-01
    -20.059  0.2231E+00  0.5040E-01
    -19.965  0.2500E+00  0.7249E-01
    -19.871  0.3056E+00  0.9845E-01
    -19.777  0.4832E+00  0.1340E+00
    -19.683  0.4369E+00  0.1889E+00
    -19.590  0.0000E+00  0.2000E+00
    -19.496  0.0000E+00  0.2000E+00
    -19.402  0.0000E+00  0.2000E+00
    -19.308  0.0000E+00  0.2000E+00
    -19.214  0.0000E+00  0.2000E+00
    -19.120  0.0000E+00  0.2000E+00
    -19.026  0.0000E+00  0.2000E+00
    -18.932  0.0000E+00  0.2000E+00
    -18.838  0.0000E+00  0.2000E+00
    -18.744  0.0000E+00  0.2000E+00
    -18.650  0.0000E+00  0.2000E+00
    -18.556  0.0000E+00  0.2000E+00
    -18.462  0.0000E+00  0.2000E+00
    -18.368  0.0000E+00  0.2000E+00
    -18.274  0.0000E+00  0.2000E+00
    -18.180  0.0000E+00  0.2000E+00
    -18.086  0.0000E+00  0.2000E+00
    -17.992  0.2516E+00  0.2125E+00
    -17.898  0.3147E+00  0.2403E+00
    -17.804  0.4246E+00  0.2785E+00
    -17.710  0.1835E+00  0.3015E+00
    -17.616  0.1814E+00  0.3174E+00
    -17.522  0.1879E+00  0.3350E+00
    -17.428  0.1975E+00  0.3528E+00
    -17.334  0.2035E+00  0.3716E+00
    -17.240  0.2203E+00  0.3914E+00
    -17.146  0.2379E+00  0.4127E+00
    -17.052  0.2747E+00  0.4365E+00
    -16.958  0.3141E+00  0.4640E+00
    -16.864  0.3758E+00  0.5050E+00
    -16.770  0.2621E+00  0.5338E+00
    -16.677  0.2245E+00  0.5560E+00
    -16.583  0.1990E+00  0.5748E+00
    -16.489  0.1871E+00  0.5913E+00
    -16.395  0.0000E+00  0.6000E+00
    -16.301  0.0000E+00  0.6000E+00
    -16.207  0.0000E+00  0.6000E+00
    -16.113  0.0000E+00  0.6000E+00
    -16.019  0.0000E+00  0.6000E+00
    -15.925  0.0000E+00  0.6000E+00
    -15.831  0.0000E+00  0.6000E+00
    -15.737  0.0000E+00  0.6000E+00
    -15.643  0.0000E+00  0.6000E+00
    -15.549  0.0000E+00  0.6000E+00
    -15.455  0.0000E+00  0.6000E+00
    -15.361  0.0000E+00  0.6000E+00
    -15.267  0.0000E+00  0.6000E+00
    -15.173  0.0000E+00  0.6000E+00
    -15.079  0.0000E+00  0.6000E+00
    -14.985  0.0000E+00  0.6000E+00
    -14.891  0.0000E+00  0.6000E+00
    -14.797  0.0000E+00  0.6000E+00
    -14.703  0.0000E+00  0.6000E+00
    -14.609  0.7377E-01  0.6004E+00
    -14.515  0.2141E+00  0.6184E+00
    -14.421  0.2237E+00  0.6385E+00
    -14.327  0.2690E+00  0.6615E+00
    -14.233  0.3400E+00  0.6889E+00
    -14.139  0.3733E+00  0.7323E+00
    -14.045  0.1761E+00  0.7573E+00
    -13.951  0.1631E+00  0.7752E+00
    -13.857  0.1517E+00  0.7899E+00
    -13.764  0.1553E+00  0.8032E+00
    -13.670  0.1285E+00  0.8170E+00
    -13.576  0.1333E+00  0.8294E+00
    -13.482  0.1449E+00  0.8416E+00
    -13.388  0.1004E+00  0.8536E+00
    -13.294  0.1198E+00  0.8640E+00
    -13.200  0.1715E+00  0.8765E+00
    -13.106  0.2216E+00  0.8936E+00
    -13.012  0.1912E+00  0.9159E+00
    -12.918  0.1855E+00  0.9343E+00
    -12.824  0.1766E+00  0.9513E+00
    -12.730  0.1594E+00  0.9672E+00
    -12.636  0.1527E+00  0.9817E+00
    -12.542  0.1474E+00  0.9961E+00
    -12.448  0.1312E+00  0.1009E+01
    -12.354  0.1237E+00  0.1022E+01
    -12.260  0.4296E-01  0.1029E+01
    -12.166  0.4530E-01  0.1033E+01
    -12.072  0.4461E-01  0.1037E+01
    -11.978  0.4574E-01  0.1041E+01
    -11.884  0.4744E-01  0.1046E+01
    -11.790  0.4943E-01  0.1050E+01
    -11.696  0.5142E-01  0.1055E+01
    -11.602  0.9941E-01  0.1062E+01
    -11.508  0.8494E-01  0.1070E+01
    -11.414  0.9104E-01  0.1078E+01
    -11.320  0.9077E-01  0.1086E+01
    -11.226  0.1504E+00  0.1099E+01
    -11.132  0.1685E+00  0.1114E+01
    -11.038  0.1747E+00  0.1130E+01
    -10.944  0.1856E+00  0.1147E+01
    -10.850  0.1978E+00  0.1165E+01
    -10.757  0.3983E+00  0.1195E+01
    -10.663  0.1657E+00  0.1217E+01
    -10.569  0.1345E+00  0.1231E+01
    -10.475  0.1098E+00  0.1245E+01
    -10.381  0.4741E-01  0.1250E+01
    -10.287  0.1890E+00  0.1258E+01
    -10.193  0.3751E+00  0.1294E+01
    -10.099  0.3005E+00  0.1325E+01
    -10.005  0.2964E+00  0.1352E+01
     -9.911  0.5556E-01  0.1369E+01
     -9.817  0.1172E+00  0.1377E+01
     -9.723  0.2211E+00  0.1391E+01
     -9.629  0.2048E+00  0.1416E+01
     -9.535  0.2271E+00  0.1436E+01
     -9.441  0.2803E+00  0.1459E+01
     -9.347  0.2773E+00  0.1488E+01
     -9.253  0.2379E+00  0.1512E+01
     -9.159  0.2035E+00  0.1532E+01
     -9.065  0.3337E+00  0.1560E+01
     -8.971  0.3739E+00  0.1587E+01
     -8.877  0.2068E+00  0.1613E+01
     -8.783  0.2134E+00  0.1632E+01
     -8.689  0.1654E+00  0.1653E+01
     -8.595  0.1336E+00  0.1666E+01
     -8.501  0.3177E+00  0.1689E+01
     -8.407  0.2407E+00  0.1714E+01
     -8.313  0.5289E+00  0.1744E+01
     -8.219  0.4850E+00  0.1795E+01
     -8.125  0.3699E+00  0.1837E+01
     -8.031  0.5045E+00  0.1885E+01
     -7.937  0.2826E+00  0.1915E+01
     -7.844  0.2165E+00  0.1937E+01
     -7.750  0.7722E-01  0.1946E+01
     -7.656  0.2275E+00  0.1961E+01
     -7.562  0.2412E+00  0.1987E+01
     -7.468  0.1714E+00  0.2005E+01
     -7.374  0.1589E+00  0.2020E+01
     -7.280  0.1700E+00  0.2036E+01
     -7.186  0.1638E+00  0.2052E+01
     -7.092  0.1829E+00  0.2069E+01
     -6.998  0.3642E+00  0.2097E+01
     -6.904  0.5089E+00  0.2139E+01
     -6.810  0.1385E+01  0.2221E+01
     -6.716  0.6501E+00  0.2298E+01
     -6.622  0.4591E+00  0.2343E+01
     -6.528  0.2088E+00  0.2382E+01
     -6.434  0.2438E+00  0.2404E+01
     -6.340  0.2318E+00  0.2427E+01
     -6.246  0.2387E+00  0.2449E+01
     -6.152  0.2502E+00  0.2472E+01
     -6.058  0.2544E+00  0.2496E+01
     -5.964  0.2640E+00  0.2520E+01
     -5.870  0.2801E+00  0.2546E+01
     -5.776  0.2922E+00  0.2573E+01
     -5.682  0.3144E+00  0.2601E+01
     -5.588  0.3522E+00  0.2633E+01
     -5.494  0.4663E+00  0.2668E+01
     -5.400  0.4339E+00  0.2711E+01
     -5.306  0.4571E+00  0.2750E+01
     -5.212  0.5598E+00  0.2798E+01
     -5.118  0.4585E+00  0.2844E+01
     -5.024  0.3826E+00  0.2879E+01
     -4.931  0.3908E+00  0.2917E+01
     -4.837  0.1349E+00  0.2931E+01
     -4.743  0.1252E+00  0.2943E+01
     -4.649  0.1236E+00  0.2955E+01
     -4.555  0.1136E+00  0.2966E+01
     -4.461  0.1178E+00  0.2977E+01
     -4.367  0.1134E+00  0.2988E+01
     -4.273  0.1186E+00  0.2998E+01
     -4.179  0.0000E+00  0.3000E+01
     -4.085  0.0000E+00  0.3000E+01
     -3.991  0.0000E+00  0.3000E+01
     -3.897  0.0000E+00  0.3000E+01
     -3.803  0.0000E+00  0.3000E+01
     -3.709  0.0000E+00  0.3000E+01
     -3.615  0.0000E+00  0.3000E+01
     -3.521  0.1362E+00  0.3007E+01
     -3.427  0.1569E+00  0.3022E+01
     -3.333  0.1711E+00  0.3037E+01
     -3.239  0.2073E+00  0.3055E+01
     -3.145  0.2509E+00  0.3076E+01
     -3.051  0.3052E+00  0.3108E+01
     -2.957  0.2026E+00  0.3129E+01
     -2.863  0.1427E+00  0.3145E+01
     -2.769  0.1285E+00  0.3158E+01
     -2.675  0.9850E-01  0.3169E+01
     -2.581  0.8364E-01  0.3177E+01
     -2.487  0.7421E-01  0.3185E+01
     -2.393  0.3644E-01  0.3190E+01
     -2.299  0.3221E-01  0.3193E+01
     -2.205  0.2624E-01  0.3196E+01
     -2.111  0.2026E-01  0.3198E+01
     -2.018  0.0000E+00  0.3200E+01
     -1.924  0.0000E+00  0.3200E+01
     -1.830  0.0000E+00  0.3200E+01
     -1.736  0.0000E+00  0.3200E+01
     -1.642  0.0000E+00  0.3200E+01
     -1.548  0.1889E-01  0.3201E+01
     -1.454  0.2517E-01  0.3204E+01
     -1.360  0.3145E-01  0.3206E+01
     -1.266  0.3598E-01  0.3209E+01
     -1.172  0.5034E-01  0.3213E+01
     -1.078  0.5394E-01  0.3218E+01
     -0.984  0.6480E-01  0.3224E+01
     -0.890  0.8387E-01  0.3231E+01
     -0.796  0.8178E-01  0.3239E+01
     -0.702  0.1083E+00  0.3249E+01
     -0.608  0.2754E+00  0.3268E+01
     -0.514  0.2987E+00  0.3307E+01
     -0.420  0.2117E+00  0.3331E+01
     -0.326  0.1758E+00  0.3348E+01
     -0.232  0.1515E+00  0.3364E+01
     -0.138  0.1377E+00  0.3377E+01
     -0.044  0.1289E+00  0.3390E+01
      0.050  0.1608E+00  0.3404E+01
      0.144  0.1411E+00  0.3419E+01
      0.238  0.1021E+00  0.3431E+01
      0.332  0.7874E-01  0.3438E+01
      0.426  0.1442E+00  0.3446E+01
      0.520  0.1918E+00  0.3464E+01
      0.614  0.1923E+00  0.3482E+01
      0.708  0.1875E+00  0.3499E+01
      0.802  0.1986E+00  0.3517E+01
      0.896  0.2086E+00  0.3536E+01
      0.989  0.2253E+00  0.3557E+01
      1.083  0.2454E+00  0.3579E+01
      1.177  0.2506E+00  0.3602E+01
      1.271  0.2420E+00  0.3625E+01
      1.365  0.3267E+00  0.3655E+01
      1.459  0.3067E+00  0.3684E+01
      1.553  0.3917E+00  0.3717E+01
      1.647  0.4001E+00  0.3755E+01
      1.741  0.3975E+00  0.3792E+01
      1.835  0.3913E+00  0.3830E+01
      1.929  0.3899E+00  0.3867E+01
      2.023  0.3936E+00  0.3903E+01
      2.117  0.3932E+00  0.3941E+01
      2.211  0.3665E+00  0.3977E+01
      2.305  0.3535E+00  0.4011E+01
      2.399  0.4271E+00  0.4046E+01
      2.493  0.4990E+00  0.4087E+01
      2.587  0.4466E+00  0.4138E+01
      2.681  0.6013E+00  0.4177E+01
      2.775  0.4870E+00  0.4223E+01
      2.869  0.4266E+00  0.4266E+01
      2.963  0.5840E+00  0.4313E+01
      3.057  0.7621E+00  0.4385E+01
      3.151  0.5803E+00  0.4438E+01
      3.245  0.3798E+00  0.4480E+01
      3.339  0.5285E+00  0.4523E+01
      3.433  0.5764E+00  0.4588E+01
      3.527  0.4739E+00  0.4644E+01
      3.621  0.4678E+00  0.4702E+01
      3.715  0.6257E+00  0.4760E+01
      3.809  0.2014E+00  0.4793E+01
      3.902  0.0000E+00  0.4800E+01
      3.996  0.0000E+00  0.4800E+01
      4.090  0.0000E+00  0.4800E+01
      4.184  0.0000E+00  0.4800E+01
      4.278  0.0000E+00  0.4800E+01
      4.372  0.0000E+00  0.4800E+01
      4.466  0.0000E+00  0.4800E+01
      4.560  0.0000E+00  0.4800E+01
      4.654  0.0000E+00  0.4800E+01
      4.748  0.0000E+00  0.4800E+01
      4.842  0.0000E+00  0.4800E+01
      4.936  0.0000E+00  0.4800E+01
      5.030  0.0000E+00  0.4800E+01
      5.124  0.0000E+00  0.4800E+01
      5.218  0.0000E+00  0.4800E+01
      5.312  0.0000E+00  0.4800E+01
      5.406  0.0000E+00  0.4800E+01
      5.500  0.0000E+00  0.4800E+01
      5.594  0.0000E+00  0.4800E+01
      5.688  0.0000E+00  0.4800E+01
      5.782  0.0000E+00  0.4800E+01
      5.876  0.0000E+00  0.4800E+01
