    8    8   10    1
  0.5796174E+02  0.5174000E-09  0.5174160E-09  0.2000000E-08  0.5000000E-15
  1.000000000000000E-004
  CAR 
 BC3 DOS                                 
     30     73     24
 
  0.0000000E+00  0.0000000E+00  0.0000000E+00  0.3906250E-02
    1      -20.314591   1.000000
    2      -16.423538   1.000000
    3      -16.423029   1.000000
    4      -14.073823   1.000000
    5      -14.073634   1.000000
    6      -13.005022   1.000000
    7      -11.688274   1.000000
    8       -9.119566   1.000000
    9       -8.899364   1.000000
   10       -6.745913   1.000000
   11       -6.745384   1.000000
   12       -4.923787   1.000000
   13       -4.923388   1.000000
   14       -4.241517   1.000000
   15       -4.241340   1.000000
   16       -2.406144   0.000000
   17       -0.674022   0.000000
   18       -0.673907   0.000000
   19       -0.021104   0.000000
   20        0.415297   0.000000
   21        1.274006   0.000000
   22        1.494217   0.000000
   23        2.493328   0.000000
   24        2.880891   0.000000
 
  0.6250000E-01 -0.1387779E-16  0.0000000E+00  0.1562500E-01
    1      -20.299306   1.000000
    2      -16.499359   1.000000
    3      -16.447806   1.000000
    4      -14.095411   1.000000
    5      -14.017702   1.000000
    6      -12.929223   1.000000
    7      -11.596673   1.000000
    8       -9.096409   1.000000
    9       -8.931414   1.000000
   10       -6.815539   1.000000
   11       -6.759223   1.000000
   12       -4.994229   1.000000
   13       -4.935409   1.000000
   14       -4.322172   1.000000
   15       -4.280520   1.000000
   16       -2.531390   0.000000
   17       -0.640318   0.000000
   18       -0.485988   0.000000
   19        0.044625   0.000000
   20        0.444408   0.000000
   21        1.305438   0.000000
   22        1.523475   0.000000
   23        2.522710   0.000000
   24        2.910324   0.000000
 
  0.1250000E+00 -0.2775558E-16  0.0000000E+00  0.1562500E-01
    1      -20.254110   1.000000
    2      -16.701728   1.000000
    3      -16.512904   1.000000
    4      -14.163459   1.000000
    5      -13.858838   1.000000
    6      -12.706302   1.000000
    7      -11.340996   1.000000
    8       -9.031285   1.000000
    9       -9.027178   1.000000
   10       -7.017397   1.000000
   11       -6.788515   1.000000
   12       -5.196262   1.000000
   13       -4.968161   1.000000
   14       -4.557431   1.000000
   15       -4.392848   1.000000
   16       -2.786535   0.000000
   17       -0.544150   0.000000
   18       -0.109250   0.000000
   19        0.294433   0.000000
   20        0.531554   0.000000
   21        1.401088   0.000000
   22        1.611216   0.000000
   23        2.610923   0.000000
   24        2.998350   0.000000
 
  0.1875000E+00 -0.2775558E-16  0.0000000E+00  0.1562500E-01
    1      -20.181282   1.000000
    2      -16.976863   1.000000
    3      -16.600519   1.000000
    4      -14.265878   1.000000
    5      -13.618535   1.000000
    6      -12.364989   1.000000
    7      -10.959712   1.000000
    8       -9.205630   1.000000
    9       -8.913115   1.000000
   10       -7.329456   1.000000
   11       -6.808402   1.000000
   12       -5.500728   1.000000
   13       -5.015497   1.000000
   14       -4.928357   1.000000
   15       -4.565116   1.000000
   16       -3.038631   0.000000
   17       -0.398197   0.000000
   18        0.189753   0.000000
   19        0.676307   0.000000
   20        0.815013   0.000000
   21        1.568872   0.000000
   22        1.757369   0.000000
   23        2.758200   0.000000
   24        3.144397   0.000000
 
  0.2500000E+00 -0.5551115E-16  0.0000000E+00  0.1562500E-01
    1      -20.085375   1.000000
    2      -17.276857   1.000000
    3      -16.692363   1.000000
    4      -14.377206   1.000000
    5      -13.321619   1.000000
    6      -11.946745   1.000000
    7      -10.488606   1.000000
    8       -9.452714   1.000000
    9       -8.756726   1.000000
   10       -7.721854   1.000000
   11       -6.795570   1.000000
   12       -5.867501   1.000000
   13       -5.408626   1.000000
   14       -5.068737   1.000000
   15       -4.777692   1.000000
   16       -3.245587   0.000000
   17       -0.222731   0.000000
   18        0.447403   0.000000
   19        0.878185   0.000000
   20        1.422890   0.000000
   21        1.856821   0.000000
   22        1.961857   0.000000
   23        2.965351   0.000000
   24        3.347935   0.000000
 
  0.3125000E+00 -0.5551115E-16  0.0000000E+00  0.1562500E-01
    1      -19.974689   1.000000
    2      -17.565656   1.000000
    3      -16.774763   1.000000
    4      -14.477443   1.000000
    5      -12.994227   1.000000
    6      -11.483743   1.000000
    7       -9.962932   1.000000
    8       -9.753574   1.000000
    9       -8.563182   1.000000
   10       -8.156158   1.000000
   11       -6.742074   1.000000
   12       -6.256518   1.000000
   13       -5.969864   1.000000
   14       -5.119631   1.000000
   15       -5.006860   1.000000
   16       -3.402306   0.000000
   17       -0.042184   0.000000
   18        0.695085   0.000000
   19        1.136806   0.000000
   20        1.868082   0.000000
   21        2.224626   0.000000
   22        2.410703   0.000000
   23        3.235142   0.000000
   24        3.608609   0.000000
 
  0.3750000E+00 -0.5551115E-16  0.0000000E+00  0.1562500E-01
    1      -19.863925   1.000000
    2      -17.812335   1.000000
    3      -16.838790   1.000000
    4      -14.554895   1.000000
    5      -12.670114   1.000000
    6      -10.999388   1.000000
    7      -10.069056   1.000000
    8       -9.466470   1.000000
    9       -8.541669   1.000000
   10       -8.344547   1.000000
   11       -6.658724   1.000000
   12       -6.630199   1.000000
   13       -6.584102   1.000000
   14       -5.224040   1.000000
   15       -5.161106   1.000000
   16       -3.511682   0.000000
   17        0.115221   0.000000
   18        0.911141   0.000000
   19        1.451879   0.000000
   20        2.218605   0.000000
   21        2.545636   0.000000
   22        3.100603   0.000000
   23        3.270124   0.000000
   24        3.571728   0.000000
 
  0.4375000E+00 -0.5551115E-16  0.0000000E+00  0.1562500E-01
    1      -19.776929   1.000000
    2      -17.983929   1.000000
    3      -16.879077   1.000000
    4      -14.603342   1.000000
    5      -12.406527   1.000000
    6      -10.525932   1.000000
    7      -10.332344   1.000000
    8       -9.408118   1.000000
    9       -8.453136   1.000000
   10       -8.134819   1.000000
   11       -7.221951   1.000000
   12       -6.938480   1.000000
   13       -6.575144   1.000000
   14       -5.390451   1.000000
   15       -5.188052   1.000000
   16       -3.576328   0.000000
   17        0.223569   0.000000
   18        1.061938   0.000000
   19        1.823154   0.000000
   20        2.591288   0.000000
   21        2.732920   0.000000
   22        2.924863   0.000000
   23        3.450263   0.000000
   24        3.755816   0.000000
 
  0.5000000E+00 -0.1110223E-15  0.0000000E+00  0.7812500E-02
    1      -19.742940   1.000000
    2      -18.046586   1.000000
    3      -16.892796   1.000000
    4      -14.619791   1.000000
    5      -12.297761   1.000000
    6      -10.441903   1.000000
    7      -10.234762   1.000000
    8       -9.628380   1.000000
    9       -8.032121   1.000000
   10       -8.003250   1.000000
   11       -7.749837   1.000000
   12       -7.074916   1.000000
   13       -6.537792   1.000000
   14       -5.455683   1.000000
   15       -5.197371   1.000000
   16       -3.597771   0.000000
   17        0.262243   0.000000
   18        1.116430   0.000000
   19        2.248263   0.000000
   20        2.252386   0.000000
   21        2.983132   0.000000
   22        3.035346   0.000000
   23        3.362028   0.000000
   24        3.362475   0.000000
 
  0.0000000E+00  0.6250000E-01  0.0000000E+00  0.7812500E-02
    1      -20.299307   1.000000
    2      -16.499727   1.000000
    3      -16.447429   1.000000
    4      -14.095256   1.000000
    5      -14.017845   1.000000
    6      -12.929237   1.000000
    7      -11.596688   1.000000
    8       -9.096410   1.000000
    9       -8.931424   1.000000
   10       -6.815926   1.000000
   11       -6.758813   1.000000
   12       -4.994526   1.000000
   13       -4.935110   1.000000
   14       -4.322314   1.000000
   15       -4.280378   1.000000
   16       -2.531346   0.000000
   17       -0.640410   0.000000
   18       -0.485933   0.000000
   19        0.044610   0.000000
   20        0.444406   0.000000
   21        1.305435   0.000000
   22        1.523473   0.000000
   23        2.522708   0.000000
   24        2.910322   0.000000
 
  0.1250000E+00  0.6250000E-01  0.0000000E+00  0.7812500E-02
    1      -20.269054   1.000000
    2      -16.633050   1.000000
    3      -16.498423   1.000000
    4      -14.121015   1.000000
    5      -13.931934   1.000000
    6      -12.776346   1.000000
    7      -11.423822   1.000000
    8       -9.050195   1.000000
    9       -8.997783   1.000000
   10       -6.943301   1.000000
   11       -6.788363   1.000000
   12       -5.123101   1.000000
   13       -4.966520   1.000000
   14       -4.477067   1.000000
   15       -4.359231   1.000000
   16       -2.710881   0.000000
   17       -0.605669   0.000000
   18       -0.162852   0.000000
   19        0.182916   0.000000
   20        0.502541   0.000000
   21        1.368826   0.000000
   22        1.581977   0.000000
   23        2.581505   0.000000
   24        2.969063   0.000000
 
  0.1875000E+00  0.6250000E-01  0.0000000E+00  0.1562500E-01
    1      -20.209993   1.000000
    2      -16.860721   1.000000
    3      -16.587241   1.000000
    4      -14.175748   1.000000
    5      -13.769878   1.000000
    6      -12.482064   1.000000
    7      -11.109023   1.000000
    8       -9.138021   1.000000
    9       -8.958525   1.000000
   10       -7.179883   1.000000
   11       -6.830530   1.000000
   12       -5.361715   1.000000
   13       -5.028761   1.000000
   14       -4.772460   1.000000
   15       -4.509172   1.000000
   16       -2.931379   0.000000
   17       -0.545145   0.000000
   18        0.248868   0.000000
   19        0.531495   0.000000
   20        0.618501   0.000000
   21        1.498575   0.000000
   22        1.698928   0.000000
   23        2.699188   0.000000
   24        3.086138   0.000000
 
  0.2500000E+00  0.6250000E-01  0.0000000E+00  0.1562500E-01
    1      -20.125430   1.000000
    2      -17.138643   1.000000
    3      -16.689091   1.000000
    4      -14.263549   1.000000
    5      -13.525194   1.000000
    6      -12.088744   1.000000
    7      -10.688591   1.000000
    8       -9.356958   1.000000
    9       -8.823181   1.000000
   10       -7.508230   1.000000
   11       -6.850917   1.000000
   12       -5.686040   1.000000
   13       -5.188382   1.000000
   14       -5.105218   1.000000
   15       -4.711055   1.000000
   16       -3.118434   0.000000
   17       -0.443728   0.000000
   18        0.542990   0.000000
   19        0.791844   0.000000
   20        1.128082   0.000000
   21        1.710825   0.000000
   22        1.874256   0.000000
   23        2.876119   0.000000
   24        3.261013   0.000000
 
  0.3125000E+00  0.6250000E-01  0.0000000E+00  0.1562500E-01
    1      -20.021569   1.000000
    2      -17.426717   1.000000
    3      -16.785580   1.000000
    4      -14.358530   1.000000
    5      -13.223213   1.000000
    6      -11.638880   1.000000
    7      -10.194882   1.000000
    8       -9.643862   1.000000
    9       -8.647772   1.000000
   10       -7.901260   1.000000
   11       -6.829405   1.000000
   12       -6.057928   1.000000
   13       -5.698567   1.000000
   14       -5.181274   1.000000
   15       -4.941541   1.000000
   16       -3.259648   0.000000
   17       -0.312408   0.000000
   18        0.815292   0.000000
   19        1.022130   0.000000
   20        1.690436   0.000000
   21        2.102890   0.000000
   22        2.107893   0.000000
   23        3.113564   0.000000
   24        3.493244   0.000000
 
  0.3750000E+00  0.6250000E-01  0.0000000E+00  0.1562500E-01
    1      -19.909518   1.000000
    2      -17.691409   1.000000
    3      -16.865267   1.000000
    4      -14.441073   1.000000
    5      -12.897089   1.000000
    6      -11.162328   1.000000
    7       -9.972074   1.000000
    8       -9.665640   1.000000
    9       -8.440139   1.000000
   10       -8.312523   1.000000
   11       -6.771891   1.000000
   12       -6.437593   1.000000
   13       -6.270667   1.000000
   14       -5.246385   1.000000
   15       -5.174098   1.000000
   16       -3.360280   0.000000
   17       -0.175619   0.000000
   18        1.065524   0.000000
   19        1.309023   0.000000
   20        2.070172   0.000000
   21        2.399795   0.000000
   22        2.750075   0.000000
   23        3.415511   0.000000
   24        3.580425   0.000000
 
  0.4375000E+00  0.6250000E-01  0.0000000E+00  0.1562500E-01
    1      -19.808224   1.000000
    2      -17.900432   1.000000
    3      -16.921419   1.000000
    4      -14.500448   1.000000
    5      -12.592801   1.000000
    6      -10.692807   1.000000
    7      -10.270948   1.000000
    8       -9.290940   1.000000
    9       -8.551257   1.000000
   10       -8.220175   1.000000
   11       -6.932002   1.000000
   12       -6.782874   1.000000
   13       -6.644370   1.000000
   14       -5.375668   1.000000
   15       -5.293454   1.000000
   16       -3.425540   0.000000
   17       -0.062017   0.000000
   18        1.263592   0.000000
   19        1.652249   0.000000
   20        2.425586   0.000000
   21        2.749923   0.000000
   22        3.016500   0.000000
   23        3.412646   0.000000
   24        3.708697   0.000000
 
  0.5000000E+00  0.6250000E-01  0.0000000E+00  0.1562500E-01
    1      -19.745199   1.000000
    2      -18.018938   1.000000
    3      -16.950321   1.000000
    4      -14.531261   1.000000
    5      -12.390198   1.000000
    6      -10.527341   1.000000
    7      -10.229413   1.000000
    8       -9.449255   1.000000
    9       -8.191916   1.000000
   10       -8.047543   1.000000
   11       -7.534920   1.000000
   12       -7.021012   1.000000
   13       -6.596549   1.000000
   14       -5.500402   1.000000
   15       -5.318029   1.000000
   16       -3.457756   0.000000
   17        0.002695   0.000000
   18        1.374881   0.000000
   19        2.051523   0.000000
   20        2.506480   0.000000
   21        2.816770   0.000000
   22        3.158253   0.000000
   23        3.256940   0.000000
   24        3.624686   0.000000
 
 -0.4375000E+00  0.6250000E-01  0.0000000E+00  0.1562500E-01
    1      -19.745200   1.000000
    2      -18.018940   1.000000
    3      -16.950318   1.000000
    4      -14.531250   1.000000
    5      -12.390168   1.000000
    6      -10.527347   1.000000
    7      -10.229590   1.000000
    8       -9.449115   1.000000
    9       -8.191987   1.000000
   10       -8.047549   1.000000
   11       -7.534849   1.000000
   12       -7.021006   1.000000
   13       -6.596522   1.000000
   14       -5.500426   1.000000
   15       -5.318038   1.000000
   16       -3.457730   0.000000
   17        0.002696   0.000000
   18        1.374858   0.000000
   19        2.051495   0.000000
   20        2.506512   0.000000
   21        2.816745   0.000000
   22        3.158226   0.000000
   23        3.256967   0.000000
   24        3.624717   0.000000
 
 -0.3750000E+00  0.6250000E-01  0.0000000E+00  0.1562500E-01
    1      -19.808227   1.000000
    2      -17.900440   1.000000
    3      -16.921408   1.000000
    4      -14.500414   1.000000
    5      -12.592734   1.000000
    6      -10.692935   1.000000
    7      -10.271118   1.000000
    8       -9.290838   1.000000
    9       -8.551232   1.000000
   10       -8.220186   1.000000
   11       -6.931957   1.000000
   12       -6.782859   1.000000
   13       -6.644278   1.000000
   14       -5.375726   1.000000
   15       -5.293470   1.000000
   16       -3.425462   0.000000
   17       -0.061993   0.000000
   18        1.263577   0.000000
   19        1.652225   0.000000
   20        2.425563   0.000000
   21        2.749899   0.000000
   22        3.016536   0.000000
   23        3.412622   0.000000
   24        3.708697   0.000000
 
 -0.3125000E+00  0.6250000E-01  0.0000000E+00  0.1562500E-01
    1      -19.909523   1.000000
    2      -17.691430   1.000000
    3      -16.865242   1.000000
    4      -14.441015   1.000000
    5      -12.897024   1.000000
    6      -11.162486   1.000000
    7       -9.972231   1.000000
    8       -9.665656   1.000000
    9       -8.440153   1.000000
   10       -8.312388   1.000000
   11       -6.771837   1.000000
   12       -6.437586   1.000000
   13       -6.270570   1.000000
   14       -5.246418   1.000000
   15       -5.174167   1.000000
   16       -3.360159   0.000000
   17       -0.175628   0.000000
   18        1.065436   0.000000
   19        1.309003   0.000000
   20        2.070149   0.000000
   21        2.399775   0.000000
   22        2.750038   0.000000
   23        3.415488   0.000000
   24        3.580465   0.000000
 
 -0.2500000E+00  0.6250000E-01  0.0000000E+00  0.1562500E-01
    1      -20.021574   1.000000
    2      -17.426762   1.000000
    3      -16.785528   1.000000
    4      -14.358446   1.000000
    5      -13.223174   1.000000
    6      -11.639024   1.000000
    7      -10.194948   1.000000
    8       -9.643975   1.000000
    9       -8.647784   1.000000
   10       -7.901151   1.000000
   11       -6.829312   1.000000
   12       -6.057938   1.000000
   13       -5.698500   1.000000
   14       -5.181296   1.000000
   15       -4.941601   1.000000
   16       -3.259496   0.000000
   17       -0.312435   0.000000
   18        0.815198   0.000000
   19        1.022113   0.000000
   20        1.690411   0.000000
   21        2.102856   0.000000
   22        2.107877   0.000000
   23        3.113546   0.000000
   24        3.493228   0.000000
 
 -0.1875000E+00  0.6250000E-01  0.0000000E+00  0.1562500E-01
    1      -20.125434   1.000000
    2      -17.138736   1.000000
    3      -16.688987   1.000000
    4      -14.263433   1.000000
    5      -13.525204   1.000000
    6      -12.088860   1.000000
    7      -10.688655   1.000000
    8       -9.357050   1.000000
    9       -8.823191   1.000000
   10       -7.508205   1.000000
   11       -6.850772   1.000000
   12       -5.686088   1.000000
   13       -5.188350   1.000000
   14       -5.105197   1.000000
   15       -4.711087   1.000000
   16       -3.118271   0.000000
   17       -0.443778   0.000000
   18        0.542906   0.000000
   19        0.791831   0.000000
   20        1.128051   0.000000
   21        1.710803   0.000000
   22        1.874243   0.000000
   23        2.876105   0.000000
   24        3.261000   0.000000
 
 -0.1250000E+00  0.6250000E-01  0.0000000E+00  0.1562500E-01
    1      -20.209996   1.000000
    2      -16.860904   1.000000
    3      -16.587041   1.000000
    4      -14.175589   1.000000
    5      -13.769959   1.000000
    6      -12.482146   1.000000
    7      -11.109080   1.000000
    8       -9.138083   1.000000
    9       -8.958532   1.000000
   10       -7.180005   1.000000
   11       -6.830285   1.000000
   12       -5.361843   1.000000
   13       -5.028648   1.000000
   14       -4.772484   1.000000
   15       -4.509149   1.000000
   16       -2.931230   0.000000
   17       -0.545218   0.000000
   18        0.248818   0.000000
   19        0.531459   0.000000
   20        0.618492   0.000000
   21        1.498560   0.000000
   22        1.698919   0.000000
   23        2.699178   0.000000
   24        3.086130   0.000000
 
 -0.6250000E-01  0.6250000E-01  0.0000000E+00  0.1562500E-01
    1      -20.269056   1.000000
    2      -16.633384   1.000000
    3      -16.498068   1.000000
    4      -14.120814   1.000000
    5      -13.932093   1.000000
    6      -12.776392   1.000000
    7      -11.423863   1.000000
    8       -9.050200   1.000000
    9       -8.997817   1.000000
   10       -6.943631   1.000000
   11       -6.787960   1.000000
   12       -5.123366   1.000000
   13       -4.966257   1.000000
   14       -4.477174   1.000000
   15       -4.359125   1.000000
   16       -2.710770   0.000000
   17       -0.605764   0.000000
   18       -0.162842   0.000000
   19        0.182876   0.000000
   20        0.502536   0.000000
   21        1.368817   0.000000
   22        1.581972   0.000000
   23        2.581499   0.000000
   24        2.969059   0.000000
 
  0.0000000E+00  0.1250000E+00  0.0000000E+00  0.7812500E-02
    1      -20.254113   1.000000
    2      -16.702069   1.000000
    3      -16.512533   1.000000
    4      -14.163278   1.000000
    5      -13.858986   1.000000
    6      -12.706346   1.000000
    7      -11.341053   1.000000
    8       -9.031322   1.000000
    9       -9.027184   1.000000
   10       -7.017757   1.000000
   11       -6.788069   1.000000
   12       -5.196557   1.000000
   13       -4.967859   1.000000
   14       -4.557600   1.000000
   15       -4.392680   1.000000
   16       -2.786415   0.000000
   17       -0.544256   0.000000
   18       -0.109231   0.000000
   19        0.294373   0.000000
   20        0.531546   0.000000
   21        1.401077   0.000000
   22        1.611209   0.000000
   23        2.610915   0.000000
   24        2.998344   0.000000
 
  0.2500000E+00  0.1250000E+00  0.0000000E+00  0.7812500E-02
    1      -20.139055   1.000000
    2      -17.072296   1.000000
    3      -16.711397   1.000000
    4      -14.152578   1.000000
    5      -13.672979   1.000000
    6      -12.121153   1.000000
    7      -10.760948   1.000000
    8       -9.329445   1.000000
    9       -8.845476   1.000000
   10       -7.392814   1.000000
   11       -6.907417   1.000000
   12       -5.592597   1.000000
   13       -5.160275   1.000000
   14       -5.098876   1.000000
   15       -4.702622   1.000000
   16       -3.041520   0.000000
   17       -0.581194   0.000000
   18        0.763074   0.000000
   19        0.803374   0.000000
   20        0.836231   0.000000
   21        1.664887   0.000000
   22        1.845059   0.000000
   23        2.846342   0.000000
   24        3.232111   0.000000
 
  0.3125000E+00  0.1250000E+00  0.0000000E+00  0.1562500E-01
    1      -20.045972   1.000000
    2      -17.316187   1.000000
    3      -16.843856   1.000000
    4      -14.164775   1.000000
    5      -13.484828   1.000000
    6      -11.679214   1.000000
    7      -10.326864   1.000000
    8       -9.604038   1.000000
    9       -8.690727   1.000000
   10       -7.666138   1.000000
   11       -6.962478   1.000000
   12       -5.890946   1.000000
   13       -5.522271   1.000000
   14       -5.311180   1.000000
   15       -4.944172   1.000000
   16       -3.097435   0.000000
   17       -0.582446   0.000000
   18        0.964870   0.000000
   19        1.106147   0.000000
   20        1.467494   0.000000
   21        1.923184   0.000000
   22        2.049546   0.000000
   23        3.052665   0.000000
   24        3.435825   0.000000
 
  0.3750000E+00  0.1250000E+00  0.0000000E+00  0.1562500E-01
    1      -19.939147   1.000000
    2      -17.565143   1.000000
    3      -16.957435   1.000000
    4      -14.211888   1.000000
    5      -13.209628   1.000000
    6      -11.204102   1.000000
    7       -9.942045   1.000000
    8       -9.827354   1.000000
    9       -8.499724   1.000000
   10       -8.002018   1.000000
   11       -6.962970   1.000000
   12       -6.235864   1.000000
   13       -6.020765   1.000000
   14       -5.439126   1.000000
   15       -5.201205   1.000000
   16       -3.121327   0.000000
   17       -0.546104   0.000000
   18        1.223494   0.000000
   19        1.392752   0.000000
   20        1.975810   0.000000
   21        2.312332   0.000000
   22        2.402920   0.000000
   23        3.319370   0.000000
   24        3.696880   0.000000
 
  0.4375000E+00  0.1250000E+00  0.0000000E+00  0.1562500E-01
    1      -19.833082   1.000000
    2      -17.785636   1.000000
    3      -17.041708   1.000000
    4      -14.262131   1.000000
    5      -12.903105   1.000000
    6      -10.753060   1.000000
    7      -10.250728   1.000000
    8       -9.340558   1.000000
    9       -8.341151   1.000000
   10       -8.285029   1.000000
   11       -6.954751   1.000000
   12       -6.583814   1.000000
   13       -6.533656   1.000000
   14       -5.531869   1.000000
   15       -5.440990   1.000000
   16       -3.132415   0.000000
   17       -0.491316   0.000000
   18        1.538622   0.000000
   19        1.644827   0.000000
   20        2.331818   0.000000
   21        2.633371   0.000000
   22        3.077076   0.000000
   23        3.356695   0.000000
   24        3.646513   0.000000
 
  0.5000000E+00  0.1250000E+00  0.0000000E+00  0.1562500E-01
    1      -19.750578   1.000000
    2      -17.941564   1.000000
    3      -17.093130   1.000000
    4      -14.297351   1.000000
    5      -12.638058   1.000000
    6      -10.674612   1.000000
    7      -10.164583   1.000000
    8       -9.147028   1.000000
    9       -8.364326   1.000000
   10       -8.081154   1.000000
   11       -7.278004   1.000000
   12       -6.876100   1.000000
   13       -6.727113   1.000000
   14       -5.623313   1.000000
   15       -5.587644   1.000000
   16       -3.138314   0.000000
   17       -0.443931   0.000000
   18        1.823542   0.000000
   19        1.909946   0.000000
   20        2.692833   0.000000
   21        2.819652   0.000000
   22        3.012642   0.000000
   23        3.529311   0.000000
   24        3.784641   0.000000
 
 -0.4375000E+00  0.1250000E+00  0.0000000E+00  0.1562500E-01
    1      -19.718590   1.000000
    2      -17.998776   1.000000
    3      -17.110385   1.000000
    4      -14.309789   1.000000
    5      -12.524604   1.000000
    6      -10.772702   1.000000
    7       -9.928983   1.000000
    8       -9.291475   1.000000
    9       -7.994367   1.000000
   10       -7.982842   1.000000
   11       -7.730069   1.000000
   12       -7.005175   1.000000
   13       -6.714914   1.000000
   14       -5.694849   1.000000
   15       -5.606257   1.000000
   16       -3.140269   0.000000
   17       -0.425407   0.000000
   18        1.888650   0.000000
   19        2.333417   0.000000
   20        2.340836   0.000000
   21        3.065763   0.000000
   22        3.137525   0.000000
   23        3.449957   0.000000
   24        3.450108   0.000000
 
 -0.3750000E+00  0.1250000E+00  0.0000000E+00  0.1562500E-01
    1      -19.750583   1.000000
    2      -17.941579   1.000000
    3      -17.093109   1.000000
    4      -14.297300   1.000000
    5      -12.637992   1.000000
    6      -10.674742   1.000000
    7      -10.164852   1.000000
    8       -9.146809   1.000000
    9       -8.364411   1.000000
   10       -8.081175   1.000000
   11       -7.277896   1.000000
   12       -6.876083   1.000000
   13       -6.726978   1.000000
   14       -5.623399   1.000000
   15       -5.587662   1.000000
   16       -3.138217   0.000000
   17       -0.443963   0.000000
   18        1.823479   0.000000
   19        1.909894   0.000000
   20        2.692785   0.000000
   21        2.819720   0.000000
   22        3.012591   0.000000
   23        3.529345   0.000000
   24        3.784605   0.000000
 
 -0.3125000E+00  0.1250000E+00  0.0000000E+00  0.1562500E-01
    1      -19.833091   1.000000
    2      -17.785675   1.000000
    3      -17.041658   1.000000
    4      -14.262025   1.000000
    5      -12.903035   1.000000
    6      -10.753324   1.000000
    7      -10.250939   1.000000
    8       -9.340593   1.000000
    9       -8.340970   1.000000
   10       -8.285055   1.000000
   11       -6.954680   1.000000
   12       -6.583803   1.000000
   13       -6.533436   1.000000
   14       -5.531896   1.000000
   15       -5.441114   1.000000
   16       -3.132228   0.000000
   17       -0.491380   0.000000
   18        1.538577   0.000000
   19        1.644719   0.000000
   20        2.331771   0.000000
   21        2.633327   0.000000
   22        3.077008   0.000000
   23        3.356771   0.000000
   24        3.646467   0.000000
 
 -0.2500000E+00  0.1250000E+00  0.0000000E+00  0.1562500E-01
    1      -19.939158   1.000000
    2      -17.565226   1.000000
    3      -16.957335   1.000000
    4      -14.211717   1.000000
    5      -13.209609   1.000000
    6      -11.204354   1.000000
    7       -9.942263   1.000000
    8       -9.827450   1.000000
    9       -8.499749   1.000000
   10       -8.001827   1.000000
   11       -6.962803   1.000000
   12       -6.235882   1.000000
   13       -6.020617   1.000000
   14       -5.439136   1.000000
   15       -5.201317   1.000000
   16       -3.121072   0.000000
   17       -0.546199   0.000000
   18        1.223457   0.000000
   19        1.392623   0.000000
   20        1.975760   0.000000
   21        2.312296   0.000000
   22        2.402848   0.000000
   23        3.319330   0.000000
   24        3.696844   0.000000
 
 -0.1875000E+00  0.1250000E+00  0.0000000E+00  0.1562500E-01
    1      -20.045982   1.000000
    2      -17.316346   1.000000
    3      -16.843673   1.000000
    4      -14.164524   1.000000
    5      -13.484901   1.000000
    6      -11.679424   1.000000
    7      -10.326995   1.000000
    8       -9.604211   1.000000
    9       -8.690749   1.000000
   10       -7.666075   1.000000
   11       -6.962203   1.000000
   12       -5.891033   1.000000
   13       -5.522203   1.000000
   14       -5.311126   1.000000
   15       -4.944228   1.000000
   16       -3.097147   0.000000
   17       -0.582564   0.000000
   18        0.964840   0.000000
   19        1.106014   0.000000
   20        1.467434   0.000000