<?xml version="1.0" encoding="ISO-8859-1"?>
<modeling>
 <generator>
  <i name="program" type="string">vasp </i>
  <i name="version" type="string">5.4.4.18Apr17-6-g9f103f2a35  </i>
  <i name="subversion" type="string">(build Mar 30 2023 15:39:25) complex            parallel </i>
  <i name="platform" type="string">LinuxIFC </i>
  <i name="date" type="string">2023 05 23 </i>
  <i name="time" type="string">10:11:19 </i>
 </generator>
 <incar>
  <i type="string" name="SYSTEM"> BC3 DOS</i>
  <i type="int" name="ISTART">     0</i>
  <i type="string" name="PREC">accurate</i>
  <i type="int" name="ICHARG">     2</i>
  <i type="int" name="IBRION">     2</i>
  <i name="EDIFF">      0.00000100</i>
  <i name="EDIFFG">     -0.00000100</i>
  <i type="int" name="NSW">    10</i>
  <i name="ENCUT">    450.00000000</i>
  <i type="int" name="ISMEAR">    -5</i>
  <i name="SIGMA">      0.20000000</i>
  <v type="int" name="KPOINT_BSE">    -1     0     0     0</v>
 </incar>
 <structure name="primitive_cell" >
  <crystal>
   <varray name="basis" >
    <v>       5.17400000       0.00000000       0.00000000 </v>
    <v>       2.58700000       4.48100000       0.00000000 </v>
    <v>       0.00000000       0.00000000      20.00000000 </v>
   </varray>
   <i name="volume">    463.69388000 </i>
   <varray name="rec_basis" >
    <v>       0.19327406      -0.11158224       0.00000000 </v>
    <v>       0.00000000       0.22316447       0.00000000 </v>
    <v>       0.00000000       0.00000000       0.05000000 </v>
   </varray>
  </crystal>
  <varray name="positions" >
   <v>       0.17457326       0.17462620       0.00000000 </v>
   <v>       0.00000000       0.00000000       0.00000000 </v>
   <v>      -0.47622729       0.00000000       0.00000000 </v>
   <v>      -0.00005294      -0.47612140       0.00000000 </v>
   <v>      -0.31744862       0.15866994       0.00000000 </v>
   <v>      -0.31750156      -0.31745146       0.00000000 </v>
   <v>       0.15872573      -0.31745146       0.00000000 </v>
   <v>      -0.49207481      -0.49207766       0.00000000 </v>
  </varray>
 </structure>
 <varray name="primitive_index" >
  <v type="int" >        1 </v>
  <v type="int" >        3 </v>
  <v type="int" >        4 </v>
  <v type="int" >        6 </v>
  <v type="int" >        5 </v>
  <v type="int" >        8 </v>
  <v type="int" >        7 </v>
  <v type="int" >        2 </v>
 </varray>
 <kpoints>
  <generation param="Gamma">
   <v type="int" name="divisions">      16       16        1 </v>
   <v name="usershift">      0.00000000       0.00000000       0.00000000 </v>
   <v name="genvec1">      0.06250000       0.00000000       0.00000000 </v>
   <v name="genvec2">      0.00000000       0.06250000       0.00000000 </v>
   <v name="genvec3">      0.00000000       0.00000000       1.00000000 </v>
   <v name="shift">      0.00000000       0.00000000       0.00000000 </v>
  </generation>
  <varray name="kpointlist" >
   <v>       0.00000000       0.00000000       0.00000000 </v>
   <v>       0.06250000      -0.00000000       0.00000000 </v>
   <v>       0.12500000      -0.00000000       0.00000000 </v>
   <v>       0.18750000      -0.00000000       0.00000000 </v>
   <v>       0.25000000      -0.00000000       0.00000000 </v>
   <v>       0.31250000      -0.00000000       0.00000000 </v>
   <v>       0.37500000      -0.00000000       0.00000000 </v>
   <v>       0.43750000      -0.00000000       0.00000000 </v>
   <v>       0.50000000      -0.00000000       0.00000000 </v>
   <v>       0.00000000       0.06250000       0.00000000 </v>
   <v>       0.12500000       0.06250000       0.00000000 </v>
   <v>       0.18750000       0.06250000       0.00000000 </v>
   <v>       0.25000000       0.06250000       0.00000000 </v>
   <v>       0.31250000       0.06250000       0.00000000 </v>
   <v>       0.37500000       0.06250000       0.00000000 </v>
   <v>       0.43750000       0.06250000       0.00000000 </v>
   <v>       0.50000000       0.06250000       0.00000000 </v>
   <v>      -0.43750000       0.06250000       0.00000000 </v>
   <v>      -0.37500000       0.06250000       0.00000000 </v>
   <v>      -0.31250000       0.06250000       0.00000000 </v>
   <v>      -0.25000000       0.06250000       0.00000000 </v>
   <v>      -0.18750000       0.06250000       0.00000000 </v>
   <v>      -0.12500000       0.06250000       0.00000000 </v>
   <v>      -0.06250000       0.06250000       0.00000000 </v>
   <v>       0.00000000       0.12500000       0.00000000 </v>
   <v>       0.25000000       0.12500000       0.00000000 </v>
   <v>       0.31250000       0.12500000       0.00000000 </v>
   <v>       0.37500000       0.12500000       0.00000000 </v>
   <v>       0.43750000       0.12500000       0.00000000 </v>
   <v>       0.50000000       0.12500000       0.00000000 </v>
   <v>      -0.43750000       0.12500000       0.00000000 </v>
   <v>      -0.37500000       0.12500000       0.00000000 </v>
   <v>      -0.31250000       0.12500000       0.00000000 </v>
   <v>      -0.25000000       0.12500000       0.00000000 </v>
   <v>      -0.18750000       0.12500000       0.00000000 </v>
   <v>      -0.12500000       0.12500000       0.00000000 </v>
   <v>      -0.06250000       0.12500000       0.00000000 </v>
   <v>       0.00000000       0.18750000       0.00000000 </v>
   <v>       0.37500000       0.18750000       0.00000000 </v>
   <v>       0.43750000       0.18750000       0.00000000 </v>
   <v>       0.50000000       0.18750000       0.00000000 </v>
   <v>      -0.43750000       0.18750000       0.00000000 </v>
   <v>      -0.37500000       0.18750000       0.00000000 </v>
   <v>      -0.31250000       0.18750000       0.00000000 </v>
   <v>      -0.25000000       0.18750000       0.00000000 </v>
   <v>      -0.18750000       0.18750000       0.00000000 </v>
   <v>      -0.12500000       0.18750000       0.00000000 </v>
   <v>      -0.06250000       0.18750000       0.00000000 </v>
   <v>       0.00000000       0.25000000       0.00000000 </v>
   <v>       0.50000000       0.25000000       0.00000000 </v>
   <v>      -0.43750000       0.25000000       0.00000000 </v>
   <v>      -0.37500000       0.25000000       0.00000000 </v>
   <v>      -0.31250000       0.25000000       0.00000000 </v>
   <v>      -0.25000000       0.25000000       0.00000000 </v>
   <v>      -0.18750000       0.25000000       0.00000000 </v>
   <v>      -0.12500000       0.25000000       0.00000000 </v>
   <v>      -0.06250000       0.25000000       0.00000000 </v>
   <v>       0.00000000       0.31250000       0.00000000 </v>
   <v>      -0.37500000       0.31250000       0.00000000 </v>
   <v>      -0.31250000       0.31250000       0.00000000 </v>
   <v>      -0.25000000       0.31250000       0.00000000 </v>
   <v>      -0.18750000       0.31250000       0.00000000 </v>
   <v>      -0.12500000       0.31250000       0.00000000 </v>
   <v>      -0.06250000       0.31250000       0.00000000 </v>
   <v>       0.00000000       0.37500000       0.00000000 </v>
   <v>      -0.25000000       0.37500000       0.00000000 </v>
   <v>      -0.18750000       0.37500000       0.00000000 </v>
   <v>      -0.12500000       0.37500000       0.00000000 </v>
   <v>      -0.06250000       0.37500000       0.00000000 </v>
   <v>       0.00000000       0.43750000       0.00000000 </v>
   <v>      -0.12500000       0.43750000       0.00000000 </v>
   <v>      -0.06250000       0.43750000       0.00000000 </v>
   <v>       0.00000000       0.50000000       0.00000000 </v>
  </varray>
  <varray name="weights" >
   <v>       0.00390625 </v>
   <v>       0.01562500 </v>
   <v>       0.01562500 </v>
   <v>       0.01562500 </v>
   <v>       0.01562500 </v>
   <v>       0.01562500 </v>
   <v>       0.01562500 </v>
   <v>       0.01562500 </v>
   <v>       0.00781250 </v>
   <v>       0.00781250 </v>
   <v>       0.00781250 </v>
   <v>       0.01562500 </v>
   <v>       0.01562500 </v>
   <v>       0.01562500 </v>
   <v>       0.01562500 </v>
   <v>       0.01562500 </v>
   <v>       0.01562500 </v>
   <v>       0.01562500 </v>
   <v>       0.01562500 </v>
   <v>       0.01562500 </v>
   <v>       0.01562500 </v>
   <v>       0.01562500 </v>
   <v>       0.01562500 </v>
   <v>       0.01562500 </v>
   <v>       0.00781250 </v>
   <v>       0.00781250 </v>
   <v>       0.01562500 </v>
   <v>       0.01562500 </v>
   <v>       0.01562500 </v>
   <v>       0.01562500 </v>
   <v>       0.01562500 </v>
   <v>       0.01562500 </v>
   <v>       0.01562500 </v>
   <v>       0.01562500 </v>
   <v>       0.01562500 </v>
   <v>       0.01562500 </v>
   <v>       0.01562500 </v>
   <v>       0.00781250 </v>
   <v>       0.00781250 </v>
   <v>       0.01562500 </v>
   <v>       0.01562500 </v>
   <v>       0.01562500 </v>
   <v>       0.01562500 </v>
   <v>       0.01562500 </v>
   <v>       0.01562500 </v>
   <v>       0.01562500 </v>
   <v>       0.01562500 </v>
   <v>       0.01562500 </v>
   <v>       0.00781250 </v>
   <v>       0.00781250 </v>
   <v>       0.01562500 </v>
   <v>       0.01562500 </v>
   <v>       0.01562500 </v>
   <v>       0.01562500 </v>
   <v>       0.01562500 </v>
   <v>       0.01562500 </v>
   <v>       0.01562500 </v>
   <v>       0.00781250 </v>
   <v>       0.00781250 </v>
   <v>       0.01562500 </v>
   <v>       0.01562500 </v>
   <v>       0.01562500 </v>
   <v>       0.01562500 </v>
   <v>       0.01562500 </v>
   <v>       0.00781250 </v>
   <v>       0.00781250 </v>
   <v>       0.01562500 </v>
   <v>       0.01562500 </v>
   <v>       0.01562500 </v>
   <v>       0.00781250 </v>
   <v>       0.00781250 </v>
   <v>       0.01562500 </v>
   <v>       0.00390625 </v>
  </varray>
  <varray name="tetrahedronlist"  type="int" >
   <v type="int" >        2        1        1        2        2 </v>
   <v type="int" >        4        1        1        2       10 </v>
   <v type="int" >        4        1        2       10       10 </v>
   <v type="int" >        4        1        2        2        2 </v>
   <v type="int" >        4        1        2        2       10 </v>
   <v type="int" >        4        2        2        3       11 </v>
   <v type="int" >        4        2        2        2       11 </v>
   <v type="int" >        4        2        3        3       11 </v>
   <v type="int" >        4        2        3       11       11 </v>
   <v type="int" >        2        2        2       11       11 </v>
   <v type="int" >        4        3        3        4       12 </v>
   <v type="int" >        4        3        3       11       12 </v>
   <v type="int" >        4        3       11       11       12 </v>
   <v type="int" >        4        3        4        4       12 </v>
   <v type="int" >        4        3        4       12       12 </v>
   <v type="int" >        4        3       11       12       12 </v>
   <v type="int" >        4        4        4        5       13 </v>
   <v type="int" >        4        4        4       12       13 </v>
   <v type="int" >        4        4       12       12       13 </v>
   <v type="int" >        4        4        5        5       13 </v>
   <v type="int" >        4        4        5       13       13 </v>
   <v type="int" >        4        4       12       13       13 </v>
   <v type="int" >        4        5        5        6       14 </v>
   <v type="int" >        4        5        5       13       14 </v>
   <v type="int" >        4        5       13       13       14 </v>
   <v type="int" >        4        5        6        6       14 </v>
   <v type="int" >        4        5        6       14       14 </v>
   <v type="int" >        4        5       13       14       14 </v>
   <v type="int" >        4        6        6        7       15 </v>
   <v type="int" >        4        6        6       14       15 </v>
   <v type="int" >        4        6       14       14       15 </v>
   <v type="int" >        4        6        7        7       15 </v>
   <v type="int" >        4        6        7       15       15 </v>
   <v type="int" >        4        6       14       15       15 </v>
   <v type="int" >        4        7        7        8       16 </v>
   <v type="int" >        4        7        7       15       16 </v>
   <v type="int" >        4        7       15       15       16 </v>
   <v type="int" >        4        7        8        8       16 </v>
   <v type="int" >        4        7        8       16       16 </v>
   <v type="int" >        4        7       15       16       16 </v>
   <v type="int" >        4        8        8        9       17 </v>
   <v type="int" >        4        8        8       16       17 </v>
   <v type="int" >        4        8       16       16       17 </v>
   <v type="int" >        4        8        9        9       17 </v>
   <v type="int" >        4        8        9       17       17 </v>
   <v type="int" >        4        8       16       17       17 </v>
   <v type="int" >        4        8        9        9       18 </v>
   <v type="int" >        4        9        9       17       18 </v>
   <v type="int" >        4        9       17       17       18 </v>
   <v type="int" >        4        8        8        9       18 </v>
   <v type="int" >        4        8        9       18       18 </v>
   <v type="int" >        4        9       17       18       18 </v>
   <v type="int" >        4        7        8        8       19 </v>
   <v type="int" >        4        8        8       18       19 </v>
   <v type="int" >        4        8       18       18       19 </v>
   <v type="int" >        4        7        7        8       19 </v>
   <v type="int" >        4        7        8       19       19 </v>
   <v type="int" >        4        8       18       19       19 </v>
   <v type="int" >        4        6        7        7       20 </v>
   <v type="int" >        4        7        7       19       20 </v>
   <v type="int" >        4        7       19       19       20 </v>
   <v type="int" >        4        6        6        7       20 </v>
   <v type="int" >        4        6        7       20       20 </v>
   <v type="int" >        4        7       19       20       20 </v>
   <v type="int" >        4        5        6        6       21 </v>
   <v type="int" >        4        6        6       20       21 </v>
   <v type="int" >        4        6       20       20       21 </v>
   <v type="int" >        4        5        5        6       21 </v>
   <v type="int" >        4        5        6       21       21 </v>
   <v type="int" >        4        6       20       21       21 </v>
   <v type="int" >        4        4        5        5       22 </v>
   <v type="int" >        4        5        5       21       22 </v>
   <v type="int" >        4        5       21       21       22 </v>
   <v type="int" >        4        4        4        5       22 </v>
   <v type="int" >        4        4        5       22       22 </v>
   <v type="int" >        4        5       21       22       22 </v>
   <v type="int" >        4        3        4        4       23 </v>
   <v type="int" >        4        4        4       22       23 </v>
   <v type="int" >        4        4       22       22       23 </v>
   <v type="int" >        4        3        3        4       23 </v>
   <v type="int" >        4        3        4       23       23 </v>
   <v type="int" >        4        4       22       23       23 </v>
   <v type="int" >        4        2        3        3       24 </v>
   <v type="int" >        4        3        3       23       24 </v>
   <v type="int" >        4        3       23       23       24 </v>
   <v type="int" >        4        2        2        3       24 </v>
   <v type="int" >        4        2        3       24       24 </v>
   <v type="int" >        4        3       23       24       24 </v>
   <v type="int" >        4        2        2       10       24 </v>
   <v type="int" >        4        2       10       24       24 </v>
   <v type="int" >        4        2       10       10       24 </v>
   <v type="int" >        4       10       10       24       25 </v>
   <v type="int" >        4       10       24       25       25 </v>
   <v type="int" >        4       10       24       24       25 </v>
   <v type="int" >        2       11       11       12       12 </v>
   <v type="int" >        4       11       12       12       12 </v>
   <v type="int" >        4       12       12       13       26 </v>
   <v type="int" >        4       12       12       12       26 </v>
   <v type="int" >        4       12       13       13       26 </v>
   <v type="int" >        4       12       13       26       26 </v>
   <v type="int" >        2       12       12       26       26 </v>
   <v type="int" >        4       13       13       14       27 </v>
   <v type="int" >        4       13       13       26       27 </v>
   <v type="int" >        4       13       26       26       27 </v>
   <v type="int" >        4       13       14       14       27 </v>
   <v type="int" >        4       13       14       27       27 </v>
   <v type="int" >        4       13       26       27       27 </v>
   <v type="int" >        4       14       14       15       28 </v>
   <v type="int" >        4       14       14       27       28 </v>
   <v type="int" >        4       14       27       27       28 </v>
   <v type="int" >        4       14       15       15       28 </v>
   <v type="int" >        4       14       15       28       28 </v>
   <v type="int" >        4       14       27       28       28 </v>
   <v type="int" >        4       15       15       16       29 </v>
   <v type="int" >        4       15       15       28       29 </v>
   <v type="int" >        4       15       28       28       29 </v>
   <v type="int" >        4       15       16       16       29 </v>
   <v type="int" >        4       15       16       29       29 </v>
   <v type="int" >        4       15       28       29       29 </v>
   <v type="int" >        4       16       16       17       30 </v>
   <v type="int" >        4       16       16       29       30 </v>
   <v type="int" >        4       16       29       29       30 </v>
   <v type="int" >        4       16       17       17       30 </v>
   <v type="int" >        4       16       17       30       30 </v>
   <v type="int" >        4       16       29       30       30 </v>
   <v type="int" >        4       17       17       18       31 </v>
   <v type="int" >        4       17       17       30       31 </v>
   <v type="int" >        4       17       30       30       31 </v>
   <v type="int" >        4       17       18       18       31 </v>
   <v type="int" >        4       17       18       31       31 </v>
   <v type="int" >        4       17       30       31       31 </v>
   <v type="int" >        4       18       18       19       32 </v>
   <v type="int" >        4       18       18       31       32 </v>
   <v type="int" >        4       18       31       31       32 </v>
   <v type="int" >        4       18       19       19       32 </v>
   <v type="int" >        4       18       19       32       32 </v>
   <v type="int" >        4       18       31       32       32 </v>
   <v type="int" >        4       19       19       20       33 </v>
   <v type="int" >        4       19       19       32       33 </v>
   <v type="int" >        4       19       32       32       33 </v>
   <v type="int" >        4       19       20       20       33 </v>
   <v type="int" >        4       19       20       33       33 </v>
   <v type="int" >        4       19       32       33       33 </v>
   <v type="int" >        4       20       20       21       34 </v>
   <v type="int" >        4       20       20       33       34 </v>
   <v type="int" >        4       20       33       33       34 </v>
   <v type="int" >        4       20       21       21       34 </v>
   <v type="int" >        4       20       21       34       34 </v>
   <v type="int" >        4       20       33       34       34 </v>
   <v type="int" >        4       21       21       22       35 </v>
   <v type="int" >        4       21       21       34       35 </v>
   <v type="int" >        4       21       34       34       35 </v>
   <v type="int" >        4       21       22       22       35 </v>
   <v type="int" >        4       21       22       35       35 </v>
   <v type="int" >        4       21       34       35       35 </v>
   <v type="int" >        4       22       22       23       36 </v>
   <v type="int" >        4       22       22       35       36 </v>
   <v type="int" >        4       22       35       35       36 </v>
   <v type="int" >        4       22       23       23       36 </v>
   <v type="int" >        4       22       23       36       36 </v>
   <v type="int" >        4       22       35       36       36 </v>
   <v type="int" >        4       23       23       24       37 </v>
   <v type="int" >        4       23       23       36       37 </v>
   <v type="int" >        4       23       36       36       37 </v>
   <v type="int" >        4       23       24       24       37 </v>
   <v type="int" >        4       23       24       37       37 </v>
   <v type="int" >        4       23       36       37       37 </v>
   <v type="int" >        4       24       24       25       37 </v>
   <v type="int" >        4       24       25       37       37 </v>
   <v type="int" >        4       24       25       25       37 </v>
   <v type="int" >        4       25       25       37       38 </v>
   <v type="int" >        4       25       37       38       38 </v>
   <v type="int" >        4       25       37       37       38 </v>
   <v type="int" >        2       26       26       27       27 </v>
   <v type="int" >        4       26       27       27       27 </v>
   <v type="int" >        4       27       27       28       39 </v>
   <v type="int" >        4       27       27       27       39 </v>
   <v type="int" >        4       27       28       28       39 </v>
   <v type="int" >        4       27       28       39       39 </v>
   <v type="int" >        2       27       27       39       39 </v>
   <v type="int" >        4       28       28       29       40 </v>
   <v type="int" >        4       28       28       39       40 </v>
   <v type="int" >        4       28       39       39       40 </v>
   <v type="int" >        4       28       29       29       40 </v>
   <v type="int" >        4       28       29       40       40 </v>
   <v type="int" >        4       28       39       40       40 </v>
   <v type="int" >        4       29       29       30       41 </v>
   <v type="int" >        4       29       29       40       41 </v>
   <v type="int" >        4       29       40       40       41 </v>
   <v type="int" >        4       29       30       30       41 </v>
   <v type="int" >        4       29       30       41       41 </v>
   <v type="int" >        4       29       40       41       41 </v>
   <v type="int" >        4       30       30       31       42 </v>
   <v type="int" >        4       30       30       41       42 </v>
   <v type="int" >        4       30       41       41       42 </v>
   <v type="int" >        4       30       31       31       42 </v>
   <v type="int" >        4       30       31       42       42 </v>
   <v type="int" >        4       30       41       42       42 </v>
   <v type="int" >        4       31       31       32       43 </v>
   <v type="int" >        4       31       31       42       43 </v>
   <v type="int" >        4       31       42       42       43 </v>
   <v type="int" >        4       31       32       32       43 </v>
   <v type="int" >        4       31       32       43       43 </v>
   <v type="int" >        4       31       42       43       43 </v>
   <v type="int" >        4       32       32       33       44 </v>
   <v type="int" >        4       32       32       43       44 </v>
   <v type="int" >        4       32       43       43       44 </v>
   <v type="int" >        4       32       33       33       44 </v>
   <v type="int" >        4       32       33       44       44 </v>
   <v type="int" >        4       32       43       44       44 </v>
   <v type="int" >        4       33       33       34       45 </v>
   <v type="int" >        4       33       33       44       45 </v>
   <v type="int" >        4       33       44       44       45 </v>
   <v type="int" >        4       33       34       34       45 </v>
   <v type="int" >        4       33       34       45       45 </v>
   <v type="int" >        4       33       44       45       45 </v>
   <v type="int" >        4       34       34       35       46 </v>
   <v type="int" >        4       34       34       45       46 </v>
   <v type="int" >        4       34       45       45       46 </v>
   <v type="int" >        4       34       35       35       46 </v>
   <v type="int" >        4       34       35       46       46 </v>
   <v type="int" >        4       34       45       46       46 </v>
   <v type="int" >        4       35       35       36       47 </v>
   <v type="int" >        4       35       35       46       47 </v>
   <v type="int" >        4       35       46       46       47 </v>
   <v type="int" >        4       35       36       36       47 </v>
   <v type="int" >        4       35       36       47       47 </v>
   <v type="int" >        4       35       46       47       47 </v>
   <v type="int" >        4       36       36       37       48 </v>
   <v type="int" >        4       36       36       47       48 </v>
   <v type="int" >        4       36       47       47       48 </v>
   <v type="int" >        4       36       37       37       48 </v>
   <v type="int" >        4       36       37       48       48 </v>
   <v type="int" >        4       36       47       48       48 </v>
   <v type="int" >        4       37       37       38       48 </v>
   <v type="int" >        4       37       38       48       48 </v>
   <v type="int" >        4       37       38       38       48 </v>
   <v type="int" >        4       38       38       48       49 </v>
   <v type="int" >        4       38       48       49       49 </v>
   <v type="int" >        4       38       48       48       49 </v>
   <v type="int" >        2       39       39       40       40 </v>
   <v type="int" >        4       39       40       40       40 </v>
   <v type="int" >        4       40       40       41       50 </v>
   <v type="int" >        4       40       40       40       50 </v>
   <v type="int" >        4       40       41       41       50 </v>
   <v type="int" >        4       40       41       50       50 </v>
   <v type="int" >        2       40       40       50       50 </v>
   <v type="int" >        4       41       41       42       51 </v>
   <v type="int" >        4       41       41       50       51 </v>
   <v type="int" >        4       41       50       50       51 </v>
   <v type="int" >        4       41       42       42       51 </v>
   <v type="int" >        4       41       42       51       51 </v>
   <v type="int" >        4       41       50       51       51 </v>
   <v type="int" >        4       42       42       43       52 </v>
   <v type="int" >        4       42       42       51       52 </v>
   <v type="int" >        4       42       51       51       52 </v>
   <v type="int" >        4       42       43       43       52 </v>
   <v type="int" >        4       42       43       52       52 </v>
   <v type="int" >        4       42       51       52       52 </v>
   <v type="int" >        4       43       43       44       53 </v>
   <v type="int" >        4       43       43       52       53 </v>
   <v type="int" >        4       43       52       52       53 </v>
   <v type="int" >        4       43       44       44       53 </v>
   <v type="int" >        4       43       44       53       53 </v>
   <v type="int" >        4       43       52       53       53 </v>
   <v type="int" >        4       44       44       45       54 </v>
   <v type="int" >        4       44       44       53       54 </v>
   <v type="int" >        4       44       53       53       54 </v>
   <v type="int" >        4       44       45       45       54 </v>
   <v type="int" >        4       44       45       54       54 </v>
   <v type="int" >        4       44       53       54       54 </v>
   <v type="int" >        4       45       45       46       55 </v>
   <v type="int" >        4       45       45       54       55 </v>
   <v type="int" >        4       45       54       54       55 </v>
   <v type="int" >        4       45       46       46       55 </v>
   <v type="int" >        4       45       46       55       55 </v>
   <v type="int" >        4       45       54       55       55 </v>
   <v type="int" >        4       46       46       47       56 </v>
   <v type="int" >        4       46       46       55       56 </v>
   <v type="int" >        4       46       55       55       56 </v>
   <v type="int" >        4       46       47       47       56 </v>
   <v type="int" >        4       46       47       56       56 </v>
   <v type="int" >        4       46       55       56       56 </v>
   <v type="int" >        4       47       47       48       57 </v>
   <v type="int" >        4       47       47       56       57 </v>
   <v type="int" >        4       47       56       56       57 </v>
   <v type="int" >        4       47       48       48       57 </v>
   <v type="int" >        4       47       48       57       57 </v>
   <v type="int" >        4       47       56       57       57 </v>
   <v type="int" >        4       48       48       49       57 </v>
   <v type="int" >        4       48       49       57       57 </v>
   <v type="int" >        4       48       49       49       57 </v>
   <v type="int" >        4       49       49       57       58 </v>
   <v type="int" >        4       49       57       58       58 </v>
   <v type="int" >        4       49       57       57       58 </v>
   <v type="int" >        2       50       50       51       51 </v>
   <v type="int" >        4       50       51       51       51 </v>
   <v type="int" >        4       51       51       52       59 </v>
   <v type="int" >        4       51       51       51       59 </v>
   <v type="int" >        4       51       52       52       59 </v>
   <v type="int" >        4       51       52       59       59 </v>
   <v type="int" >        2       51       51       59       59 </v>
   <v type="int" >        4       52       52       53       60 </v>
   <v type="int" >        4       52       52       59       60 </v>
   <v type="int" >        4       52       59       59       60 </v>
   <v type="int" >        4       52       53       53       60 </v>
   <v type="int" >        4       52       53       60       60 </v>
   <v type="int" >        4       52       59       60       60 </v>
   <v type="int" >        4       53       53       54       61 </v>
   <v type="int" >        4       53       53       60       61 </v>
   <v type="int" >        4       53       60       60       61 </v>
   <v type="int" >        4       53       54       54       61 </v>
   <v type="int" >        4       53       54       61       61 </v>
   <v type="int" >        4       53       60       61       61 </v>
   <v type="int" >        4       54       54       55       62 </v>
   <v type="int" >        4       54       54       61       62 </v>
   <v type="int" >        4       54       61       61       62 </v>
   <v type="int" >        4       54       55       55       62 </v>
   <v type="int" >        4       54       55       62       62 </v>
   <v type="int" >        4       54       61       62       62 </v>
   <v type="int" >        4       55       55       56       63 </v>
   <v type="int" >        4       55       55       62       63 </v>
   <v type="int" >        4       55       62       62       63 </v>
   <v type="int" >        4       55       56       56       63 </v>
   <v type="int" >        4       55       56       63       63 </v>
   <v type="int" >        4       55       62       63       63 </v>
   <v type="int" >        4       56       56       57       64 </v>
   <v type="int" >        4       56       56       63       64 </v>
   <v type="int" >        4       56       63       63       64 </v>
   <v type="int" >        4       56       57       57       64 </v>
   <v type="int" >        4       56       57       64       64 </v>
   <v type="int" >        4       56       63       64       64 </v>
   <v type="int" >        4       57       57       58       64 </v>
   <v type="int" >        4       57       58       64       64 </v>
   <v type="int" >        4       57       58       58       64 </v>
   <v type="int" >        4       58       58       64       65 </v>
   <v type="int" >        4       58       64       65       65 </v>
   <v type="int" >        4       58       64       64       65 </v>
   <v type="int" >        2       59       59       60       60 </v>
   <v type="int" >        4       59       60       60       60 </v>
   <v type="int" >        4       60       60       61       66 </v>
   <v type="int" >        4       60       60       60       66 </v>
   <v type="int" >        4       60       61       61       66 </v>
   <v type="int" >        4       60       61       66       66 </v>
   <v type="int" >        2       60       60       66       66 </v>
   <v type="int" >        4       61       61       62       67 </v>
   <v type="int" >        4       61       61       66       67 </v>
   <v type="int" >        4       61       66       66       67 </v>
   <v type="int" >        4       61       62       62       67 </v>
   <v type="int" >        4       61       62       67       67 </v>
   <v type="int" >        4       61       66       67       67 </v>
   <v type="int" >        4       62       62       63       68 </v>
   <v type="int" >        4       62       62       67       68 </v>
   <v type="int" >        4       62       67       67       68 </v>
   <v type="int" >        4       62       63       63       68 </v>
   <v type="int" >        4       62       63       68       68 </v>
   <v type="int" >        4       62       67       68       68 </v>
   <v type="int" >        4       63       63       64       69 </v>
   <v type="int" >        4       63       63       68       69 </v>
   <v type="int" >        4       63       68       68       69 </v>
   <v type="int" >        4       63       64       64       69 </v>
   <v type="int" >        4       63       64       69       69 </v>
   <v type="int" >        4       63       68       69       69 </v>
   <v type="int" >        4       64       64       65       69 </v>
   <v type="int" >        4       64       65       69       69 </v>
   <v type="int" >        4       64       65       65       69 </v>
   <v type="int" >        4       65       65       69       70 </v>
   <v type="int" >        4       65       69       70       70 </v>
   <v type="int" >        4       65       69       69       70 </v>
   <v type="int" >        2       66       66       67       67 </v>
   <v type="int" >        4       66       67       67       67 </v>
   <v type="int" >        4       67       67       68       71 </v>
   <v type="int" >        4       67       67       67       71 </v>
   <v type="int" >        4       67       68       68       71 </v>
   <v type="int" >        4       67       68       71       71 </v>
   <v type="int" >        2       67       67       71       71 </v>
   <v type="int" >        4       68       68       69       72 </v>
   <v type="int" >        4       68       68       71       72 </v>
   <v type="int" >        4       68       71       71       72 </v>
   <v type="int" >        4       68       69       69       72 </v>
   <v type="int" >        4       68       69       72       72 </v>
   <v type="int" >        4       68       71       72       72 </v>
   <v type="int" >        4       69       69       70       72 </v>
   <v type="int" >        4       69       70       72       72 </v>
   <v type="int" >        4       69       70       70       72 </v>
   <v type="int" >        4       70       70       72       73 </v>
   <v type="int" >        4       70       72       73       73 </v>
   <v type="int" >        4       70       72       72       73 </v>
   <v type="int" >        2       71       71       72       72 </v>
   <v type="int" >        4       71       72       72       72 </v>
   <v type="int" >        4       72       72       72       73 </v>
   <v type="int" >        2       72       72       73       73 </v>
  </varray>
  <i name="volumeweight">      0.00065104 </i>
 </kpoints>
 <parameters>
  <separator name="general" >
   <i type="string" name="SYSTEM">BC3 DOS</i>
   <i type="logical" name="LCOMPAT"> F  </i>
  </separator>
  <separator name="electronic" >
   <i type="string" name="PREC">accura</i>
   <i name="ENMAX">    450.00000000</i>
   <i name="ENAUG">    644.87300000</i>
   <i name="EDIFF">      0.00000100</i>
   <i type="int" name="IALGO">    38</i>
   <i type="int" name="IWAVPR">    11</i>
   <i type="int" name="NBANDS">    24</i>
   <i name="NELECT">     30.00000000</i>
   <i type="int" name="TURBO">     0</i>
   <i type="int" name="IRESTART">     0</i>
   <i type="int" name="NREBOOT">     0</i>
   <i type="int" name="NMIN">     0</i>
   <i name="EREF">      0.00000000</i>
   <separator name="electronic smearing" >
    <i type="int" name="ISMEAR">    -5</i>
    <i name="SIGMA">      0.20000000</i>
    <i name="KSPACING">      0.50000000</i>
    <i type="logical" name="KGAMMA"> T  </i>
   </separator>
   <separator name="electronic projectors" >
    <i type="logical" name="LREAL"> F  </i>
    <v name="ROPT">      0.00000000      0.00000000</v>
    <i type="int" name="LMAXPAW">  -100</i>
    <i type="int" name="LMAXMIX">     2</i>
    <i type="logical" name="NLSPLINE"> F  </i>
   </separator>
   <separator name="electronic startup" >
    <i type="int" name="ISTART">     0</i>
    <i type="int" name="ICHARG">     2</i>
    <i type="int" name="INIWAV">     1</i>
   </separator>
   <separator name="electronic spin" >
    <i type="int" name="ISPIN">     1</i>
    <i type="logical" name="LNONCOLLINEAR"> F  </i>
    <v name="MAGMOM">      1.00000000      1.00000000      1.00000000      1.00000000      1.00000000      1.00000000      1.00000000      1.00000000</v>
    <i name="NUPDOWN">     -1.00000000</i>
    <i type="logical" name="LSORBIT"> F  </i>
    <v name="SAXIS">      0.00000000      0.00000000      1.00000000</v>
    <i type="logical" name="LSPIRAL"> F  </i>
    <v name="QSPIRAL">      0.00000000      0.00000000      0.00000000</v>
    <i type="logical" name="LZEROZ"> F  </i>
   </separator>
   <separator name="electronic exchange-correlation" >
    <i type="logical" name="LASPH"> F  </i>
    <i type="logical" name="LMETAGGA"> F  </i>
   </separator>
   <separator name="electronic convergence" >
    <i type="int" name="NELM">    60</i>
    <i type="int" name="NELMDL">    -5</i>
    <i type="int" name="NELMIN">     2</i>
    <i name="ENINI">    450.00000000</i>
    <separator name="electronic convergence detail" >
     <i type="logical" name="LDIAG"> T  </i>
     <i type="logical" name="LSUBROT"> F  </i>
     <i name="WEIMIN">      0.00100000</i>
     <i name="EBREAK">      0.00000000</i>
     <i name="DEPER">      0.30000000</i>
     <i type="int" name="NRMM">     4</i>
     <i name="TIME">      0.40000000</i>
    </separator>
   </separator>
   <separator name="electronic mixer" >
    <i name="AMIX">      0.40000000</i>
    <i name="BMIX">      1.00000000</i>
    <i name="AMIN">      0.10000000</i>
    <i name="AMIX_MAG">      1.60000000</i>
    <i name="BMIX_MAG">      1.00000000</i>
    <separator name="electronic mixer details" >
     <i type="int" name="IMIX">     4</i>
     <i type="logical" name="MIXFIRST"> F  </i>
     <i type="int" name="MAXMIX">   -45</i>
     <i name="WC">    100.00000000</i>
     <i type="int" name="INIMIX">     1</i>
     <i type="int" name="MIXPRE">     1</i>
     <i type="int" name="MREMOVE">     5</i>
    </separator>
   </separator>
   <separator name="electronic dipolcorrection" >
    <i type="logical" name="LDIPOL"> F  </i>
    <i type="logical" name="LMONO"> F  </i>
    <i type="int" name="IDIPOL">     0</i>
    <i name="EPSILON">      1.00000000</i>
    <v name="DIPOL">   -100.00000000   -100.00000000   -100.00000000</v>
    <i name="EFIELD">      0.00000000</i>
   </separator>
  </separator>
  <separator name="grids" >
   <i type="int" name="NGX">    36</i>
   <i type="int" name="NGY">    36</i>
   <i type="int" name="NGZ">   140</i>
   <i type="int" name="NGXF">    72</i>
   <i type="int" name="NGYF">    72</i>
   <i type="int" name="NGZF">   280</i>
   <i type="logical" name="ADDGRID"> F  </i>
  </separator>
  <separator name="ionic" >
   <i type="int" name="NSW">    10</i>
   <i type="int" name="IBRION">     2</i>
   <i type="int" name="MDALGO">     0</i>
   <i type="int" name="ISIF">     2</i>
   <i name="PSTRESS">      0.00000000</i>
   <i name="EDIFFG">     -0.00000100</i>
   <i type="int" name="NFREE">     1</i>
   <i name="POTIM">      0.50000000</i>
   <i name="SMASS">     -3.00000000</i>
   <i name="SCALEE">      1.00000000</i>
  </separator>
  <separator name="ionic md" >
   <i name="TEBEG">      0.00010000</i>
   <i name="TEEND">      0.00010000</i>
   <i type="int" name="NBLOCK">     1</i>
   <i type="int" name="KBLOCK">    10</i>
   <i type="int" name="NPACO">   256</i>
   <i name="APACO">     16.00000000</i>
  </separator>
  <separator name="symmetry" >
   <i type="int" name="ISYM">     2</i>
   <i name="SYMPREC">      0.00001000</i>
  </separator>
  <separator name="dos" >
   <i type="int" name="LORBIT">     0</i>
   <v name="RWIGS">     -1.00000000     -1.00000000</v>
   <i type="int" name="NEDOS">   301</i>
   <i name="EMIN">     10.00000000</i>
   <i name="EMAX">    -10.00000000</i>
   <i name="EFERMI">      0.00000000</i>
  </separator>
  <separator name="writing" >
   <i type="int" name="NWRITE">     2</i>
   <i type="logical" name="LWAVE"> T  </i>
   <i type="logical" name="LDOWNSAMPLE"> F  </i>
   <i type="logical" name="LCHARG"> T  </i>
   <i type="logical" name="LPARD"> F  </i>
   <i type="logical" name="LVTOT"> F  </i>
   <i type="logical" name="LVHAR"> F  </i>
   <i type="logical" name="LELF"> F  </i>
   <i type="logical" name="LOPTICS"> F  </i>
   <v name="STM">      0.00000000      0.00000000      0.00000000      0.00000000      0.00000000      0.00000000      0.00000000</v>
  </separator>
  <separator name="performance" >
   <i type="int" name="NPAR">    12</i>
   <i type="int" name="NSIM">     4</i>
   <i type="int" name="NBLK">    -1</i>
   <i type="logical" name="LPLANE"> T  </i>
   <i type="logical" name="LSCALAPACK"> T  </i>
   <i type="logical" name="LSCAAWARE"> F  </i>
   <i type="logical" name="LSCALU"> F  </i>
   <i type="logical" name="LASYNC"> F  </i>
   <i type="logical" name="LORBITALREAL"> F  </i>
  </separator>
  <separator name="miscellaneous" >
   <i type="int" name="IDIOT">     3</i>
   <i type="int" name="ISPECIAL">     0</i>
   <i type="logical" name="LMUSIC"> F  </i>
   <v name="POMASS">     10.81100000     12.01100000</v>
   <v name="DARWINR">      0.00000000      0.00000000</v>
   <v name="DARWINV">      1.00000000      1.00000000</v>
   <i type="logical" name="LCORR"> T  </i>
  </separator>
  <i type="logical" name="GGA_COMPAT"> T  </i>
  <i type="logical" name="LBERRY"> F  </i>
  <i type="int" name="ICORELEVEL">     0</i>
  <i type="logical" name="LDAU"> F  </i>
  <i type="int" name="I_CONSTRAINED_M">     0</i>
  <separator name="electronic exchange-correlation" >
   <i type="string" name="GGA">--</i>
   <i type="int" name="VOSKOWN">     0</i>
   <i type="logical" name="LHFCALC"> F  </i>
   <i type="string" name="PRECFOCK"></i>
   <i type="logical" name="LSYMGRAD"> F  </i>
   <i type="logical" name="LHFONE"> F  </i>
   <i type="logical" name="LRHFCALC"> F  </i>
   <i type="logical" name="LTHOMAS"> F  </i>
   <i type="logical" name="LMODELHF"> F  </i>
   <i name="ENCUT4O">     -1.00000000</i>
   <i type="int" name="EXXOEP">     0</i>
   <i type="int" name="FOURORBIT">     0</i>
   <i name="AEXX">      0.00000000</i>
   <i name="HFALPHA">      0.00000000</i>
   <i name="MCALPHA">      0.00000000</i>
   <i name="ALDAX">      1.00000000</i>
   <i name="AGGAX">      1.00000000</i>
   <i name="ALDAC">      1.00000000</i>
   <i name="AGGAC">      1.00000000</i>
   <i type="int" name="NKREDX">     1</i>
   <i type="int" name="NKREDY">     1</i>
   <i type="int" name="NKREDZ">     1</i>
   <i type="logical" name="SHIFTRED"> F  </i>
   <i type="logical" name="ODDONLY"> F  </i>
   <i type="logical" name="EVENONLY"> F  </i>
   <i type="int" name="LMAXFOCK">     0</i>
   <i type="int" name="NMAXFOCKAE">     0</i>
   <i type="logical" name="LFOCKAEDFT"> F  </i>
   <i name="HFSCREEN">      0.00000000</i>
   <i name="HFSCREENC">      0.00000000</i>
   <i type="int" name="NBANDSGWLOW">     0</i>
  </separator>
  <separator name="vdW DFT" >
   <i type="logical" name="LUSE_VDW"> F  </i>
   <i name="Zab_VDW">     -0.84910000</i>
   <i name="PARAM1">      0.12340000</i>
   <i name="PARAM2">      1.00000000</i>
   <i name="PARAM3">      0.00000000</i>
  </separator>
  <separator name="model GW" >
   <i type="int" name="MODEL_GW">     0</i>
   <i name="MODEL_EPS0">     34.77704100</i>
   <i name="MODEL_ALPHA">      1.00000000</i>
  </separator>
  <separator name="linear response parameters" >
   <i type="logical" name="LEPSILON"> F  </i>
   <i type="logical" name="LRPA"> F  </i>
   <i type="logical" name="LNABLA"> F  </i>
   <i type="logical" name="LVEL"> F  </i>
   <i type="int" name="KINTER">     0</i>
   <i name="CSHIFT">      0.10000000</i>
   <i name="OMEGAMAX">     -1.00000000</i>
   <i name="DEG_THRESHOLD">      0.00200000</i>
   <i name="RTIME">     -0.10000000</i>
   <i name="WPLASMAI">      0.00000000</i>
   <v name="DFIELD">      0.00000000      0.00000000      0.00000000</v>
   <v name="WPLASMA">      0.00000000      0.00000000      0.00000000      0.00000000      0.00000000      0.00000000      0.00000000      0.00000000      0.00000000</v>
  </separator>
  <separator name="orbital magnetization" >
   <i type="logical" name="NUCIND"> F  </i>
   <v name="MAGPOS">      0.00000000      0.00000000      0.00000000</v>
   <i type="logical" name="LNICSALL"> T  </i>
   <i type="logical" name="ORBITALMAG"> F  </i>
   <i type="logical" name="LMAGBLOCH"> F  </i>
   <i type="logical" name="LCHIMAG"> F  </i>
   <i type="logical" name="LGAUGE"> T  </i>
   <i type="int" name="MAGATOM">     0</i>
   <v name="MAGDIPOL">      0.00000000      0.00000000      0.00000000</v>
   <v name="AVECCONST">      0.00000000      0.00000000      0.00000000</v>
  </separator>
  <separator name="response functions" >
   <i type="logical" name="LADDER"> F  </i>
   <i type="logical" name="LRPAFORCE"> F  </i>
   <i type="logical" name="LFXC"> F  </i>
   <i type="logical" name="LHARTREE"> T  </i>
   <i type="int" name="IBSE">     0</i>
   <v type="int" name="KPOINT">    -1     0     0     0</v>
   <i type="logical" name="LTCTE"> F  </i>
   <i type="logical" name="LTETE"> F  </i>
   <i type="logical" name="LTRIPLET"> F  </i>
   <i type="logical" name="LFXCEPS"> F  </i>
   <i type="logical" name="LFXHEG"> F  </i>
   <i type="int" name="NATURALO">     2</i>
   <i type="logical" name="L2ORDER"> F  </i>
   <i type="logical" name="LMP2LT"> F  </i>
   <i type="logical" name="LUSEW"> F  </i>
   <i name="ENCUTGW">     -2.00000000</i>
   <i name="ENCUTGWSOFT">     -2.00000000</i>
   <i name="ENCUTLF">     -1.00000000</i>
   <i type="int" name="LMAXMP2">    -1</i>
   <i name="SCISSOR">      0.00000000</i>
   <i type="int" name="NOMEGA">     0</i>
   <i type="int" name="NOMEGAR">     0</i>
   <i type="int" name="NBANDSGW">    -1</i>
   <i type="int" name="NBANDSO">    -1</i>
   <i type="int" name="NBANDSV">    -1</i>
   <i type="int" name="NELM">     1</i>
   <i type="int" name="NELMHF">     1</i>
   <i type="int" name="DIM">     3</i>
   <i type="int" name="ANTIRES">     0</i>
   <i name="OMEGAMAX">    -30.00000000</i>
   <i name="OMEGAMIN">    -30.00000000</i>
   <i name="OMEGATL">   -200.00000000</i>
   <i type="int" name="OMEGAGRID">   140</i>
   <i name="CSHIFT">     -0.10000000</i>
   <i type="logical" name="SELFENERGY"> F  </i>
   <i type="logical" name="LSPECTRAL"> F  </i>
   <i type="logical" name="LSPECTRALGW"> F  </i>
   <i type="logical" name="LSINGLES"> F  </i>
   <i type="logical" name="LFERMIGW"> F  </i>
   <i type="logical" name="ODDONLYGW"> F  </i>
   <i type="logical" name="EVENONLYGW"> F  </i>
   <i type="int" name="NKREDLFX">     1</i>
   <i type="int" name="NKREDLFY">     1</i>
   <i type="int" name="NKREDLFZ">     1</i>
   <i type="int" name="MAXMEM">  2800</i>
   <i type="int" name="TELESCOPE">     0</i>
   <i type="int" name="TAUPAR">     1</i>
   <i type="int" name="OMEGAPAR">    -1</i>
   <i name="LAMBDA">      1.00000000</i>
  </separator>
  <separator name="External order field" >
   <i name="OFIELD_KAPPA">      0.00000000</i>
   <v name="OFIELD_K">      0.00000000      0.00000000      0.00000000</v>
   <i name="OFIELD_Q6_NEAR">      0.00000000</i>
   <i name="OFIELD_Q6_FAR">      0.00000000</i>
   <i name="OFIELD_A">      0.00000000</i>
  </separator>
 </parameters>
 <atominfo>
  <atoms>       8 </atoms>
  <types>       2 </types>
  <array name="atoms" >
   <dimension dim="1">ion</dimension>
   <field type="string">element</field>
   <field type="int">atomtype</field>
   <set>
    <rc><c>B </c><c>   1</c></rc>
    <rc><c>B </c><c>   1</c></rc>
    <rc><c>C </c><c>   2</c></rc>
    <rc><c>C </c><c>   2</c></rc>
    <rc><c>C </c><c>   2</c></rc>
    <rc><c>C </c><c>   2</c></rc>
    <rc><c>C </c><c>   2</c></rc>
    <rc><c>C </c><c>   2</c></rc>
   </set>
  </array>
  <array name="atomtypes" >
   <dimension dim="1">type</dimension>
   <field type="int">atomspertype</field>
   <field type="string">element</field>
   <field>mass</field>
   <field>valence</field>
   <field type="string">pseudopotential</field>
   <set>
    <rc><c>   2</c><c>B </c><c>     10.81100000</c><c>      3.00000000</c><c>  PAW_PBE B 06Sep2000                   </c></rc>
    <rc><c>   6</c><c>C </c><c>     12.01100000</c><c>      4.00000000</c><c>  PAW_PBE C 08Apr2002                   </c></rc>
   </set>
  </array>
 </atominfo>
 <structure name="initialpos" >
  <crystal>
   <varray name="basis" >
    <v>       5.17400000       0.00000000       0.00000000 </v>
    <v>       2.58700000       4.48100000       0.00000000 </v>
    <v>       0.00000000       0.00000000      20.00000000 </v>
   </varray>
   <i name="volume">    463.69388000 </i>
   <varray name="rec_basis" >
    <v>       0.19327406      -0.11158224       0.00000000 </v>
    <v>       0.00000000       0.22316447       0.00000000 </v>
    <v>       0.00000000       0.00000000       0.05000000 </v>
   </varray>
  </crystal>
  <varray name="positions" >
   <v>       0.17457326       0.17462620       0.00000000 </v>
   <v>       0.50792519       0.50792234       0.00000000 </v>
   <v>       0.00000000       0.00000000       0.00000000 </v>
   <v>       0.52377271       0.00000000       0.00000000 </v>
   <v>       0.68255138       0.15866994       0.00000000 </v>
   <v>       0.99994706       0.52387860       0.00000000 </v>
   <v>       0.15872573       0.68254854       0.00000000 </v>
   <v>       0.68249844       0.68254854       0.00000000 </v>
  </varray>
 </structure>
 <calculation>
  <scstep>
   <time name="dav">   11.74   11.75</time>
   <time name="total">   11.90   11.92</time>
   <energy>
    <i name="alphaZ">     10.93933817 </i>
    <i name="ewald">   4060.05404224 </i>
    <i name="hartreedc">  -4796.78910906 </i>
    <i name="XCdc">     91.14028263 </i>
    <i name="pawpsdc">    738.13200929 </i>
    <i name="pawaedc">   -739.83780425 </i>
    <i name="eentropy">      0.00000000 </i>
    <i name="bandstr">   -195.21670318 </i>
    <i name="atom">   1025.20389953 </i>
    <i name="e_fr_energy">    193.62595538 </i>
    <i name="e_wo_entrp">    193.62595538 </i>
    <i name="e_0_energy">    193.62595538 </i>
   </energy>
  </scstep>
  <scstep>
   <time name="dav">   15.55   15.56</time>
   <time name="total">   15.56   15.58</time>
   <energy>
    <i name="e_fr_energy">    -41.96544047 </i>
    <i name="e_wo_entrp">    -41.96544047 </i>
    <i name="e_0_energy">    -41.96544047 </i>
   </energy>
  </scstep>
  <scstep>
   <time name="dav">   13.03   13.04</time>
   <time name="total">   13.03   13.05</time>
   <energy>
    <i name="e_fr_energy">    -72.67596910 </i>
    <i name="e_wo_entrp">    -72.67596910 </i>
    <i name="e_0_energy">    -72.67596910 </i>
   </energy>
  </scstep>
  <scstep>
   <time name="dav">   14.83   14.84</time>
   <time name="total">   14.83   14.84</time>
   <energy>
    <i name="e_fr_energy">    -73.41918089 </i>
    <i name="e_wo_entrp">    -73.41918089 </i>
    <i name="e_0_energy">    -73.41918089 </i>
   </energy>
  </scstep>
  <scstep>
   <time name="dav">   12.98   13.00</time>
   <time name="total">   13.93   13.95</time>
   <energy>
    <i name="e_fr_energy">    -73.43744967 </i>
    <i name="e_wo_entrp">    -73.43744967 </i>
    <i name="e_0_energy">    -73.43744967 </i>
   </energy>
  </scstep>
  <scstep>
   <time name="dav">   14.50   14.52</time>
   <time name="total">   15.58   15.59</time>
   <energy>
    <i name="e_fr_energy">    -68.97804411 </i>
    <i name="e_wo_entrp">    -68.97804411 </i>
    <i name="e_0_energy">    -68.97804411 </i>
   </energy>
  </scstep>
  <scstep>
   <time name="dav">   14.76   14.79</time>
   <time name="total">   15.82   15.85</time>
   <energy>
    <i name="e_fr_energy">    -67.33306199 </i>
    <i name="e_wo_entrp">    -67.33306199 </i>
    <i name="e_0_energy">    -67.33306199 </i>
   </energy>
  </scstep>
  <scstep>
   <time name="dav">   15.08   15.09</time>
   <time name="total">   16.14   16.15</time>
   <energy>
    <i name="e_fr_energy">    -67.25254625 </i>
    <i name="e_wo_entrp">    -67.25254625 </i>
    <i name="e_0_energy">    -67.25254625 </i>
   </energy>
  </scstep>
  <scstep>
   <time name="dav">   12.87   12.88</time>
   <time name="total">   13.94   13.96</time>
   <energy>
    <i name="e_fr_energy">    -67.23480281 </i>
    <i name="e_wo_entrp">    -67.23480281 </i>
    <i name="e_0_energy">    -67.23480281 </i>
   </energy>
  </scstep>
  <scstep>
   <time name="dav">   13.24   13.25</time>
   <time name="total">   14.30   14.32</time>
   <energy>
    <i name="e_fr_energy">    -67.22329640 </i>
    <i name="e_wo_entrp">    -67.22329640 </i>
    <i name="e_0_energy">    -67.22329640 </i>
   </energy>
  </scstep>
  <scstep>
   <time name="dav">   12.20   12.21</time>
   <time name="total">   13.28   13.29</time>
   <energy>
    <i name="e_fr_energy">    -67.22264963 </i>
    <i name="e_wo_entrp">    -67.22264963 </i>
    <i name="e_0_energy">    -67.22264963 </i>
   </energy>
  </scstep>
  <scstep>
   <time name="dav">   11.80   11.81</time>
   <time name="total">   12.90   12.91</time>
   <energy>
    <i name="e_fr_energy">    -67.22284089 </i>
    <i name="e_wo_entrp">    -67.22284089 </i>
    <i name="e_0_energy">    -67.22284089 </i>
   </energy>
  </scstep>
  <scstep>
   <time name="dav">   11.47   11.48</time>
   <time name="total">   12.55   12.56</time>
   <energy>
    <i name="e_fr_energy">    -67.22706299 </i>
    <i name="e_wo_entrp">    -67.22706299 </i>
    <i name="e_0_energy">    -67.22706299 </i>
   </energy>
  </scstep>
  <scstep>
   <time name="dav">   12.29   12.30</time>
   <time name="total">   13.37   13.38</time>
   <energy>
    <i name="e_fr_energy">    -67.22966135 </i>
    <i name="e_wo_entrp">    -67.22966135 </i>
    <i name="e_0_energy">    -67.22966135 </i>
   </energy>
  </scstep>
  <scstep>
   <time name="dav">   11.60   11.62</time>
   <time name="total">   12.67   12.68</time>
   <energy>
    <i name="e_fr_energy">    -67.23019095 </i>
    <i name="e_wo_entrp">    -67.23019095 </i>
    <i name="e_0_energy">    -67.23019095 </i>
   </energy>
  </scstep>
  <scstep>
   <time name="dav">   11.30   11.31</time>
   <time name="total">   12.39   12.40</time>
   <energy>
    <i name="e_fr_energy">    -67.23052614 </i>
    <i name="e_wo_entrp">    -67.23052614 </i>
    <i name="e_0_energy">    -67.23052614 </i>
   </energy>
  </scstep>
  <scstep>
   <time name="dav">   12.32   12.33</time>
   <time name="total">   13.41   13.42</time>
   <energy>
    <i name="e_fr_energy">    -67.23057673 </i>
    <i name="e_wo_entrp">    -67.23057673 </i>
    <i name="e_0_energy">    -67.23057673 </i>
   </energy>
  </scstep>
  <scstep>
   <time name="dav">   11.98   12.01</time>
   <time name="total">   13.06   13.09</time>
   <energy>
    <i name="e_fr_energy">    -67.23061500 </i>
    <i name="e_wo_entrp">    -67.23061500 </i>
    <i name="e_0_energy">    -67.23061500 </i>
   </energy>
  </scstep>
  <scstep>
   <time name="dav">   11.38   11.40</time>
   <time name="total">   12.47   12.49</time>
   <energy>
    <i name="e_fr_energy">    -67.23062056 </i>
    <i name="e_wo_entrp">    -67.23062056 </i>
    <i name="e_0_energy">    -67.23062056 </i>
   </energy>
  </scstep>
  <scstep>
   <time name="dav">   10.88   10.89</time>
   <time name="total">   11.99   12.00</time>
   <energy>
    <i name="e_fr_energy">    -67.23063363 </i>
    <i name="e_wo_entrp">    -67.23063363 </i>
    <i name="e_0_energy">    -67.23063363 </i>
   </energy>
  </scstep>
  <scstep>
   <time name="dav">    9.92    9.93</time>
   <time name="total">   11.00   11.01</time>
   <energy>
    <i name="e_fr_energy">    -67.23063613 </i>
    <i name="e_wo_entrp">    -67.23063613 </i>
    <i name="e_0_energy">    -67.23063613 </i>
   </energy>
  </scstep>
  <scstep>
   <time name="dav">    9.50    9.51</time>
   <time name="total">    9.65    9.65</time>
   <energy>
    <i name="alphaZ">     10.93933817 </i>
    <i name="ewald">   4060.05404224 </i>
    <i name="hartreedc">  -4938.55693026 </i>
    <i name="XCdc">     96.01877051 </i>
    <i name="pawpsdc">   2893.57504994 </i>
    <i name="pawaedc">  -2896.10204612 </i>
    <i name="eentropy">      0.00000000 </i>
    <i name="bandstr">   -318.36276094 </i>
    <i name="atom">   1025.20389953 </i>
    <i name="e_fr_energy">    -67.23063694 </i>
    <i name="e_wo_entrp">    -67.23063694 </i>
    <i name="e_0_energy">    -67.23063694 </i>
   </energy>
  </scstep>
  <structure>
   <crystal>
    <varray name="basis" >
     <v>       5.17400000       0.00000000       0.00000000 </v>
     <v>       2.58700000       4.48100000       0.00000000 </v>
     <v>       0.00000000       0.00000000      20.00000000 </v>
    </varray>
    <i name="volume">    463.69388000 </i>
    <varray name="rec_basis" >
     <v>       0.19327406      -0.11158224       0.00000000 </v>
     <v>       0.00000000       0.22316447       0.00000000 </v>
     <v>       0.00000000       0.00000000       0.05000000 </v>
    </varray>
   </crystal>
   <varray name="positions" >
    <v>       0.17457326       0.17462620       0.00000000 </v>
    <v>       0.50792519       0.50792234       0.00000000 </v>
    <v>       0.00000000       0.00000000       0.00000000 </v>
    <v>       0.52377271       0.00000000       0.00000000 </v>
    <v>       0.68255138       0.15866994       0.00000000 </v>
    <v>       0.99994706       0.52387860       0.00000000 </v>
    <v>       0.15872573       0.68254854       0.00000000 </v>
    <v>       0.68249844       0.68254854       0.00000000 </v>
   </varray>
  </structure>
  <varray name="forces" >
   <v>       0.00000000       0.00448518       0.00000000 </v>
   <v>      -0.00000000      -0.00448518      -0.00000000 </v>
   <v>      -0.01816181      -0.01141470      -0.00000000 </v>
   <v>       0.01816181      -0.01141470       0.00000000 </v>
   <v>       0.00000000      -0.00888978       0.00000000 </v>
   <v>      -0.00000000       0.00888978      -0.00000000 </v>
   <v>      -0.01816181       0.01141470      -0.00000000 </v>
   <v>       0.01816181       0.01141470      -0.00000000 </v>
  </varray>
  <varray name="stress" >
   <v>      -0.27540868      -0.00000000       0.00000000 </v>
   <v>      -0.00000000      -0.32701446       0.00000000 </v>
   <v>       0.00000000       0.00000000      -0.61274773 </v>
  </varray>
  <energy>
   <i name="e_fr_energy">    -67.23063694 </i>
   <i name="e_wo_entrp">    -67.23063694 </i>
   <i name="e_0_energy">      0.00000000 </i>
  </energy>
  <time name="totalsc">  306.86  307.46</time>
 </calculation>
 <calculation>
  <scstep>
   <time name="dav">   11.25   11.26</time>
   <time name="total">   12.32   12.33</time>
   <energy>
    <i name="alphaZ">     10.93933817 </i>
    <i name="ewald">   4060.33047143 </i>
    <i name="hartreedc">  -4938.75384132 </i>
    <i name="XCdc">     96.02314235 </i>
    <i name="pawpsdc">   2893.56987640 </i>
    <i name="pawaedc">  -2896.09687459 </i>
    <i name="eentropy">      0.00000000 </i>
    <i name="bandstr">   -318.44661639 </i>
    <i name="atom">   1025.20389953 </i>
    <i name="e_fr_energy">    -67.23060443 </i>
    <i name="e_wo_entrp">    -67.23060443 </i>
    <i name="e_0_energy">    -67.23060443 </i>
   </energy>
  </scstep>
  <scstep>
   <time name="dav">   11.36   11.37</time>
   <time name="total">   12.41   12.42</time>
   <energy>
    <i name="e_fr_energy">    -67.23058630 </i>
    <i name="e_wo_entrp">    -67.23058630 </i>
    <i name="e_0_energy">    -67.23058630 </i>
   </energy>
  </scstep>
  <scstep>
   <time name="dav">   11.04   11.04</time>
   <time name="total">   12.10   12.11</time>
   <energy>
    <i name="e_fr_energy">    -67.23058320 </i>
    <i name="e_wo_entrp">    -67.23058320 </i>
    <i name="e_0_energy">    -67.23058320 </i>
   </energy>
  </scstep>
  <scstep>
   <time name="dav">   11.88   11.89</time>
   <time name="total">   12.02   12.03</time>
   <energy>
    <i name="alphaZ">     10.93933817 </i>
    <i name="ewald">   4060.33047143 </i>
    <i name="hartreedc">  -4938.83001588 </i>
    <i name="XCdc">     96.02629559 </i>
    <i name="pawpsdc">   2894.94290398 </i>
    <i name="pawaedc">  -2897.47048805 </i>
    <i name="eentropy">      0.00000000 </i>
    <i name="bandstr">   -318.37298795 </i>
    <i name="atom">   1025.20389953 </i>
    <i name="e_fr_energy">    -67.23058319 </i>
    <i name="e_wo_entrp">    -67.23058319 </i>
    <i name="e_0_energy">    -67.23058319 </i>
   </energy>
  </scstep>
  <structure>
   <crystal>
    <varray name="basis" >
     <v>       5.17400000       0.00000000       0.00000000 </v>
     <v>       2.58700000       4.48100000       0.00000000 </v>
     <v>       0.00000000       0.00000000      20.00000000 </v>
    </varray>
    <i name="volume">    463.69388000 </i>
    <varray name="rec_basis" >
     <v>       0.19327406      -0.11158224       0.00000000 </v>
     <v>       0.00000000       0.22316447       0.00000000 </v>
     <v>       0.00000000       0.00000000       0.05000000 </v>
    </varray>
   </crystal>
   <varray name="positions" >
    <v>       0.17454911       0.17467449       0.00000000 </v>
    <v>       0.50794933       0.50787405      -0.00000000 </v>
    <v>      -0.00010790      -0.00012289      -0.00000000 </v>
    <v>       0.52400350      -0.00012289       0.00000000 </v>
    <v>       0.68259924       0.15857423       0.00000000 </v>
    <v>       0.99989920       0.52397431      -0.00000000 </v>
    <v>       0.15849494       0.68267143      -0.00000000 </v>
    <v>       0.68260634       0.68267143      -0.00000000 </v>
   </varray>
  </structure>
  <varray name="forces" >
   <v>       0.00000000      -0.01724816      -0.00000000 </v>
   <v>       0.00000000       0.01724816      -0.00000000 </v>
   <v>       0.03181514       0.03209685       0.00000000 </v>
   <v>      -0.03181514       0.03209685      -0.00000000 </v>
   <v>       0.00000000       0.01788587      -0.00000000 </v>
   <v>       0.00000000      -0.01788587      -0.00000000 </v>
   <v>       0.03181514      -0.03209685      -0.00000000 </v>
   <v>      -0.03181514      -0.03209685      -0.00000000 </v>
  </varray>
  <varray name="stress" >
   <v>      -0.15426504       0.00000000       0.00000000 </v>
   <v>       0.00000000      -0.10021918       0.00000000 </v>
   <v>       0.00000000       0.00000000      -0.60925797 </v>
  </varray>
  <energy>
   <i name="e_fr_energy">    -67.23058319 </i>
   <i name="e_wo_entrp">    -67.23058319 </i>
   <i name="e_0_energy">      0.00000000 </i>
  </energy>
  <time name="totalsc">   60.18   60.28</time>
 </calculation>
 <calculation>
  <scstep>
   <time name="dav">   11.04   11.05</time>
   <time name="total">   12.12   12.13</time>
   <energy>
    <i name="alphaZ">     10.93933817 </i>
    <i name="ewald">   4060.14344208 </i>
    <i name="hartreedc">  -4938.69978080 </i>
    <i name="XCdc">     96.02336707 </i>
    <i name="pawpsdc">   2895.02143327 </i>
    <i name="pawaedc">  -2897.54899397 </i>
    <i name="eentropy">      0.00000000 </i>
    <i name="bandstr">   -318.31336840 </i>
    <i name="atom">   1025.20389953 </i>
    <i name="e_fr_energy">    -67.23066307 </i>
    <i name="e_wo_entrp">    -67.23066307 </i>
    <i name="e_0_energy">    -67.23066307 </i>
   </energy>
  </scstep>
  <scstep>
   <time name="dav">   11.19   11.20</time>
   <time name="total">   12.26   12.27</time>
   <energy>
    <i name="e_fr_energy">    -67.23065402 </i>
    <i name="e_wo_entrp">    -67.23065402 </i>
    <i name="e_0_energy">    -67.23065402 </i>
   </energy>
  </scstep>
  <scstep>
   <time name="dav">   11.69   11.70</time>
   <time name="total">   12.76   12.78</time>
   <energy>
    <i name="e_fr_energy">    -67.23065276 </i>
    <i name="e_wo_entrp">    -67.23065276 </i>
    <i name="e_0_energy">    -67.23065276 </i>
   </energy>
  </scstep>
  <scstep>
   <time name="dav">   11.90   11.91</time>
   <time name="total">   12.04   12.05</time>
   <energy>
    <i name="alphaZ">     10.93933817 </i>
    <i name="ewald">   4060.14344208 </i>
    <i name="hartreedc">  -4938.64995537 </i>
    <i name="XCdc">     96.02124217 </i>
    <i name="pawpsdc">   2894.06977920 </i>
    <i name="pawaedc">  -2896.59690900 </i>
    <i name="eentropy">      0.00000000 </i>
    <i name="bandstr">   -318.36148968 </i>
    <i name="atom">   1025.20389953 </i>
    <i name="e_fr_energy">    -67.23065291 </i>
    <i name="e_wo_entrp">    -67.23065291 </i>
    <i name="e_0_energy">    -67.23065291 </i>
   </energy>
  </scstep>
  <structure>
   <crystal>
    <varray name="basis" >
     <v>       5.17400000       0.00000000       0.00000000 </v>
     <v>       2.58700000       4.48100000       0.00000000 </v>
     <v>       0.00000000       0.00000000      20.00000000 </v>
    </varray>
    <i name="volume">    463.69388000 </i>
    <varray name="rec_basis" >
     <v>       0.19327406      -0.11158224       0.00000000 </v>
     <v>       0.00000000       0.22316447       0.00000000 </v>
     <v>       0.00000000       0.00000000       0.05000000 </v>
    </varray>
   </crystal>
   <varray name="positions" >
    <v>       0.17456543       0.17464186       0.00000000 </v>
    <v>       0.50793301       0.50790668      -0.00000000 </v>
    <v>      -0.00003498      -0.00003984      -0.00000000 </v>
    <v>       0.52384754      -0.00003984       0.00000000 </v>
    <v>       0.68256690       0.15863891       0.00000000 </v>
    <v>       0.99993154       0.52390963      -0.00000000 </v>
    <v>       0.15865090       0.68258838      -0.00000000 </v>
    <v>       0.68253342       0.68258838      -0.00000000 </v>
   </varray>
  </structure>
  <varray name="forces" >
   <v>      -0.00000000      -0.00267656       0.00000000 </v>
   <v>       0.00000000       0.00267656       0.00000000 </v>
   <v>      -0.00180355       0.00288218       0.00000000 </v>
   <v>       0.00180355       0.00288218       0.00000000 </v>
   <v>      -0.00000000      -0.00011587       0.00000000 </v>
   <v>      -0.00000000       0.00011587       0.00000000 </v>
   <v>      -0.00180355      -0.00288218       0.00000000 </v>
   <v>       0.00180355      -0.00288218       0.00000000 </v>
  </varray>
  <varray name="stress" >
   <v>      -0.23960817       0.00000000       0.00000000 </v>
   <v>       0.00000000      -0.24860689       0.00000000 </v>
   <v>       0.00000000       0.00000000      -0.61451440 </v>
  </varray>
  <energy>
   <i name="e_fr_energy">    -67.23065291 </i>
   <i name="e_wo_entrp">    -67.23065291 </i>
   <i name="e_0_energy">      0.00000000 </i>
  </energy>
  <time name="totalsc">   60.49   60.60</time>
 </calculation>
 <calculation>
  <scstep>
   <time name="dav">   10.28   10.29</time>
   <time name="total">   11.35   11.36</time>
   <energy>
    <i name="alphaZ">     10.93933817 </i>
    <i name="ewald">   4060.14246410 </i>
    <i name="hartreedc">  -4938.64801818 </i>
    <i name="XCdc">     96.02121159 </i>
    <i name="pawpsdc">   2894.00668291 </i>
    <i name="pawaedc">  -2896.53382198 </i>
    <i name="eentropy">      0.00000000 </i>
    <i name="bandstr">   -318.36240923 </i>
    <i name="atom">   1025.20389953 </i>
    <i name="e_fr_energy">    -67.23065310 </i>
    <i name="e_wo_entrp">    -67.23065310 </i>
    <i name="e_0_energy">    -67.23065310 </i>
   </energy>
  </scstep>
  <scstep>
   <time name="dav">    9.25    9.26</time>
   <time name="total">    9.40    9.41</time>
   <energy>
    <i name="alphaZ">     10.93933817 </i>
    <i name="ewald">   4060.14246410 </i>
    <i name="hartreedc">  -4938.64805339 </i>
    <i name="XCdc">     96.02121557 </i>
    <i name="pawpsdc">   2894.01079698 </i>
    <i name="pawaedc">  -2896.53794509 </i>
    <i name="eentropy">      0.00000000 </i>
    <i name="bandstr">   -318.36236896 </i>
    <i name="atom">   1025.20389953 </i>
    <i name="e_fr_energy">    -67.23065311 </i>
    <i name="e_wo_entrp">    -67.23065311 </i>
    <i name="e_0_energy">    -67.23065311 </i>
   </energy>
  </scstep>
  <structure>
   <crystal>
    <varray name="basis" >
     <v>       5.17400000       0.00000000       0.00000000 </v>
     <v>       2.58700000       4.48100000       0.00000000 </v>
     <v>       0.00000000       0.00000000      20.00000000 </v>
    </varray>
    <i name="volume">    463.69388000 </i>
    <varray name="rec_basis" >
     <v>       0.19327406      -0.11158224       0.00000000 </v>
     <v>       0.00000000       0.22316447       0.00000000 </v>
     <v>       0.00000000       0.00000000       0.05000000 </v>
    </varray>
   </crystal>
   <varray name="positions" >
    <v>       0.17456551       0.17464168       0.00000000 </v>
    <v>       0.50793293       0.50790685      -0.00000000 </v>
    <v>      -0.00003460      -0.00003941      -0.00000000 </v>
    <v>       0.52384672      -0.00003941       0.00000000 </v>
    <v>       0.68256673       0.15863925       0.00000000 </v>
    <v>       0.99993171       0.52390929      -0.00000000 </v>
    <v>       0.15865172       0.68258795      -0.00000000 </v>
    <v>       0.68253304       0.68258795      -0.00000000 </v>
   </varray>
  </structure>
  <varray name="forces" >
   <v>       0.00000000      -0.00252530      -0.00000000 </v>
   <v>       0.00000000       0.00252530       0.00000000 </v>
   <v>      -0.00217301       0.00252908       0.00000000 </v>
   <v>       0.00217301       0.00252908       0.00000000 </v>
   <v>       0.00000000      -0.00035187       0.00000000 </v>
   <v>       0.00000000       0.00035187       0.00000000 </v>
   <v>      -0.00217301      -0.00252908       0.00000000 </v>
   <v>       0.00217301      -0.00252908       0.00000000 </v>
  </varray>
  <varray name="stress" >
   <v>      -0.23742176       0.00000000       0.00000000 </v>
   <v>       0.00000000      -0.25333899       0.00000000 </v>
   <v>       0.00000000       0.00000000      -0.61297267 </v>
  </varray>
  <energy>
   <i name="e_fr_energy">    -67.23065311 </i>
   <i name="e_wo_entrp">    -67.23065311 </i>
   <i name="e_0_energy">      0.00000000 </i>
  </energy>
  <time name="totalsc">   32.06   32.14</time>
 </calculation>
 <calculation>
  <scstep>
   <time name="dav">    9.21    9.21</time>
   <time name="total">   10.28   10.29</time>
   <energy>
    <i name="alphaZ">     10.93933817 </i>
    <i name="ewald">   4060.14298804 </i>
    <i name="hartreedc">  -4938.64818144 </i>
    <i name="XCdc">     96.02121877 </i>
    <i name="pawpsdc">   2894.01873581 </i>
    <i name="pawaedc">  -2896.54589697 </i>
    <i name="eentropy">      0.00000000 </i>
    <i name="bandstr">   -318.36275502 </i>
    <i name="atom">   1025.20389953 </i>
    <i name="e_fr_energy">    -67.23065311 </i>
    <i name="e_wo_entrp">    -67.23065311 </i>
    <i name="e_0_energy">    -67.23065311 </i>
   </energy>
  </scstep>
  <scstep>
   <time name="dav">   10.67   10.68</time>
   <time name="total">   10.82   10.82</time>
   <energy>
    <i name="alphaZ">     10.93933817 </i>
    <i name="ewald">   4060.14298804 </i>
    <i name="hartreedc">  -4938.64809949 </i>
    <i name="XCdc">     96.02121791 </i>
    <i name="pawpsdc">   2894.01953965 </i>
    <i name="pawaedc">  -2896.54670161 </i>
    <i name="eentropy">      0.00000000 </i>
    <i name="bandstr">   -318.36283531 </i>
    <i name="atom">   1025.20389953 </i>
    <i name="e_fr_energy">    -67.23065311 </i>
    <i name="e_wo_entrp">    -67.23065311 </i>
    <i name="e_0_energy">    -67.23065311 </i>
   </energy>
  </scstep>
  <structure>
   <crystal>
    <varray name="basis" >
     <v>       5.17400000       0.00000000       0.00000000 </v>
     <v>       2.58700000       4.48100000       0.00000000 </v>
     <v>       0.00000000       0.00000000      20.00000000 </v>
    </varray>
    <i name="volume">    463.69388000 </i>
    <varray name="rec_basis" >
     <v>       0.19327406      -0.11158224       0.00000000 </v>
     <v>       0.00000000       0.22316447       0.00000000 </v>
     <v>       0.00000000       0.00000000       0.05000000 </v>
    </varray>
   </crystal>
   <varray name="positions" >
    <v>       0.17456547       0.17464178       0.00000000 </v>
    <v>       0.50793297       0.50790676      -0.00000000 </v>
    <v>      -0.00003481      -0.00003964      -0.00000000 </v>
    <v>       0.52384716      -0.00003964       0.00000000 </v>
    <v>       0.68256682       0.15863907       0.00000000 </v>
    <v>       0.99993162       0.52390947      -0.00000000 </v>
    <v>       0.15865128       0.68258818      -0.00000000 </v>
    <v>       0.68253325       0.68258818      -0.00000000 </v>
   </varray>
  </structure>
  <varray name="forces" >
   <v>       0.00000000      -0.00257300       0.00000000 </v>
   <v>       0.00000000       0.00257300      -0.00000000 </v>
   <v>      -0.00197862       0.00267588      -0.00000000 </v>
   <v>       0.00197862       0.00267588       0.00000000 </v>
   <v>       0.00000000      -0.00022842       0.00000000 </v>
   <v>       0.00000000       0.00022842      -0.00000000 </v>
   <v>      -0.00197862      -0.00267588       0.00000000 </v>
   <v>       0.00197862      -0.00267588       0.00000000 </v>
  </varray>
  <varray name="stress" >
   <v>      -0.23752299      -0.00000000       0.00000000 </v>
   <v>       0.00000000      -0.25252404       0.00000000 </v>
   <v>       0.00000000       0.00000000      -0.61300370 </v>
  </varray>
  <energy>
   <i name="e_fr_energy">    -67.23065311 </i>
   <i name="e_wo_entrp">    -67.23065311 </i>
   <i name="e_0_energy">      0.00000000 </i>
  </energy>
  <time name="totalsc">   32.42   32.48</time>
 </calculation>
 <calculation>
  <scstep>
   <time name="dav">   11.05   11.06</time>
   <time name="total">   12.13   12.14</time>
   <energy>
    <i name="alphaZ">     10.93933817 </i>
    <i name="ewald">   4060.15396529 </i>
    <i name="hartreedc">  -4938.65583550 </i>
    <i name="XCdc">     96.02139127 </i>
    <i name="pawpsdc">   2894.02102087 </i>
    <i name="pawaedc">  -2896.54818370 </i>
    <i name="eentropy">      0.00000000 </i>
    <i name="bandstr">   -318.36624784 </i>
    <i name="atom">   1025.20389953 </i>
    <i name="e_fr_energy">    -67.23065191 </i>
    <i name="e_wo_entrp">    -67.23065191 </i>
    <i name="e_0_energy">    -67.23065191 </i>
   </energy>
  </scstep>
  <scstep>
   <time name="dav">   12.35   12.37</time>
   <time name="total">   12.50   12.51</time>
   <energy>
    <i name="alphaZ">     10.93933817 </i>
    <i name="ewald">   4060.15396529 </i>
    <i name="hartreedc">  -4938.65784915 </i>
    <i name="XCdc">     96.02147919 </i>
    <i name="pawpsdc">   2893.99722569 </i>
    <i name="pawaedc">  -2896.52439656 </i>
    <i name="eentropy">      0.00000000 </i>
    <i name="bandstr">   -318.36431413 </i>
    <i name="atom">   1025.20389953 </i>
    <i name="e_fr_energy">    -67.23065196 </i>
    <i name="e_wo_entrp">    -67.23065196 </i>
    <i name="e_0_energy">    -67.23065196 </i>
   </energy>
  </scstep>
  <structure>
   <crystal>
    <varray name="basis" >
     <v>       5.17400000       0.00000000       0.00000000 </v>
     <v>       2.58700000       4.48100000       0.00000000 </v>
     <v>       0.00000000       0.00000000      20.00000000 </v>
    </varray>
    <i name="volume">    463.69388000 </i>
    <varray name="rec_basis" >
     <v>       0.19327406      -0.11158224       0.00000000 </v>
     <v>       0.00000000       0.22316447       0.00000000 </v>
     <v>       0.00000000       0.00000000       0.05000000 </v>
    </varray>
   </crystal>
   <varray name="positions" >
    <v>       0.17457688       0.17461896       0.00000000 </v>
    <v>       0.50792156       0.50792958      -0.00000000 </v>
    <v>      -0.00006573      -0.00001761      -0.00000000 </v>
    <v>       0.52385605      -0.00001761       0.00000000 </v>
    <v>       0.68256900       0.15863470       0.00000000 </v>
    <v>       0.99992944       0.52391383      -0.00000000 </v>
    <v>       0.15864239       0.68256615      -0.00000000 </v>
    <v>       0.68256417       0.68256615       0.00000000 </v>
   </varray>
  </structure>
  <varray name="forces" >
   <v>       0.00000000       0.00168336      -0.00000000 </v>
   <v>      -0.00000000      -0.00168336       0.00000000 </v>
   <v>       0.00272982      -0.00711113       0.00000000 </v>
   <v>      -0.00272982      -0.00711113       0.00000000 </v>
   <v>       0.00000000       0.00711794       0.00000000 </v>
   <v>      -0.00000000      -0.00711794       0.00000000 </v>
   <v>       0.00272982       0.00711113       0.00000000 </v>
   <v>      -0.00272982       0.00711113       0.00000000 </v>
  </varray>
  <varray name="stress" >
   <v>      -0.20048165       0.00000000       0.00000000 </v>
   <v>       0.00000000      -0.27317420       0.00000000 </v>
   <v>       0.00000000       0.00000000      -0.60844388 </v>
  </varray>
  <energy>
   <i name="e_fr_energy">    -67.23065196 </i>
   <i name="e_wo_entrp">    -67.23065196 </i>
   <i name="e_0_energy">      0.00000000 </i>
  </energy>
  <time name="totalsc">   35.92   36.02</time>
 </calculation>
 <calculation>
  <scstep>
   <time name="dav">   11.16   11.16</time>
   <time name="total">   12.23   12.24</time>
   <energy>
    <i name="alphaZ">     10.93933817 </i>
    <i name="ewald">   4060.14677962 </i>
    <i name="hartreedc">  -4938.65368524 </i>
    <i name="XCdc">     96.02140707 </i>
    <i name="pawpsdc">   2894.02423518 </i>
    <i name="pawaedc">  -2896.55141994 </i>
    <i name="eentropy">      0.00000000 </i>
    <i name="bandstr">   -318.36120780 </i>
    <i name="atom">   1025.20389953 </i>
    <i name="e_fr_energy">    -67.23065342 </i>
    <i name="e_wo_entrp">    -67.23065342 </i>
[...]
       <r>  -16.8787    1.0000 </r>
       <r>  -14.6031    1.0000 </r>
       <r>  -12.4069    1.0000 </r>
       <r>  -10.5262    1.0000 </r>
       <r>  -10.3323    1.0000 </r>
       <r>   -9.4084    1.0000 </r>
       <r>   -8.4532    1.0000 </r>
       <r>   -8.1349    1.0000 </r>
       <r>   -7.2222    1.0000 </r>
       <r>   -6.9387    1.0000 </r>
       <r>   -6.5746    1.0000 </r>
       <r>   -5.3901    1.0000 </r>
       <r>   -5.1877    1.0000 </r>
       <r>   -3.5761    0.0000 </r>
       <r>    0.2233    0.0000 </r>
       <r>    1.0618    0.0000 </r>
       <r>    1.8231    0.0000 </r>
       <r>    2.5912    0.0000 </r>
       <r>    2.7328    0.0000 </r>
       <r>    2.9248    0.0000 </r>
       <r>    3.4501    0.0000 </r>
       <r>    3.7557    0.0000 </r>
      </set>
      <set comment="kpoint 71">
       <r>  -19.7186    1.0000 </r>
       <r>  -17.9990    1.0000 </r>
       <r>  -17.1101    1.0000 </r>
       <r>  -14.3095    1.0000 </r>
       <r>  -12.5250    1.0000 </r>
       <r>  -10.7727    1.0000 </r>
       <r>   -9.9293    1.0000 </r>
       <r>   -9.2916    1.0000 </r>
       <r>   -7.9942    1.0000 </r>
       <r>   -7.9829    1.0000 </r>
       <r>   -7.7305    1.0000 </r>
       <r>   -7.0054    1.0000 </r>
       <r>   -6.7145    1.0000 </r>
       <r>   -5.6945    1.0000 </r>
       <r>   -5.6060    1.0000 </r>
       <r>   -3.1399    0.0000 </r>
       <r>   -0.4257    0.0000 </r>
       <r>    1.8885    0.0000 </r>
       <r>    2.3333    0.0000 </r>
       <r>    2.3407    0.0000 </r>
       <r>    3.0657    0.0000 </r>
       <r>    3.1374    0.0000 </r>
       <r>    3.4498    0.0000 </r>
       <r>    3.4500    0.0000 </r>
      </set>
      <set comment="kpoint 72">
       <r>  -19.7452    1.0000 </r>
       <r>  -18.0192    1.0000 </r>
       <r>  -16.9500    1.0000 </r>
       <r>  -14.5310    1.0000 </r>
       <r>  -12.3905    1.0000 </r>
       <r>  -10.5273    1.0000 </r>
       <r>  -10.2298    1.0000 </r>
       <r>   -9.4494    1.0000 </r>
       <r>   -8.1920    1.0000 </r>
       <r>   -8.0476    1.0000 </r>
       <r>   -7.5352    1.0000 </r>
       <r>   -7.0212    1.0000 </r>
       <r>   -6.5960    1.0000 </r>
       <r>   -5.5000    1.0000 </r>
       <r>   -5.3177    1.0000 </r>
       <r>   -3.4574    0.0000 </r>
       <r>    0.0024    0.0000 </r>
       <r>    1.3747    0.0000 </r>
       <r>    2.0514    0.0000 </r>
       <r>    2.5064    0.0000 </r>
       <r>    2.8167    0.0000 </r>
       <r>    3.1581    0.0000 </r>
       <r>    3.2568    0.0000 </r>
       <r>    3.6246    0.0000 </r>
      </set>
      <set comment="kpoint 73">
       <r>  -19.7430    1.0000 </r>
       <r>  -18.0468    1.0000 </r>
       <r>  -16.8924    1.0000 </r>
       <r>  -14.6195    1.0000 </r>
       <r>  -12.2981    1.0000 </r>
       <r>  -10.4418    1.0000 </r>
       <r>  -10.2351    1.0000 </r>
       <r>   -9.6285    1.0000 </r>
       <r>   -8.0322    1.0000 </r>
       <r>   -8.0032    1.0000 </r>
       <r>   -7.7503    1.0000 </r>
       <r>   -7.0751    1.0000 </r>
       <r>   -6.5373    1.0000 </r>
       <r>   -5.4553    1.0000 </r>
       <r>   -5.1970    1.0000 </r>
       <r>   -3.5975    0.0000 </r>
       <r>    0.2620    0.0000 </r>
       <r>    1.1162    0.0000 </r>
       <r>    2.2482    0.0000 </r>
       <r>    2.2523    0.0000 </r>
       <r>    2.9830    0.0000 </r>
       <r>    3.0352    0.0000 </r>
       <r>    3.3619    0.0000 </r>
       <r>    3.3623    0.0000 </r>
      </set>
     </set>
    </set>
   </array>
  </eigenvalues>
  <separator name="orbital magnetization" >
   <v name="MAGDIPOLOUT">      0.00000000      0.00000000      0.00000000</v>
  </separator>
  <dos>
   <i name="efermi">     -4.22574959 </i>
   <total>
    <array>
     <dimension dim="1">gridpoints</dimension>
     <dimension dim="2">spin</dimension>
     <field>energy</field>
     <field>total</field>
     <field>integrated</field>
     <set>
      <set comment="spin 1">
       <r>   -22.3146     0.0000     0.0000 </r>
       <r>   -22.2206     0.0000     0.0000 </r>
       <r>   -22.1267     0.0000     0.0000 </r>
       <r>   -22.0327     0.0000     0.0000 </r>
       <r>   -21.9387     0.0000     0.0000 </r>
       <r>   -21.8448     0.0000     0.0000 </r>
       <r>   -21.7508     0.0000     0.0000 </r>
       <r>   -21.6568     0.0000     0.0000 </r>
       <r>   -21.5628     0.0000     0.0000 </r>
       <r>   -21.4689     0.0000     0.0000 </r>
       <r>   -21.3749     0.0000     0.0000 </r>
       <r>   -21.2809     0.0000     0.0000 </r>
       <r>   -21.1870     0.0000     0.0000 </r>
       <r>   -21.0930     0.0000     0.0000 </r>
       <r>   -20.9990     0.0000     0.0000 </r>
       <r>   -20.9051     0.0000     0.0000 </r>
       <r>   -20.8111     0.0000     0.0000 </r>
       <r>   -20.7171     0.0000     0.0000 </r>
       <r>   -20.6232     0.0000     0.0000 </r>
       <r>   -20.5292     0.0000     0.0000 </r>
       <r>   -20.4352     0.0000     0.0000 </r>
       <r>   -20.3413     0.0000     0.0000 </r>
       <r>   -20.2473     1.8334     0.1195 </r>
       <r>   -20.1533     2.0616     0.3045 </r>
       <r>   -20.0594     2.2314     0.5040 </r>
       <r>   -19.9654     2.5005     0.7249 </r>
       <r>   -19.8714     3.0561     0.9845 </r>
       <r>   -19.7775     4.8323     1.3397 </r>
       <r>   -19.6835     4.3693     1.8890 </r>
       <r>   -19.5895     0.0000     2.0000 </r>
       <r>   -19.4956     0.0000     2.0000 </r>
       <r>   -19.4016     0.0000     2.0000 </r>
       <r>   -19.3076     0.0000     2.0000 </r>
       <r>   -19.2136     0.0000     2.0000 </r>
       <r>   -19.1197     0.0000     2.0000 </r>
       <r>   -19.0257     0.0000     2.0000 </r>
       <r>   -18.9317     0.0000     2.0000 </r>
       <r>   -18.8378     0.0000     2.0000 </r>
       <r>   -18.7438     0.0000     2.0000 </r>
       <r>   -18.6498     0.0000     2.0000 </r>
       <r>   -18.5559     0.0000     2.0000 </r>
       <r>   -18.4619     0.0000     2.0000 </r>
       <r>   -18.3679     0.0000     2.0000 </r>
       <r>   -18.2740     0.0000     2.0000 </r>
       <r>   -18.1800     0.0000     2.0000 </r>
       <r>   -18.0860     0.0000     2.0000 </r>
       <r>   -17.9921     2.5155     2.1250 </r>
       <r>   -17.8981     3.1466     2.4033 </r>
       <r>   -17.8041     4.2459     2.7850 </r>
       <r>   -17.7102     1.8348     3.0151 </r>
       <r>   -17.6162     1.8145     3.1739 </r>
       <r>   -17.5222     1.8787     3.3499 </r>
       <r>   -17.4283     1.9753     3.5279 </r>
       <r>   -17.3343     2.0347     3.7159 </r>
       <r>   -17.2403     2.2035     3.9142 </r>
       <r>   -17.1464     2.3788     4.1268 </r>
       <r>   -17.0524     2.7474     4.3647 </r>
       <r>   -16.9584     3.1415     4.6400 </r>
       <r>   -16.8644     3.7583     5.0497 </r>
       <r>   -16.7705     2.6212     5.3381 </r>
       <r>   -16.6765     2.2451     5.5603 </r>
       <r>   -16.5825     1.9904     5.7479 </r>
       <r>   -16.4886     1.8712     5.9129 </r>
       <r>   -16.3946     0.0000     6.0000 </r>
       <r>   -16.3006     0.0000     6.0000 </r>
       <r>   -16.2067     0.0000     6.0000 </r>
       <r>   -16.1127     0.0000     6.0000 </r>
       <r>   -16.0187     0.0000     6.0000 </r>
       <r>   -15.9248     0.0000     6.0000 </r>
       <r>   -15.8308     0.0000     6.0000 </r>
       <r>   -15.7368     0.0000     6.0000 </r>
       <r>   -15.6429     0.0000     6.0000 </r>
       <r>   -15.5489     0.0000     6.0000 </r>
       <r>   -15.4549     0.0000     6.0000 </r>
       <r>   -15.3610     0.0000     6.0000 </r>
       <r>   -15.2670     0.0000     6.0000 </r>
       <r>   -15.1730     0.0000     6.0000 </r>
       <r>   -15.0791     0.0000     6.0000 </r>
       <r>   -14.9851     0.0000     6.0000 </r>
       <r>   -14.8911     0.0000     6.0000 </r>
       <r>   -14.7972     0.0000     6.0000 </r>
       <r>   -14.7032     0.0000     6.0000 </r>
       <r>   -14.6092     0.7377     6.0039 </r>
       <r>   -14.5152     2.1408     6.1842 </r>
       <r>   -14.4213     2.2370     6.3847 </r>
       <r>   -14.3273     2.6899     6.6150 </r>
       <r>   -14.2333     3.4003     6.8891 </r>
       <r>   -14.1394     3.7329     7.3228 </r>
       <r>   -14.0454     1.7611     7.5729 </r>
       <r>   -13.9514     1.6313     7.7515 </r>
       <r>   -13.8575     1.5174     7.8988 </r>
       <r>   -13.7635     1.5527     8.0319 </r>
       <r>   -13.6695     1.2850     8.1700 </r>
       <r>   -13.5756     1.3328     8.2941 </r>
       <r>   -13.4816     1.4489     8.4161 </r>
       <r>   -13.3876     1.0037     8.5361 </r>
       <r>   -13.2937     1.1978     8.6397 </r>
       <r>   -13.1997     1.7148     8.7646 </r>
       <r>   -13.1057     2.2161     8.9358 </r>
       <r>   -13.0118     1.9118     9.1588 </r>
       <r>   -12.9178     1.8550     9.3431 </r>
       <r>   -12.8238     1.7660     9.5132 </r>
       <r>   -12.7299     1.5944     9.6723 </r>
       <r>   -12.6359     1.5270     9.8173 </r>
       <r>   -12.5419     1.4736     9.9611 </r>
       <r>   -12.4480     1.3123    10.0924 </r>
       <r>   -12.3540     1.2373    10.2233 </r>
       <r>   -12.2600     0.4296    10.2859 </r>
       <r>   -12.1660     0.4530    10.3274 </r>
       <r>   -12.0721     0.4461    10.3701 </r>
       <r>   -11.9781     0.4574    10.4126 </r>
       <r>   -11.8841     0.4744    10.4562 </r>
       <r>   -11.7902     0.4943    10.5018 </r>
       <r>   -11.6962     0.5142    10.5491 </r>
       <r>   -11.6022     0.9941    10.6178 </r>
       <r>   -11.5083     0.8494    10.6957 </r>
       <r>   -11.4143     0.9104    10.7787 </r>
       <r>   -11.3203     0.9077    10.8637 </r>
       <r>   -11.2264     1.5036    10.9923 </r>
       <r>   -11.1324     1.6855    11.1410 </r>
       <r>   -11.0384     1.7475    11.3037 </r>
       <r>   -10.9445     1.8563    11.4721 </r>
       <r>   -10.8505     1.9778    11.6523 </r>
       <r>   -10.7565     3.9830    11.9529 </r>
       <r>   -10.6626     1.6574    12.1707 </r>
       <r>   -10.5686     1.3454    12.3118 </r>
       <r>   -10.4746     1.0983    12.4488 </r>
       <r>   -10.3807     0.4741    12.5032 </r>
       <r>   -10.2867     1.8903    12.5805 </r>
       <r>   -10.1927     3.7513    12.9393 </r>
       <r>   -10.0988     3.0051    13.2494 </r>
       <r>   -10.0048     2.9640    13.5168 </r>
       <r>    -9.9108     0.5556    13.6895 </r>
       <r>    -9.8168     1.1721    13.7678 </r>
       <r>    -9.7229     2.2113    13.9110 </r>
       <r>    -9.6289     2.0476    14.1608 </r>
       <r>    -9.5349     2.2715    14.3621 </r>
       <r>    -9.4410     2.8030    14.5910 </r>
       <r>    -9.3470     2.7730    14.8752 </r>
       <r>    -9.2530     2.3795    15.1185 </r>
       <r>    -9.1591     2.0354    15.3245 </r>
       <r>    -9.0651     3.3369    15.5989 </r>
       <r>    -8.9711     3.7395    15.8665 </r>
       <r>    -8.8772     2.0682    16.1287 </r>
       <r>    -8.7832     2.1341    16.3234 </r>
       <r>    -8.6892     1.6544    16.5257 </r>
       <r>    -8.5953     1.3363    16.6583 </r>
       <r>    -8.5013     3.1767    16.8917 </r>
       <r>    -8.4073     2.4069    17.1399 </r>
       <r>    -8.3134     5.2889    17.4361 </r>
       <r>    -8.2194     4.8503    17.9544 </r>
       <r>    -8.1254     3.6995    18.3695 </r>
       <r>    -8.0315     5.0453    18.8488 </r>
       <r>    -7.9375     2.8259    19.1542 </r>
       <r>    -7.8435     2.1648    19.3650 </r>
       <r>    -7.7495     0.7722    19.4595 </r>
       <r>    -7.6556     2.2749    19.6102 </r>
       <r>    -7.5616     2.4122    19.8697 </r>
       <r>    -7.4676     1.7141    20.0487 </r>
       <r>    -7.3737     1.5890    20.2033 </r>
       <r>    -7.2797     1.6995    20.3574 </r>
       <r>    -7.1857     1.6379    20.5163 </r>
       <r>    -7.0918     1.8287    20.6887 </r>
       <r>    -6.9978     3.6422    20.9723 </r>
       <r>    -6.9038     5.0888    21.3870 </r>
       <r>    -6.8099    13.8533    22.2088 </r>
       <r>    -6.7159     6.5008    22.9782 </r>
       <r>    -6.6219     4.5910    23.4285 </r>
       <r>    -6.5280     2.0880    23.8162 </r>
       <r>    -6.4340     2.4380    24.0431 </r>
       <r>    -6.3400     2.3180    24.2701 </r>
       <r>    -6.2461     2.3867    24.4915 </r>
       <r>    -6.1521     2.5023    24.7217 </r>
       <r>    -6.0581     2.5439    24.9580 </r>
       <r>    -5.9642     2.6403    25.2010 </r>
       <r>    -5.8702     2.8006    25.4584 </r>
       <r>    -5.7762     2.9223    25.7274 </r>
       <r>    -5.6823     3.1439    26.0121 </r>
       <r>    -5.5883     3.5218    26.3254 </r>
       <r>    -5.4943     4.6625    26.6766 </r>
       <r>    -5.4003     4.3395    27.1099 </r>
       <r>    -5.3064     4.5706    27.5004 </r>
       <r>    -5.2124     5.5979    27.9796 </r>
       <r>    -5.1184     4.5846    28.4439 </r>
       <r>    -5.0245     3.8259    28.7850 </r>
       <r>    -4.9305     3.9076    29.1694 </r>
       <r>    -4.8365     1.3488    29.3114 </r>
       <r>    -4.7426     1.2519    29.4324 </r>
       <r>    -4.6486     1.2355    29.5508 </r>
       <r>    -4.5546     1.1357    29.6616 </r>
       <r>    -4.4607     1.1778    29.7729 </r>
       <r>    -4.3667     1.1335    29.8766 </r>
       <r>    -4.2727     1.1856    29.9814 </r>
       <r>    -4.1788     0.0000    30.0000 </r>
       <r>    -4.0848     0.0000    30.0000 </r>
       <r>    -3.9908     0.0000    30.0000 </r>
       <r>    -3.8969     0.0000    30.0000 </r>
       <r>    -3.8029     0.0000    30.0000 </r>
       <r>    -3.7089     0.0000    30.0000 </r>
       <r>    -3.6150     0.0000    30.0000 </r>
       <r>    -3.5210     1.3617    30.0653 </r>
       <r>    -3.4270     1.5692    30.2190 </r>
       <r>    -3.3331     1.7107    30.3719 </r>
       <r>    -3.2391     2.0731    30.5450 </r>
       <r>    -3.1451     2.5095    30.7603 </r>
       <r>    -3.0511     3.0518    31.0768 </r>
       <r>    -2.9572     2.0262    31.2924 </r>
       <r>    -2.8632     1.4267    31.4525 </r>
       <r>    -2.7692     1.2851    31.5821 </r>
       <r>    -2.6753     0.9850    31.6875 </r>
       <r>    -2.5813     0.8364    31.7717 </r>
       <r>    -2.4873     0.7421    31.8481 </r>
       <r>    -2.3934     0.3644    31.8996 </r>
       <r>    -2.2994     0.3221    31.9322 </r>
       <r>    -2.2054     0.2624    31.9597 </r>
       <r>    -2.1115     0.2026    31.9815 </r>
       <r>    -2.0175     0.0000    32.0000 </r>
       <r>    -1.9235     0.0000    32.0000 </r>
       <r>    -1.8296     0.0000    32.0000 </r>
       <r>    -1.7356     0.0000    32.0000 </r>
       <r>    -1.6416     0.0000    32.0000 </r>
       <r>    -1.5477     0.1889    32.0144 </r>
       <r>    -1.4537     0.2517    32.0351 </r>
       <r>    -1.3597     0.3145    32.0617 </r>
       <r>    -1.2658     0.3598    32.0939 </r>
       <r>    -1.1718     0.5034    32.1341 </r>
       <r>    -1.0778     0.5394    32.1831 </r>
       <r>    -0.9839     0.6480    32.2371 </r>
       <r>    -0.8899     0.8387    32.3069 </r>
       <r>    -0.7959     0.8178    32.3879 </r>
       <r>    -0.7019     1.0834    32.4908 </r>
       <r>    -0.6080     2.7540    32.6845 </r>
       <r>    -0.5140     2.9869    33.0669 </r>
       <r>    -0.4200     2.1171    33.3058 </r>
       <r>    -0.3261     1.7581    33.4826 </r>
       <r>    -0.2321     1.5151    33.6366 </r>
       <r>    -0.1381     1.3770    33.7722 </r>
       <r>    -0.0442     1.2886    33.8962 </r>
       <r>     0.0498     1.6080    34.0438 </r>
       <r>     0.1438     1.4115    34.1867 </r>
       <r>     0.2377     1.0214    34.3053 </r>
       <r>     0.3317     0.7874    34.3801 </r>
       <r>     0.4257     1.4416    34.4609 </r>
       <r>     0.5196     1.9183    34.6386 </r>
       <r>     0.6136     1.9235    34.8177 </r>
       <r>     0.7076     1.8755    34.9878 </r>
       <r>     0.8015     1.9862    35.1715 </r>
       <r>     0.8955     2.0862    35.3617 </r>
       <r>     0.9895     2.2527    35.5661 </r>
       <r>     1.0834     2.4536    35.7855 </r>
       <r>     1.1774     2.5056    36.0220 </r>
       <r>     1.2714     2.4197    36.2530 </r>
       <r>     1.3653     3.2672    36.5490 </r>
       <r>     1.4593     3.0670    36.8379 </r>
       <r>     1.5533     3.9168    37.1733 </r>
       <r>     1.6473     4.0007    37.5453 </r>
       <r>     1.7412     3.9752    37.9249 </r>
       <r>     1.8352     3.9133    38.2984 </r>
       <r>     1.9292     3.8992    38.6652 </r>
       <r>     2.0231     3.9357    39.0337 </r>
       <r>     2.1171     3.9324    39.4148 </r>
       <r>     2.2111     3.6651    39.7721 </r>
       <r>     2.3050     3.5354    40.1066 </r>
       <r>     2.3990     4.2713    40.4618 </r>
       <r>     2.4930     4.9896    40.8721 </r>
       <r>     2.5869     4.4663    41.3847 </r>
       <r>     2.6809     6.0128    41.7742 </r>
       <r>     2.7749     4.8698    42.2254 </r>
       <r>     2.8688     4.2655    42.6614 </r>
       <r>     2.9628     5.8400    43.1348 </r>
       <r>     3.0568     7.6209    43.8475 </r>
       <r>     3.1507     5.8032    44.3771 </r>
       <r>     3.2447     3.7984    44.7978 </r>
       <r>     3.3387     5.2852    45.2258 </r>
       <r>     3.4326     5.7641    45.8787 </r>
       <r>     3.5266     4.7391    46.4350 </r>
       <r>     3.6206     4.6778    47.0205 </r>
       <r>     3.7145     6.2573    47.5959 </r>
       <r>     3.8085     2.0143    47.9323 </r>
       <r>     3.9025     0.0000    48.0000 </r>
       <r>     3.9965     0.0000    48.0000 </r>
       <r>     4.0904     0.0000    48.0000 </r>
       <r>     4.1844     0.0000    48.0000 </r>
       <r>     4.2784     0.0000    48.0000 </r>
       <r>     4.3723     0.0000    48.0000 </r>
       <r>     4.4663     0.0000    48.0000 </r>
       <r>     4.5603     0.0000    48.0000 </r>
       <r>     4.6542     0.0000    48.0000 </r>
       <r>     4.7482     0.0000    48.0000 </r>
       <r>     4.8422     0.0000    48.0000 </r>
       <r>     4.9361     0.0000    48.0000 </r>
       <r>     5.0301     0.0000    48.0000 </r>
       <r>     5.1241     0.0000    48.0000 </r>
       <r>     5.2180     0.0000    48.0000 </r>
       <r>     5.3120     0.0000    48.0000 </r>
       <r>     5.4060     0.0000    48.0000 </r>
       <r>     5.4999     0.0000    48.0000 </r>
       <r>     5.5939     0.0000    48.0000 </r>
       <r>     5.6879     0.0000    48.0000 </r>
       <r>     5.7818     0.0000    48.0000 </r>
       <r>     5.8758     0.0000    48.0000 </r>
      </set>
     </set>
    </array>
   </total>
  </dos>
 </calculation>
 <structure name="finalpos" >
  <crystal>
   <varray name="basis" >
    <v>       5.17400000       0.00000000       0.00000000 </v>
    <v>       2.58700000       4.48100000       0.00000000 </v>
    <v>       0.00000000       0.00000000      20.00000000 </v>
   </varray>
   <i name="volume">    463.69388000 </i>
   <varray name="rec_basis" >
    <v>       0.19327406      -0.11158224       0.00000000 </v>
    <v>       0.00000000       0.22316447       0.00000000 </v>
    <v>       0.00000000       0.00000000       0.05000000 </v>
   </varray>
  </crystal>
  <varray name="positions" >
   <v>       0.17457960       0.17461352       0.00000000 </v>
   <v>       0.50791884       0.50793502      -0.00000000 </v>
   <v>      -0.00005507      -0.00003123      -0.00000000 </v>
   <v>       0.52385901      -0.00003123       0.00000000 </v>
   <v>       0.68255685       0.15865902       0.00000000 </v>
   <v>       0.99994159       0.52388952      -0.00000000 </v>
   <v>       0.15863943       0.68257977      -0.00000000 </v>
   <v>       0.68255351       0.68257977       0.00000000 </v>
  </varray>
 </structure>
</modeling>
