 running on   12 total cores
 distrk:  each k-point on   12 cores,    1 groups
 distr:  one band on    1 cores,   12 groups
 using from now: INCAR     
 vasp.5.4.4.18Apr17-6-g9f103f2a35 (build Mar 30 2023 15:39:25) complex          
  
 POSCAR found type information on POSCAR  B  C 
 POSCAR found :  2 types and       8 ions
 scaLAPACK will be used

 ----------------------------------------------------------------------------- 
|                                                                             |
|           W    W    AA    RRRRR   N    N  II  N    N   GGGG   !!!           |
|           W    W   A  A   R    R  NN   N  II  NN   N  G    G  !!!           |
|           W    W  A    A  R    R  N N  N  II  N N  N  G       !!!           |
|           W WW W  AAAAAA  RRRRR   N  N N  II  N  N N  G  GGG   !            |
|           WW  WW  A    A  R   R   N   NN  II  N   NN  G    G                |
|           W    W  A    A  R    R  N    N  II  N    N   GGGG   !!!           |
|                                                                             |
|      For optimal performance we recommend to set                            |
|        NCORE= 4 - approx SQRT( number of cores)                             |
|      NCORE specifies how many cores store one orbital (NPAR=cpu/NCORE).     |
|      This setting can  greatly improve the performance of VASP for DFT.     |
|      The default,   NCORE=1            might be grossly inefficient         |
|      on modern multi-core architectures or massively parallel machines.     |
|      Do your own testing !!!!                                               |
|      Unfortunately you need to use the default for GW and RPA calculations. |
|      (for HF NCORE is supported but not extensively tested yet)             |
|                                                                             |
 ----------------------------------------------------------------------------- 

 LDA part: xc-table for Pade appr. of Perdew
 POSCAR, INCAR and KPOINTS ok, starting setup
 FFT: planning ...
 WAVECAR not read
 entering main loop
       N       E                     dE             d eps       ncg     rms          rms(c)
DAV:   1     0.199656986268E+03    0.19966E+03   -0.98438E+03  4920   0.789E+02
DAV:   2    -0.400525426444E+02   -0.23971E+03   -0.22253E+03  7296   0.184E+02
DAV:   3    -0.719159846012E+02   -0.31863E+02   -0.31544E+02  5868   0.807E+01
DAV:   4    -0.726531721227E+02   -0.73719E+00   -0.73558E+00  6612   0.154E+01
DAV:   5    -0.726722145522E+02   -0.19042E-01   -0.19025E-01  5880   0.221E+00    0.133E+01
DAV:   6    -0.680403484284E+02    0.46319E+01   -0.55259E+00  6792   0.109E+01    0.748E+00
DAV:   7    -0.663672831175E+02    0.16731E+01   -0.40991E+00  6768   0.927E+00    0.224E+00
DAV:   8    -0.662799122362E+02    0.87371E-01   -0.22624E-01  6744   0.225E+00    0.569E-01
DAV:   9    -0.662628394375E+02    0.17073E-01   -0.19952E-02  5628   0.768E-01    0.184E-01
DAV:  10    -0.662508815358E+02    0.11958E-01   -0.11315E-02  5748   0.451E-01    0.132E-01
DAV:  11    -0.662503465860E+02    0.53495E-03   -0.44178E-03  5328   0.309E-01    0.580E-02
DAV:  12    -0.662501446328E+02    0.20195E-03   -0.20084E-03  4968   0.161E-01    0.385E-02
DAV:  13    -0.662543967749E+02   -0.42521E-02   -0.44372E-04  4812   0.870E-02    0.216E-02
DAV:  14    -0.662569796527E+02   -0.25829E-02   -0.31341E-04  5028   0.569E-02    0.133E-02
DAV:  15    -0.662577262141E+02   -0.74656E-03   -0.48271E-05  4980   0.248E-02    0.483E-03
DAV:  16    -0.662580989630E+02   -0.37275E-03   -0.34844E-05  4632   0.187E-02    0.179E-03
DAV:  17    -0.662581641901E+02   -0.65227E-04   -0.36585E-06  5064   0.622E-03    0.119E-03
DAV:  18    -0.662582016588E+02   -0.37469E-04   -0.20612E-06  4848   0.405E-03    0.557E-04
DAV:  19    -0.662582156924E+02   -0.14034E-04   -0.60203E-07  5040   0.217E-03    0.517E-04
DAV:  20    -0.662582243268E+02   -0.86344E-05   -0.44322E-08  3504   0.937E-04    0.329E-04
DAV:  21    -0.662582306632E+02   -0.63363E-05   -0.42062E-08  3492   0.833E-04    0.173E-04
DAV:  22    -0.662582319492E+02   -0.12861E-05   -0.12463E-08  3516   0.465E-04    0.329E-05
DAV:  23    -0.662582321797E+02   -0.23051E-06   -0.23368E-09  3600   0.174E-04
   1 F= -.66258232E+02 E0= -.66256874E+02  d E =-.662582E+02
 curvature:   0.00 expect dE= 0.000E+00 dE for cont linesearch  0.000E+00
 trial: gam= 0.00000 g(F)=  0.239E-01 g(S)=  0.000E+00 ort = 0.000E+00 (trialstep = 0.100E+01)
 search vector abs. value=  0.239E-01
 bond charge predicted
       N       E                     dE             d eps       ncg     rms          rms(c)
DAV:   1    -0.662499640133E+02    0.82679E-02   -0.36044E+00  4608   0.114E+01    0.531E-01
DAV:   2    -0.662455493164E+02    0.44147E-02   -0.60287E-02  5892   0.162E+00    0.272E-01
DAV:   3    -0.662444616536E+02    0.10877E-02   -0.12047E-02  4752   0.621E-01    0.108E-01
DAV:   4    -0.662444575668E+02    0.40869E-05   -0.16746E-03  4992   0.208E-01    0.489E-02
DAV:   5    -0.662444649269E+02   -0.73601E-05   -0.65597E-05  4656   0.541E-02    0.865E-03
DAV:   6    -0.662444676147E+02   -0.26878E-05   -0.15936E-05  5232   0.213E-02    0.559E-03
DAV:   7    -0.662444708145E+02   -0.31998E-05   -0.27565E-06  5880   0.980E-03    0.123E-03
DAV:   8    -0.662444720714E+02   -0.12569E-05   -0.31958E-07  4980   0.322E-03    0.726E-04
DAV:   9    -0.662444754574E+02   -0.33860E-05   -0.10635E-07  4788   0.127E-03    0.360E-04
DAV:  10    -0.662444773824E+02   -0.19250E-05   -0.47489E-08  3792   0.954E-04    0.305E-04
DAV:  11    -0.662444797054E+02   -0.23230E-05   -0.60822E-08  4656   0.656E-04    0.239E-04
DAV:  12    -0.662444808348E+02   -0.11294E-05   -0.15704E-08  3756   0.427E-04    0.510E-05
DAV:  13    -0.662444811456E+02   -0.31080E-06   -0.25004E-09  3708   0.191E-04
   2 F= -.66244481E+02 E0= -.66243379E+02  d E =0.137510E-01
 trial-energy change:    0.013751  1 .order    0.013976   -0.023936    0.051888
 step:   0.3195(harm=  0.3157)  dis= 0.00494  next Energy=   -66.262064 (dE=-0.383E-02)
 bond charge predicted
       N       E                     dE             d eps       ncg     rms          rms(c)
DAV:   1    -0.662646322830E+02   -0.20151E-01   -0.16732E+00  4608   0.779E+00    0.355E-01
DAV:   2    -0.662625193862E+02    0.21129E-02   -0.28089E-02  4776   0.109E+00    0.187E-01
DAV:   3    -0.662620454372E+02    0.47395E-03   -0.55880E-03  5304   0.426E-01    0.757E-02
DAV:   4    -0.662620467431E+02   -0.13059E-05   -0.82710E-04  5268   0.144E-01    0.339E-02
DAV:   5    -0.662620529157E+02   -0.61726E-05   -0.36793E-05  4848   0.415E-02    0.574E-03
DAV:   6    -0.662620550248E+02   -0.21091E-05   -0.97992E-06  5436   0.171E-02    0.407E-03
DAV:   7    -0.662620577262E+02   -0.27014E-05   -0.18535E-06  5940   0.787E-03    0.101E-03
DAV:   8    -0.662620585387E+02   -0.81250E-06   -0.25098E-07  5292   0.290E-03
   3 F= -.66262059E+02 E0= -.66260842E+02  d E =-.382636E-02
 curvature:  -0.16 expect dE=-0.485E-04 dE for cont linesearch -0.481E-09
 trial: gam= 0.01320 g(F)=  0.307E-03 g(S)=  0.000E+00 ort =-0.854E-05 (trialstep = 0.864E+00)
 search vector abs. value=  0.311E-03
 bond charge predicted
       N       E                     dE             d eps       ncg     rms          rms(c)
DAV:   1    -0.662618211348E+02    0.23659E-03   -0.32771E-02  4668   0.113E+00    0.527E-02
DAV:   2    -0.662618112567E+02    0.98781E-05   -0.48659E-04  4656   0.139E-01    0.264E-02
DAV:   3    -0.662618016883E+02    0.95684E-05   -0.58342E-05  5388   0.453E-02    0.114E-02
DAV:   4    -0.662618007720E+02    0.91634E-06   -0.85969E-06  5256   0.165E-02
   4 F= -.66261801E+02 E0= -.66260640E+02  d E =0.257767E-03
 trial-energy change:    0.000258  1 .order    0.000261   -0.000265    0.000788
 step:   0.2178(harm=  0.2178)  dis= 0.00040  next Energy=   -66.262092 (dE=-0.335E-04)
 bond charge predicted
       N       E                     dE             d eps       ncg     rms          rms(c)
DAV:   1    -0.662621090200E+02   -0.30733E-03   -0.18454E-02  4620   0.847E-01    0.393E-02
DAV:   2    -0.662621028232E+02    0.61969E-05   -0.27994E-04  4692   0.105E-01    0.199E-02
DAV:   3    -0.662620969780E+02    0.58452E-05   -0.32923E-05  5064   0.341E-02    0.850E-03
DAV:   4    -0.662620965269E+02    0.45111E-06   -0.49199E-06  5172   0.125E-02
   5 F= -.66262097E+02 E0= -.66260904E+02  d E =-.379882E-04
 curvature:  -0.11 expect dE=-0.358E-06 dE for cont linesearch -0.222E-08
 ZBRENT: interpolating
 opt :   0.2160  next Energy=   -66.262097 (dE=-0.380E-04)
 bond charge predicted
       N       E                     dE             d eps       ncg     rms          rms(c)
DAV:   1    -0.662620967120E+02    0.26598E-06   -0.43356E-07  5184   0.413E-03    0.950E-04
DAV:   2    -0.662620967706E+02   -0.58580E-07   -0.41110E-08  3576   0.119E-03
   6 F= -.66262097E+02 E0= -.66260905E+02  d E =-.382319E-04
 curvature:  -0.11 expect dE=-0.336E-06 dE for cont linesearch -0.453E-08
 ZBRENT: interpolating
 opt :   0.2171  next Energy=   -66.262097 (dE=-0.380E-04)
 bond charge predicted
       N       E                     dE             d eps       ncg     rms          rms(c)
DAV:   1    -0.662620968780E+02   -0.16600E-06   -0.39547E-08  3504   0.128E-03    0.942E-05
DAV:   2    -0.662620969176E+02   -0.39594E-07   -0.26405E-09  3732   0.356E-04
   7 F= -.66262097E+02 E0= -.66260905E+02  d E =-.383789E-04
 curvature:  -0.02 expect dE=-0.672E-07 dE for cont linesearch -0.168E-09
 ZBRENT: interpolating
 opt :   0.2173  next Energy=   -66.262097 (dE=-0.384E-04)
 bond charge predicted
       N       E                     dE             d eps       ncg     rms          rms(c)
DAV:   1    -0.662620969876E+02   -0.10956E-06   -0.44340E-09  3468   0.434E-04    0.270E-05
DAV:   2    -0.662620970161E+02   -0.28564E-07   -0.39403E-10  3732   0.131E-04
   8 F= -.66262097E+02 E0= -.66260905E+02  d E =-.384774E-04
 curvature:  -0.03 expect dE=-0.855E-07 dE for cont linesearch -0.119E-09
 ZBRENT: bisectioning
 opt :   0.2176  next Energy=   -66.262097 (dE=-0.385E-04)
 bond charge predicted
       N       E                     dE             d eps       ncg     rms          rms(c)
DAV:   1    -0.662620970792E+02   -0.91609E-07   -0.28307E-09  3468   0.326E-04    0.170E-05
DAV:   2    -0.662620970968E+02   -0.17620E-07   -0.19622E-10  3876   0.866E-05
   9 F= -.66262097E+02 E0= -.66260905E+02  d E =-.385581E-04
 curvature:  -0.05 expect dE=-0.160E-06 dE for cont linesearch -0.134E-09
 ZBRENT: bisectioning
 opt :   0.2177  next Energy=   -66.262097 (dE=-0.386E-04)
 bond charge predicted
       N       E                     dE             d eps       ncg     rms          rms(c)
DAV:   1    -0.662620971204E+02   -0.41210E-07   -0.65541E-10  3456   0.160E-04    0.996E-06
DAV:   2    -0.662620971289E+02   -0.85136E-08   -0.24719E-11  3768   0.429E-05
  10 F= -.66262097E+02 E0= -.66260905E+02  d E =-.385902E-04
 curvature:  -0.04 expect dE=-0.111E-06 dE for cont linesearch -0.639E-10
 ZBRENT: bisectioning
 opt :   0.2177  next Energy=   -66.262097 (dE=-0.386E-04)
 writing wavefunctions
