BC3 DOS                                 
           1
     5.174000    0.000000    0.000000
     2.587000    4.481000    0.000000
     0.000000    0.000000   20.000000
   B    C 
   2   6
Direct configuration=     1
   0.17457326  0.17462620  0.00000000
   0.50792519  0.50792234  0.00000000
   0.00000000  0.00000000  0.00000000
   0.52377271  0.00000000  0.00000000
   0.68255138  0.15866994  0.00000000
   0.99994706  0.52387860  0.00000000
   0.15872573  0.68254854  0.00000000
   0.68249844  0.68254854  0.00000000
Direct configuration=     2
   0.17454911  0.17467449  0.00000000
   0.50794933  0.50787405 -0.00000000
  -0.00010790 -0.00012289 -0.00000000
   0.52400350 -0.00012289  0.00000000
   0.68259924  0.15857423  0.00000000
   0.99989920  0.52397431 -0.00000000
   0.15849494  0.68267143 -0.00000000
   0.68260634  0.68267143 -0.00000000
Direct configuration=     3
   0.17456543  0.17464186  0.00000000
   0.50793301  0.50790668 -0.00000000
  -0.00003498 -0.00003984 -0.00000000
   0.52384754 -0.00003984  0.00000000
   0.68256690  0.15863891  0.00000000
   0.99993154  0.52390963 -0.00000000
   0.15865090  0.68258838 -0.00000000
   0.68253342  0.68258838 -0.00000000
Direct configuration=     4
   0.17456551  0.17464168  0.00000000
   0.50793293  0.50790685 -0.00000000
  -0.00003460 -0.00003941 -0.00000000
   0.52384672 -0.00003941  0.00000000
   0.68256673  0.15863925  0.00000000
   0.99993171  0.52390929 -0.00000000
   0.15865172  0.68258795 -0.00000000
   0.68253304  0.68258795 -0.00000000
Direct configuration=     5
   0.17456547  0.17464178  0.00000000
   0.50793297  0.50790676 -0.00000000
  -0.00003481 -0.00003964 -0.00000000
   0.52384716 -0.00003964  0.00000000
   0.68256682  0.15863907  0.00000000
   0.99993162  0.52390947 -0.00000000
   0.15865128  0.68258818 -0.00000000
   0.68253325  0.68258818 -0.00000000
Direct configuration=     6
   0.17457688  0.17461896  0.00000000
   0.50792156  0.50792958 -0.00000000
  -0.00006573 -0.00001761 -0.00000000
   0.52385605 -0.00001761  0.00000000
   0.68256900  0.15863470  0.00000000
   0.99992944  0.52391383 -0.00000000
   0.15864239  0.68256615 -0.00000000
   0.68256417  0.68256615  0.00000000
Direct configuration=     7
   0.17456941  0.17463389  0.00000000
   0.50792903  0.50791465 -0.00000000
  -0.00004550 -0.00003203 -0.00000000
   0.52385023 -0.00003203  0.00000000
   0.68256758  0.15863756  0.00000000
   0.99993086  0.52391098 -0.00000000
   0.15864821  0.68258056 -0.00000000
   0.68254394  0.68258056  0.00000000
Direct configuration=     8
   0.17457909  0.17461452  0.00000000
   0.50791935  0.50793402 -0.00000000
  -0.00005460 -0.00003127 -0.00000000
   0.52385858 -0.00003127  0.00000000
   0.68255738  0.15865796  0.00000000
   0.99994106  0.52389058 -0.00000000
   0.15863986  0.68257981 -0.00000000
   0.68255304  0.68257981  0.00000000
Direct configuration=     9
   0.17457926  0.17461419  0.00000000
   0.50791918  0.50793435 -0.00000000
  -0.00005476 -0.00003126 -0.00000000
   0.52385873 -0.00003126  0.00000000
   0.68255720  0.15865831  0.00000000
   0.99994124  0.52389023 -0.00000000
   0.15863972  0.68257980 -0.00000000
   0.68255320  0.68257980  0.00000000
Direct configuration=    10
   0.17457960  0.17461352  0.00000000
   0.50791884  0.50793502 -0.00000000
  -0.00005507 -0.00003123 -0.00000000
   0.52385901 -0.00003123  0.00000000
   0.68255685  0.15865902  0.00000000
   0.99994159  0.52388952 -0.00000000
   0.15863943  0.68257977 -0.00000000
   0.68255351  0.68257977  0.00000000
