BC3 DOS                                 
           1
     5.174000    0.000000    0.000000
     2.587000    4.481000    0.000000
     0.000000    0.000000   20.000000
   B    C 
   2   6
Direct configuration=     1
   0.17457326  0.17462620  0.00000000
   0.50792519  0.50792234  0.00000000
   0.00000000  0.00000000  0.00000000
   0.52377271  0.00000000  0.00000000
   0.68255138  0.15866994  0.00000000
   0.99994706  0.52387860  0.00000000
   0.15872573  0.68254854  0.00000000
   0.68249844  0.68254854  0.00000000
Direct configuration=     2
   0.17474482  0.17428308  0.00000000
   0.50775363  0.50826546 -0.00000000
  -0.00196486 -0.00085808  0.00000000
   0.52659565 -0.00085808  0.00000000
   0.68427499  0.15522273  0.00000000
   0.99822345  0.52732581  0.00000000
   0.15590279  0.68340662  0.00000000
   0.68446330  0.68340662  0.00000000
Direct configuration=     3
   0.17462808  0.17451656  0.00000000
   0.50787036  0.50803198 -0.00000000
  -0.00062787 -0.00027420  0.00000000
   0.52467477 -0.00027420  0.00000000
   0.68310216  0.15756839  0.00000000
   0.99939628  0.52498015  0.00000000
   0.15782367  0.68282274  0.00000000
   0.68312631  0.68282274  0.00000000
Direct configuration=     4
   0.17460191  0.17456889  0.00000000
   0.50789653  0.50797965 -0.00000000
  -0.00048223 -0.00063057  0.00000000
   0.52488551 -0.00063057  0.00000000
   0.68303219  0.15770833  0.00000000
   0.99946625  0.52484021  0.00000000
   0.15761293  0.68317910  0.00000000
   0.68298067  0.68317910 -0.00000000
Direct configuration=     5
   0.17462148  0.17452975  0.00000000
   0.50787696  0.50801879 -0.00000000
  -0.00059115 -0.00036404  0.00000000
   0.52472790 -0.00036404  0.00000000
   0.68308452  0.15760367  0.00000000
   0.99941392  0.52494487  0.00000000
   0.15777054  0.68291257  0.00000000
   0.68308959  0.68291257 -0.00000000
Direct configuration=     6
   0.17462153  0.17452964  0.00000000
   0.50787691  0.50801890 -0.00000000
  -0.00059145 -0.00036331  0.00000000
   0.52472747 -0.00036331  0.00000000
   0.68308466  0.15760338  0.00000000
   0.99941378  0.52494515  0.00000000
   0.15777097  0.68291185  0.00000000
   0.68308989  0.68291185 -0.00000000
Direct configuration=     7
   0.17462150  0.17452971  0.00000000
   0.50787694  0.50801883 -0.00000000
  -0.00059127 -0.00036374  0.00000000
   0.52472772 -0.00036374  0.00000000
   0.68308458  0.15760355  0.00000000
   0.99941386  0.52494499  0.00000000
   0.15777072  0.68291228  0.00000000
   0.68308971  0.68291228 -0.00000000
Direct configuration=     8
   0.17462149  0.17452972  0.00000000
   0.50787695  0.50801882 -0.00000000
  -0.00059123 -0.00036385  0.00000000
   0.52472779 -0.00036385  0.00000000
   0.68308456  0.15760360  0.00000000
   0.99941388  0.52494494  0.00000000
   0.15777065  0.68291239  0.00000000
   0.68308967  0.68291239 -0.00000000
Direct configuration=     9
   0.17462149  0.17452974  0.00000000
   0.50787695  0.50801880 -0.00000000
  -0.00059119 -0.00036394  0.00000000
   0.52472784 -0.00036394  0.00000000
   0.68308454  0.15760363  0.00000000
   0.99941390  0.52494490  0.00000000
   0.15777060  0.68291248  0.00000000
   0.68308963  0.68291248 -0.00000000
Direct configuration=    10
   0.17462148  0.17452974  0.00000000
   0.50787696  0.50801880 -0.00000000
  -0.00059117 -0.00036399  0.00000000
   0.52472787 -0.00036399  0.00000000
   0.68308453  0.15760365  0.00000000
   0.99941391  0.52494489  0.00000000
   0.15777057  0.68291253  0.00000000
   0.68308961  0.68291253 -0.00000000
