   8   8   0   0
  0.5796174E+02  0.5174000E-09  0.5174160E-09  0.2000000E-08  0.5000000E-15
  1.000000000000000E-004
  CAR 
 BC3                                     
      7.69032011    -20.53011696  301     -2.85549221      1.00000000
    -20.530  0.0000E+00  0.0000E+00
    -20.436  0.0000E+00  0.0000E+00
    -20.342  0.0000E+00  0.0000E+00
    -20.248  0.0000E+00  0.0000E+00
    -20.154  0.0000E+00  0.0000E+00
    -20.060  0.0000E+00  0.0000E+00
    -19.966  0.0000E+00  0.0000E+00
    -19.872  0.0000E+00  0.0000E+00
    -19.778  0.4847E-16  0.4560E-17
    -19.684  0.5978E-12  0.5624E-13
    -19.589  0.1383E-08  0.1302E-09
    -19.495  0.6199E-06  0.5844E-07
    -19.401  0.5664E-04  0.5386E-05
    -19.307  0.1164E-02  0.1148E-03
    -19.213  0.6438E-02  0.7205E-03
    -19.119  0.1312E-01  0.1955E-02
    -19.025  0.1605E-01  0.3465E-02
    -18.931  0.1785E-01  0.5143E-02
    -18.837  0.2083E-01  0.7103E-02
    -18.743  0.2774E-01  0.9713E-02
    -18.649  0.3412E-01  0.1292E-01
    -18.555  0.2274E-01  0.1506E-01
    -18.461  0.5578E-02  0.1559E-01
    -18.367  0.4047E-03  0.1562E-01
    -18.272  0.7177E-05  0.1562E-01
    -18.178  0.2739E-07  0.1562E-01
    -18.084  0.2100E-10  0.1562E-01
    -17.990  0.3098E-14  0.1562E-01
    -17.896  0.0000E+00  0.1562E-01
    -17.802  0.0000E+00  0.1562E-01
    -17.708  0.0000E+00  0.1562E-01
    -17.614  0.0000E+00  0.1562E-01
    -17.520  0.3445E-16  0.1563E-01
    -17.426  0.4588E-12  0.1563E-01
    -17.332  0.1122E-08  0.1563E-01
    -17.238  0.5295E-06  0.1563E-01
    -17.144  0.5287E-04  0.1563E-01
    -17.050  0.1264E-02  0.1575E-01
    -16.956  0.8272E-02  0.1653E-01
    -16.861  0.1890E-01  0.1830E-01
    -16.767  0.2521E-01  0.2068E-01
    -16.673  0.2315E-01  0.2285E-01
    -16.579  0.1696E-01  0.2445E-01
    -16.485  0.1368E-01  0.2574E-01
    -16.391  0.1579E-01  0.2722E-01
    -16.297  0.1532E-01  0.2866E-01
    -16.203  0.1481E-01  0.3006E-01
    -16.109  0.1782E-01  0.3173E-01
    -16.015  0.2016E-01  0.3363E-01
    -15.921  0.2131E-01  0.3563E-01
    -15.827  0.2667E-01  0.3814E-01
    -15.733  0.2789E-01  0.4077E-01
    -15.639  0.2127E-01  0.4277E-01
    -15.545  0.1609E-01  0.4428E-01
    -15.450  0.1428E-01  0.4562E-01
    -15.356  0.9640E-02  0.4653E-01
    -15.262  0.3243E-02  0.4684E-01
    -15.168  0.4046E-03  0.4687E-01
    -15.074  0.1323E-04  0.4687E-01
    -14.980  0.9525E-07  0.4687E-01
    -14.886  0.1375E-09  0.4687E-01
    -14.792  0.3739E-13  0.4688E-01
    -14.698  0.1793E-17  0.4688E-01
    -14.604  0.0000E+00  0.4688E-01
    -14.510  0.0000E+00  0.4688E-01
    -14.416  0.0000E+00  0.4688E-01
    -14.322  0.0000E+00  0.4688E-01
    -14.228  0.0000E+00  0.4688E-01
    -14.133  0.3842E-18  0.4688E-01
    -14.039  0.9859E-14  0.4688E-01
    -13.945  0.5157E-10  0.4688E-01
    -13.851  0.4999E-07  0.4688E-01
    -13.757  0.9326E-05  0.4688E-01
    -13.663  0.3552E-03  0.4691E-01
    -13.569  0.3124E-02  0.4720E-01
    -13.475  0.9211E-02  0.4807E-01
    -13.381  0.1712E-01  0.4968E-01
    -13.287  0.2076E-01  0.5163E-01
    -13.193  0.1834E-01  0.5336E-01
    -13.099  0.2278E-01  0.5550E-01
    -13.005  0.3171E-01  0.5848E-01
    -12.911  0.2138E-01  0.6049E-01
    -12.817  0.8515E-02  0.6130E-01
    -12.722  0.8724E-02  0.6212E-01
    -12.628  0.1274E-01  0.6331E-01
    -12.534  0.1534E-01  0.6476E-01
    -12.440  0.1074E-01  0.6577E-01
    -12.346  0.5512E-02  0.6629E-01
    -12.252  0.6867E-02  0.6693E-01
    -12.158  0.1623E-01  0.6846E-01
    -12.064  0.1781E-01  0.7013E-01
    -11.970  0.1028E-01  0.7110E-01
    -11.876  0.1134E-01  0.7217E-01
    -11.782  0.1720E-01  0.7379E-01
    -11.688  0.1742E-01  0.7542E-01
    -11.594  0.1010E-01  0.7638E-01
    -11.500  0.9143E-02  0.7724E-01
    -11.406  0.1364E-01  0.7852E-01
    -11.311  0.1197E-01  0.7964E-01
    -11.217  0.4235E-02  0.8004E-01
    -11.123  0.2969E-02  0.8032E-01
    -11.029  0.6452E-02  0.8093E-01
    -10.935  0.6483E-02  0.8154E-01
    -10.841  0.4312E-02  0.8194E-01
    -10.747  0.1907E-02  0.8212E-01
    -10.653  0.5892E-03  0.8218E-01
    -10.559  0.2157E-02  0.8238E-01
    -10.465  0.9741E-02  0.8330E-01
    -10.371  0.1307E-01  0.8453E-01
    -10.277  0.7208E-02  0.8521E-01
    -10.183  0.8032E-02  0.8596E-01
    -10.089  0.1093E-01  0.8699E-01
     -9.994  0.1077E-01  0.8800E-01
     -9.900  0.8496E-02  0.8880E-01
     -9.806  0.1743E-01  0.9044E-01
     -9.712  0.2236E-01  0.9254E-01
     -9.618  0.2141E-01  0.9456E-01
     -9.524  0.1488E-01  0.9596E-01
     -9.430  0.1079E-01  0.9697E-01
     -9.336  0.6697E-02  0.9760E-01
     -9.242  0.5727E-02  0.9814E-01
     -9.148  0.1986E-01  0.1000E+00
     -9.054  0.3468E-01  0.1033E+00
     -8.960  0.2612E-01  0.1057E+00
     -8.866  0.9145E-02  0.1066E+00
     -8.772  0.6805E-02  0.1072E+00
     -8.678  0.1505E-01  0.1086E+00
     -8.583  0.1774E-01  0.1103E+00
     -8.489  0.1322E-01  0.1116E+00
     -8.395  0.1645E-01  0.1131E+00
     -8.301  0.2848E-01  0.1158E+00
     -8.207  0.2394E-01  0.1180E+00
     -8.113  0.1086E-01  0.1191E+00
     -8.019  0.1852E-01  0.1208E+00
     -7.925  0.2675E-01  0.1233E+00
     -7.831  0.2073E-01  0.1253E+00
     -7.737  0.1873E-01  0.1270E+00
     -7.643  0.1812E-01  0.1287E+00
     -7.549  0.1509E-01  0.1302E+00
     -7.455  0.1680E-01  0.1317E+00
     -7.361  0.2046E-01  0.1337E+00
     -7.267  0.3093E-01  0.1366E+00
     -7.172  0.3513E-01  0.1399E+00
     -7.078  0.2836E-01  0.1425E+00
     -6.984  0.3197E-01  0.1455E+00
     -6.890  0.3316E-01  0.1487E+00
     -6.796  0.2283E-01  0.1508E+00
     -6.702  0.1305E-01  0.1520E+00
     -6.608  0.1618E-01  0.1536E+00
     -6.514  0.1461E-01  0.1549E+00
     -6.420  0.1189E-01  0.1561E+00
     -6.326  0.1646E-01  0.1576E+00
     -6.232  0.1217E-01  0.1588E+00
     -6.138  0.1235E-01  0.1599E+00
     -6.044  0.1654E-01  0.1615E+00
     -5.950  0.2398E-01  0.1637E+00
     -5.855  0.3261E-01  0.1668E+00
     -5.761  0.5465E-01  0.1719E+00
     -5.667  0.6440E-01  0.1780E+00
     -5.573  0.4725E-01  0.1824E+00
     -5.479  0.3623E-01  0.1858E+00
     -5.385  0.1922E-01  0.1877E+00
     -5.291  0.1275E-01  0.1889E+00
     -5.197  0.2129E-01  0.1909E+00
     -5.103  0.2788E-01  0.1935E+00
     -5.009  0.1907E-01  0.1953E+00
     -4.915  0.1128E-01  0.1963E+00
     -4.821  0.1605E-01  0.1978E+00
     -4.727  0.2847E-01  0.2005E+00
     -4.633  0.2959E-01  0.2033E+00
     -4.539  0.2603E-01  0.2058E+00
     -4.444  0.2050E-01  0.2077E+00
     -4.350  0.2946E-01  0.2105E+00
     -4.256  0.4250E-01  0.2144E+00
     -4.162  0.3421E-01  0.2177E+00
     -4.068  0.3298E-01  0.2208E+00
     -3.974  0.3853E-01  0.2244E+00
     -3.880  0.2968E-01  0.2272E+00
     -3.786  0.1286E-01  0.2284E+00
     -3.692  0.1107E-01  0.2294E+00
     -3.598  0.1377E-01  0.2307E+00
     -3.504  0.8782E-02  0.2316E+00
     -3.410  0.7354E-02  0.2323E+00
     -3.316  0.9440E-02  0.2331E+00
     -3.222  0.8010E-02  0.2339E+00
     -3.128  0.4145E-02  0.2343E+00
     -3.033  0.9255E-03  0.2344E+00
     -2.939  0.6588E-04  0.2344E+00
     -2.845  0.1177E-05  0.2344E+00
     -2.751  0.3950E-05  0.2344E+00
     -2.657  0.1907E-03  0.2344E+00
     -2.563  0.2044E-02  0.2346E+00
     -2.469  0.5678E-02  0.2351E+00
     -2.375  0.8010E-02  0.2359E+00
     -2.281  0.1464E-01  0.2373E+00
     -2.187  0.1921E-01  0.2391E+00
     -2.093  0.1497E-01  0.2405E+00
     -1.999  0.1386E-01  0.2418E+00
     -1.905  0.1971E-01  0.2436E+00
     -1.811  0.2191E-01  0.2457E+00
     -1.716  0.1249E-01  0.2469E+00
     -1.622  0.4740E-02  0.2473E+00
     -1.528  0.6684E-02  0.2479E+00
     -1.434  0.4745E-02  0.2484E+00
     -1.340  0.5228E-02  0.2489E+00
     -1.246  0.7130E-02  0.2495E+00
     -1.152  0.2382E-02  0.2498E+00
     -1.058  0.1675E-03  0.2498E+00
     -0.964  0.8575E-05  0.2498E+00
     -0.870  0.2141E-03  0.2498E+00
     -0.776  0.1478E-02  0.2499E+00
     -0.682  0.2176E-02  0.2501E+00
     -0.588  0.6929E-03  0.2502E+00
     -0.494  0.4604E-04  0.2502E+00
     -0.400  0.2681E-04  0.2502E+00
     -0.305  0.7906E-03  0.2503E+00
     -0.211  0.4832E-02  0.2507E+00
     -0.117  0.6403E-02  0.2514E+00
     -0.023  0.3007E-02  0.2516E+00
      0.071  0.3461E-02  0.2520E+00
      0.165  0.2176E-02  0.2522E+00
      0.259  0.4052E-02  0.2525E+00
      0.353  0.1734E-01  0.2542E+00
      0.447  0.2331E-01  0.2564E+00
      0.541  0.1810E-01  0.2581E+00
      0.635  0.1610E-01  0.2596E+00
      0.729  0.1559E-01  0.2611E+00
      0.823  0.1446E-01  0.2624E+00
      0.917  0.1510E-01  0.2638E+00
      1.011  0.9813E-02  0.2648E+00
      1.106  0.8130E-02  0.2655E+00
      1.200  0.1297E-01  0.2667E+00
      1.294  0.1241E-01  0.2679E+00
      1.388  0.8673E-02  0.2687E+00
      1.482  0.1133E-01  0.2698E+00
      1.576  0.1322E-01  0.2710E+00
      1.670  0.1482E-01  0.2724E+00
      1.764  0.1890E-01  0.2742E+00
      1.858  0.1514E-01  0.2756E+00
      1.952  0.9491E-02  0.2765E+00
      2.046  0.1716E-01  0.2781E+00
      2.140  0.2695E-01  0.2807E+00
      2.234  0.1567E-01  0.2821E+00
      2.328  0.1015E-01  0.2831E+00
      2.423  0.1905E-01  0.2849E+00
      2.517  0.2179E-01  0.2869E+00
      2.611  0.1901E-01  0.2887E+00
      2.705  0.1447E-01  0.2901E+00
      2.799  0.1244E-01  0.2913E+00
      2.893  0.1934E-01  0.2931E+00
      2.987  0.2493E-01  0.2954E+00
      3.081  0.2134E-01  0.2974E+00
      3.175  0.1548E-01  0.2989E+00
      3.269  0.2404E-01  0.3011E+00
      3.363  0.2994E-01  0.3040E+00
      3.457  0.2542E-01  0.3064E+00
      3.551  0.1894E-01  0.3081E+00
      3.645  0.2209E-01  0.3102E+00
      3.739  0.2064E-01  0.3122E+00
      3.834  0.1879E-01  0.3139E+00
      3.928  0.3120E-01  0.3169E+00
      4.022  0.4229E-01  0.3208E+00
      4.116  0.3546E-01  0.3242E+00
      4.210  0.2242E-01  0.3263E+00
      4.304  0.2387E-01  0.3285E+00
      4.398  0.2846E-01  0.3312E+00
      4.492  0.2762E-01  0.3338E+00
      4.586  0.3212E-01  0.3368E+00
      4.680  0.3634E-01  0.3402E+00
      4.774  0.3932E-01  0.3439E+00
      4.868  0.3105E-01  0.3469E+00
      4.962  0.1664E-01  0.3484E+00
      5.056  0.1739E-01  0.3501E+00
      5.150  0.2425E-01  0.3523E+00
      5.245  0.3115E-01  0.3553E+00
      5.339  0.2782E-01  0.3579E+00
      5.433  0.2372E-01  0.3601E+00
      5.527  0.1791E-01  0.3618E+00
      5.621  0.2020E-01  0.3637E+00
      5.715  0.2228E-01  0.3658E+00
      5.809  0.1666E-01  0.3674E+00
      5.903  0.1517E-01  0.3688E+00
      5.997  0.2033E-01  0.3707E+00
      6.091  0.2239E-01  0.3728E+00
      6.185  0.1422E-01  0.3742E+00
      6.279  0.5266E-02  0.3747E+00
      6.373  0.1980E-02  0.3748E+00
      6.467  0.1252E-02  0.3750E+00
      6.562  0.4269E-03  0.3750E+00
      6.656  0.3350E-04  0.3750E+00
      6.750  0.5208E-06  0.3750E+00
      6.844  0.1516E-08  0.3750E+00
      6.938  0.7983E-12  0.3750E+00
      7.032  0.7479E-16  0.3750E+00
      7.126  0.0000E+00  0.3750E+00
      7.220  0.0000E+00  0.3750E+00
      7.314  0.0000E+00  0.3750E+00
      7.408  0.0000E+00  0.3750E+00
      7.502  0.0000E+00  0.3750E+00
      7.596  0.0000E+00  0.3750E+00
      7.690  0.0000E+00  0.3750E+00
