    8    8  128    1
  0.5796174E+02  0.5174000E-09  0.5174160E-09  0.2000000E-08  0.5000000E-15
  1.000000000000000E-004
  CAR 
 BC3                                     
     30     43     24
 
  0.0000000E+00  0.0000000E+00  0.0000000E+00  0.6944444E-02
    1      -19.608729   1.000000
    2      -15.716856   1.000000
    3      -15.716547   1.000000
    4      -13.366427   1.000000
    5      -13.366220   1.000000
    6      -12.298532   1.000000
    7      -10.979237   1.000000
    8       -8.413925   1.000000
    9       -8.192987   1.000000
   10       -6.038531   1.000000
   11       -6.037302   1.000000
   12       -4.218035   1.000000
   13       -4.217713   1.000000
   14       -3.534247   0.999997
   15       -3.533172   0.999996
   16       -1.698528   0.000000
   17        0.032374   0.000000
   18        0.032452   0.000000
   19        0.687385   0.000000
   20        1.076546   0.000000
   21        2.237105   0.000000
   22        2.775628   0.000000
   23        5.248939   0.000000
   24        5.251552   0.000000
 
  0.8333333E-01  0.0000000E+00  0.0000000E+00  0.2777778E-01
    1      -19.581633   1.000000
    2      -15.848753   1.000000
    3      -15.759153   1.000000
    4      -13.405577   1.000000
    5      -13.267876   1.000000
    6      -12.163956   1.000000
    7      -10.818864   1.000000
    8       -8.372753   1.000000
    9       -8.250355   1.000000
   10       -6.161114   1.000000
   11       -6.060752   1.000000
   12       -4.342349   1.000000
   13       -4.238520   1.000000
   14       -3.676165   1.000000
   15       -3.602800   1.000000
   16       -1.903411   0.000000
   17        0.091671   0.000000
   18        0.342298   0.000000
   19        0.809934   0.000000
   20        1.128294   0.000000
   21        2.293005   0.000000
   22        2.827698   0.000000
   23        5.318614   0.000000
   24        5.413885   0.000000
 
  0.1666667E+00 -0.1387779E-16  0.0000000E+00  0.2777778E-01
    1      -19.502583   1.000000
    2      -16.173709   1.000000
    3      -15.863358   1.000000
    4      -13.522076   1.000000
    5      -12.998794   1.000000
    6      -11.782684   1.000000
    7      -10.389495   1.000000
    8       -8.432483   1.000000
    9       -8.250342   1.000000
   10       -6.507114   1.000000
   11       -6.096974   1.000000
   12       -4.684400   1.000000
   13       -4.292794   1.000000
   14       -4.083066   1.000000
   15       -3.794537   1.000000
   16       -2.251394   0.000000
   17        0.255193   0.000000
   18        0.806617   0.000000
   19        1.283056   0.000000
   20        1.330622   0.000000
   21        2.464935   0.000000
   22        2.983370   0.000000
   23        5.466575   0.000000
   24        5.729161   0.000000
 
  0.2500000E+00 -0.2775558E-16  0.0000000E+00  0.2777778E-01
    1      -19.379607   1.000000
    2      -16.570193   1.000000
    3      -15.985671   1.000000
    4      -13.669791   1.000000
    5      -12.614271   1.000000
    6      -11.240014   1.000000
    7       -9.779749   1.000000
    8       -8.745979   1.000000
    9       -8.051094   1.000000
   10       -7.014186   1.000000
   11       -6.088175   1.000000
   12       -5.161508   1.000000
   13       -4.700337   1.000000
   14       -4.362912   1.000000
   15       -4.070040   1.000000
   16       -2.538327   0.000000
   17        0.483630   0.000000
   18        1.155102   0.000000
   19        1.539828   0.000000
   20        2.167666   0.000000
   21        2.788007   0.000000
   22        3.241608   0.000000
   23        5.169440   0.000000
   24        5.610462   0.000000
 
  0.3333333E+00  0.0000000E+00  0.0000000E+00  0.2777778E-01
    1      -19.231112   1.000000
    2      -16.947335   1.000000
    3      -16.091760   1.000000
    4      -13.798779   1.000000
    5      -12.176366   1.000000
    6      -10.616615   1.000000
    7       -9.152828   1.000000
    8       -9.076733   1.000000
    9       -7.786530   1.000000
   10       -7.591784   1.000000
   11       -6.009375   1.000000
   12       -5.678593   1.000000
   13       -5.461730   1.000000
   14       -4.428980   1.000000
   15       -4.374467   1.000000
   16       -2.736725   0.000000
   17        0.720366   0.000000
   18        1.479562   0.000000
   19        1.897724   0.000000
   20        2.861284   0.000000
   21        3.453417   0.000000
   22        3.601628   0.000000
   23        4.325427   0.000000
   24        5.345891   0.000000
 
  0.4166667E+00  0.2775558E-16  0.0000000E+00  0.2777778E-01
    1      -19.095872   1.000000
    2      -17.230401   1.000000
    3      -16.161788   1.000000
    4      -13.883265   1.000000
    5      -11.775179   1.000000
    6       -9.971451   1.000000
    7       -9.549108   1.000000
    8       -8.641114   1.000000
    9       -7.859618   1.000000
   10       -7.494192   1.000000
   11       -6.300412   1.000000
   12       -6.141464   1.000000
   13       -5.893310   1.000000
   14       -4.635654   1.000000
   15       -4.475113   1.000000
   16       -2.852578   0.000000
   17        0.900752   0.000000
   18        1.727636   0.000000
   19        2.356117   0.000000
   20        3.370703   0.000000
   21        3.571524   0.000000
   22        4.062946   0.000000
   23        4.306665   0.000000
   24        4.729449   0.000000
 
  0.5000000E+00 -0.5551115E-16  0.0000000E+00  0.1388889E-01
    1      -19.037421   1.000000
    2      -17.339642   1.000000
    3      -16.186072   1.000000
    4      -13.912408   1.000000
    5      -11.590451   1.000000
    6       -9.734880   1.000000
    7       -9.527155   1.000000
    8       -8.921364   1.000000
    9       -7.326916   1.000000
   10       -7.295398   1.000000
   11       -7.040739   1.000000
   12       -6.368384   1.000000
   13       -5.830846   1.000000
   14       -4.747677   1.000000
   15       -4.491527   1.000000
   16       -2.890728   0.000002
   17        0.968620   0.000000
   18        1.822576   0.000000
   19        2.912729   0.000000
   20        2.916034   0.000000
   21        3.884752   0.000000
   22        3.941316   0.000000
   23        4.620074   0.000000
   24        4.629953   0.000000
 
  0.0000000E+00  0.8333333E-01  0.0000000E+00  0.1388889E-01
    1      -19.581640   1.000000
    2      -15.848973   1.000000
    3      -15.758915   1.000000
    4      -13.405339   1.000000
    5      -13.268050   1.000000
    6      -12.163984   1.000000
    7      -10.818958   1.000000
    8       -8.372758   1.000000
    9       -8.250398   1.000000
   10       -6.161975   1.000000
   11       -6.059791   1.000000
   12       -4.342610   1.000000
   13       -4.238270   1.000000
   14       -3.676999   1.000000
   15       -3.601955   1.000000
   16       -1.903307   0.000000
   17        0.091711   0.000000
   18        0.342299   0.000000
   19        0.809785   0.000000
   20        1.128288   0.000000
   21        2.292995   0.000000
   22        2.827693   0.000000
   23        5.320854   0.000000
   24        5.411890   0.000000
 
  0.1666667E+00  0.8333333E-01  0.0000000E+00  0.1388889E-01
    1      -19.528518   1.000000
    2      -16.062137   1.000000
    3      -15.848788   1.000000
    4      -13.434293   1.000000
    5      -13.141442   1.000000
    6      -11.893252   1.000000
    7      -10.527290   1.000000
    8       -8.372392   1.000000
    9       -8.290923   1.000000
   10       -6.371056   1.000000
   11       -6.112929   1.000000
   12       -4.555087   1.000000
   13       -4.302776   1.000000
   14       -3.941582   1.000000
   15       -3.742451   1.000000
   16       -2.143945   0.000000
   17        0.123105   0.000000
   18        0.851717   0.000000
   19        1.060479   0.000000
   20        1.231562   0.000000
   21        2.406174   0.000000
   22        2.931589   0.000000
   23        5.473721   0.000000
   24        5.679992   0.000000
 
  0.2500000E+00  0.8333333E-01  0.0000000E+00  0.2777778E-01
    1      -19.427181   1.000000
    2      -16.397459   1.000000
    3      -15.992190   1.000000
    4      -13.504818   1.000000
    5      -12.889228   1.000000
    6      -11.401161   1.000000
    7      -10.019388   1.000000
    8       -8.634630   1.000000
    9       -8.129889   1.000000
   10       -6.741523   1.000000
   11       -6.170245   1.000000
   12       -4.932274   1.000000
   13       -4.431984   1.000000
   14       -4.425166   1.000000
   15       -3.997366   1.000000
   16       -2.371205   0.000000
   17        0.189687   0.000000
   18        1.336212   0.000000
   19        1.437378   0.000000
   20        1.740965   0.000000
   21        2.641953   0.000000
   22        3.138622   0.000000
   23        5.627098   0.000000
   24        5.704874   0.000000
 
  0.3333333E+00  0.8333333E-01  0.0000000E+00  0.2777778E-01
    1      -19.290087   1.000000
    2      -16.768128   1.000000
    3      -16.129418   1.000000
    4      -13.614271   1.000000
    5      -12.505471   1.000000
    6      -10.796943   1.000000
    7       -9.373032   1.000000
    8       -9.023442   1.000000
    9       -7.896899   1.000000
   10       -7.236091   1.000000
   11       -6.156247   1.000000
   12       -5.413015   1.000000
   13       -5.095600   1.000000
   14       -4.548858   1.000000
   15       -4.310642   1.000000
   16       -2.521193   0.000000
   17        0.320871   0.000000
   18        1.709354   0.000000
   19        1.744792   0.000000
   20        2.578615   0.000000
   21        3.078471   0.000000
   22        3.447891   0.000000
   23        4.775315   0.000000
   24        5.759618   0.000000
 
  0.4166667E+00  0.8333333E-01  0.0000000E+00  0.2777778E-01
    1      -19.144251   1.000000
    2      -17.092820   1.000000
    3      -16.231125   1.000000
    4      -13.707712   1.000000
    5      -12.078834   1.000000
    6      -10.163244   1.000000
    7       -9.462994   1.000000
    8       -8.696695   1.000000
    9       -7.735827   1.000000
   10       -7.612314   1.000000
   11       -6.107046   1.000000
   12       -5.902259   1.000000
   13       -5.832868   1.000000
   14       -4.642767   1.000000
   15       -4.616506   1.000000
   16       -2.612014   0.000000
   17        0.467813   0.000000
   18        2.031299   0.000000
   19        2.153041   0.000000
   20        3.161702   0.000000
   21        3.858731   0.000000
   22        3.897467   0.000000
   23        3.975184   0.000000
   24        5.010285   0.000000
 
  0.5000000E+00  0.8333333E-01  0.0000000E+00  0.2777778E-01
    1      -19.041257   1.000000
    2      -17.291146   1.000000
    3      -16.284498   1.000000
    4      -13.759047   1.000000
    5      -11.751288   1.000000
    6       -9.871006   1.000000
    7       -9.506326   1.000000
    8       -8.638254   1.000000
    9       -7.557470   1.000000
   10       -7.352596   1.000000
   11       -6.731173   1.000000
   12       -6.274753   1.000000
   13       -5.930955   1.000000
   14       -4.825883   1.000000
   15       -4.692690   1.000000
   16       -2.656053   0.000000
   17        0.564415   0.000000
   18        2.226040   0.000000
   19        2.661495   0.000000
   20        3.269309   0.000000
   21        3.674301   0.000000
   22        4.235059   0.000000
   23        4.370728   0.000000
   24        4.982999   0.000000
 
 -0.4166667E+00  0.8333333E-01  0.0000000E+00  0.2777778E-01
    1      -19.041270   1.000000
    2      -17.291117   1.000000
    3      -16.284522   1.000000
    4      -13.758996   1.000000
    5      -11.751166   1.000000
    6       -9.871374   1.000000
    7       -9.506492   1.000000
    8       -8.637871   1.000000
    9       -7.557698   1.000000
   10       -7.352617   1.000000
   11       -6.731099   1.000000
   12       -6.274727   1.000000
   13       -5.930704   1.000000
   14       -4.825979   1.000000
   15       -4.692721   1.000000
   16       -2.655990   0.000000
   17        0.564474   0.000000
   18        2.225929   0.000000
   19        2.661423   0.000000
   20        3.269395   0.000000
   21        3.674238   0.000000
   22        4.235122   0.000000
   23        4.370659   0.000000
   24        4.983080   0.000000
 
 -0.3333333E+00  0.8333333E-01  0.0000000E+00  0.2777778E-01
    1      -19.144282   1.000000
    2      -17.092747   1.000000
    3      -16.231189   1.000000
    4      -13.707557   1.000000
    5      -12.078625   1.000000
    6      -10.163848   1.000000
    7       -9.463180   1.000000
    8       -8.696741   1.000000
    9       -7.735551   1.000000
   10       -7.612349   1.000000
   11       -6.107622   1.000000
   12       -5.902212   1.000000
   13       -5.831851   1.000000
   14       -4.642852   1.000000
   15       -4.616685   1.000000
   16       -2.611833   0.000000
   17        0.467971   0.000000
   18        2.031003   0.000000
   19        2.152984   0.000000
   20        3.161641   0.000000
   21        3.858675   0.000000
   22        3.897394   0.000000
   23        3.975286   0.000000
   24        5.010375   0.000000
 
 -0.2500000E+00  0.8333333E-01  0.0000000E+00  0.2777778E-01
    1      -19.290120   1.000000
    2      -16.768039   1.000000
    3      -16.129498   1.000000
    4      -13.614007   1.000000
    5      -12.505343   1.000000
    6      -10.797349   1.000000
    7       -9.373315   1.000000
    8       -9.023714   1.000000
    9       -7.896931   1.000000
   10       -7.235744   1.000000
   11       -6.156140   1.000000
   12       -5.412981   1.000000
   13       -5.095298   1.000000
   14       -4.548962   1.000000
   15       -4.310737   1.000000
   16       -2.520923   0.000000
   17        0.321086   0.000000
   18        1.708950   0.000000
   19        1.744748   0.000000
   20        2.578545   0.000000
   21        3.078405   0.000000
   22        3.447849   0.000000
   23        4.775441   0.000000
   24        5.759389   0.000000
 
 -0.1666667E+00  0.8333333E-01  0.0000000E+00  0.2777778E-01
    1      -19.427208   1.000000
    2      -16.397408   1.000000
    3      -15.992228   1.000000
    4      -13.504433   1.000000
    5      -12.889278   1.000000
    6      -11.401414   1.000000
    7      -10.019680   1.000000
    8       -8.634869   1.000000
    9       -8.129913   1.000000
   10       -6.741499   1.000000
   11       -6.169820   1.000000
   12       -4.932303   1.000000
   13       -4.432067   1.000000
   14       -4.425210   1.000000
   15       -3.997194   1.000000
   16       -2.370905   0.000000
   17        0.189914   0.000000
   18        1.335772   0.000000
   19        1.437347   0.000000
   20        1.740895   0.000000
   21        2.641906   0.000000
   22        3.138593   0.000000
   23        5.627574   0.000000
   24        5.704894   0.000000
 
 -0.8333333E-01  0.8333333E-01  0.0000000E+00  0.2777778E-01
    1      -19.528535   1.000000
    2      -16.062228   1.000000
    3      -15.848669   1.000000
    4      -13.433848   1.000000
    5      -13.141675   1.000000
    6      -11.893369   1.000000
    7      -10.527522   1.000000
    8       -8.372527   1.000000
    9       -8.290938   1.000000
   10       -6.371654   1.000000
   11       -6.112032   1.000000
   12       -4.555271   1.000000
   13       -4.302636   1.000000
   14       -3.942180   1.000000
   15       -3.741804   1.000000
   16       -2.143698   0.000000
   17        0.123297   0.000000
   18        0.851524   0.000000
   19        1.060240   0.000000
   20        1.231545   0.000000
   21        2.406145   0.000000
   22        2.931573   0.000000
   23        5.475703   0.000000
   24        5.679976   0.000000
 
  0.0000000E+00  0.1666667E+00  0.0000000E+00  0.1388889E-01
    1      -19.502607   1.000000
    2      -16.173893   1.000000
    3      -15.863104   1.000000
    4      -13.521689   1.000000
    5      -12.999020   1.000000
    6      -11.782749   1.000000
    7      -10.389821   1.000000
    8       -8.432618   1.000000
    9       -8.250362   1.000000
   10       -6.507813   1.000000
   11       -6.095919   1.000000
   12       -4.684690   1.000000
   13       -4.292525   1.000000
   14       -4.083958   1.000000
   15       -3.793591   1.000000
   16       -2.251114   0.000000
   17        0.255183   0.000000
   18        0.806791   0.000000
   19        1.283032   0.000000
   20        1.330155   0.000000
   21        2.464888   0.000000
   22        2.983348   0.000000
   23        5.469319   0.000000
   24        5.729155   0.000000
 
  0.3333333E+00  0.1666667E+00  0.0000000E+00  0.1388889E-01
    1      -19.310804   1.000000
    2      -16.662469   1.000000
    3      -16.201084   1.000000
    4      -13.394264   1.000000
    5      -12.785314   1.000000
    6      -10.818844   1.000000
    7       -9.489157   1.000000
    8       -8.997116   1.000000
    9       -7.934470   1.000000
   10       -6.988921   1.000000
   11       -6.313964   1.000000
   12       -5.244722   1.000000
   13       -4.927233   1.000000
   14       -4.700570   1.000000
   15       -4.330995   1.000000
   16       -2.351953   0.000000
   17        0.060908   0.000000
   18        1.693901   0.000000
   19        2.066070   0.000000
   20        2.271981   0.000000
   21        2.942504   0.000000
   22        3.396803   0.000000
   23        5.302399   0.000000
   24        5.332265   0.000000
 
  0.4166667E+00  0.1666667E+00  0.0000000E+00  0.2777778E-01
    1      -19.172285   1.000000
    2      -16.939489   1.000000
    3      -16.384715   1.000000
    4      -13.364389   1.000000
    5      -12.505093   1.000000
    6      -10.187628   1.000000
    7       -9.443431   1.000000
    8       -8.861003   1.000000
    9       -7.676894   1.000000
   10       -7.332073   1.000000
   11       -6.385936   1.000000
   12       -5.640080   1.000000
   13       -5.531795   1.000000
   14       -4.941943   1.000000
   15       -4.706327   1.000000
   16       -2.267788   0.000000
   17       -0.005777   0.000000
   18        2.051795   0.000000
   19        2.509617   0.000000
   20        3.027682   0.000000
   21        3.455200   0.000000
   22        3.757134   0.000000
   23        4.478293   0.000000
   24        5.074945   0.000000
 
  0.5000000E+00  0.1666667E+00  0.0000000E+00  0.2777778E-01
    1      -19.048763   1.000000
    2      -17.165199   1.000000
    3      -16.497408   1.000000
    4      -13.388838   1.000000
    5      -12.144308   1.000000
    6      -10.039516   1.000000
    7       -9.400126   1.000000
    8       -8.327814   1.000000
    9       -7.637120   1.000000
   10       -7.397038   1.000000
   11       -6.520214   1.000000
   12       -6.044494   1.000000
   13       -6.042389   1.000000
   14       -5.078433   1.000000
   15       -5.022271   1.000000
   16       -2.198929   0.000000
   17       -0.020259   0.000000
   18        2.510273   0.000000
   19        2.830224   0.000000
   20        3.554487   0.000000
   21        3.725320   0.000000
   22        4.219012   0.000000
   23        4.282604   0.000000
   24        4.780906   0.000000
 
 -0.4166667E+00  0.1666667E+00  0.0000000E+00  0.2777778E-01
    1      -18.996489   1.000000
    2      -17.254949   1.000000
    3      -16.534670   1.000000
    4      -13.402450   1.000000
    5      -11.958405   1.000000
    6      -10.224242   1.000000
    7       -9.021487   1.000000
    8       -8.422769   1.000000
    9       -7.305386   1.000000
   10       -7.242116   1.000000
   11       -7.007482   1.000000
   12       -6.244750   1.000000
   13       -6.102330   1.000000
   14       -5.157239   1.000000
   15       -5.121688   1.000000
   16       -2.174394   0.000000
   17       -0.018764   0.000000
   18        2.957045   0.000000
   19        3.064326   0.000000
   20        3.072667   0.000000
   21        4.025425   0.000000
   22        4.121390   0.000000
   23        4.779561   0.000000
   24        4.782689   0.000000
 
 -0.3333333E+00  0.1666667E+00  0.0000000E+00  0.2777778E-01
    1      -19.048812   1.000000
    2      -17.165088   1.000000
    3      -16.497483   1.000000
    4      -13.388589   1.000000
    5      -12.144164   1.000000
    6      -10.040271   1.000000
    7       -9.400346   1.000000
    8       -8.327674   1.000000
    9       -7.637075   1.000000
   10       -7.397101   1.000000
   11       -6.520829   1.000000
   12       -6.043107   1.000000
   13       -6.042317   1.000000
   14       -5.078497   1.000000
   15       -5.022574   1.000000
   16       -2.198696   0.000000
   17       -0.020238   0.000000
   18        2.510144   0.000000
   19        2.829966   0.000000
   20        3.554375   0.000000
   21        3.725509   0.000000
   22        4.218887   0.000000
   23        4.282495   0.000000
   24        4.781037   0.000000
 
 -0.2500000E+00  0.1666667E+00  0.0000000E+00  0.2777778E-01
    1      -19.172353   1.000000
    2      -16.939330   1.000000
    3      -16.384822   1.000000
    4      -13.363842   1.000000
    5      -12.505116   1.000000
    6      -10.188477   1.000000
    7       -9.443606   1.000000
    8       -8.861525   1.000000
    9       -7.676962   1.000000
   10       -7.331533   1.000000
   11       -6.385971   1.000000
   12       -5.640029   1.000000
   13       -5.530972   1.000000
   14       -4.942024   1.000000
   15       -4.706503   1.000000
   16       -2.267369   0.000000
   17       -0.005726   0.000000
   18        2.051693   0.000000
   19        2.509220   0.000000
   20        3.027538   0.000000
   21        3.455056   0.000000
   22        3.757035   0.000000
   23        4.478521   0.000000
   24        5.074654   0.000000
 
 -0.1666667E+00  0.1666667E+00  0.0000000E+00  0.2777778E-01
    1      -19.310867   1.000000
    2      -16.662376   1.000000
    3      -16.201117   1.000000
    4      -13.393450   1.000000
    5      -12.785623   1.000000
    6      -10.819308   1.000000
    7       -9.489761   1.000000
    8       -8.997499   1.000000
    9       -7.934526   1.000000
   10       -6.988782   1.000000
   11       -6.313293   1.000000
   12       -5.244801   1.000000
   13       -4.927238   1.000000
   14       -4.700560   1.000000
   15       -4.330706   1.000000
   16       -2.351445   0.000000
   17        0.060998   0.000000
   18        1.693826   0.000000
   19        2.065710   0.000000
   20        2.271719   0.000000
   21        2.942369   0.000000
   22        3.396731   0.000000
   23        5.302326   0.000000
   24        5.332249   0.000000
 
 -0.8333333E-01  0.1666667E+00  0.0000000E+00  0.2777778E-01
    1      -19.427227   1.000000
    2      -16.397526   1.000000
    3      -15.992049   1.000000
    4      -13.504149   1.000000
    5      -12.889525   1.000000
    6      -11.401399   1.000000
    7      -10.019920   1.000000
    8       -8.634923   1.000000
    9       -8.129928   1.000000
   10       -6.741945   1.000000
   11       -6.169149   1.000000
   12       -4.932510   1.000000
   13       -4.432653   1.000000
   14       -4.424993   1.000000
   15       -3.996564   1.000000
   16       -2.370744   0.000000
   17        0.189814   0.000000
   18        1.336103   0.000000
   19        1.437329   0.000000
   20        1.740474   0.000000
   21        2.641857   0.000000
   22        3.138577   0.000000
   23        5.627566   0.000000
   24        5.706839   0.000000
 
  0.0000000E+00  0.2500000E+00  0.0000000E+00  0.1388889E-01
    1      -19.379662   1.000000
    2      -16.570325   1.000000
    3      -15.985400   1.000000
    4      -13.669285   1.000000
    5      -12.614578   1.000000
    6      -11.240110   1.000000
    7       -9.780382   1.000000
    8       -8.746177   1.000000
    9       -8.051141   1.000000
   10       -7.014633   1.000000
   11       -6.087055   1.000000
   12       -5.161808   1.000000
   13       -4.701272   1.000000
   14       -4.362619   1.000000
   15       -4.068958   1.000000
   16       -2.537907   0.000000
   17        0.483551   0.000000
   18        1.155158   0.000000
   19        1.539773   0.000000
   20        2.167245   0.000000
   21        2.787837   0.000000
   22        3.241557   0.000000
   23        5.168863   0.000000
   24        5.613575   0.000000
 
  0.5000000E+00  0.2500000E+00  0.0000000E+00  0.1388889E-01
    1      -19.052449   1.000000
    2      -17.067644   1.000000
    3      -16.633518   1.000000
    4      -13.093332   1.000000
    5      -12.453300   1.000000
    6      -10.096639   1.000000
    7       -9.335066   1.000000
    8       -8.322466   1.000000
    9       -7.447659   1.000000
   10       -7.416663   1.000000
   11       -6.659182   1.000000
   12       -5.935302   1.000000
   13       -5.854759   1.000000
   14       -5.325982   1.000000
   15       -5.163135   1.000000
   16       -1.934390   0.000000
   17       -0.321480   0.000000
   18        2.459972   0.000000
   19        3.164877   0.000000
   20        3.645463   0.000000
   21        3.868791   0.000000
   22        4.168038   0.000000
   23        4.268567   0.000000
   24        4.292457   0.000000
 
 -0.4166667E+00  0.2500000E+00  0.0000000E+00  0.2777778E-01
    1      -18.972360   1.000000
    2      -17.140984   1.000000
    3      -16.781529   1.000000
    4      -12.970924   1.000000
    5      -12.302575   1.000000
    6      -10.439775   1.000000
    7       -8.721087   1.000000
    8       -8.064190   1.000000
    9       -7.551541   1.000000
   10       -7.196304   1.000000
   11       -6.906121   1.000000
   12       -6.149475   1.000000
   13       -6.055152   1.000000
   14       -5.531058   1.000000
   15       -5.515185   1.000000
   16       -1.672292   0.000000
   17       -0.554883   0.000000
   18        2.968317   0.000000
   19        3.575580   0.000000
   20        3.592832   0.000000
   21        4.056418   0.000000
   22        4.180987   0.000000
   23        4.489048   0.000000
   24        4.681498   0.000000
 
 -0.3333333E+00  0.2500000E+00  0.0000000E+00  0.2777778E-01
    1      -18.972399   1.000000
    2      -17.140886   1.000000
    3      -16.781586   1.000000
    4      -12.970572   1.000000
    5      -12.302735   1.000000
    6      -10.440058   1.000000
    7       -8.721532   1.000000
    8       -8.063854   1.000000
    9       -7.551582   1.000000
   10       -7.196358   1.000000
   11       -6.906728   1.000000
   12       -6.148254   1.000000
   13       -6.055112   1.000000
   14       -5.531063   1.000000
   15       -5.515512   1.000000
   16       -1.672045   0.000000
   17       -0.555015   0.000000
   18        2.968100   0.000000
   19        3.575843   0.000000
   20        3.592619   0.000000
   21        4.056363   0.000000
   22        4.180927   0.000000
   23        4.489096   0.000000
   24        4.681278   0.000000
 
 -0.2500000E+00  0.2500000E+00  0.0000000E+00  0.2777778E-01
    1      -19.052539   1.000000
    2      -17.067470   1.000000
    3      -16.633591   1.000000
    4      -13.092387   1.000000
    5      -12.453815   1.000000
    6      -10.097465   1.000000
    7       -9.335233   1.000000
    8       -8.323209   1.000000
    9       -7.447020   1.000000
   10       -7.416763   1.000000
   11       -6.659748   1.000000
   12       -5.933849   1.000000
   13       -5.854767   1.000000
   14       -5.325933   1.000000
   15       -5.163229   1.000000
   16       -1.933861   0.000000
   17       -0.321676   0.000000
   18        2.459798   0.000000
   19        3.164561   0.000000
   20        3.645353   0.000000
   21        3.868496   0.000000
   22        4.167885   0.000000
   23        4.268648   0.000000
   24        4.292486   0.000000
 
 -0.1666667E+00  0.2500000E+00  0.0000000E+00  0.2777778E-01
    1      -19.172386   1.000000
    2      -16.939396   1.000000
    3      -16.384679   1.000000
    4      -13.363434   1.000000
    5      -12.505556   1.000000
    6      -10.188383   1.000000
    7       -9.443648   1.000000
    8       -8.861919   1.000000
    9       -7.676987   1.000000
   10       -7.331757   1.000000
   11       -6.385426   1.000000
   12       -5.640215   1.000000
   13       -5.531554   1.000000
   14       -4.941803   1.000000
   15       -4.705819   1.000000
   16       -2.267175   0.000000
   17       -0.005882   0.000000
   18        2.051661   0.000000
   19        2.509351   0.000000
   20        3.027461   0.000000
   21        3.454830   0.000000
   22        3.757007   0.000000
   23        4.477982   0.000000
   24        5.075362   0.000000
 
 -0.8333333E-01  0.2500000E+00  0.0000000E+00  0.2777778E-01
    1      -19.290171   1.000000
    2      -16.768158   1.000000
    3      -16.129243   1.000000
    4      -13.613545   1.000000
    5      -12.505788   1.000000
    6      -10.797294   1.000000
    7       -9.373928   1.000000
    8       -9.023760   1.000000
    9       -7.896970   1.000000
   10       -7.236158   1.000000
   11       -6.155196   1.000000
   12       -5.413251   1.000000
   13       -5.096202   1.000000
   14       -4.548643   1.000000
   15       -4.309705   1.000000
   16       -2.520613   0.000000
   17        0.320875   0.000000
   18        1.709143   0.000000
   19        1.744699   0.000000
   20        2.578287   0.000000
   21        3.078157   0.000000
   22        3.447804   0.000000
   23        4.774880   0.000000
   24        5.769696   0.000000
 
  0.0000000E+00  0.3333333E+00  0.0000000E+00  0.1388889E-01
    1      -19.231209   1.000000
    2      -16.947406   1.000000
    3      -16.091473   1.000000
    4      -13.798194   1.000000
    5      -12.176785   1.000000
    6      -10.616759   1.000000
    7       -9.153009   1.000000
    8       -9.077809   1.000000
    9       -7.786607   1.000000
   10       -7.591815   1.000000
   11       -6.008263   1.000000
   12       -5.678857   1.000000
   13       -5.462664   1.000000
   14       -4.428665   1.000000
   15       -4.373231   1.000000
   16       -2.736215   0.000000
   17        0.720214   0.000000
   18        1.479483   0.000000
   19        1.897625   0.000000
   20        2.861111   0.000000