   8   8   0   0
  0.2469169E+02  0.5174038E-09  0.5174038E-09  0.8520222E-09  0.5000000E-15
  1.000000000000000E-004
  CAR 
 BC3-optical                             
     61.74587247    -22.36348232 2400     -2.40986142      1.00000000
    -22.363  0.0000E+00  0.0000E+00
    -22.328  0.0000E+00  0.0000E+00
    -22.293  0.0000E+00  0.0000E+00
    -22.258  0.0000E+00  0.0000E+00
    -22.223  0.0000E+00  0.0000E+00
    -22.188  0.0000E+00  0.0000E+00
    -22.153  0.0000E+00  0.0000E+00
    -22.118  0.0000E+00  0.0000E+00
    -22.083  0.0000E+00  0.0000E+00
    -22.048  0.0000E+00  0.0000E+00
    -22.013  0.0000E+00  0.0000E+00
    -21.978  0.0000E+00  0.0000E+00
    -21.943  0.0000E+00  0.0000E+00
    -21.908  0.0000E+00  0.0000E+00
    -21.873  0.0000E+00  0.0000E+00
    -21.838  0.0000E+00  0.0000E+00
    -21.803  0.0000E+00  0.0000E+00
    -21.767  0.0000E+00  0.0000E+00
    -21.732  0.0000E+00  0.0000E+00
    -21.697  0.0000E+00  0.0000E+00
    -21.662  0.0000E+00  0.0000E+00
    -21.627  0.0000E+00  0.0000E+00
    -21.592  0.0000E+00  0.0000E+00
    -21.557  0.0000E+00  0.0000E+00
    -21.522  0.0000E+00  0.0000E+00
    -21.487  0.0000E+00  0.0000E+00
    -21.452  0.0000E+00  0.0000E+00
    -21.417  0.0000E+00  0.0000E+00
    -21.382  0.0000E+00  0.0000E+00
    -21.347  0.0000E+00  0.0000E+00
    -21.312  0.0000E+00  0.0000E+00
    -21.277  0.0000E+00  0.0000E+00
    -21.242  0.0000E+00  0.0000E+00
    -21.206  0.0000E+00  0.0000E+00
    -21.171  0.0000E+00  0.0000E+00
    -21.136  0.0000E+00  0.0000E+00
    -21.101  0.0000E+00  0.0000E+00
    -21.066  0.0000E+00  0.0000E+00
    -21.031  0.0000E+00  0.0000E+00
    -20.996  0.0000E+00  0.0000E+00
    -20.961  0.0000E+00  0.0000E+00
    -20.926  0.0000E+00  0.0000E+00
    -20.891  0.0000E+00  0.0000E+00
    -20.856  0.0000E+00  0.0000E+00
    -20.821  0.0000E+00  0.0000E+00
    -20.786  0.0000E+00  0.0000E+00
    -20.751  0.0000E+00  0.0000E+00
    -20.716  0.0000E+00  0.0000E+00
    -20.681  0.0000E+00  0.0000E+00
    -20.646  0.0000E+00  0.0000E+00
    -20.610  0.0000E+00  0.0000E+00
    -20.575  0.0000E+00  0.0000E+00
    -20.540  0.0000E+00  0.0000E+00
    -20.505  0.0000E+00  0.0000E+00
    -20.470  0.0000E+00  0.0000E+00
    -20.435  0.0000E+00  0.0000E+00
    -20.400  0.0000E+00  0.0000E+00
    -20.365  0.0000E+00  0.0000E+00
    -20.330  0.0000E+00  0.0000E+00
    -20.295  0.0000E+00  0.0000E+00
    -20.260  0.0000E+00  0.0000E+00
    -20.225  0.0000E+00  0.0000E+00
    -20.190  0.0000E+00  0.0000E+00
    -20.155  0.0000E+00  0.0000E+00
    -20.120  0.0000E+00  0.0000E+00
    -20.085  0.0000E+00  0.0000E+00
    -20.050  0.0000E+00  0.0000E+00
    -20.014  0.0000E+00  0.0000E+00
    -19.979  0.0000E+00  0.0000E+00
    -19.944  0.0000E+00  0.0000E+00
    -19.909  0.0000E+00  0.0000E+00
    -19.874  0.0000E+00  0.0000E+00
    -19.839  0.0000E+00  0.0000E+00
    -19.804  0.0000E+00  0.0000E+00
    -19.769  0.0000E+00  0.0000E+00
    -19.734  0.0000E+00  0.0000E+00
    -19.699  0.0000E+00  0.0000E+00
    -19.664  0.0000E+00  0.0000E+00
    -19.629  0.0000E+00  0.0000E+00
    -19.594  0.0000E+00  0.0000E+00
    -19.559  0.0000E+00  0.0000E+00
    -19.524  0.0000E+00  0.0000E+00
    -19.489  0.0000E+00  0.0000E+00
    -19.453  0.0000E+00  0.0000E+00
    -19.418  0.0000E+00  0.0000E+00
    -19.383  0.0000E+00  0.0000E+00
    -19.348  0.0000E+00  0.0000E+00
    -19.313  0.0000E+00  0.0000E+00
    -19.278  0.0000E+00  0.0000E+00
    -19.243  0.0000E+00  0.0000E+00
    -19.208  0.0000E+00  0.0000E+00
    -19.173  0.0000E+00  0.0000E+00
    -19.138  0.0000E+00  0.0000E+00
    -19.103  0.0000E+00  0.0000E+00
    -19.068  0.0000E+00  0.0000E+00
    -19.033  0.0000E+00  0.0000E+00
    -18.998  0.0000E+00  0.0000E+00
    -18.963  0.0000E+00  0.0000E+00
    -18.928  0.0000E+00  0.0000E+00
    -18.893  0.0000E+00  0.0000E+00
    -18.857  0.0000E+00  0.0000E+00
    -18.822  0.0000E+00  0.0000E+00
    -18.787  0.0000E+00  0.0000E+00
    -18.752  0.0000E+00  0.0000E+00
    -18.717  0.0000E+00  0.0000E+00
    -18.682  0.0000E+00  0.0000E+00
    -18.647  0.0000E+00  0.0000E+00
    -18.612  0.0000E+00  0.0000E+00
    -18.577  0.4310E-07  0.1511E-08
    -18.542  0.1628E+00  0.5708E-02
    -18.507  0.2172E+01  0.8186E-01
    -18.472  0.5544E+00  0.1013E+00
    -18.437  0.3107E+01  0.2102E+00
    -18.402  0.1530E+01  0.2639E+00
    -18.367  0.6264E+00  0.2859E+00
    -18.332  0.4132E+01  0.4307E+00
    -18.297  0.2326E+01  0.5123E+00
    -18.261  0.5432E-01  0.5142E+00
    -18.226  0.3516E+01  0.6374E+00
    -18.191  0.3607E+01  0.7639E+00
    -18.156  0.1932E+01  0.8316E+00
    -18.121  0.4768E+00  0.8483E+00
    -18.086  0.5017E+01  0.1024E+01
    -18.051  0.4458E+01  0.1181E+01
    -18.016  0.2242E+01  0.1259E+01
    -17.981  0.4430E+01  0.1414E+01
    -17.946  0.8789E+01  0.1723E+01
    -17.911  0.3065E+01  0.1830E+01
    -17.876  0.4371E+01  0.1983E+01
    -17.841  0.4758E+00  0.2000E+01
    -17.806  0.1010E-05  0.2000E+01
    -17.771  0.0000E+00  0.2000E+01
    -17.736  0.0000E+00  0.2000E+01
    -17.700  0.0000E+00  0.2000E+01
    -17.665  0.0000E+00  0.2000E+01
    -17.630  0.0000E+00  0.2000E+01
    -17.595  0.0000E+00  0.2000E+01
    -17.560  0.0000E+00  0.2000E+01
    -17.525  0.0000E+00  0.2000E+01
    -17.490  0.0000E+00  0.2000E+01
    -17.455  0.0000E+00  0.2000E+01
    -17.420  0.0000E+00  0.2000E+01
    -17.385  0.0000E+00  0.2000E+01
    -17.350  0.0000E+00  0.2000E+01
    -17.315  0.0000E+00  0.2000E+01
    -17.280  0.0000E+00  0.2000E+01
    -17.245  0.0000E+00  0.2000E+01
    -17.210  0.0000E+00  0.2000E+01
    -17.175  0.0000E+00  0.2000E+01
    -17.140  0.0000E+00  0.2000E+01
    -17.104  0.0000E+00  0.2000E+01
    -17.069  0.0000E+00  0.2000E+01
    -17.034  0.0000E+00  0.2000E+01
    -16.999  0.0000E+00  0.2000E+01
    -16.964  0.0000E+00  0.2000E+01
    -16.929  0.0000E+00  0.2000E+01
    -16.894  0.0000E+00  0.2000E+01
    -16.859  0.0000E+00  0.2000E+01
    -16.824  0.0000E+00  0.2000E+01
    -16.789  0.0000E+00  0.2000E+01
    -16.754  0.0000E+00  0.2000E+01
    -16.719  0.0000E+00  0.2000E+01
    -16.684  0.0000E+00  0.2000E+01
    -16.649  0.0000E+00  0.2000E+01
    -16.614  0.0000E+00  0.2000E+01
    -16.579  0.0000E+00  0.2000E+01
    -16.543  0.0000E+00  0.2000E+01
    -16.508  0.0000E+00  0.2000E+01
    -16.473  0.0000E+00  0.2000E+01
    -16.438  0.0000E+00  0.2000E+01
    -16.403  0.0000E+00  0.2000E+01
    -16.368  0.0000E+00  0.2000E+01
    -16.333  0.0000E+00  0.2000E+01
    -16.298  0.1509E-03  0.2000E+01
    -16.263  0.1073E+01  0.2038E+01
    -16.228  0.1409E+01  0.2087E+01
    -16.193  0.3988E+01  0.2227E+01
    -16.158  0.3662E+01  0.2355E+01
    -16.123  0.5640E+00  0.2375E+01
    -16.088  0.4473E+01  0.2532E+01
    -16.053  0.5026E+01  0.2708E+01
    -16.018  0.4110E+01  0.2852E+01
    -15.983  0.3012E+01  0.2958E+01
    -15.947  0.3488E+00  0.2970E+01
    -15.912  0.1252E+01  0.3014E+01
    -15.877  0.2519E+01  0.3102E+01
    -15.842  0.4612E+01  0.3264E+01
    -15.807  0.7391E-04  0.3264E+01
    -15.772  0.5278E-15  0.3264E+01
    -15.737  0.2579E-02  0.3264E+01
    -15.702  0.6475E+01  0.3491E+01
    -15.667  0.3030E+01  0.3597E+01
    -15.632  0.5606E-05  0.3597E+01
    -15.597  0.8957E+00  0.3629E+01
    -15.562  0.3202E+01  0.3741E+01
    -15.527  0.6572E+00  0.3764E+01
    -15.492  0.2226E+01  0.3842E+01
    -15.457  0.2358E+01  0.3925E+01
    -15.422  0.4339E+01  0.4077E+01
    -15.387  0.5843E+00  0.4097E+01
    -15.351  0.4893E-02  0.4097E+01
    -15.316  0.7172E+01  0.4349E+01
    -15.281  0.2331E+01  0.4431E+01
    -15.246  0.7003E-04  0.4431E+01
    -15.211  0.3715E+01  0.4561E+01
    -15.176  0.1206E+01  0.4603E+01
    -15.141  0.4914E+01  0.4775E+01
    -15.106  0.4466E+01  0.4932E+01
    -15.071  0.3970E+01  0.5071E+01
    -15.036  0.4415E+01  0.5226E+01
    -15.001  0.2693E+01  0.5320E+01
    -14.966  0.1955E+01  0.5389E+01
    -14.931  0.9581E+00  0.5422E+01
    -14.896  0.6170E+01  0.5639E+01
    -14.861  0.2223E-02  0.5639E+01
    -14.826  0.2423E-04  0.5639E+01
    -14.790  0.2217E+01  0.5717E+01
    -14.755  0.4913E+01  0.5889E+01
    -14.720  0.7908E-03  0.5889E+01
    -14.685  0.1895E+01  0.5955E+01
    -14.650  0.8144E+00  0.5984E+01
    -14.615  0.4601E+00  0.6000E+01
    -14.580  0.7881E-06  0.6000E+01
    -14.545  0.0000E+00  0.6000E+01
    -14.510  0.0000E+00  0.6000E+01
    -14.475  0.0000E+00  0.6000E+01
    -14.440  0.0000E+00  0.6000E+01
    -14.405  0.0000E+00  0.6000E+01
    -14.370  0.0000E+00  0.6000E+01
    -14.335  0.0000E+00  0.6000E+01
    -14.300  0.0000E+00  0.6000E+01
    -14.265  0.0000E+00  0.6000E+01
    -14.230  0.0000E+00  0.6000E+01
    -14.194  0.0000E+00  0.6000E+01
    -14.159  0.0000E+00  0.6000E+01
    -14.124  0.0000E+00  0.6000E+01
    -14.089  0.0000E+00  0.6000E+01
    -14.054  0.0000E+00  0.6000E+01
    -14.019  0.0000E+00  0.6000E+01
    -13.984  0.0000E+00  0.6000E+01
    -13.949  0.0000E+00  0.6000E+01
    -13.914  0.0000E+00  0.6000E+01
    -13.879  0.0000E+00  0.6000E+01
    -13.844  0.0000E+00  0.6000E+01
    -13.809  0.0000E+00  0.6000E+01
    -13.774  0.0000E+00  0.6000E+01
    -13.739  0.0000E+00  0.6000E+01
    -13.704  0.0000E+00  0.6000E+01
    -13.669  0.0000E+00  0.6000E+01
    -13.633  0.0000E+00  0.6000E+01
    -13.598  0.0000E+00  0.6000E+01
    -13.563  0.0000E+00  0.6000E+01
    -13.528  0.0000E+00  0.6000E+01
    -13.493  0.0000E+00  0.6000E+01
    -13.458  0.0000E+00  0.6000E+01
    -13.423  0.0000E+00  0.6000E+01
    -13.388  0.0000E+00  0.6000E+01
    -13.353  0.0000E+00  0.6000E+01
    -13.318  0.0000E+00  0.6000E+01
    -13.283  0.0000E+00  0.6000E+01
    -13.248  0.0000E+00  0.6000E+01
    -13.213  0.0000E+00  0.6000E+01
    -13.178  0.0000E+00  0.6000E+01
    -13.143  0.0000E+00  0.6000E+01
    -13.108  0.0000E+00  0.6000E+01
    -13.073  0.0000E+00  0.6000E+01
    -13.037  0.0000E+00  0.6000E+01
    -13.002  0.0000E+00  0.6000E+01
    -12.967  0.0000E+00  0.6000E+01
    -12.932  0.0000E+00  0.6000E+01
    -12.897  0.1090E-12  0.6000E+01
    -12.862  0.9686E-02  0.6000E+01
    -12.827  0.1312E+01  0.6046E+01
    -12.792  0.2243E+01  0.6125E+01
    -12.757  0.1209E-02  0.6125E+01
    -12.722  0.2171E+01  0.6201E+01
    -12.687  0.3794E+01  0.6334E+01
    -12.652  0.1417E+01  0.6384E+01
    -12.617  0.4554E+01  0.6543E+01
    -12.582  0.2321E+01  0.6625E+01
    -12.547  0.2454E+01  0.6711E+01
    -12.512  0.2303E+01  0.6792E+01
    -12.477  0.2664E-02  0.6792E+01
    -12.441  0.3662E+01  0.6920E+01
    -12.406  0.3466E+01  0.7042E+01
    -12.371  0.6383E+00  0.7064E+01
    -12.336  0.4532E+01  0.7223E+01
    -12.301  0.1066E+02  0.7597E+01
    -12.266  0.3978E+01  0.7736E+01
    -12.231  0.5677E-04  0.7736E+01
    -12.196  0.1779E+01  0.7798E+01
    -12.161  0.5978E+00  0.7819E+01
    -12.126  0.2167E-07  0.7819E+01
    -12.091  0.2353E-01  0.7820E+01
    -12.056  0.2343E+01  0.7902E+01
    -12.021  0.1804E+01  0.7966E+01
    -11.986  0.5829E+00  0.7986E+01
    -11.951  0.8724E-02  0.7986E+01
    -11.916  0.2541E+01  0.8076E+01
    -11.880  0.4578E+01  0.8236E+01
    -11.845  0.5218E-02  0.8236E+01
    -11.810  0.4519E+01  0.8395E+01
    -11.775  0.2320E+00  0.8403E+01
    -11.740  0.2188E-02  0.8403E+01
    -11.705  0.2297E+01  0.8483E+01
    -11.670  0.7755E-01  0.8486E+01
    -11.635  0.0000E+00  0.8486E+01
    -11.600  0.8814E-13  0.8486E+01
    -11.565  0.1387E-01  0.8487E+01
    -11.530  0.2350E+01  0.8569E+01
    -11.495  0.1576E+01  0.8624E+01
    -11.460  0.3243E-01  0.8625E+01
    -11.425  0.9219E+01  0.8949E+01
    -11.390  0.1038E+01  0.8985E+01
    -11.355  0.1617E+01  0.9042E+01
    -11.320  0.8481E-05  0.9042E+01
    -11.284  0.1193E-10  0.9042E+01
    -11.249  0.1242E+00  0.9046E+01
    -11.214  0.5015E+01  0.9222E+01
    -11.179  0.1027E-01  0.9222E+01
    -11.144  0.8550E-06  0.9222E+01
    -11.109  0.1268E+01  0.9267E+01
    -11.074  0.6649E+01  0.9500E+01
    -11.039  0.1590E+01  0.9556E+01
    -11.004  0.4081E+01  0.9699E+01
    -10.969  0.6728E+00  0.9722E+01
    -10.934  0.6044E-08  0.9722E+01
    -10.899  0.3474E+00  0.9734E+01
    -10.864  0.2029E+01  0.9806E+01
    -10.829  0.7795E+00  0.9833E+01
    -10.794  0.1597E+01  0.9889E+01
    -10.759  0.7612E-05  0.9889E+01
    -10.724  0.3004E+00  0.9899E+01
    -10.688  0.5724E+01  0.1010E+02
    -10.653  0.3483E+01  0.1022E+02
    -10.618  0.3356E-04  0.1022E+02
    -10.583  0.0000E+00  0.1022E+02
    -10.548  0.2494E-03  0.1022E+02
    -10.513  0.1098E+01  0.1026E+02
    -10.478  0.9060E-01  0.1026E+02
    -10.443  0.0000E+00  0.1026E+02
    -10.408  0.0000E+00  0.1026E+02
    -10.373  0.6363E-07  0.1026E+02
    -10.338  0.1299E+01  0.1031E+02
    -10.303  0.3455E+01  0.1043E+02
    -10.268  0.3160E-04  0.1043E+02
    -10.233  0.0000E+00  0.1043E+02
    -10.198  0.4260E-03  0.1043E+02
    -10.163  0.2181E+01  0.1051E+02
    -10.127  0.1958E+00  0.1051E+02
    -10.092  0.2599E-09  0.1051E+02
    -10.057  0.0000E+00  0.1051E+02
    -10.022  0.0000E+00  0.1051E+02
     -9.987  0.0000E+00  0.1051E+02
     -9.952  0.9237E-08  0.1051E+02
     -9.917  0.1215E+00  0.1052E+02
     -9.882  0.2747E+00  0.1053E+02
     -9.847  0.1679E-05  0.1053E+02
     -9.812  0.1319E-15  0.1053E+02
     -9.777  0.1317E-02  0.1053E+02
     -9.742  0.4612E+01  0.1069E+02
     -9.707  0.4891E+01  0.1086E+02
     -9.672  0.3021E-02  0.1086E+02
     -9.637  0.0000E+00  0.1086E+02
     -9.602  0.1823E-12  0.1086E+02
     -9.567  0.2176E-01  0.1086E+02
     -9.531  0.3127E+01  0.1097E+02
     -9.496  0.2003E-01  0.1097E+02
     -9.461  0.1223E+01  0.1102E+02
     -9.426  0.1154E+01  0.1106E+02
     -9.391  0.1923E-01  0.1106E+02
     -9.356  0.4685E+01  0.1122E+02
     -9.321  0.1582E+01  0.1128E+02
     -9.286  0.8449E+00  0.1131E+02
     -9.251  0.1175E-06  0.1131E+02
     -9.216  0.1319E-15  0.1131E+02
     -9.181  0.7919E-03  0.1131E+02
     -9.146  0.2234E+01  0.1138E+02
     -9.111  0.4586E+01  0.1154E+02
     -9.076  0.5054E+01  0.1172E+02
     -9.041  0.1520E+00  0.1173E+02
     -9.006  0.2233E+01  0.1181E+02
     -8.970  0.2935E+01  0.1191E+02
     -8.935  0.6550E+01  0.1214E+02
     -8.900  0.1701E+01  0.1220E+02
     -8.865  0.6988E+00  0.1222E+02
     -8.830  0.4159E-03  0.1222E+02
     -8.795  0.4211E+01  0.1237E+02
     -8.760  0.5419E+00  0.1239E+02
     -8.725  0.1373E+00  0.1239E+02
     -8.690  0.2240E+01  0.1247E+02
     -8.655  0.1142E+01  0.1251E+02
     -8.620  0.4649E-01  0.1251E+02
     -8.585  0.0000E+00  0.1251E+02
     -8.550  0.0000E+00  0.1251E+02
     -8.515  0.3261E-05  0.1251E+02
     -8.480  0.1444E+01  0.1256E+02
     -8.445  0.3188E+01  0.1268E+02
     -8.410  0.6122E+01  0.1289E+02
     -8.374  0.7485E+01  0.1315E+02
     -8.339  0.2807E+01  0.1325E+02
     -8.304  0.7056E+01  0.1350E+02
     -8.269  0.2577E+01  0.1359E+02
     -8.234  0.1406E+01  0.1364E+02
     -8.199  0.2715E-05  0.1364E+02
     -8.164  0.0000E+00  0.1364E+02
     -8.129  0.6609E-09  0.1364E+02
     -8.094  0.2537E+00  0.1365E+02
     -8.059  0.2123E+01  0.1372E+02
     -8.024  0.7783E-01  0.1372E+02
     -7.989  0.2297E+01  0.1381E+02
     -7.954  0.4229E+01  0.1395E+02
     -7.919  0.5139E+01  0.1413E+02
     -7.884  0.1423E+00  0.1414E+02
     -7.849  0.9249E+00  0.1417E+02
     -7.814  0.2871E+00  0.1418E+02
     -7.778  0.4689E+01  0.1435E+02
     -7.743  0.4119E-01  0.1435E+02
     -7.708  0.2439E-04  0.1435E+02
     -7.673  0.1816E+01  0.1441E+02
     -7.638  0.5929E+01  0.1462E+02
     -7.603  0.4139E+01  0.1476E+02
     -7.568  0.7110E+01  0.1501E+02
     -7.533  0.4774E+01  0.1518E+02
     -7.498  0.4170E-05  0.1518E+02
     -7.463  0.0000E+00  0.1518E+02
     -7.428  0.0000E+00  0.1518E+02
     -7.393  0.7632E-04  0.1518E+02
     -7.358  0.2862E+01  0.1528E+02
     -7.323  0.2309E+01  0.1536E+02
     -7.288  0.4688E+01  0.1553E+02
     -7.253  0.5982E+01  0.1574E+02
     -7.217  0.2969E+01  0.1584E+02
     -7.182  0.2838E+01  0.1594E+02
     -7.147  0.2517E+01  0.1603E+02
     -7.112  0.3810E+00  0.1604E+02
     -7.077  0.6879E-01  0.1604E+02
     -7.042  0.6009E+01  0.1625E+02
     -7.007  0.6344E+00  0.1628E+02
     -6.972  0.6594E+01  0.1651E+02
     -6.937  0.1776E+00  0.1651E+02
     -6.902  0.3533E-06  0.1651E+02
     -6.867  0.1031E+01  0.1655E+02
     -6.832  0.2766E+01  0.1665E+02
     -6.797  0.4028E+01  0.1679E+02
     -6.762  0.1683E+01  0.1685E+02
     -6.727  0.2456E+00  0.1686E+02
     -6.692  0.2377E+01  0.1694E+02
     -6.657  0.5087E+01  0.1712E+02
     -6.621  0.3514E+00  0.1713E+02
     -6.586  0.4656E+01  0.1729E+02
     -6.551  0.5323E+01  0.1748E+02
     -6.516  0.6245E+01  0.1770E+02
     -6.481  0.7690E+01  0.1797E+02
     -6.446  0.2097E+01  0.1804E+02
     -6.411  0.2319E+01  0.1812E+02
     -6.376  0.1689E+01  0.1818E+02
     -6.341  0.2874E+01  0.1828E+02
     -6.306  0.4997E+01  0.1846E+02
     -6.271  0.5473E+01  0.1865E+02
     -6.236  0.6896E+01  0.1889E+02
     -6.201  0.1892E+01  0.1896E+02
     -6.166  0.5214E+01  0.1914E+02
     -6.131  0.3389E+01  0.1926E+02
     -6.096  0.3281E+01  0.1937E+02
     -6.061  0.1396E-02  0.1938E+02
     -6.025  0.7744E+00  0.1940E+02
     -5.990  0.3529E-01  0.1940E+02
     -5.955  0.1543E+01  0.1946E+02
     -5.920  0.5762E+01  0.1966E+02
     -5.885  0.1787E+01  0.1972E+02
     -5.850  0.4078E+00  0.1974E+02
     -5.815  0.4346E+01  0.1989E+02
     -5.780  0.7845E-03  0.1989E+02
     -5.745  0.0000E+00  0.1989E+02
     -5.710  0.1366E-05  0.1989E+02
     -5.675  0.2698E+01  0.1998E+02
     -5.640  0.6808E+01  0.2022E+02
     -5.605  0.1014E+00  0.2023E+02
     -5.570  0.2275E+01  0.2031E+02
     -5.535  0.1452E-02  0.2031E+02
     -5.500  0.2210E-09  0.2031E+02
     -5.464  0.3064E+00  0.2032E+02
     -5.429  0.6679E+01  0.2055E+02
     -5.394  0.1453E+00  0.2056E+02
     -5.359  0.2068E-07  0.2056E+02
     -5.324  0.1019E+01  0.2059E+02
     -5.289  0.7196E+01  0.2084E+02
     -5.254  0.4413E+00  0.2086E+02
     -5.219  0.4568E+01  0.2102E+02
     -5.184  0.4960E+01  0.2119E+02
     -5.149  0.2019E+01  0.2126E+02
     -5.114  0.2803E+00  0.2127E+02
     -5.079  0.1492E+02  0.2180E+02
     -5.044  0.6915E+01  0.2204E+02
     -5.009  0.1109E+02  0.2243E+02
     -4.974  0.1308E+02  0.2289E+02
     -4.939  0.6013E+01  0.2310E+02
     -4.904  0.9892E+00  0.2313E+02
     -4.868  0.3580E+01  0.2326E+02
     -4.833  0.7779E+01  0.2353E+02
     -4.798  0.5961E+01  0.2374E+02
     -4.763  0.5916E+01  0.2395E+02
     -4.728  0.2309E+01  0.2403E+02
     -4.693  0.7750E-06  0.2403E+02
     -4.658  0.1600E-10  0.2403E+02
     -4.623  0.8441E-01  0.2403E+02
     -4.588  0.2339E+01  0.2411E+02
     -4.553  0.4688E+01  0.2428E+02
     -4.518  0.1989E-01  0.2428E+02
     -4.483  0.3950E-01  0.2428E+02
     -4.448  0.1197E+02  0.2470E+02
     -4.413  0.2274E+01  0.2478E+02
     -4.378  0.2345E+01  0.2486E+02
     -4.343  0.2924E+01  0.2496E+02
     -4.307  0.1843E+01  0.2503E+02
     -4.272  0.4481E-01  0.2503E+02
     -4.237  0.2327E+01  0.2511E+02
     -4.202  0.4967E-02  0.2511E+02
     -4.167  0.2123E+01  0.2519E+02
     -4.132  0.2532E+00  0.2519E+02
     -4.097  0.2163E+01  0.2527E+02
     -4.062  0.5221E+01  0.2545E+02
     -4.027  0.5080E+01  0.2563E+02
     -3.992  0.6525E+01  0.2586E+02
     -3.957  0.2034E+01  0.2593E+02
     -3.922  0.2745E+01  0.2603E+02
     -3.887  0.1489E+00  0.2603E+02
     -3.852  0.1127E+02  0.2643E+02
     -3.817  0.4690E+00  0.2644E+02
     -3.782  0.3295E-02  0.2644E+02
     -3.747  0.4564E+01  0.2660E+02
     -3.711  0.1861E+00  0.2661E+02
     -3.676  0.8578E+00  0.2664E+02
     -3.641  0.2822E+01  0.2674E+02
     -3.606  0.1390E+02  0.2723E+02
     -3.571  0.4231E+01  0.2738E+02
     -3.536  0.7760E+01  0.2765E+02
     -3.501  0.1932E+00  0.2765E+02
     -3.466  0.6966E+01  0.2790E+02
     -3.431  0.2571E+00  0.2791E+02
     -3.396  0.3250E+01  0.2802E+02
     -3.361  0.6064E+01  0.2823E+02
     -3.326  0.6000E+01  0.2844E+02
     -3.291  0.3986E+01  0.2858E+02
     -3.256  0.5412E+01  0.2877E+02
     -3.221  0.8779E+01  0.2908E+02
     -3.186  0.8576E+00  0.2911E+02
     -3.151  0.2680E+01  0.2921E+02
     -3.115  0.4594E+00  0.2922E+02
     -3.080  0.6873E-06  0.2922E+02
     -3.045  0.5323E-04  0.2922E+02
     -3.010  0.2272E+01  0.2930E+02
     -2.975  0.2481E+01  0.2939E+02
     -2.940  0.3561E+00  0.2940E+02
     -2.905  0.4397E+01  0.2956E+02
     -2.870  0.1809E+01  0.2962E+02
     -2.835  0.5692E+00  0.2964E+02
     -2.800  0.1735E-07  0.2964E+02
     -2.765  0.1171E-06  0.2964E+02
     -2.730  0.8444E+00  0.2967E+02
     -2.695  0.1538E+01  0.2972E+02
     -2.660  0.2333E+01  0.2980E+02
     -2.625  0.7317E-01  0.2981E+02
     -2.590  0.2335E+01  0.2989E+02
     -2.554  0.1461E-01  0.2989E+02
     -2.519  0.2340E+01  0.2997E+02
     -2.484  0.3326E-01  0.2997E+02
     -2.449  0.7818E+00  0.3000E+02
     -2.414  0.5664E-02  0.3000E+02
     -2.379  0.0000E+00  0.3000E+02
     -2.344  0.0000E+00  0.3000E+02
     -2.309  0.0000E+00  0.3000E+02
     -2.274  0.0000E+00  0.3000E+02
     -2.239  0.0000E+00  0.3000E+02
     -2.204  0.0000E+00  0.3000E+02
     -2.169  0.0000E+00  0.3000E+02
     -2.134  0.0000E+00  0.3000E+02
     -2.099  0.0000E+00  0.3000E+02
     -2.064  0.0000E+00  0.3000E+02
     -2.029  0.0000E+00  0.3000E+02
     -1.994  0.0000E+00  0.3000E+02
     -1.958  0.0000E+00  0.3000E+02
     -1.923  0.0000E+00  0.3000E+02
     -1.888  0.0000E+00  0.3000E+02
     -1.853  0.9991E-05  0.3000E+02
     -1.818  0.8838E+00  0.3003E+02
     -1.783  0.1702E+01  0.3009E+02
     -1.748  0.9796E+00  0.3012E+02
     -1.713  0.2638E-06  0.3013E+02
     -1.678  0.2384E+00  0.3013E+02
     -1.643  0.2138E+01  0.3021E+02
     -1.608  0.1219E-01  0.3021E+02
     -1.573  0.4667E+01  0.3037E+02
     -1.538  0.3932E+01  0.3051E+02
     -1.503  0.8968E+00  0.3054E+02
     -1.468  0.1692E+01  0.3060E+02
     -1.433  0.5431E+01  0.3079E+02
     -1.397  0.8050E-02  0.3079E+02
     -1.362  0.2639E-15  0.3079E+02
     -1.327  0.1716E-02  0.3079E+02
     -1.292  0.4759E+01  0.3096E+02
     -1.257  0.2370E+01  0.3104E+02
     -1.222  0.3455E-02  0.3104E+02
     -1.187  0.5336E+01  0.3123E+02
     -1.152  0.1797E+01  0.3129E+02
     -1.117  0.4771E+01  0.3146E+02
     -1.082  0.2874E+01  0.3156E+02
     -1.047  0.1857E+01  0.3162E+02
     -1.012  0.3413E-04  0.3162E+02
     -0.977  0.0000E+00  0.3162E+02
     -0.942  0.0000E+00  0.3162E+02
     -0.907  0.1040E-07  0.3163E+02
     -0.872  0.5070E+00  0.3164E+02
     -0.837  0.3005E+01  0.3175E+02
     -0.801  0.1242E+01  0.3179E+02
     -0.766  0.1127E-05  0.3179E+02
     -0.731  0.0000E+00  0.3179E+02
     -0.696  0.0000E+00  0.3179E+02
     -0.661  0.5053E-05  0.3179E+02
     -0.626  0.3099E+00  0.3180E+02
     -0.591  0.4670E+01  0.3197E+02
     -0.556  0.1697E+00  0.3197E+02
     -0.521  0.0000E+00  0.3197E+02
     -0.486  0.0000E+00  0.3197E+02
     -0.451  0.0000E+00  0.3197E+02
     -0.416  0.0000E+00  0.3197E+02
     -0.381  0.0000E+00  0.3197E+02
     -0.346  0.0000E+00  0.3197E+02
     -0.311  0.0000E+00  0.3197E+02
     -0.276  0.0000E+00  0.3197E+02
     -0.241  0.0000E+00  0.3197E+02
     -0.205  0.0000E+00  0.3197E+02
     -0.170  0.0000E+00  0.3197E+02
     -0.135  0.0000E+00  0.3197E+02
     -0.100  0.1100E-14  0.3197E+02
     -0.065  0.1944E-02  0.3197E+02
     -0.030  0.1540E+01  0.3203E+02
      0.005  0.4255E-01  0.3203E+02
      0.040  0.0000E+00  0.3203E+02
      0.075  0.0000E+00  0.3203E+02
      0.110  0.0000E+00  0.3203E+02
      0.145  0.0000E+00  0.3203E+02
      0.180  0.0000E+00  0.3203E+02
      0.215  0.0000E+00  0.3203E+02
      0.250  0.0000E+00  0.3203E+02
      0.285  0.0000E+00  0.3203E+02
      0.320  0.0000E+00  0.3203E+02
      0.356  0.0000E+00  0.3203E+02
      0.391  0.0000E+00  0.3203E+02
      0.426  0.0000E+00  0.3203E+02
      0.461  0.1554E-12  0.3203E+02
      0.496  0.2645E-01  0.3203E+02
      0.531  0.4690E+01  0.3219E+02
      0.566  0.3693E-01  0.3219E+02
      0.601  0.0000E+00  0.3219E+02
      0.636  0.0000E+00  0.3219E+02
      0.671  0.0000E+00  0.3219E+02
      0.706  0.5244E-08  0.3219E+02
      0.741  0.4314E+00  0.3221E+02
      0.776  0.1945E+01  0.3228E+02
      0.811  0.6124E-04  0.3228E+02
      0.846  0.0000E+00  0.3228E+02
      0.881  0.0000E+00  0.3228E+02
      0.916  0.0000E+00  0.3228E+02
      0.952  0.0000E+00  0.3228E+02
      0.987  0.0000E+00  0.3228E+02
      1.022  0.3456E-03  0.3228E+02
      1.057  0.6801E+01  0.3252E+02
      1.092  0.5156E+01  0.3270E+02
      1.127  0.1363E+01  0.3274E+02
      1.162  0.3112E+01  0.3285E+02
      1.197  0.2709E+01  0.3295E+02
      1.232  0.6654E+00  0.3297E+02
      1.267  0.3999E+01  0.3311E+02
      1.302  0.7570E+00  0.3314E+02
      1.337  0.2305E+01  0.3322E+02
      1.372  0.8854E-01  0.3322E+02
      1.407  0.5337E+01  0.3341E+02
      1.442  0.1775E+01  0.3347E+02
      1.477  0.1560E-04  0.3347E+02
      1.512  0.9474E-03  0.3347E+02
      1.548  0.4989E+01  0.3365E+02
      1.583  0.2141E+01  0.3372E+02
      1.618  0.5601E-01  0.3372E+02
      1.653  0.4681E+01  0.3389E+02
      1.688  0.1678E-01  0.3389E+02
      1.723  0.0000E+00  0.3389E+02
      1.758  0.1547E-04  0.3389E+02
      1.793  0.1965E+01  0.3396E+02
      1.828  0.8076E+00  0.3399E+02
      1.863  0.4895E-03  0.3399E+02
      1.898  0.2214E+01  0.3406E+02
      1.933  0.5202E+01  0.3425E+02
      1.968  0.1737E+01  0.3431E+02
      2.003  0.3126E+01  0.3442E+02
      2.038  0.6956E+00  0.3444E+02
      2.073  0.1268E+01  0.3449E+02
      2.109  0.1609E+01  0.3454E+02
      2.144  0.2336E+01  0.3462E+02
      2.179  0.1988E+01  0.3469E+02
      2.214  0.4232E+00  0.3471E+02
      2.249  0.1725E+01  0.3477E+02
      2.284  0.3392E+01  0.3489E+02
      2.319  0.2013E+01  0.3496E+02
      2.354  0.1443E-04  0.3496E+02
      2.389  0.1704E+01  0.3502E+02
      2.424  0.2185E+01  0.3509E+02
      2.459  0.5617E+01  0.3529E+02
      2.494  0.1180E-02  0.3529E+02
      2.529  0.1995E+00  0.3530E+02
      2.564  0.2836E+01  0.3540E+02
      2.599  0.6040E+01  0.3561E+02
      2.634  0.4328E+00  0.3562E+02
      2.669  0.7419E-09  0.3562E+02
      2.705  0.6568E-07  0.3563E+02
      2.740  0.7542E+00  0.3565E+02
      2.775  0.1623E+01  0.3571E+02
      2.810  0.4049E+01  0.3585E+02
      2.845  0.3977E+01  0.3599E+02
      2.880  0.3895E+01  0.3613E+02
      2.915  0.5801E+01  0.3633E+02
      2.950  0.1048E+00  0.3633E+02
      2.985  0.1414E+00  0.3634E+02
      3.020  0.4607E+01  0.3650E+02
      3.055  0.5025E-02  0.3650E+02
      3.090  0.3364E-05  0.3650E+02
      3.125  0.2633E+01  0.3659E+02
      3.160  0.2121E+01  0.3667E+02
      3.195  0.4485E+00  0.3668E+02
      3.230  0.2726E+01  0.3678E+02
      3.266  0.1579E+01  0.3683E+02
      3.301  0.8600E+00  0.3686E+02
      3.336  0.9206E+01  0.3719E+02
      3.371  0.6492E+01  0.3741E+02
      3.406  0.8063E-01  0.3742E+02
      3.441  0.0000E+00  0.3742E+02
      3.476  0.2287E-04  0.3742E+02
      3.511  0.3341E+01  0.3753E+02
      3.546  0.1412E+01  0.3758E+02
      3.581  0.9497E-07  0.3758E+02
      3.616  0.1743E-09  0.3758E+02
      3.651  0.2849E+00  0.3759E+02
      3.686  0.4467E+01  0.3775E+02
      3.721  0.1585E-02  0.3775E+02
      3.756  0.6824E+00  0.3777E+02
      3.791  0.3139E+01  0.3788E+02
      3.826  0.7880E+01  0.3816E+02
      3.862  0.1832E+00  0.3817E+02
      3.897  0.5417E-01  0.3817E+02
      3.932  0.4645E+01  0.3833E+02
      3.967  0.4739E+01  0.3850E+02
      4.002  0.6913E-01  0.3850E+02
      4.037  0.1689E-02  0.3850E+02
      4.072  0.2284E+01  0.3858E+02
      4.107  0.6065E+00  0.3860E+02
      4.142  0.4238E+01  0.3875E+02
      4.177  0.4685E-03  0.3875E+02
      4.212  0.1296E-06  0.3875E+02
      4.247  0.1504E+01  0.3880E+02
      4.282  0.3550E+01  0.3893E+02
      4.317  0.2076E+01  0.3900E+02
      4.352  0.1907E+00  0.3901E+02
      4.387  0.1975E+01  0.3908E+02
      4.422  0.4402E+01  0.3923E+02
      4.458  0.2941E+01  0.3933E+02
      4.493  0.2244E+01  0.3941E+02
      4.528  0.4647E+00  0.3943E+02
      4.563  0.6769E+00  0.3945E+02
      4.598  0.6516E+01  0.3968E+02
      4.633  0.1185E-02  0.3968E+02
      4.668  0.2325E+00  0.3969E+02
      4.703  0.2235E+01  0.3977E+02
      4.738  0.4429E+01  0.3992E+02
      4.773  0.4960E+01  0.4010E+02
      4.808  0.4580E+01  0.4026E+02
      4.843  0.4946E+01  0.4043E+02
      4.878  0.6467E+00  0.4045E+02
      4.913  0.4115E+01  0.4060E+02
      4.948  0.2790E-03  0.4060E+02
      4.983  0.2284E+00  0.4061E+02
      5.019  0.2528E+01  0.4069E+02
      5.054  0.4373E+01  0.4085E+02
      5.089  0.9641E-03  0.4085E+02
      5.124  0.1982E+01  0.4092E+02
      5.159  0.5262E+01  0.4110E+02
      5.194  0.7871E+01  0.4138E+02
      5.229  0.6276E+01  0.4160E+02
      5.264  0.6542E-03  0.4160E+02
      5.299  0.2012E-03  0.4160E+02
      5.334  0.4030E+01  0.4174E+02
      5.369  0.1502E+01  0.4179E+02
      5.404  0.1598E+01  0.4185E+02
      5.439  0.7623E-05  0.4185E+02
      5.474  0.1159E-02  0.4185E+02
      5.509  0.6920E+01  0.4209E+02
      5.544  0.2586E+01  0.4218E+02
      5.579  0.1921E+01  0.4225E+02
      5.615  0.4741E+01  0.4241E+02
      5.650  0.8485E+01  0.4271E+02
      5.685  0.7083E+00  0.4274E+02
      5.720  0.1043E+01  0.4277E+02
      5.755  0.2119E+01  0.4285E+02
      5.790  0.4536E+01  0.4301E+02
      5.825  0.5228E+00  0.4302E+02
      5.860  0.8876E+00  0.4306E+02
      5.895  0.4491E+01  0.4321E+02
      5.930  0.6426E+01  0.4344E+02
      5.965  0.2152E+01  0.4351E+02
      6.000  0.6341E+01  0.4374E+02
      6.035  0.3499E+01  0.4386E+02
      6.070  0.7707E+00  0.4389E+02
      6.105  0.4054E+01  0.4403E+02
      6.140  0.6323E+01  0.4425E+02
      6.175  0.3436E+01  0.4437E+02
      6.211  0.2115E+01  0.4444E+02
      6.246  0.2310E-03  0.4444E+02
      6.281  0.5699E+01  0.4464E+02
      6.316  0.4232E+01  0.4479E+02
      6.351  0.1684E+01  0.4485E+02
      6.386  0.6901E+01  0.4509E+02
      6.421  0.1290E+01  0.4514E+02
      6.456  0.2091E-02  0.4514E+02
      6.491  0.3759E+01  0.4527E+02
      6.526  0.1153E+02  0.4567E+02
      6.561  0.1429E+02  0.4618E+02