<?xml version="1.0" encoding="ISO-8859-1"?>
<modeling>
 <generator>
  <i name="program" type="string">vasp </i>
  <i name="version" type="string">5.4.4.18Apr17-6-g9f103f2a35  </i>
  <i name="subversion" type="string">(build Mar 30 2023 15:39:25) complex            parallel </i>
  <i name="platform" type="string">LinuxIFC </i>
  <i name="date" type="string">2023 06 28 </i>
  <i name="time" type="string">04:04:30 </i>
 </generator>
 <incar>
  <i type="string" name="SYSTEM"> BC3-optical</i>
  <i type="int" name="ISTART">     1</i>
  <i type="string" name="PREC">accurate</i>
  <i type="string" name="ALGO"> Exact</i>
  <i type="int" name="ICHARG">     2</i>
  <i name="EDIFF">      0.00000001</i>
  <i name="ENCUT">    450.00000000</i>
  <i type="int" name="NBANDS">   224</i>
  <i type="int" name="NEDOS">  2400</i>
  <i type="logical" name="LREAL"> F  </i>
  <i type="int" name="ISMEAR">     0</i>
  <i name="SIGMA">      0.01000000</i>
  <i type="int" name="NWRITE">     3</i>
  <i type="logical" name="LOPTICS"> T  </i>
  <v type="int" name="KPOINT_BSE">    -1     0     0     0</v>
  <i name="CSHIFT">      0.10000000</i>
  <i name="CSHIFT">      0.10000000</i>
 </incar>
 <structure name="primitive_cell" >
  <crystal>
   <varray name="basis" >
    <v>       4.48084843       2.58701885       0.00000000 </v>
    <v>      -4.48084843       2.58701885       0.00000000 </v>
    <v>       0.00000000       0.00000000       8.52022140 </v>
   </varray>
   <i name="volume">    197.53348383 </i>
   <varray name="rec_basis" >
    <v>       0.11158601       0.19327265       0.00000000 </v>
    <v>      -0.11158601       0.19327265       0.00000000 </v>
    <v>       0.00000000       0.00000000       0.11736784 </v>
   </varray>
  </crystal>
  <varray name="positions" >
   <v>       0.33333300      -0.33333400       0.25000000 </v>
   <v>       0.15869124       0.31738348       0.25000000 </v>
   <v>      -0.31738448      -0.15869224       0.25000000 </v>
   <v>       0.15869124      -0.15869224       0.25000000 </v>
   <v>      -0.15869224       0.15869124       0.25000000 </v>
   <v>       0.31738348       0.15869124       0.25000000 </v>
   <v>      -0.15869224      -0.31738448       0.25000000 </v>
   <v>      -0.33333400       0.33333300       0.25000000 </v>
  </varray>
 </structure>
 <varray name="primitive_index" >
  <v type="int" >        1 </v>
  <v type="int" >        3 </v>
  <v type="int" >        7 </v>
  <v type="int" >        5 </v>
  <v type="int" >        6 </v>
  <v type="int" >        4 </v>
  <v type="int" >        8 </v>
  <v type="int" >        2 </v>
 </varray>
 <kpoints>
  <generation param="Gamma">
   <v type="int" name="divisions">      12       12        1 </v>
   <v name="usershift">      0.00000000       0.00000000       0.00000000 </v>
   <v name="genvec1">      0.08333333       0.00000000       0.00000000 </v>
   <v name="genvec2">      0.00000000       0.08333333       0.00000000 </v>
   <v name="genvec3">      0.00000000       0.00000000       1.00000000 </v>
   <v name="shift">      0.00000000       0.00000000       0.00000000 </v>
  </generation>
  <varray name="kpointlist" >
   <v>       0.00000000       0.00000000       0.00000000 </v>
   <v>       0.08333333       0.00000000       0.00000000 </v>
   <v>       0.16666667       0.00000000       0.00000000 </v>
   <v>       0.25000000      -0.00000000       0.00000000 </v>
   <v>       0.33333333      -0.00000000       0.00000000 </v>
   <v>       0.41666667       0.00000000       0.00000000 </v>
   <v>       0.50000000      -0.00000000       0.00000000 </v>
   <v>       0.08333333       0.08333333       0.00000000 </v>
   <v>       0.16666667       0.08333333       0.00000000 </v>
   <v>       0.25000000       0.08333333       0.00000000 </v>
   <v>       0.33333333       0.08333333       0.00000000 </v>
   <v>       0.41666667       0.08333333       0.00000000 </v>
   <v>       0.16666667       0.16666667       0.00000000 </v>
   <v>       0.25000000       0.16666667       0.00000000 </v>
   <v>       0.33333333       0.16666667       0.00000000 </v>
   <v>       0.41666667       0.16666667       0.00000000 </v>
   <v>       0.25000000       0.25000000       0.00000000 </v>
   <v>       0.33333333       0.25000000       0.00000000 </v>
   <v>       0.33333333       0.33333333       0.00000000 </v>
  </varray>
  <varray name="weights" >
   <v>       0.00694444 </v>
   <v>       0.04166667 </v>
   <v>       0.04166667 </v>
   <v>       0.04166667 </v>
   <v>       0.04166667 </v>
   <v>       0.04166667 </v>
   <v>       0.02083333 </v>
   <v>       0.04166667 </v>
   <v>       0.08333333 </v>
   <v>       0.08333333 </v>
   <v>       0.08333333 </v>
   <v>       0.08333333 </v>
   <v>       0.04166667 </v>
   <v>       0.08333333 </v>
   <v>       0.08333333 </v>
   <v>       0.04166667 </v>
   <v>       0.04166667 </v>
   <v>       0.08333333 </v>
   <v>       0.01388889 </v>
  </varray>
 </kpoints>
 <parameters>
  <separator name="general" >
   <i type="string" name="SYSTEM">BC3-optical</i>
   <i type="logical" name="LCOMPAT"> F  </i>
  </separator>
  <separator name="electronic" >
   <i type="string" name="PREC">accura</i>
   <i name="ENMAX">    450.00000000</i>
   <i name="ENAUG">    644.87300000</i>
   <i name="EDIFF">      0.00000001</i>
   <i type="int" name="IALGO">    90</i>
   <i type="int" name="IWAVPR">    10</i>
   <i type="int" name="NBANDS">   228</i>
   <i name="NELECT">     30.00000000</i>
   <i type="int" name="TURBO">     0</i>
   <i type="int" name="IRESTART">     0</i>
   <i type="int" name="NREBOOT">     0</i>
   <i type="int" name="NMIN">     0</i>
   <i name="EREF">      0.00000000</i>
   <separator name="electronic smearing" >
    <i type="int" name="ISMEAR">     0</i>
    <i name="SIGMA">      0.01000000</i>
    <i name="KSPACING">      0.50000000</i>
    <i type="logical" name="KGAMMA"> T  </i>
   </separator>
   <separator name="electronic projectors" >
    <i type="logical" name="LREAL"> F  </i>
    <v name="ROPT">      0.00000000      0.00000000</v>
    <i type="int" name="LMAXPAW">  -100</i>
    <i type="int" name="LMAXMIX">     2</i>
    <i type="logical" name="NLSPLINE"> F  </i>
   </separator>
   <separator name="electronic startup" >
    <i type="int" name="ISTART">     1</i>
    <i type="int" name="ICHARG">     2</i>
    <i type="int" name="INIWAV">     1</i>
   </separator>
   <separator name="electronic spin" >
    <i type="int" name="ISPIN">     1</i>
    <i type="logical" name="LNONCOLLINEAR"> F  </i>
    <v name="MAGMOM">      1.00000000      1.00000000      1.00000000      1.00000000      1.00000000      1.00000000      1.00000000      1.00000000</v>
    <i name="NUPDOWN">     -1.00000000</i>
    <i type="logical" name="LSORBIT"> F  </i>
    <v name="SAXIS">      0.00000000      0.00000000      1.00000000</v>
    <i type="logical" name="LSPIRAL"> F  </i>
    <v name="QSPIRAL">      0.00000000      0.00000000      0.00000000</v>
    <i type="logical" name="LZEROZ"> F  </i>
   </separator>
   <separator name="electronic exchange-correlation" >
    <i type="logical" name="LASPH"> F  </i>
    <i type="logical" name="LMETAGGA"> F  </i>
   </separator>
   <separator name="electronic convergence" >
    <i type="int" name="NELM">    60</i>
    <i type="int" name="NELMDL">     0</i>
    <i type="int" name="NELMIN">     2</i>
    <i name="ENINI">    450.00000000</i>
    <separator name="electronic convergence detail" >
     <i type="logical" name="LDIAG"> T  </i>
     <i type="logical" name="LSUBROT"> F  </i>
     <i name="WEIMIN">      0.00000000</i>
     <i name="EBREAK">      0.00000000</i>
     <i name="DEPER">      0.30000000</i>
     <i type="int" name="NRMM">     4</i>
     <i name="TIME">      0.40000000</i>
    </separator>
   </separator>
   <separator name="electronic mixer" >
    <i name="AMIX">      0.40000000</i>
    <i name="BMIX">      1.00000000</i>
    <i name="AMIN">      0.10000000</i>
    <i name="AMIX_MAG">      1.60000000</i>
    <i name="BMIX_MAG">      1.00000000</i>
    <separator name="electronic mixer details" >
     <i type="int" name="IMIX">     4</i>
     <i type="logical" name="MIXFIRST"> F  </i>
     <i type="int" name="MAXMIX">   -45</i>
     <i name="WC">    100.00000000</i>
     <i type="int" name="INIMIX">     1</i>
     <i type="int" name="MIXPRE">     1</i>
     <i type="int" name="MREMOVE">     5</i>
    </separator>
   </separator>
   <separator name="electronic dipolcorrection" >
    <i type="logical" name="LDIPOL"> F  </i>
    <i type="logical" name="LMONO"> F  </i>
    <i type="int" name="IDIPOL">     0</i>
    <i name="EPSILON">      1.00000000</i>
    <v name="DIPOL">   -100.00000000   -100.00000000   -100.00000000</v>
    <i name="EFIELD">      0.00000000</i>
   </separator>
  </separator>
  <separator name="grids" >
   <i type="int" name="NGX">    36</i>
   <i type="int" name="NGY">    36</i>
   <i type="int" name="NGZ">    60</i>
   <i type="int" name="NGXF">    72</i>
   <i type="int" name="NGYF">    72</i>
   <i type="int" name="NGZF">   120</i>
   <i type="logical" name="ADDGRID"> F  </i>
  </separator>
  <separator name="ionic" >
   <i type="int" name="NSW">     0</i>
   <i type="int" name="IBRION">    -1</i>
   <i type="int" name="MDALGO">     0</i>
   <i type="int" name="ISIF">     2</i>
   <i name="PSTRESS">      0.00000000</i>
   <i name="EDIFFG">      0.00000010</i>
   <i type="int" name="NFREE">     0</i>
   <i name="POTIM">      0.50000000</i>
   <i name="SMASS">     -3.00000000</i>
   <i name="SCALEE">      1.00000000</i>
  </separator>
  <separator name="ionic md" >
   <i name="TEBEG">      0.00010000</i>
   <i name="TEEND">      0.00010000</i>
   <i type="int" name="NBLOCK">     1</i>
   <i type="int" name="KBLOCK">     1</i>
   <i type="int" name="NPACO">   256</i>
   <i name="APACO">     16.00000000</i>
  </separator>
  <separator name="symmetry" >
   <i type="int" name="ISYM">     2</i>
   <i name="SYMPREC">      0.00001000</i>
  </separator>
  <separator name="dos" >
   <i type="int" name="LORBIT">     0</i>
   <v name="RWIGS">     -1.00000000     -1.00000000</v>
   <i type="int" name="NEDOS">  2400</i>
   <i name="EMIN">     10.00000000</i>
   <i name="EMAX">    -10.00000000</i>
   <i name="EFERMI">      0.00000000</i>
  </separator>
  <separator name="writing" >
   <i type="int" name="NWRITE">     3</i>
   <i type="logical" name="LWAVE"> T  </i>
   <i type="logical" name="LDOWNSAMPLE"> F  </i>
   <i type="logical" name="LCHARG"> T  </i>
   <i type="logical" name="LPARD"> F  </i>
   <i type="logical" name="LVTOT"> F  </i>
   <i type="logical" name="LVHAR"> F  </i>
   <i type="logical" name="LELF"> F  </i>
   <i type="logical" name="LOPTICS"> T  </i>
   <v name="STM">      0.00000000      0.00000000      0.00000000      0.00000000      0.00000000      0.00000000      0.00000000</v>
  </separator>
  <separator name="performance" >
   <i type="int" name="NPAR">    12</i>
   <i type="int" name="NSIM">     4</i>
   <i type="int" name="NBLK">    -1</i>
   <i type="logical" name="LPLANE"> T  </i>
   <i type="logical" name="LSCALAPACK"> T  </i>
   <i type="logical" name="LSCAAWARE"> F  </i>
   <i type="logical" name="LSCALU"> F  </i>
   <i type="logical" name="LASYNC"> F  </i>
   <i type="logical" name="LORBITALREAL"> F  </i>
  </separator>
  <separator name="miscellaneous" >
   <i type="int" name="IDIOT">     3</i>
   <i type="int" name="ISPECIAL">     0</i>
   <i type="logical" name="LMUSIC"> F  </i>
   <v name="POMASS">     10.81100000     12.01100000</v>
   <v name="DARWINR">      0.00000000      0.00000000</v>
   <v name="DARWINV">      1.00000000      1.00000000</v>
   <i type="logical" name="LCORR"> T  </i>
  </separator>
  <i type="logical" name="GGA_COMPAT"> T  </i>
  <i type="logical" name="LBERRY"> F  </i>
  <i type="int" name="ICORELEVEL">     0</i>
  <i type="logical" name="LDAU"> F  </i>
  <i type="int" name="I_CONSTRAINED_M">     0</i>
  <separator name="electronic exchange-correlation" >
   <i type="string" name="GGA">--</i>
   <i type="int" name="VOSKOWN">     0</i>
   <i type="logical" name="LHFCALC"> F  </i>
   <i type="string" name="PRECFOCK"></i>
   <i type="logical" name="LSYMGRAD"> F  </i>
   <i type="logical" name="LHFONE"> F  </i>
   <i type="logical" name="LRHFCALC"> F  </i>
   <i type="logical" name="LTHOMAS"> F  </i>
   <i type="logical" name="LMODELHF"> F  </i>
   <i name="ENCUT4O">     -1.00000000</i>
   <i type="int" name="EXXOEP">     0</i>
   <i type="int" name="FOURORBIT">     0</i>
   <i name="AEXX">      0.00000000</i>
   <i name="HFALPHA">      0.00000000</i>
   <i name="MCALPHA">      0.00000000</i>
   <i name="ALDAX">      1.00000000</i>
   <i name="AGGAX">      1.00000000</i>
   <i name="ALDAC">      1.00000000</i>
   <i name="AGGAC">      1.00000000</i>
   <i type="int" name="NKREDX">     1</i>
   <i type="int" name="NKREDY">     1</i>
   <i type="int" name="NKREDZ">     1</i>
   <i type="logical" name="SHIFTRED"> F  </i>
   <i type="logical" name="ODDONLY"> F  </i>
   <i type="logical" name="EVENONLY"> F  </i>
   <i type="int" name="LMAXFOCK">     0</i>
   <i type="int" name="NMAXFOCKAE">     0</i>
   <i type="logical" name="LFOCKAEDFT"> F  </i>
   <i name="HFSCREEN">      0.00000000</i>
   <i name="HFSCREENC">      0.00000000</i>
   <i type="int" name="NBANDSGWLOW">     0</i>
  </separator>
  <separator name="vdW DFT" >
   <i type="logical" name="LUSE_VDW"> F  </i>
   <i name="Zab_VDW">     -0.84910000</i>
   <i name="PARAM1">      0.12340000</i>
   <i name="PARAM2">      1.00000000</i>
   <i name="PARAM3">      0.00000000</i>
  </separator>
  <separator name="model GW" >
   <i type="int" name="MODEL_GW">     0</i>
   <i name="MODEL_EPS0">     14.81501129</i>
   <i name="MODEL_ALPHA">      1.00000000</i>
  </separator>
  <separator name="linear response parameters" >
   <i type="logical" name="LEPSILON"> F  </i>
   <i type="logical" name="LRPA"> F  </i>
   <i type="logical" name="LNABLA"> F  </i>
   <i type="logical" name="LVEL"> F  </i>
   <i type="int" name="KINTER">     0</i>
   <i name="CSHIFT">      0.10000000</i>
   <i name="OMEGAMAX">     -1.00000000</i>
   <i name="DEG_THRESHOLD">      0.00200000</i>
   <i name="RTIME">     -0.10000000</i>
   <i name="WPLASMAI">      0.00000000</i>
   <v name="DFIELD">      0.00000000      0.00000000      0.00000000</v>
   <v name="WPLASMA">      0.00000000      0.00000000      0.00000000      0.00000000      0.00000000      0.00000000      0.00000000      0.00000000      0.00000000</v>
  </separator>
  <separator name="orbital magnetization" >
   <i type="logical" name="NUCIND"> F  </i>
   <v name="MAGPOS">      0.00000000      0.00000000      0.00000000</v>
   <i type="logical" name="LNICSALL"> T  </i>
   <i type="logical" name="ORBITALMAG"> F  </i>
   <i type="logical" name="LMAGBLOCH"> F  </i>
   <i type="logical" name="LCHIMAG"> F  </i>
   <i type="logical" name="LGAUGE"> T  </i>
   <i type="int" name="MAGATOM">     0</i>
   <v name="MAGDIPOL">      0.00000000      0.00000000      0.00000000</v>
   <v name="AVECCONST">      0.00000000      0.00000000      0.00000000</v>
  </separator>
  <separator name="response functions" >
   <i type="logical" name="LADDER"> F  </i>
   <i type="logical" name="LRPAFORCE"> F  </i>
   <i type="logical" name="LFXC"> F  </i>
   <i type="logical" name="LHARTREE"> T  </i>
   <i type="int" name="IBSE">     0</i>
   <v type="int" name="KPOINT">    -1     0     0     0</v>
   <i type="logical" name="LTCTE"> F  </i>
   <i type="logical" name="LTETE"> F  </i>
   <i type="logical" name="LTRIPLET"> F  </i>
   <i type="logical" name="LFXCEPS"> F  </i>
   <i type="logical" name="LFXHEG"> F  </i>
   <i type="int" name="NATURALO">     2</i>
   <i type="logical" name="L2ORDER"> F  </i>
   <i type="logical" name="LMP2LT"> F  </i>
   <i type="logical" name="LUSEW"> F  </i>
   <i name="ENCUTGW">     -2.00000000</i>
   <i name="ENCUTGWSOFT">     -2.00000000</i>
   <i name="ENCUTLF">     -1.00000000</i>
   <i type="int" name="LMAXMP2">    -1</i>
   <i name="SCISSOR">      0.00000000</i>
   <i type="int" name="NOMEGA">     0</i>
   <i type="int" name="NOMEGAR">     0</i>
   <i type="int" name="NBANDSGW">    -1</i>
   <i type="int" name="NBANDSO">    -1</i>
   <i type="int" name="NBANDSV">    -1</i>
   <i type="int" name="NELM">     1</i>
   <i type="int" name="NELMHF">     1</i>
   <i type="int" name="DIM">     3</i>
   <i type="int" name="ANTIRES">     0</i>
   <i name="OMEGAMAX">    -30.00000000</i>
   <i name="OMEGAMIN">    -30.00000000</i>
   <i name="OMEGATL">   -200.00000000</i>
   <i type="int" name="OMEGAGRID">   140</i>
   <i name="CSHIFT">      0.10000000</i>
   <i type="logical" name="SELFENERGY"> F  </i>
   <i type="logical" name="LSPECTRAL"> F  </i>
   <i type="logical" name="LSPECTRALGW"> F  </i>
   <i type="logical" name="LSINGLES"> F  </i>
   <i type="logical" name="LFERMIGW"> F  </i>
   <i type="logical" name="ODDONLYGW"> F  </i>
   <i type="logical" name="EVENONLYGW"> F  </i>
   <i type="int" name="NKREDLFX">     1</i>
   <i type="int" name="NKREDLFY">     1</i>
   <i type="int" name="NKREDLFZ">     1</i>
   <i type="int" name="MAXMEM">  2800</i>
   <i type="int" name="TELESCOPE">     0</i>
   <i type="int" name="TAUPAR">     1</i>
   <i type="int" name="OMEGAPAR">    -1</i>
   <i name="LAMBDA">      1.00000000</i>
  </separator>
  <separator name="External order field" >
   <i name="OFIELD_KAPPA">      0.00000000</i>
   <v name="OFIELD_K">      0.00000000      0.00000000      0.00000000</v>
   <i name="OFIELD_Q6_NEAR">      0.00000000</i>
   <i name="OFIELD_Q6_FAR">      0.00000000</i>
   <i name="OFIELD_A">      0.00000000</i>
  </separator>
 </parameters>
 <atominfo>
  <atoms>       8 </atoms>
  <types>       2 </types>
  <array name="atoms" >
   <dimension dim="1">ion</dimension>
   <field type="string">element</field>
   <field type="int">atomtype</field>
   <set>
    <rc><c>B </c><c>   1</c></rc>
    <rc><c>B </c><c>   1</c></rc>
    <rc><c>C </c><c>   2</c></rc>
    <rc><c>C </c><c>   2</c></rc>
    <rc><c>C </c><c>   2</c></rc>
    <rc><c>C </c><c>   2</c></rc>
    <rc><c>C </c><c>   2</c></rc>
    <rc><c>C </c><c>   2</c></rc>
   </set>
  </array>
  <array name="atomtypes" >
   <dimension dim="1">type</dimension>
   <field type="int">atomspertype</field>
   <field type="string">element</field>
   <field>mass</field>
   <field>valence</field>
   <field type="string">pseudopotential</field>
   <set>
    <rc><c>   2</c><c>B </c><c>     10.81100000</c><c>      3.00000000</c><c>  PAW_PBE B 06Sep2000                   </c></rc>
    <rc><c>   6</c><c>C </c><c>     12.01100000</c><c>      4.00000000</c><c>  PAW_PBE C 08Apr2002                   </c></rc>
   </set>
  </array>
 </atominfo>
 <structure name="initialpos" >
  <crystal>
   <varray name="basis" >
    <v>       4.48084843       2.58701885       0.00000000 </v>
    <v>      -4.48084843       2.58701885       0.00000000 </v>
    <v>       0.00000000       0.00000000       8.52022140 </v>
   </varray>
   <i name="volume">    197.53348383 </i>
   <varray name="rec_basis" >
    <v>       0.11158601       0.19327265       0.00000000 </v>
    <v>      -0.11158601       0.19327265       0.00000000 </v>
    <v>       0.00000000       0.00000000       0.11736784 </v>
   </varray>
  </crystal>
  <varray name="positions" >
   <v>       0.33333300       0.66666600       0.25000000 </v>
   <v>       0.66666600       0.33333300       0.25000000 </v>
   <v>       0.15869124       0.31738348       0.25000000 </v>
   <v>       0.31738348       0.15869124       0.25000000 </v>
   <v>       0.15869124       0.84130776       0.25000000 </v>
   <v>       0.84130776       0.15869124       0.25000000 </v>
   <v>       0.68261552       0.84130776       0.25000000 </v>
   <v>       0.84130776       0.68261552       0.25000000 </v>
  </varray>
 </structure>
 <calculation>
  <scstep>
   <time name="diag">  529.69  529.73</time>
   <time name="total">  529.79  529.83</time>
   <energy>
    <i name="alphaZ">     25.67921176 </i>
    <i name="ewald">    700.27145080 </i>
    <i name="hartreedc">  -1524.76618073 </i>
    <i name="XCdc">     91.14273073 </i>
    <i name="pawpsdc">    738.13200929 </i>
    <i name="pawaedc">   -739.83780425 </i>
    <i name="eentropy">     -0.00000000 </i>
    <i name="bandstr">   -389.26594481 </i>
    <i name="atom">   1025.20389953 </i>
    <i name="e_fr_energy">    -73.44062769 </i>
    <i name="e_wo_entrp">    -73.44062769 </i>
    <i name="e_0_energy">    -73.44062769 </i>
   </energy>
  </scstep>
  <scstep>
   <time name="diag">  553.26  553.30</time>
   <time name="total">  553.37  553.40</time>
   <energy>
    <i name="e_fr_energy">    -68.99901163 </i>
    <i name="e_wo_entrp">    -68.99901163 </i>
    <i name="e_0_energy">    -68.99901163 </i>
   </energy>
  </scstep>
  <scstep>
   <time name="diag">  541.26  541.29</time>
   <time name="total">  541.36  541.40</time>
   <energy>
    <i name="e_fr_energy">    -67.35394036 </i>
    <i name="e_wo_entrp">    -67.35394036 </i>
    <i name="e_0_energy">    -67.35394036 </i>
   </energy>
  </scstep>
  <scstep>
   <time name="diag">  549.31  549.34</time>
   <time name="total">  549.41  549.44</time>
   <energy>
    <i name="e_fr_energy">    -67.24757337 </i>
    <i name="e_wo_entrp">    -67.24757337 </i>
    <i name="e_0_energy">    -67.24757337 </i>
   </energy>
  </scstep>
  <scstep>
   <time name="diag">  567.40  567.44</time>
   <time name="total">  567.50  567.54</time>
   <energy>
    <i name="e_fr_energy">    -67.22049319 </i>
    <i name="e_wo_entrp">    -67.22049319 </i>
    <i name="e_0_energy">    -67.22049319 </i>
   </energy>
  </scstep>
  <scstep>
   <time name="diag">  557.78  557.81</time>
   <time name="total">  557.88  557.92</time>
   <energy>
    <i name="e_fr_energy">    -67.21907962 </i>
    <i name="e_wo_entrp">    -67.21907962 </i>
    <i name="e_0_energy">    -67.21907962 </i>
   </energy>
  </scstep>
  <scstep>
   <time name="diag">  558.91  558.95</time>
   <time name="total">  559.01  559.05</time>
   <energy>
    <i name="e_fr_energy">    -67.22295241 </i>
    <i name="e_wo_entrp">    -67.22295241 </i>
    <i name="e_0_energy">    -67.22295241 </i>
   </energy>
  </scstep>
  <scstep>
   <time name="diag">  550.62  550.66</time>
   <time name="total">  550.72  550.76</time>
   <energy>
    <i name="e_fr_energy">    -67.22702477 </i>
    <i name="e_wo_entrp">    -67.22702477 </i>
    <i name="e_0_energy">    -67.22702477 </i>
   </energy>
  </scstep>
  <scstep>
   <time name="diag">  546.48  546.51</time>
   <time name="total">  546.58  546.62</time>
   <energy>
    <i name="e_fr_energy">    -67.22770203 </i>
    <i name="e_wo_entrp">    -67.22770203 </i>
    <i name="e_0_energy">    -67.22770203 </i>
   </energy>
  </scstep>
  <scstep>
   <time name="diag">  547.49  547.53</time>
   <time name="total">  547.60  547.63</time>
   <energy>
    <i name="e_fr_energy">    -67.22771724 </i>
    <i name="e_wo_entrp">    -67.22771724 </i>
    <i name="e_0_energy">    -67.22771724 </i>
   </energy>
  </scstep>
  <scstep>
   <time name="diag">  547.51  547.55</time>
   <time name="total">  547.62  547.65</time>
   <energy>
    <i name="e_fr_energy">    -67.22773009 </i>
    <i name="e_wo_entrp">    -67.22773009 </i>
    <i name="e_0_energy">    -67.22773009 </i>
   </energy>
  </scstep>
  <scstep>
   <time name="diag">  534.81  534.84</time>
   <time name="total">  534.91  534.95</time>
   <energy>
    <i name="e_fr_energy">    -67.22773016 </i>
    <i name="e_wo_entrp">    -67.22773016 </i>
    <i name="e_0_energy">    -67.22773016 </i>
   </energy>
  </scstep>
  <scstep>
   <time name="diag">  545.33  545.37</time>
   <time name="total">  545.44  545.47</time>
   <energy>
    <i name="e_fr_energy">    -67.22773024 </i>
    <i name="e_wo_entrp">    -67.22773024 </i>
    <i name="e_0_energy">    -67.22773024 </i>
   </energy>
  </scstep>
  <scstep>
   <time name="diag">  545.44  545.48</time>
   <time name="total">  545.49  545.52</time>
   <energy>
    <i name="alphaZ">     25.67921176 </i>
    <i name="ewald">    700.27145080 </i>
    <i name="hartreedc">  -1646.75291199 </i>
    <i name="XCdc">     96.02426133 </i>
    <i name="pawpsdc">   2894.38113031 </i>
    <i name="pawaedc">  -2896.90834140 </i>
    <i name="eentropy">     -0.00000000 </i>
    <i name="bandstr">   -265.12643058 </i>
    <i name="atom">   1025.20389953 </i>
    <i name="e_fr_energy">    -67.22773025 </i>
    <i name="e_wo_entrp">    -67.22773025 </i>
    <i name="e_0_energy">    -67.22773025 </i>
   </energy>
  </scstep>
  <structure>
   <crystal>
    <varray name="basis" >
     <v>       4.48084843       2.58701885       0.00000000 </v>
     <v>      -4.48084843       2.58701885       0.00000000 </v>
     <v>       0.00000000       0.00000000       8.52022140 </v>
    </varray>
    <i name="volume">    197.53348383 </i>
    <varray name="rec_basis" >
     <v>       0.11158601       0.19327265       0.00000000 </v>
     <v>      -0.11158601       0.19327265       0.00000000 </v>
     <v>       0.00000000       0.00000000       0.11736784 </v>
    </varray>
   </crystal>
   <varray name="positions" >
    <v>       0.33333300       0.66666600       0.25000000 </v>
    <v>       0.66666600       0.33333300       0.25000000 </v>
    <v>       0.15869124       0.31738348       0.25000000 </v>
    <v>       0.31738348       0.15869124       0.25000000 </v>
    <v>       0.15869124       0.84130776       0.25000000 </v>
    <v>       0.84130776       0.15869124       0.25000000 </v>
    <v>       0.68261552       0.84130776       0.25000000 </v>
    <v>       0.84130776       0.68261552       0.25000000 </v>
   </varray>
  </structure>
  <varray name="forces" >
   <v>       0.00000000       0.00000000       0.00000000 </v>
   <v>      -0.00000000       0.00000000       0.00000000 </v>
   <v>      -0.00064694       0.00112054       0.00000000 </v>
   <v>       0.00064694       0.00112054       0.00000000 </v>
   <v>       0.00129389       0.00000000      -0.00000000 </v>
   <v>      -0.00129389       0.00000000      -0.00000000 </v>
   <v>      -0.00064694      -0.00112054      -0.00000000 </v>
   <v>       0.00064694      -0.00112054      -0.00000000 </v>
  </varray>
  <varray name="stress" >
   <v>      -0.53277496       0.00000000       0.00000000 </v>
   <v>       0.00000000      -0.53277488      -0.00000000 </v>
   <v>      -0.00000000       0.00000000      -1.27118547 </v>
  </varray>
  <energy>
   <i name="e_fr_energy">    -67.22773025 </i>
   <i name="e_wo_entrp">    -67.22773025 </i>
   <i name="e_0_energy">     -0.00000000 </i>
  </energy>
  <time name="totalsc"> 7680.55 7682.40</time>
  <eigenvalues>
   <array>
    <dimension dim="1">band</dimension>
    <dimension dim="2">kpoint</dimension>
    <dimension dim="3">spin</dimension>
    <field>eigene</field>
    <field>occ</field>
    <set>
     <set comment="spin 1">
      <set comment="kpoint 1">
       <r>  -18.5403    1.0000 </r>
       <r>  -14.6488    1.0000 </r>
       <r>  -14.6488    1.0000 </r>
       <r>  -12.2992    1.0000 </r>
       <r>  -12.2992    1.0000 </r>
       <r>  -11.2307    1.0000 </r>
       <r>   -9.9135    1.0000 </r>
       <r>   -7.3452    1.0000 </r>
       <r>   -7.1249    1.0000 </r>
       <r>   -4.9710    1.0000 </r>
       <r>   -4.9710    1.0000 </r>
       <r>   -3.1493    1.0000 </r>
       <r>   -3.1492    1.0000 </r>
       <r>   -2.4667    1.0000 </r>
       <r>   -2.4666    1.0000 </r>
       <r>   -0.6315    0.0000 </r>
       <r>    1.1011    0.0000 </r>
       <r>    1.1012    0.0000 </r>
       <r>    1.7906    0.0000 </r>
       <r>    1.9217    0.0000 </r>
       <r>    4.5207    0.0000 </r>
       <r>    5.9130    0.0000 </r>
       <r>    6.3151    0.0000 </r>
       <r>    6.3151    0.0000 </r>
       <r>    7.6726    0.0000 </r>
       <r>    8.0796    0.0000 </r>
       <r>    8.0797    0.0000 </r>
       <r>    8.9955    0.0000 </r>
       <r>    9.1419    0.0000 </r>
       <r>    9.1419    0.0000 </r>
       <r>    9.2976    0.0000 </r>
       <r>    9.2976    0.0000 </r>
       <r>    9.5160    0.0000 </r>
       <r>   10.3273    0.0000 </r>
       <r>   10.6836    0.0000 </r>
       <r>   10.6836    0.0000 </r>
       <r>   11.3540    0.0000 </r>
       <r>   11.3541    0.0000 </r>
       <r>   11.3922    0.0000 </r>
       <r>   11.3995    0.0000 </r>
       <r>   11.9841    0.0000 </r>
       <r>   13.0008    0.0000 </r>
       <r>   13.0008    0.0000 </r>
       <r>   13.0285    0.0000 </r>
       <r>   13.1319    0.0000 </r>
       <r>   13.1319    0.0000 </r>
       <r>   13.1825    0.0000 </r>
       <r>   13.5279    0.0000 </r>
       <r>   15.6135    0.0000 </r>
       <r>   15.8008    0.0000 </r>
       <r>   15.8008    0.0000 </r>
       <r>   16.4913    0.0000 </r>
       <r>   18.2923    0.0000 </r>
       <r>   18.2923    0.0000 </r>
       <r>   18.8601    0.0000 </r>
       <r>   18.8602    0.0000 </r>
       <r>   19.1473    0.0000 </r>
       <r>   19.2290    0.0000 </r>
       <r>   19.5333    0.0000 </r>
       <r>   19.5333    0.0000 </r>
       <r>   19.7217    0.0000 </r>
       <r>   19.9888    0.0000 </r>
       <r>   19.9888    0.0000 </r>
       <r>   20.0167    0.0000 </r>
       <r>   20.4546    0.0000 </r>
       <r>   21.0813    0.0000 </r>
       <r>   21.3027    0.0000 </r>
       <r>   21.3027    0.0000 </r>
       <r>   22.8793    0.0000 </r>
       <r>   23.2968    0.0000 </r>
       <r>   23.2968    0.0000 </r>
       <r>   23.4397    0.0000 </r>
       <r>   23.4397    0.0000 </r>
       <r>   23.5738    0.0000 </r>
       <r>   24.0936    0.0000 </r>
       <r>   24.0936    0.0000 </r>
       <r>   24.4126    0.0000 </r>
       <r>   24.4126    0.0000 </r>
       <r>   24.5372    0.0000 </r>
       <r>   24.6374    0.0000 </r>
       <r>   24.8763    0.0000 </r>
       <r>   25.2174    0.0000 </r>
       <r>   25.2174    0.0000 </r>
       <r>   26.6516    0.0000 </r>
       <r>   26.6516    0.0000 </r>
       <r>   26.7538    0.0000 </r>
       <r>   26.7538    0.0000 </r>
       <r>   26.8463    0.0000 </r>
       <r>   27.0341    0.0000 </r>
       <r>   27.1216    0.0000 </r>
       <r>   27.7308    0.0000 </r>
       <r>   27.7308    0.0000 </r>
       <r>   27.7998    0.0000 </r>
       <r>   27.7998    0.0000 </r>
       <r>   27.8401    0.0000 </r>
       <r>   28.2967    0.0000 </r>
       <r>   28.2967    0.0000 </r>
       <r>   28.7936    0.0000 </r>
       <r>   28.7936    0.0000 </r>
       <r>   28.9524    0.0000 </r>
       <r>   29.6489    0.0000 </r>
       <r>   30.2897    0.0000 </r>
       <r>   31.1920    0.0000 </r>
       <r>   31.1920    0.0000 </r>
       <r>   31.4239    0.0000 </r>
       <r>   31.4816    0.0000 </r>
       <r>   31.4816    0.0000 </r>
       <r>   31.8841    0.0000 </r>
       <r>   32.0865    0.0000 </r>
       <r>   32.0865    0.0000 </r>
       <r>   32.4044    0.0000 </r>
       <r>   32.6844    0.0000 </r>
       <r>   33.2983    0.0000 </r>
       <r>   33.2983    0.0000 </r>
       <r>   33.3127    0.0000 </r>
       <r>   33.3127    0.0000 </r>
       <r>   33.4606    0.0000 </r>
       <r>   34.0099    0.0000 </r>
       <r>   34.9816    0.0000 </r>
       <r>   34.9816    0.0000 </r>
       <r>   35.0442    0.0000 </r>
       <r>   35.0442    0.0000 </r>
       <r>   35.2268    0.0000 </r>
       <r>   35.2268    0.0000 </r>
       <r>   35.8334    0.0000 </r>
       <r>   35.8655    0.0000 </r>
       <r>   35.8655    0.0000 </r>
       <r>   36.0454    0.0000 </r>
       <r>   36.6964    0.0000 </r>
       <r>   36.6964    0.0000 </r>
       <r>   37.0546    0.0000 </r>
       <r>   37.3010    0.0000 </r>
       <r>   37.3124    0.0000 </r>
       <r>   37.3124    0.0000 </r>
       <r>   37.3416    0.0000 </r>
       <r>   37.3416    0.0000 </r>
       <r>   37.3663    0.0000 </r>
       <r>   37.4564    0.0000 </r>
       <r>   37.4564    0.0000 </r>
       <r>   37.6595    0.0000 </r>
       <r>   37.8898    0.0000 </r>
       <r>   37.9469    0.0000 </r>
       <r>   38.2105    0.0000 </r>
       <r>   38.2105    0.0000 </r>
       <r>   38.5577    0.0000 </r>
       <r>   38.8474    0.0000 </r>
       <r>   38.8474    0.0000 </r>
       <r>   40.8943    0.0000 </r>
       <r>   42.2089    0.0000 </r>
       <r>   42.2089    0.0000 </r>
       <r>   42.3915    0.0000 </r>
       <r>   43.7541    0.0000 </r>
       <r>   43.7541    0.0000 </r>
       <r>   43.9385    0.0000 </r>
       <r>   43.9385    0.0000 </r>
       <r>   44.3103    0.0000 </r>
       <r>   44.3103    0.0000 </r>
       <r>   44.3566    0.0000 </r>
       <r>   44.4926    0.0000 </r>
       <r>   44.4926    0.0000 </r>
       <r>   44.7977    0.0000 </r>
       <r>   45.3264    0.0000 </r>
       <r>   45.3264    0.0000 </r>
       <r>   45.6092    0.0000 </r>
       <r>   45.6092    0.0000 </r>
       <r>   46.0655    0.0000 </r>
       <r>   46.5987    0.0000 </r>
       <r>   46.8263    0.0000 </r>
       <r>   47.8871    0.0000 </r>
       <r>   47.9682    0.0000 </r>
       <r>   48.7262    0.0000 </r>
       <r>   48.7262    0.0000 </r>
       <r>   48.9385    0.0000 </r>
       <r>   49.0206    0.0000 </r>
       <r>   49.0207    0.0000 </r>
       <r>   49.1895    0.0000 </r>
       <r>   49.3789    0.0000 </r>
       <r>   49.5076    0.0000 </r>
       <r>   49.5077    0.0000 </r>
       <r>   49.7124    0.0000 </r>
       <r>   49.7124    0.0000 </r>
       <r>   50.1370    0.0000 </r>
       <r>   50.3457    0.0000 </r>
       <r>   50.3458    0.0000 </r>
       <r>   50.5718    0.0000 </r>
       <r>   50.6150    0.0000 </r>
       <r>   50.6150    0.0000 </r>
       <r>   51.5785    0.0000 </r>
       <r>   51.5785    0.0000 </r>
       <r>   51.7184    0.0000 </r>
       <r>   52.0203    0.0000 </r>
       <r>   52.4951    0.0000 </r>
       <r>   52.4951    0.0000 </r>
       <r>   52.5049    0.0000 </r>
       <r>   52.5049    0.0000 </r>
       <r>   52.8867    0.0000 </r>
       <r>   53.4918    0.0000 </r>
       <r>   53.4918    0.0000 </r>
       <r>   53.4926    0.0000 </r>
       <r>   53.8300    0.0000 </r>
       <r>   53.8300    0.0000 </r>
       <r>   53.9143    0.0000 </r>
       <r>   54.2916    0.0000 </r>
       <r>   54.3186    0.0000 </r>
       <r>   54.3186    0.0000 </r>
       <r>   54.4694    0.0000 </r>
       <r>   54.4695    0.0000 </r>
       <r>   54.6490    0.0000 </r>
       <r>   54.9433    0.0000 </r>
       <r>   54.9433    0.0000 </r>
       <r>   55.2684    0.0000 </r>
       <r>   55.3383    0.0000 </r>
       <r>   55.6000    0.0000 </r>
       <r>   55.7091    0.0000 </r>
       <r>   55.8562    0.0000 </r>
       <r>   55.8562    0.0000 </r>
       <r>   55.9784    0.0000 </r>
       <r>   55.9785    0.0000 </r>
       <r>   56.0273    0.0000 </r>
       <r>   56.4062    0.0000 </r>
       <r>   56.4062    0.0000 </r>
       <r>   57.0541    0.0000 </r>
       <r>   57.0541    0.0000 </r>
       <r>   57.1684    0.0000 </r>
       <r>   57.1813    0.0000 </r>
       <r>   57.1813    0.0000 </r>
       <r>   57.4345    0.0000 </r>
       <r>   57.4759    0.0000 </r>
      </set>
      <set comment="kpoint 2">
       <r>  -18.5132    1.0000 </r>
       <r>  -14.7809    1.0000 </r>
       <r>  -14.6912    1.0000 </r>
       <r>  -12.3384    1.0000 </r>
       <r>  -12.2008    1.0000 </r>
       <r>  -11.0961    1.0000 </r>
       <r>   -9.7531    1.0000 </r>
       <r>   -7.3040    1.0000 </r>
       <r>   -7.1822    1.0000 </r>
       <r>   -5.0944    1.0000 </r>
       <r>   -4.9934    1.0000 </r>
       <r>   -3.2737    1.0000 </r>
       <r>   -3.1697    1.0000 </r>
       <r>   -2.6092    1.0000 </r>
       <r>   -2.5354    1.0000 </r>
       <r>   -0.8361    0.0000 </r>
       <r>    1.1605    0.0000 </r>
       <r>    1.4116    0.0000 </r>
       <r>    1.9153    0.0000 </r>
       <r>    1.9734    0.0000 </r>
       <r>    4.5728    0.0000 </r>
       <r>    5.9692    0.0000 </r>
       <r>    6.3866    0.0000 </r>
       <r>    6.4781    0.0000 </r>
       <r>    7.6627    0.0000 </r>
       <r>    8.0377    0.0000 </r>
       <r>    8.2336    0.0000 </r>
       <r>    8.2352    0.0000 </r>
       <r>    8.6808    0.0000 </r>
       <r>    8.7555    0.0000 </r>
       <r>    9.8480    0.0000 </r>
       <r>    9.8619    0.0000 </r>
       <r>    9.9124    0.0000 </r>
       <r>   10.3759    0.0000 </r>
       <r>   10.3995    0.0000 </r>
       <r>   10.4193    0.0000 </r>
       <r>   10.9077    0.0000 </r>
       <r>   11.4137    0.0000 </r>
       <r>   11.6687    0.0000 </r>
       <r>   12.0448    0.0000 </r>
       <r>   12.1516    0.0000 </r>
       <r>   12.3345    0.0000 </r>
       <r>   12.5608    0.0000 </r>
       <r>   12.8381    0.0000 </r>
       <r>   13.0972    0.0000 </r>
       <r>   13.6279    0.0000 </r>
       <r>   13.8001    0.0000 </r>
       <r>   14.2603    0.0000 </r>
       <r>   15.5623    0.0000 </r>
       <r>   15.6614    0.0000 </r>
       <r>   15.7181    0.0000 </r>
       <r>   16.2792    0.0000 </r>
       <r>   18.0211    0.0000 </r>
       <r>   18.0716    0.0000 </r>
       <r>   18.6452    0.0000 </r>
       <r>   18.9834    0.0000 </r>
       <r>   18.9928    0.0000 </r>
       <r>   19.3961    0.0000 </r>
       <r>   19.4430    0.0000 </r>
       <r>   19.8594    0.0000 </r>
       <r>   19.9227    0.0000 </r>
       <r>   19.9355    0.0000 </r>
       <r>   20.0222    0.0000 </r>
       <r>   20.0695    0.0000 </r>
       <r>   20.4469    0.0000 </r>
       <r>   20.9480    0.0000 </r>
       <r>   21.1306    0.0000 </r>
       <r>   21.1701    0.0000 </r>
       <r>   22.3006    0.0000 </r>
       <r>   22.5129    0.0000 </r>
       <r>   23.0923    0.0000 </r>
       <r>   23.5592    0.0000 </r>
       <r>   23.5744    0.0000 </r>
       <r>   23.6015    0.0000 </r>
       <r>   23.8165    0.0000 </r>
       <r>   24.0248    0.0000 </r>
       <r>   24.2674    0.0000 </r>
       <r>   24.5217    0.0000 </r>
       <r>   24.8306    0.0000 </r>
       <r>   24.9676    0.0000 </r>
       <r>   25.0475    0.0000 </r>
       <r>   25.5521    0.0000 </r>
       <r>   25.6964    0.0000 </r>
       <r>   25.7980    0.0000 </r>
       <r>   25.9189    0.0000 </r>
       <r>   26.1275    0.0000 </r>
       <r>   26.3973    0.0000 </r>
       <r>   26.9094    0.0000 </r>
       <r>   26.9234    0.0000 </r>
       <r>   27.0815    0.0000 </r>
       <r>   27.0849    0.0000 </r>
       <r>   27.5813    0.0000 </r>
       <r>   27.8918    0.0000 </r>
       <r>   28.1065    0.0000 </r>
       <r>   28.6632    0.0000 </r>
       <r>   28.9184    0.0000 </r>
       <r>   29.0466    0.0000 </r>
       <r>   29.1763    0.0000 </r>
       <r>   29.2646    0.0000 </r>
       <r>   29.6366    0.0000 </r>
       <r>   29.6478    0.0000 </r>
       <r>   30.1213    0.0000 </r>
       <r>   30.1818    0.0000 </r>
       <r>   30.7678    0.0000 </r>
       <r>   31.1259    0.0000 </r>
       <r>   31.8749    0.0000 </r>
       <r>   31.9108    0.0000 </r>
       <r>   32.0148    0.0000 </r>
       <r>   32.0886    0.0000 </r>
       <r>   32.5461    0.0000 </r>
       <r>   32.6542    0.0000 </r>
       <r>   32.9444    0.0000 </r>
       <r>   33.0816    0.0000 </r>
       <r>   33.3384    0.0000 </r>
       <r>   33.4640    0.0000 </r>
       <r>   33.5848    0.0000 </r>
       <r>   33.6087    0.0000 </r>
       <r>   33.8445    0.0000 </r>
       <r>   34.0075    0.0000 </r>
       <r>   34.0686    0.0000 </r>
       <r>   34.1281    0.0000 </r>
       <r>   34.2291    0.0000 </r>
       <r>   35.1281    0.0000 </r>
       <r>   35.9146    0.0000 </r>
       <r>   35.9610    0.0000 </r>
       <r>   35.9882    0.0000 </r>
       <r>   36.2332    0.0000 </r>
       <r>   36.3840    0.0000 </r>
       <r>   36.5942    0.0000 </r>
       <r>   36.7596    0.0000 </r>
       <r>   36.8647    0.0000 </r>
       <r>   37.0219    0.0000 </r>
       <r>   37.1188    0.0000 </r>
       <r>   37.2090    0.0000 </r>
       <r>   37.4568    0.0000 </r>
       <r>   37.5348    0.0000 </r>
       <r>   37.8830    0.0000 </r>
       <r>   37.9740    0.0000 </r>
       <r>   38.0606    0.0000 </r>
       <r>   38.1707    0.0000 </r>
       <r>   38.3342    0.0000 </r>
       <r>   38.4488    0.0000 </r>
       <r>   38.9582    0.0000 </r>
       <r>   39.0151    0.0000 </r>
       <r>   39.1512    0.0000 </r>
       <r>   39.7411    0.0000 </r>
       <r>   39.8913    0.0000 </r>
       <r>   40.4036    0.0000 </r>
       <r>   41.6591    0.0000 </r>
       <r>   41.7874    0.0000 </r>
       <r>   42.0183    0.0000 </r>
       <r>   43.0529    0.0000 </r>
       <r>   43.1371    0.0000 </r>
       <r>   43.1853    0.0000 </r>
       <r>   43.3711    0.0000 </r>
       <r>   43.6680    0.0000 </r>
       <r>   43.9100    0.0000 </r>
       <r>   44.3356    0.0000 </r>
       <r>   44.4581    0.0000 </r>
       <r>   44.7940    0.0000 </r>
       <r>   44.8728    0.0000 </r>
       <r>   45.0487    0.0000 </r>
       <r>   45.2335    0.0000 </r>
       <r>   46.1032    0.0000 </r>
       <r>   46.2269    0.0000 </r>
       <r>   46.3651    0.0000 </r>
       <r>   46.4216    0.0000 </r>
       <r>   46.8963    0.0000 </r>
       <r>   47.1013    0.0000 </r>
       <r>   48.0085    0.0000 </r>
       <r>   48.2044    0.0000 </r>
       <r>   48.2685    0.0000 </r>
       <r>   48.4867    0.0000 </r>
       <r>   48.4867    0.0000 </r>
       <r>   48.6077    0.0000 </r>
       <r>   49.4193    0.0000 </r>
       <r>   49.4674    0.0000 </r>
       <r>   49.4813    0.0000 </r>
       <r>   49.4971    0.0000 </r>
       <r>   50.1891    0.0000 </r>
       <r>   50.2489    0.0000 </r>
       <r>   50.3481    0.0000 </r>
       <r>   50.4411    0.0000 </r>
       <r>   50.7495    0.0000 </r>
       <r>   50.7703    0.0000 </r>
       <r>   51.0252    0.0000 </r>
       <r>   51.0836    0.0000 </r>
       <r>   51.2201    0.0000 </r>
       <r>   51.2372    0.0000 </r>
       <r>   51.3233    0.0000 </r>
       <r>   52.0790    0.0000 </r>
       <r>   52.1310    0.0000 </r>
       <r>   52.3383    0.0000 </r>
       <r>   52.5341    0.0000 </r>
       <r>   52.6621    0.0000 </r>
       <r>   52.7051    0.0000 </r>
       <r>   52.7968    0.0000 </r>
       <r>   52.9839    0.0000 </r>
       <r>   53.1591    0.0000 </r>
       <r>   53.4564    0.0000 </r>
       <r>   53.6301    0.0000 </r>
       <r>   53.6776    0.0000 </r>
       <r>   53.8575    0.0000 </r>
       <r>   54.1638    0.0000 </r>
       <r>   54.4158    0.0000 </r>
       <r>   54.5037    0.0000 </r>
       <r>   54.6902    0.0000 </r>
       <r>   54.7543    0.0000 </r>
       <r>   54.8263    0.0000 </r>
       <r>   54.8421    0.0000 </r>
       <r>   54.8679    0.0000 </r>
       <r>   55.0431    0.0000 </r>
       <r>   55.0736    0.0000 </r>
       <r>   55.3025    0.0000 </r>
       <r>   55.4662    0.0000 </r>
       <r>   55.5311    0.0000 </r>
       <r>   55.6692    0.0000 </r>
       <r>   56.1756    0.0000 </r>
       <r>   56.1912    0.0000 </r>
       <r>   56.2449    0.0000 </r>
       <r>   56.3750    0.0000 </r>
       <r>   56.4639    0.0000 </r>
       <r>   56.5464    0.0000 </r>
       <r>   56.5747    0.0000 </r>
       <r>   56.8251    0.0000 </r>
       <r>   56.8859    0.0000 </r>
       <r>   57.0189    0.0000 </r>
       <r>   57.0577    0.0000 </r>
      </set>
      <set comment="kpoint 3">
       <r>  -18.4341    1.0000 </r>
       <r>  -15.1059    1.0000 </r>
       <r>  -14.7954    1.0000 </r>
       <r>  -12.4549    1.0000 </r>
       <r>  -11.9317    1.0000 </r>
       <r>  -10.7149    1.0000 </r>
       <r>   -9.3237    1.0000 </r>
       <r>   -7.3645    1.0000 </r>
       <r>   -7.1816    1.0000 </r>
       <r>   -5.4404    1.0000 </r>
       <r>   -5.0296    1.0000 </r>
       <r>   -3.6157    1.0000 </r>
       <r>   -3.2240    1.0000 </r>
       <r>   -3.0165    1.0000 </r>
       <r>   -2.7272    1.0000 </r>
       <r>   -1.1839    0.0000 </r>
       <r>    1.3238    0.0000 </r>
       <r>    1.8881    0.0000 </r>
       <r>    2.1281    0.0000 </r>
       <r>    2.4358    0.0000 </r>
       <r>    4.7294    0.0000 </r>
       <r>    6.1240    0.0000 </r>
       <r>    6.5551    0.0000 </r>
       <r>    6.9440    0.0000 </r>
       <r>    6.9598    0.0000 </r>
       <r>    7.9146    0.0000 </r>
       <r>    8.1729    0.0000 </r>
       <r>    8.2020    0.0000 </r>
       <r>    8.5790    0.0000 </r>
       <r>    8.7436    0.0000 </r>
       <r>    9.0740    0.0000 </r>
       <r>    9.9077    0.0000 </r>
       <r>    9.9160    0.0000 </r>
       <r>   10.4672    0.0000 </r>
       <r>   10.5716    0.0000 </r>
       <r>   10.5788    0.0000 </r>
       <r>   10.9114    0.0000 </r>
       <r>   11.5894    0.0000 </r>
       <r>   11.8802    0.0000 </r>
       <r>   12.1077    0.0000 </r>
       <r>   12.1424    0.0000 </r>
       <r>   12.3419    0.0000 </r>
       <r>   12.6423    0.0000 </r>
       <r>   13.0075    0.0000 </r>
       <r>   13.4775    0.0000 </r>
       <r>   14.1695    0.0000 </r>
       <r>   14.3858    0.0000 </r>
       <r>   15.1545    0.0000 </r>
       <r>   15.2765    0.0000 </r>
       <r>   15.3889    0.0000 </r>
       <r>   15.7997    0.0000 </r>
       <r>   16.1743    0.0000 </r>
       <r>   17.3574    0.0000 </r>
       <r>   17.5941    0.0000 </r>
       <r>   17.8616    0.0000 </r>
       <r>   19.0273    0.0000 </r>
       <r>   19.0831    0.0000 </r>
       <r>   19.1612    0.0000 </r>
       <r>   19.5522    0.0000 </r>
       <r>   19.8344    0.0000 </r>
       <r>   19.9231    0.0000 </r>
       <r>   20.1859    0.0000 </r>
       <r>   20.2006    0.0000 </r>
       <r>   20.2953    0.0000 </r>
       <r>   20.4610    0.0000 </r>
       <r>   20.6854    0.0000 </r>
       <r>   20.9076    0.0000 </r>
       <r>   20.9177    0.0000 </r>
       <r>   20.9658    0.0000 </r>
       <r>   21.2974    0.0000 </r>
       <r>   23.1084    0.0000 </r>
       <r>   23.7417    0.0000 </r>
       <r>   23.7808    0.0000 </r>
       <r>   23.9368    0.0000 </r>
       <r>   24.0480    0.0000 </r>
       <r>   24.1155    0.0000 </r>
       <r>   24.2288    0.0000 </r>
       <r>   24.2478    0.0000 </r>
       <r>   24.4571    0.0000 </r>
       <r>   24.5114    0.0000 </r>
       <r>   24.6934    0.0000 </r>
       <r>   24.7126    0.0000 </r>
       <r>   25.1039    0.0000 </r>
       <r>   25.1717    0.0000 </r>
       <r>   25.2293    0.0000 </r>
       <r>   26.4776    0.0000 </r>
       <r>   26.6052    0.0000 </r>
       <r>   26.9337    0.0000 </r>
       <r>   27.0663    0.0000 </r>
       <r>   27.5561    0.0000 </r>
       <r>   27.7010    0.0000 </r>
       <r>   28.0595    0.0000 </r>
       <r>   28.1032    0.0000 </r>
       <r>   28.1118    0.0000 </r>
       <r>   28.1885    0.0000 </r>
       <r>   29.1207    0.0000 </r>
       <r>   29.1320    0.0000 </r>
       <r>   29.6998    0.0000 </r>
       <r>   29.7331    0.0000 </r>
       <r>   29.7997    0.0000 </r>
       <r>   30.2525    0.0000 </r>
       <r>   30.3510    0.0000 </r>
       <r>   30.5885    0.0000 </r>
       <r>   30.9582    0.0000 </r>
       <r>   30.9705    0.0000 </r>
       <r>   31.5020    0.0000 </r>
       <r>   31.7567    0.0000 </r>
       <r>   31.9397    0.0000 </r>
       <r>   32.6385    0.0000 </r>
       <r>   32.7569    0.0000 </r>
       <r>   32.8169    0.0000 </r>
       <r>   32.8397    0.0000 </r>
       <r>   32.9283    0.0000 </r>
       <r>   33.0869    0.0000 </r>
       <r>   33.1632    0.0000 </r>
       <r>   33.2361    0.0000 </r>
       <r>   33.7486    0.0000 </r>
       <r>   33.7648    0.0000 </r>
       <r>   33.9660    0.0000 </r>
       <r>   34.0186    0.0000 </r>
       <r>   34.2044    0.0000 </r>
       <r>   34.6047    0.0000 </r>
       <r>   34.9498    0.0000 </r>
       <r>   35.2437    0.0000 </r>
       <r>   35.4874    0.0000 </r>
       <r>   36.2302    0.0000 </r>
       <r>   36.5183    0.0000 </r>
       <r>   36.7573    0.0000 </r>
       <r>   36.8777    0.0000 </r>
       <r>   37.0315    0.0000 </r>
       <r>   37.0646    0.0000 </r>
       <r>   37.4346    0.0000 </r>
       <r>   37.5842    0.0000 </r>
       <r>   37.9624    0.0000 </r>
       <r>   38.0094    0.0000 </r>
       <r>   38.1555    0.0000 </r>
       <r>   38.4170    0.0000 </r>
       <r>   38.8542    0.0000 </r>
       <r>   38.8811    0.0000 </r>
       <r>   39.1132    0.0000 </r>
       <r>   39.2447    0.0000 </r>
       <r>   39.8819    0.0000 </r>
       <r>   39.9875    0.0000 </r>
       <r>   40.0175    0.0000 </r>
       <r>   40.2079    0.0000 </r>
       <r>   40.3686    0.0000 </r>
       <r>   40.5672    0.0000 </r>
       <r>   40.9918    0.0000 </r>
       <r>   41.4309    0.0000 </r>
       <r>   41.5055    0.0000 </r>
       <r>   41.6760    0.0000 </r>
       <r>   41.6996    0.0000 </r>
       <r>   41.7220    0.0000 </r>
       <r>   41.9303    0.0000 </r>
       <r>   42.6752    0.0000 </r>
       <r>   42.7148    0.0000 </r>
       <r>   43.5865    0.0000 </r>
       <r>   43.8867    0.0000 </r>
       <r>   44.2380    0.0000 </r>
       <r>   44.5378    0.0000 </r>
       <r>   44.5403    0.0000 </r>
       <r>   44.7224    0.0000 </r>
       <r>   44.7919    0.0000 </r>
       <r>   45.3049    0.0000 </r>
       <r>   45.7839    0.0000 </r>
       <r>   46.2576    0.0000 </r>
       <r>   46.9417    0.0000 </r>
       <r>   47.1444    0.0000 </r>
       <r>   47.2395    0.0000 </r>
       <r>   47.3560    0.0000 </r>
       <r>   47.5831    0.0000 </r>
       <r>   47.7528    0.0000 </r>
       <r>   48.0740    0.0000 </r>
       <r>   48.1983    0.0000 </r>
       <r>   48.7077    0.0000 </r>
       <r>   48.8128    0.0000 </r>
       <r>   48.9407    0.0000 </r>
       <r>   49.0230    0.0000 </r>
       <r>   49.0710    0.0000 </r>
       <r>   49.1833    0.0000 </r>
       <r>   49.6233    0.0000 </r>
       <r>   50.0096    0.0000 </r>
       <r>   50.4447    0.0000 </r>
       <r>   50.7960    0.0000 </r>
       <r>   50.8175    0.0000 </r>
       <r>   51.0702    0.0000 </r>
       <r>   51.0973    0.0000 </r>
       <r>   51.2646    0.0000 </r>
       <r>   51.6052    0.0000 </r>
       <r>   51.7024    0.0000 </r>
       <r>   51.7616    0.0000 </r>
       <r>   51.7799    0.0000 </r>
       <r>   51.8773    0.0000 </r>
       <r>   52.1730    0.0000 </r>
       <r>   52.2752    0.0000 </r>
       <r>   52.3139    0.0000 </r>
       <r>   52.4321    0.0000 </r>
       <r>   52.4735    0.0000 </r>
       <r>   52.9221    0.0000 </r>
       <r>   52.9401    0.0000 </r>
       <r>   53.1255    0.0000 </r>
       <r>   53.2064    0.0000 </r>
       <r>   53.2902    0.0000 </r>
       <r>   53.3798    0.0000 </r>
       <r>   53.6811    0.0000 </r>
       <r>   53.9041    0.0000 </r>
       <r>   53.9563    0.0000 </r>
       <r>   54.2682    0.0000 </r>
       <r>   54.5095    0.0000 </r>
       <r>   54.6353    0.0000 </r>
       <r>   54.6388    0.0000 </r>
       <r>   54.6881    0.0000 </r>
       <r>   54.9549    0.0000 </r>
       <r>   55.2356    0.0000 </r>
       <r>   55.5023    0.0000 </r>
       <r>   55.5858    0.0000 </r>
       <r>   55.6711    0.0000 </r>
       <r>   56.0427    0.0000 </r>
       <r>   56.1326    0.0000 </r>
       <r>   56.4570    0.0000 </r>
       <r>   56.4874    0.0000 </r>
       <r>   56.6230    0.0000 </r>
       <r>   56.7015    0.0000 </r>
       <r>   56.7793    0.0000 </r>
       <r>   56.7801    0.0000 </r>
       <r>   56.8025    0.0000 </r>
       <r>   57.0056    0.0000 </r>
       <r>   57.0066    0.0000 </r>
      </set>
      <set comment="kpoint 4">
       <r>  -18.3111    1.0000 </r>
       <r>  -15.5025    1.0000 </r>
       <r>  -14.9178    1.0000 </r>
       <r>  -12.6026    1.0000 </r>
       <r>  -11.5471    1.0000 </r>
       <r>  -10.1724    1.0000 </r>
       <r>   -8.7139    1.0000 </r>
       <r>   -7.6782    1.0000 </r>
       <r>   -6.9823    1.0000 </r>
       <r>   -5.9473    1.0000 </r>
       <r>   -5.0207    1.0000 </r>
       <r>   -4.0930    1.0000 </r>
       <r>   -3.6340    1.0000 </r>
       <r>   -3.2941    1.0000 </r>
       <r>   -3.0028    1.0000 </r>
       <r>   -1.4707    0.0000 </r>
       <r>    1.5522    0.0000 </r>
       <r>    2.2445    0.0000 </r>
       <r>    2.3849    0.0000 </r>
       <r>    3.3190    0.0000 </r>
       <r>    4.9927    0.0000 </r>
       <r>    6.0211    0.0000 </r>
       <r>    6.3584    0.0000 </r>
       <r>    6.7511    0.0000 </r>
       <r>    7.6029    0.0000 </r>
       <r>    7.8092    0.0000 </r>
       <r>    7.9266    0.0000 </r>
       <r>    8.1647    0.0000 </r>
       <r>    8.2206    0.0000 </r>
       <r>    8.9264    0.0000 </r>
       <r>    9.3180    0.0000 </r>
       <r>    9.4674    0.0000 </r>
       <r>    9.4698    0.0000 </r>
       <r>   10.1391    0.0000 </r>
       <r>   10.1768    0.0000 </r>
       <r>   11.1044    0.0000 </r>
       <r>   11.3401    0.0000 </r>
       <r>   11.7682    0.0000 </r>
       <r>   11.8214    0.0000 </r>
       <r>   12.3380    0.0000 </r>
       <r>   12.3959    0.0000 </r>
       <r>   12.5104    0.0000 </r>
       <r>   13.2333    0.0000 </r>
       <r>   13.2608    0.0000 </r>
       <r>   14.2225    0.0000 </r>
       <r>   14.4784    0.0000 </r>
       <r>   14.8590    0.0000 </r>
       <r>   15.0380    0.0000 </r>
       <r>   15.3045    0.0000 </r>
       <r>   16.0072    0.0000 </r>
       <r>   16.0964    0.0000 </r>
       <r>   16.2607    0.0000 </r>
       <r>   16.4635    0.0000 </r>
       <r>   17.1509    0.0000 </r>
       <r>   17.2038    0.0000 </r>
       <r>   18.7148    0.0000 </r>
       <r>   18.8973    0.0000 </r>
       <r>   18.9961    0.0000 </r>
       <r>   19.1637    0.0000 </r>
       <r>   19.3560    0.0000 </r>
       <r>   19.6341    0.0000 </r>
       <r>   19.6521    0.0000 </r>
       <r>   19.8567    0.0000 </r>
       <r>   20.1793    0.0000 </r>
       <r>   20.2805    0.0000 </r>
       <r>   20.6624    0.0000 </r>
       <r>   20.7056    0.0000 </r>
       <r>   21.0592    0.0000 </r>
       <r>   21.0780    0.0000 </r>
       <r>   21.4988    0.0000 </r>
       <r>   21.9505    0.0000 </r>
       <r>   22.9605    0.0000 </r>
       <r>   23.2358    0.0000 </r>
       <r>   23.2529    0.0000 </r>
       <r>   23.3291    0.0000 </r>
       <r>   23.5515    0.0000 </r>
       <r>   24.0815    0.0000 </r>
       <r>   24.5135    0.0000 </r>
       <r>   24.5438    0.0000 </r>
       <r>   24.5896    0.0000 </r>
       <r>   24.7054    0.0000 </r>
       <r>   25.0584    0.0000 </r>
       <r>   25.2804    0.0000 </r>
       <r>   25.5470    0.0000 </r>
       <r>   25.6479    0.0000 </r>
       <r>   25.6602    0.0000 </r>
       <r>   26.4057    0.0000 </r>
       <r>   26.7615    0.0000 </r>
       <r>   27.3091    0.0000 </r>
       <r>   28.0925    0.0000 </r>
       <r>   28.1525    0.0000 </r>
       <r>   28.1598    0.0000 </r>
       <r>   28.1715    0.0000 </r>
       <r>   28.3197    0.0000 </r>
       <r>   28.6563    0.0000 </r>
       <r>   28.6892    0.0000 </r>
       <r>   29.1922    0.0000 </r>
       <r>   29.5560    0.0000 </r>
       <r>   29.8650    0.0000 </r>
       <r>   29.9607    0.0000 </r>
       <r>   30.0805    0.0000 </r>
       <r>   30.1473    0.0000 </r>
       <r>   30.6552    0.0000 </r>
       <r>   30.9060    0.0000 </r>
       <r>   31.0702    0.0000 </r>
       <r>   31.7272    0.0000 </r>
       <r>   31.9407    0.0000 </r>
       <r>   31.9744    0.0000 </r>
       <r>   32.2557    0.0000 </r>
       <r>   32.4165    0.0000 </r>
       <r>   32.5241    0.0000 </r>
       <r>   32.5549    0.0000 </r>
       <r>   33.0529    0.0000 </r>
       <r>   33.4802    0.0000 </r>
       <r>   33.5835    0.0000 </r>
       <r>   33.8017    0.0000 </r>
       <r>   33.9561    0.0000 </r>
       <r>   34.1088    0.0000 </r>
       <r>   34.2691    0.0000 </r>
       <r>   34.6196    0.0000 </r>
       <r>   34.9734    0.0000 </r>
       <r>   35.1859    0.0000 </r>
       <r>   35.7166    0.0000 </r>
       <r>   35.7976    0.0000 </r>
       <r>   35.8135    0.0000 </r>
       <r>   36.4358    0.0000 </r>
       <r>   36.7285    0.0000 </r>
       <r>   36.8859    0.0000 </r>
       <r>   37.2446    0.0000 </r>
       <r>   37.2882    0.0000 </r>
       <r>   37.7699    0.0000 </r>
       <r>   37.8238    0.0000 </r>
       <r>   37.9895    0.0000 </r>
       <r>   38.6388    0.0000 </r>
       <r>   39.0195    0.0000 </r>
       <r>   39.0640    0.0000 </r>
       <r>   39.1075    0.0000 </r>
       <r>   39.2829    0.0000 </r>
       <r>   39.3790    0.0000 </r>
       <r>   39.5941    0.0000 </r>
       <r>   39.6123    0.0000 </r>
       <r>   39.7353    0.0000 </r>
       <r>   39.9602    0.0000 </r>
       <r>   40.1138    0.0000 </r>
       <r>   40.1251    0.0000 </r>
       <r>   40.2040    0.0000 </r>
       <r>   40.9925    0.0000 </r>
       <r>   41.3002    0.0000 </r>
       <r>   41.6598    0.0000 </r>
       <r>   41.7458    0.0000 </r>
       <r>   41.8535    0.0000 </r>
       <r>   41.9176    0.0000 </r>
       <r>   42.3695    0.0000 </r>
       <r>   42.4999    0.0000 </r>
       <r>   42.6064    0.0000 </r>
       <r>   42.8776    0.0000 </r>
       <r>   43.1819    0.0000 </r>
       <r>   43.5598    0.0000 </r>
       <r>   43.6217    0.0000 </r>
       <r>   43.9314    0.0000 </r>
       <r>   44.3277    0.0000 </r>
       <r>   44.6186    0.0000 </r>
       <r>   44.9663    0.0000 </r>
       <r>   45.2003    0.0000 </r>
       <r>   45.3725    0.0000 </r>
       <r>   45.4747    0.0000 </r>
       <r>   45.6654    0.0000 </r>
       <r>   46.2222    0.0000 </r>
       <r>   46.3786    0.0000 </r>
       <r>   46.4762    0.0000 </r>
       <r>   46.8449    0.0000 </r>
       <r>   46.8456    0.0000 </r>
       <r>   46.9597    0.0000 </r>
       <r>   47.2318    0.0000 </r>
       <r>   47.9891    0.0000 </r>
       <r>   48.4743    0.0000 </r>
       <r>   48.4990    0.0000 </r>
       <r>   48.5620    0.0000 </r>
       <r>   48.8907    0.0000 </r>
       <r>   49.2050    0.0000 </r>
       <r>   49.4216    0.0000 </r>
       <r>   49.4744    0.0000 </r>
       <r>   49.9091    0.0000 </r>
       <r>   50.0110    0.0000 </r>
       <r>   50.0163    0.0000 </r>
       <r>   50.0237    0.0000 </r>
       <r>   50.3216    0.0000 </r>
       <r>   50.4912    0.0000 </r>
       <r>   50.7075    0.0000 </r>
       <r>   50.9413    0.0000 </r>
       <r>   51.1774    0.0000 </r>
       <r>   51.4010    0.0000 </r>
       <r>   51.4275    0.0000 </r>
       <r>   51.7283    0.0000 </r>
       <r>   51.9061    0.0000 </r>
       <r>   52.1448    0.0000 </r>
       <r>   52.1935    0.0000 </r>
       <r>   52.2059    0.0000 </r>
       <r>   52.3367    0.0000 </r>
       <r>   52.8108    0.0000 </r>
       <r>   52.8464    0.0000 </r>
       <r>   52.8583    0.0000 </r>
       <r>   53.2313    0.0000 </r>
       <r>   53.3892    0.0000 </r>
       <r>   53.6028    0.0000 </r>
       <r>   53.8192    0.0000 </r>
       <r>   54.1504    0.0000 </r>
       <r>   54.1964    0.0000 </r>
       <r>   54.2534    0.0000 </r>
       <r>   54.6405    0.0000 </r>
       <r>   54.7045    0.0000 </r>
       <r>   54.8967    0.0000 </r>
       <r>   55.5596    0.0000 </r>
       <r>   55.5953    0.0000 </r>
       <r>   55.6232    0.0000 </r>
       <r>   55.7245    0.0000 </r>
       <r>   55.7832    0.0000 </r>
       <r>   56.0551    0.0000 </r>
       <r>   56.2202    0.0000 </r>
       <r>   56.6941    0.0000 </r>
       <r>   56.7797    0.0000 </r>
       <r>   56.8429    0.0000 </r>
       <r>   56.9545    0.0000 </r>
       <r>   57.0374    0.0000 </r>
       <r>   57.0739    0.0000 </r>
       <r>   57.2597    0.0000 </r>
       <r>   57.2689    0.0000 </r>
       <r>   57.3143    0.0000 </r>
      </set>
      <set comment="kpoint 5">
       <r>  -18.1625    1.0000 </r>
       <r>  -15.8797    1.0000 </r>
       <r>  -15.0239    1.0000 </r>
       <r>  -12.7316    1.0000 </r>
       <r>  -11.1092    1.0000 </r>
       <r>   -9.5491    1.0000 </r>
       <r>   -8.0852    1.0000 </r>
       <r>   -8.0108    1.0000 </r>
       <r>   -6.7177    1.0000 </r>
       <r>   -6.5247    1.0000 </r>
       <r>   -4.9417    1.0000 </r>
       <r>   -4.6103    1.0000 </r>
       <r>   -4.3954    1.0000 </r>
       <r>   -3.3602    1.0000 </r>
       <r>   -3.3072    1.0000 </r>
       <r>   -1.6689    0.0000 </r>
       <r>    1.7888    0.0000 </r>
       <r>    2.5685    0.0000 </r>
       <r>    2.7430    0.0000 </r>
       <r>    4.2903    0.0000 </r>
       <r>    5.1738    0.0000 </r>
       <r>    5.3723    0.0000 </r>
       <r>    6.6300    0.0000 </r>
       <r>    6.9218    0.0000 </r>
       <r>    7.4317    0.0000 </r>
       <r>    7.5747    0.0000 </r>
       <r>    7.6596    0.0000 </r>
       <r>    8.1261    0.0000 </r>
       <r>    8.5825    0.0000 </r>
       <r>    8.5992    0.0000 </r>
       <r>    9.1056    0.0000 </r>
       <r>    9.1461    0.0000 </r>
       <r>    9.8097    0.0000 </r>
       <r>    9.9117    0.0000 </r>
       <r>   10.3942    0.0000 </r>
       <r>   11.3233    0.0000 </r>
       <r>   11.5760    0.0000 </r>
       <r>   12.0495    0.0000 </r>
       <r>   12.1462    0.0000 </r>
       <r>   12.1731    0.0000 </r>
       <r>   12.2810    0.0000 </r>
       <r>   13.0014    0.0000 </r>
       <r>   13.5155    0.0000 </r>
       <r>   14.2023    0.0000 </r>
       <r>   14.2919    0.0000 </r>
       <r>   14.6098    0.0000 </r>
       <r>   14.9235    0.0000 </r>
       <r>   15.3296    0.0000 </r>
       <r>   15.4034    0.0000 </r>
       <r>   15.7518    0.0000 </r>
       <r>   16.3012    0.0000 </r>
       <r>   16.5796    0.0000 </r>
       <r>   16.6247    0.0000 </r>
       <r>   17.1348    0.0000 </r>
       <r>   17.2323    0.0000 </r>
       <r>   17.6843    0.0000 </r>
       <r>   17.8094    0.0000 </r>
       <r>   18.4659    0.0000 </r>
       <r>   18.6258    0.0000 </r>
       <r>   18.8087    0.0000 </r>
       <r>   19.7113    0.0000 </r>
       <r>   19.9249    0.0000 </r>
       <r>   20.0480    0.0000 </r>
       <r>   20.0842    0.0000 </r>
       <r>   20.2596    0.0000 </r>
       <r>   20.3208    0.0000 </r>
       <r>   20.6361    0.0000 </r>
       <r>   20.9062    0.0000 </r>
       <r>   21.0103    0.0000 </r>
       <r>   21.2642    0.0000 </r>
       <r>   21.6925    0.0000 </r>
       <r>   21.7278    0.0000 </r>
       <r>   22.1547    0.0000 </r>
       <r>   22.4047    0.0000 </r>
       <r>   23.2560    0.0000 </r>
       <r>   23.2649    0.0000 </r>
       <r>   23.8377    0.0000 </r>
       <r>   24.1045    0.0000 </r>
       <r>   24.1943    0.0000 </r>
       <r>   24.8458    0.0000 </r>
       <r>   24.8595    0.0000 </r>
       <r>   24.9236    0.0000 </r>
       <r>   25.7790    0.0000 </r>
       <r>   26.0006    0.0000 </r>
       <r>   26.7166    0.0000 </r>
       <r>   26.7677    0.0000 </r>
       <r>   26.8194    0.0000 </r>
       <r>   26.9807    0.0000 </r>
       <r>   27.2670    0.0000 </r>
       <r>   27.2937    0.0000 </r>
       <r>   27.3826    0.0000 </r>
       <r>   27.6980    0.0000 </r>
       <r>   28.1237    0.0000 </r>
       <r>   28.1329    0.0000 </r>
       <r>   28.5291    0.0000 </r>
       <r>   28.6794    0.0000 </r>
       <r>   29.2568    0.0000 </r>
       <r>   29.4999    0.0000 </r>
       <r>   29.8863    0.0000 </r>
       <r>   30.1178    0.0000 </r>
       <r>   30.2741    0.0000 </r>
       <r>   30.5257    0.0000 </r>
       <r>   30.8992    0.0000 </r>
       <r>   30.9636    0.0000 </r>
       <r>   31.0432    0.0000 </r>
       <r>   31.0750    0.0000 </r>
       <r>   31.7420    0.0000 </r>
       <r>   32.0779    0.0000 </r>
       <r>   32.1846    0.0000 </r>
       <r>   32.2946    0.0000 </r>
       <r>   32.4570    0.0000 </r>
       <r>   32.6305    0.0000 </r>
       <r>   33.0404    0.0000 </r>
       <r>   33.0521    0.0000 </r>
       <r>   33.9218    0.0000 </r>
       <r>   34.7892    0.0000 </r>
       <r>   34.8274    0.0000 </r>
       <r>   35.0880    0.0000 </r>
       <r>   35.2388    0.0000 </r>
       <r>   35.4682    0.0000 </r>
       <r>   35.5684    0.0000 </r>
       <r>   35.6783    0.0000 </r>
       <r>   36.0039    0.0000 </r>
       <r>   36.1773    0.0000 </r>
       <r>   36.7865    0.0000 </r>
       <r>   36.9575    0.0000 </r>
       <r>   37.0661    0.0000 </r>
       <r>   37.1216    0.0000 </r>
       <r>   37.7787    0.0000 </r>
       <r>   37.8099    0.0000 </r>
       <r>   38.0417    0.0000 </r>
       <r>   38.2040    0.0000 </r>
       <r>   38.5480    0.0000 </r>
       <r>   38.7291    0.0000 </r>
       <r>   38.8050    0.0000 </r>
       <r>   38.9357    0.0000 </r>
       <r>   39.0387    0.0000 </r>
       <r>   39.1935    0.0000 </r>
       <r>   39.6691    0.0000 </r>
       <r>   40.0621    0.0000 </r>
       <r>   40.3005    0.0000 </r>
       <r>   40.3501    0.0000 </r>
       <r>   40.6077    0.0000 </r>
       <r>   40.6511    0.0000 </r>
       <r>   40.7527    0.0000 </r>
       <r>   40.8179    0.0000 </r>
       <r>   40.9890    0.0000 </r>
       <r>   41.4842    0.0000 </r>
       <r>   41.4976    0.0000 </r>
       <r>   41.5840    0.0000 </r>
       <r>   41.8153    0.0000 </r>
       <r>   41.8484    0.0000 </r>
       <r>   41.9819    0.0000 </r>
       <r>   42.2135    0.0000 </r>
       <r>   42.2646    0.0000 </r>
       <r>   43.0424    0.0000 </r>
       <r>   43.0575    0.0000 </r>
       <r>   43.6263    0.0000 </r>
       <r>   44.0351    0.0000 </r>
       <r>   44.8254    0.0000 </r>
       <r>   44.9233    0.0000 </r>
       <r>   44.9617    0.0000 </r>
       <r>   45.0181    0.0000 </r>
       <r>   45.0418    0.0000 </r>
       <r>   45.1302    0.0000 </r>
       <r>   45.1441    0.0000 </r>
       <r>   45.3294    0.0000 </r>
       <r>   45.3355    0.0000 </r>
       <r>   45.3626    0.0000 </r>
       <r>   45.8616    0.0000 </r>
       <r>   45.8627    0.0000 </r>
       <r>   45.9826    0.0000 </r>
       <r>   46.0779    0.0000 </r>
       <r>   47.1157    0.0000 </r>
       <r>   47.1433    0.0000 </r>
       <r>   47.1649    0.0000 </r>
       <r>   47.2506    0.0000 </r>
       <r>   47.3324    0.0000 </r>
       <r>   47.6477    0.0000 </r>
       <r>   48.5672    0.0000 </r>
       <r>   48.6689    0.0000 </r>
       <r>   48.7151    0.0000 </r>
       <r>   48.7602    0.0000 </r>
       <r>   48.8159    0.0000 </r>
       <r>   49.7005    0.0000 </r>
       <r>   49.7843    0.0000 </r>
       <r>   50.3424    0.0000 </r>
       <r>   50.3820    0.0000 </r>
       <r>   50.7541    0.0000 </r>
       <r>   50.8006    0.0000 </r>
       <r>   50.8601    0.0000 </r>
       <r>   51.1444    0.0000 </r>
       <r>   51.3154    0.0000 </r>
       <r>   51.3413    0.0000 </r>
       <r>   51.3652    0.0000 </r>
       <r>   51.6235    0.0000 </r>
       <r>   51.8502    0.0000 </r>
       <r>   51.9126    0.0000 </r>
       <r>   51.9725    0.0000 </r>
       <r>   52.3783    0.0000 </r>
       <r>   52.5818    0.0000 </r>
       <r>   52.6231    0.0000 </r>
       <r>   53.2494    0.0000 </r>
       <r>   53.3211    0.0000 </r>
       <r>   53.6369    0.0000 </r>
       <r>   53.7790    0.0000 </r>
       <r>   54.3841    0.0000 </r>
       <r>   54.5918    0.0000 </r>
       <r>   54.6517    0.0000 </r>
       <r>   54.7303    0.0000 </r>
       <r>   54.8948    0.0000 </r>
       <r>   55.1598    0.0000 </r>
       <r>   55.5169    0.0000 </r>
       <r>   55.5954    0.0000 </r>
       <r>   55.6189    0.0000 </r>
       <r>   55.6474    0.0000 </r>
       <r>   55.7138    0.0000 </r>
       <r>   55.7918    0.0000 </r>
       <r>   55.8562    0.0000 </r>
       <r>   56.0247    0.0000 </r>
       <r>   56.3894    0.0000 </r>
       <r>   56.5112    0.0000 </r>
       <r>   56.5852    0.0000 </r>
       <r>   56.6186    0.0000 </r>
       <r>   56.7814    0.0000 </r>
       <r>   57.3318    0.0000 </r>
       <r>   57.4465    0.0000 </r>
       <r>   57.6189    0.0000 </r>
      </set>
      <set comment="kpoint 6">
       <r>  -18.0272    1.0000 </r>
       <r>  -16.1629    1.0000 </r>
       <r>  -15.0939    1.0000 </r>
       <r>  -12.8160    1.0000 </r>
       <r>  -10.7080    1.0000 </r>
       <r>   -8.9042    1.0000 </r>
       <r>   -8.4816    1.0000 </r>
       <r>   -7.5745    1.0000 </r>
       <r>   -6.7929    1.0000 </r>
       <r>   -6.4253    1.0000 </r>
       <r>   -5.2343    1.0000 </r>
       <r>   -5.0733    1.0000 </r>
       <r>   -4.8255    1.0000 </r>
       <r>   -3.5685    1.0000 </r>
       <r>   -3.4063    1.0000 </r>
       <r>   -1.7847    0.0000 </r>
       <r>    1.9692    0.0000 </r>
       <r>    2.8120    0.0000 </r>
       <r>    3.2016    0.0000 </r>
       <r>    4.4184    0.0000 </r>
       <r>    5.2007    0.0000 </r>
       <r>    5.8937    0.0000 </r>
       <r>    6.7443    0.0000 </r>
       <r>    6.7975    0.0000 </r>
       <r>    7.1991    0.0000 </r>
       <r>    7.4335    0.0000 </r>
       <r>    7.5840    0.0000 </r>
       <r>    7.7340    0.0000 </r>
       <r>    8.0166    0.0000 </r>
       <r>    8.6500    0.0000 </r>
       <r>    8.8572    0.0000 </r>
       <r>    9.5160    0.0000 </r>
       <r>    9.5495    0.0000 </r>
       <r>   10.6449    0.0000 </r>
       <r>   11.2326    0.0000 </r>
       <r>   11.2992    0.0000 </r>
       <r>   11.6977    0.0000 </r>
       <r>   11.9222    0.0000 </r>
       <r>   12.1340    0.0000 </r>
       <r>   12.1610    0.0000 </r>
       <r>   12.5332    0.0000 </r>
       <r>   13.4739    0.0000 </r>
       <r>   13.8226    0.0000 </r>
       <r>   13.9784    0.0000 </r>
       <r>   14.4402    0.0000 </r>
       <r>   14.5157    0.0000 </r>
       <r>   14.5333    0.0000 </r>
       <r>   14.8859    0.0000 </r>
       <r>   16.0731    0.0000 </r>
       <r>   16.2936    0.0000 </r>
       <r>   16.3614    0.0000 </r>
       <r>   16.4705    0.0000 </r>
       <r>   16.8056    0.0000 </r>
       <r>   17.2299    0.0000 </r>
       <r>   17.4944    0.0000 </r>
       <r>   17.5993    0.0000 </r>
       <r>   17.8535    0.0000 </r>
       <r>   18.0816    0.0000 </r>
       <r>   18.1855    0.0000 </r>
       <r>   18.3931    0.0000 </r>
       <r>   19.2319    0.0000 </r>
       <r>   19.3262    0.0000 </r>
       <r>   19.9117    0.0000 </r>
       <r>   20.0815    0.0000 </r>
       <r>   20.1586    0.0000 </r>
       <r>   20.3208    0.0000 </r>
       <r>   20.3607    0.0000 </r>
       <r>   20.5816    0.0000 </r>
       <r>   20.6691    0.0000 </r>
       <r>   21.2355    0.0000 </r>
       <r>   21.4672    0.0000 </r>
       <r>   21.5752    0.0000 </r>
       <r>   21.6759    0.0000 </r>
       <r>   21.7734    0.0000 </r>
       <r>   22.9441    0.0000 </r>
       <r>   23.6443    0.0000 </r>
       <r>   23.8383    0.0000 </r>
       <r>   23.8481    0.0000 </r>
       <r>   24.0304    0.0000 </r>
       <r>   24.4372    0.0000 </r>
       <r>   24.6008    0.0000 </r>
       <r>   25.2913    0.0000 </r>
       <r>   25.6794    0.0000 </r>
       <r>   26.4236    0.0000 </r>
       <r>   26.4270    0.0000 </r>
       <r>   26.4999    0.0000 </r>
       <r>   27.1312    0.0000 </r>
       <r>   27.3482    0.0000 </r>
       <r>   27.4076    0.0000 </r>
       <r>   27.4819    0.0000 </r>
       <r>   27.6466    0.0000 </r>
       <r>   27.9119    0.0000 </r>
       <r>   28.0444    0.0000 </r>
       <r>   28.0530    0.0000 </r>
       <r>   29.0204    0.0000 </r>
       <r>   29.1305    0.0000 </r>
       <r>   29.5580    0.0000 </r>
       <r>   29.6028    0.0000 </r>
       <r>   29.6518    0.0000 </r>
       <r>   29.8219    0.0000 </r>
       <r>   30.2210    0.0000 </r>
       <r>   30.3000    0.0000 </r>
       <r>   30.3297    0.0000 </r>
       <r>   30.6964    0.0000 </r>
       <r>   31.0138    0.0000 </r>
       <r>   31.2065    0.0000 </r>
       <r>   31.3579    0.0000 </r>
       <r>   31.6073    0.0000 </r>
       <r>   31.7101    0.0000 </r>
       <r>   32.2821    0.0000 </r>
       <r>   32.3508    0.0000 </r>
       <r>   33.6159    0.0000 </r>
       <r>   33.7224    0.0000 </r>
       <r>   34.1765    0.0000 </r>
       <r>   34.3867    0.0000 </r>
       <r>   34.5317    0.0000 </r>
       <r>   34.5825    0.0000 </r>
       <r>   34.6123    0.0000 </r>
       <r>   34.9067    0.0000 </r>
       <r>   35.2682    0.0000 </r>
       <r>   35.5431    0.0000 </r>
       <r>   36.3325    0.0000 </r>
       <r>   37.4780    0.0000 </r>
       <r>   37.5085    0.0000 </r>
       <r>   37.6507    0.0000 </r>
       <r>   37.6847    0.0000 </r>
       <r>   37.7428    0.0000 </r>
       <r>   37.8106    0.0000 </r>
       <r>   37.9395    0.0000 </r>
       <r>   38.4678    0.0000 </r>
       <r>   38.4988    0.0000 </r>
       <r>   38.7099    0.0000 </r>
       <r>   38.9982    0.0000 </r>
       <r>   39.0633    0.0000 </r>
       <r>   39.2265    0.0000 </r>
       <r>   39.3989    0.0000 </r>
       <r>   39.4787    0.0000 </r>
       <r>   39.6422    0.0000 </r>
       <r>   39.6754    0.0000 </r>
       <r>   39.9261    0.0000 </r>
       <r>   39.9653    0.0000 </r>
       <r>   40.0463    0.0000 </r>
       <r>   40.4955    0.0000 </r>
       <r>   40.5139    0.0000 </r>
       <r>   40.9819    0.0000 </r>
       <r>   41.0215    0.0000 </r>
       <r>   41.2677    0.0000 </r>
       <r>   41.3247    0.0000 </r>
       <r>   41.7321    0.0000 </r>
       <r>   41.8725    0.0000 </r>
       <r>   41.9732    0.0000 </r>
       <r>   42.0752    0.0000 </r>
       <r>   42.1973    0.0000 </r>
       <r>   42.4914    0.0000 </r>
       <r>   42.4994    0.0000 </r>
       <r>   43.0482    0.0000 </r>
       <r>   43.1188    0.0000 </r>
       <r>   43.1882    0.0000 </r>
       <r>   43.2596    0.0000 </r>
       <r>   43.3000    0.0000 </r>
       <r>   43.3578    0.0000 </r>
       <r>   43.5294    0.0000 </r>
       <r>   43.6799    0.0000 </r>
       <r>   44.6417    0.0000 </r>
       <r>   44.6720    0.0000 </r>
       <r>   44.8853    0.0000 </r>
       <r>   45.4007    0.0000 </r>
       <r>   45.4470    0.0000 </r>
       <r>   45.6726    0.0000 </r>
       <r>   45.9617    0.0000 </r>
       <r>   46.1494    0.0000 </r>
       <r>   46.1588    0.0000 </r>
       <r>   46.2254    0.0000 </r>
       <r>   46.7239    0.0000 </r>
       <r>   46.9219    0.0000 </r>
       <r>   46.9485    0.0000 </r>
       <r>   46.9672    0.0000 </r>
       <r>   47.1489    0.0000 </r>
       <r>   47.4482    0.0000 </r>
       <r>   47.8922    0.0000 </r>
       <r>   48.0926    0.0000 </r>
       <r>   48.1597    0.0000 </r>
       <r>   48.6210    0.0000 </r>
       <r>   49.1238    0.0000 </r>
       <r>   49.1270    0.0000 </r>
       <r>   49.5631    0.0000 </r>
       <r>   49.6918    0.0000 </r>
       <r>   50.1735    0.0000 </r>
       <r>   50.6811    0.0000 </r>
       <r>   50.8336    0.0000 </r>
       <r>   51.0481    0.0000 </r>
       <r>   51.2012    0.0000 </r>
       <r>   51.4754    0.0000 </r>
       <r>   51.4978    0.0000 </r>
       <r>   51.8138    0.0000 </r>
       <r>   51.9232    0.0000 </r>
       <r>   51.9399    0.0000 </r>
       <r>   52.2272    0.0000 </r>
       <r>   52.2347    0.0000 </r>
       <r>   52.2417    0.0000 </r>
       <r>   52.3099    0.0000 </r>
       <r>   52.3773    0.0000 </r>
       <r>   52.7399    0.0000 </r>
       <r>   52.8168    0.0000 </r>
       <r>   52.9304    0.0000 </r>
       <r>   53.4139    0.0000 </r>
       <r>   53.4170    0.0000 </r>
       <r>   53.5802    0.0000 </r>
       <r>   53.6877    0.0000 </r>
       <r>   54.0041    0.0000 </r>
       <r>   54.2551    0.0000 </r>
       <r>   54.6260    0.0000 </r>
       <r>   54.6314    0.0000 </r>
       <r>   54.8358    0.0000 </r>
       <r>   55.0988    0.0000 </r>
       <r>   55.4123    0.0000 </r>
       <r>   55.4700    0.0000 </r>
       <r>   55.5246    0.0000 </r>
       <r>   55.5447    0.0000 </r>
       <r>   55.7689    0.0000 </r>
       <r>   56.0095    0.0000 </r>
       <r>   56.3255    0.0000 </r>
       <r>   56.4511    0.0000 </r>
       <r>   56.5151    0.0000 </r>
       <r>   56.5431    0.0000 </r>
       <r>   57.0108    0.0000 </r>
       <r>   57.2025    0.0000 </r>
       <r>   57.2031    0.0000 </r>
      </set>
      <set comment="kpoint 7">
       <r>  -17.9687    1.0000 </r>
       <r>  -16.2722    1.0000 </r>
       <r>  -15.1182    1.0000 </r>
       <r>  -12.8452    1.0000 </r>
       <r>  -10.5233    1.0000 </r>
       <r>   -8.6674    1.0000 </r>
       <r>   -8.4603    1.0000 </r>
       <r>   -7.8540    1.0000 </r>
       <r>   -6.2579    1.0000 </r>
       <r>   -6.2284    1.0000 </r>
       <r>   -5.9752    1.0000 </r>
       <r>   -5.3004    1.0000 </r>
       <r>   -4.7629    1.0000 </r>
       <r>   -3.6806    1.0000 </r>
       <r>   -3.4227    1.0000 </r>
       <r>   -1.8229    0.0000 </r>
       <r>    2.0369    0.0000 </r>
       <r>    2.9042    0.0000 </r>
       <r>    3.7591    0.0000 </r>
       <r>    3.7616    0.0000 </r>
       <r>    5.8295    0.0000 </r>
       <r>    6.0178    0.0000 </r>
       <r>    6.6833    0.0000 </r>
       <r>    6.8324    0.0000 </r>
       <r>    7.0070    0.0000 </r>
       <r>    7.3848    0.0000 </r>
       <r>    7.5018    0.0000 </r>
       <r>    7.5244    0.0000 </r>
       <r>    7.8615    0.0000 </r>
       <r>    8.4188    0.0000 </r>
       <r>    8.7679    0.0000 </r>
       <r>    9.4538    0.0000 </r>
       <r>   10.0363    0.0000 </r>
       <r>   11.0875    0.0000 </r>
       <r>   11.2965    0.0000 </r>
       <r>   11.3093    0.0000 </r>
       <r>   11.8230    0.0000 </r>
       <r>   11.8675    0.0000 </r>
       <r>   12.0688    0.0000 </r>
       <r>   12.5005    0.0000 </r>
       <r>   12.7063    0.0000 </r>
       <r>   12.8630    0.0000 </r>
       <r>   13.6413    0.0000 </r>
       <r>   14.0529    0.0000 </r>
       <r>   14.3493    0.0000 </r>
       <r>   14.6915    0.0000 </r>
       <r>   15.0594    0.0000 </r>
       <r>   15.2109    0.0000 </r>
       <r>   15.3651    0.0000 </r>
       <r>   15.3664    0.0000 </r>
       <r>   16.6211    0.0000 </r>
       <r>   16.9789    0.0000 </r>
       <r>   17.1612    0.0000 </r>
       <r>   17.3312    0.0000 </r>
       <r>   17.3606    0.0000 </r>
       <r>   17.7409    0.0000 </r>
       <r>   18.2136    0.0000 </r>
       <r>   18.3643    0.0000 </r>
       <r>   18.5835    0.0000 </r>
       <r>   18.6120    0.0000 </r>
       <r>   18.8324    0.0000 </r>
       <r>   18.9763    0.0000 </r>
       <r>   19.1429    0.0000 </r>
       <r>   19.3566    0.0000 </r>
       <r>   19.9079    0.0000 </r>
       <r>   19.9569    0.0000 </r>
       <r>   20.0143    0.0000 </r>
       <r>   20.1817    0.0000 </r>
       <r>   20.9535    0.0000 </r>
       <r>   21.1326    0.0000 </r>
       <r>   21.6406    0.0000 </r>
       <r>   21.7580    0.0000 </r>
       <r>   22.4412    0.0000 </r>
       <r>   22.5453    0.0000 </r>
       <r>   22.5762    0.0000 </r>
       <r>   22.6512    0.0000 </r>
       <r>   23.6180    0.0000 </r>
       <r>   23.8592    0.0000 </r>
       <r>   23.9896    0.0000 </r>
       <r>   24.0510    0.0000 </r>
       <r>   24.6837    0.0000 </r>
       <r>   25.4785    0.0000 </r>
       <r>   25.8082    0.0000 </r>
       <r>   25.8779    0.0000 </r>
       <r>   26.7758    0.0000 </r>
       <r>   26.8048    0.0000 </r>
       <r>   26.8170    0.0000 </r>
       <r>   27.1894    0.0000 </r>
       <r>   27.4249    0.0000 </r>
       <r>   27.4830    0.0000 </r>
       <r>   27.9756    0.0000 </r>
       <r>   28.0416    0.0000 </r>
       <r>   28.0484    0.0000 </r>
       <r>   28.8468    0.0000 </r>
       <r>   28.9853    0.0000 </r>
       <r>   29.0125    0.0000 </r>
       <r>   29.5492    0.0000 </r>
       <r>   29.6296    0.0000 </r>
[...]
       <r>    48.3529     6.8202   357.5250 </r>
       <r>    48.3879    15.5718   358.0709 </r>
       <r>    48.4230     3.5232   358.1944 </r>
       <r>    48.4581     0.0269   358.1954 </r>
       <r>    48.4931    11.6625   358.6043 </r>
       <r>    48.5282    16.5338   359.1840 </r>
       <r>    48.5632     9.6864   359.5236 </r>
       <r>    48.5983     7.4673   359.7854 </r>
       <r>    48.6334     4.4576   359.9416 </r>
       <r>    48.6684    17.4563   360.5537 </r>
       <r>    48.7035    13.1366   361.0142 </r>
       <r>    48.7385    13.4830   361.4870 </r>
       <r>    48.7736     6.0810   361.7002 </r>
       <r>    48.8087     8.5273   361.9991 </r>
       <r>    48.8437    14.1590   362.4955 </r>
       <r>    48.8788     3.3286   362.6122 </r>
       <r>    48.9138    10.6544   362.9858 </r>
       <r>    48.9489     4.4508   363.1418 </r>
       <r>    48.9840     4.9788   363.3164 </r>
       <r>    49.0190     1.3583   363.3640 </r>
       <r>    49.0541     8.4384   363.6599 </r>
       <r>    49.0892     7.6906   363.9295 </r>
       <r>    49.1242     2.9425   364.0327 </r>
       <r>    49.1593    23.6347   364.8613 </r>
       <r>    49.1943     4.6668   365.0249 </r>
       <r>    49.2294     2.7076   365.1198 </r>
       <r>    49.2645    10.3417   365.4824 </r>
       <r>    49.2995    10.3104   365.8439 </r>
       <r>    49.3346    16.3620   366.4176 </r>
       <r>    49.3696     6.3605   366.6406 </r>
       <r>    49.4047    11.3209   367.0375 </r>
       <r>    49.4398     8.8203   367.3467 </r>
       <r>    49.4748     8.7429   367.6532 </r>
       <r>    49.5099    12.9314   368.1066 </r>
       <r>    49.5449     9.7436   368.4482 </r>
       <r>    49.5800    22.4049   369.2338 </r>
       <r>    49.6151    13.7621   369.7163 </r>
       <r>    49.6501    13.2280   370.1800 </r>
       <r>    49.6852    20.3608   370.8939 </r>
       <r>    49.7202    13.5396   371.3686 </r>
       <r>    49.7553     7.0518   371.6158 </r>
       <r>    49.7904     6.9759   371.8604 </r>
       <r>    49.8254     6.9010   372.1024 </r>
       <r>    49.8605    13.5044   372.5758 </r>
       <r>    49.8955     2.6566   372.6690 </r>
       <r>    49.9306     7.9903   372.9491 </r>
       <r>    49.9657    12.1924   373.3766 </r>
       <r>    50.0007     9.8874   373.7232 </r>
       <r>    50.0358    23.1399   374.5345 </r>
       <r>    50.0708     8.7016   374.8396 </r>
       <r>    50.1059     0.8366   374.8689 </r>
       <r>    50.1410     9.9172   375.2166 </r>
       <r>    50.1760     4.1323   375.3615 </r>
       <r>    50.2111     3.1972   375.4736 </r>
       <r>    50.2461     5.4217   375.6637 </r>
       <r>    50.2812    20.7802   376.3922 </r>
       <r>    50.3163     3.0321   376.4985 </r>
       <r>    50.3513    15.2229   377.0323 </r>
       <r>    50.3864    21.8461   377.7982 </r>
       <r>    50.4214     2.4635   377.8846 </r>
       <r>    50.4565    12.1401   378.3102 </r>
       <r>    50.4916     8.0031   378.5908 </r>
       <r>    50.5266    14.0589   379.0837 </r>
       <r>    50.5617     5.4449   379.2746 </r>
       <r>    50.5967     7.6887   379.5442 </r>
       <r>    50.6318     7.4844   379.8066 </r>
       <r>    50.6669    10.2748   380.1668 </r>
       <r>    50.7019    13.9371   380.6554 </r>
       <r>    50.7370    17.9324   381.2842 </r>
       <r>    50.7720     8.3738   381.5777 </r>
       <r>    50.8071    12.2271   382.0064 </r>
       <r>    50.8422    13.4902   382.4794 </r>
       <r>    50.8772     5.0541   382.6566 </r>
       <r>    50.9123    16.2921   383.2278 </r>
       <r>    50.9473     9.1310   383.5479 </r>
       <r>    50.9824     9.7050   383.8882 </r>
       <r>    51.0175     5.1142   384.0675 </r>
       <r>    51.0525    17.0905   384.6667 </r>
       <r>    51.0876    18.2043   385.3049 </r>
       <r>    51.1226    13.3773   385.7739 </r>
       <r>    51.1577     7.7292   386.0449 </r>
       <r>    51.1928     5.7041   386.2449 </r>
       <r>    51.2278    11.9620   386.6643 </r>
       <r>    51.2629    19.6762   387.3542 </r>
       <r>    51.2979    12.1719   387.7809 </r>
       <r>    51.3330    15.1054   388.3105 </r>
       <r>    51.3681     5.4305   388.5009 </r>
       <r>    51.4031    12.6653   388.9449 </r>
       <r>    51.4382    20.3406   389.6581 </r>
       <r>    51.4732     7.0221   389.9043 </r>
       <r>    51.5083    19.5244   390.5888 </r>
       <r>    51.5434     5.5169   390.7822 </r>
       <r>    51.5784    11.3237   391.1793 </r>
       <r>    51.6135    12.5653   391.6198 </r>
       <r>    51.6485     2.7128   391.7149 </r>
       <r>    51.6836    14.6121   392.2272 </r>
       <r>    51.7187    20.7101   392.9533 </r>
       <r>    51.7537     7.9659   393.2326 </r>
       <r>    51.7888    12.6953   393.6777 </r>
       <r>    51.8238    10.6829   394.0522 </r>
       <r>    51.8589    12.8758   394.5037 </r>
       <r>    51.8940     8.8230   394.8130 </r>
       <r>    51.9290     9.2290   395.1366 </r>
       <r>    51.9641    22.2215   395.9157 </r>
       <r>    51.9991     7.7526   396.1875 </r>
       <r>    52.0342     2.1708   396.2636 </r>
       <r>    52.0693     7.1186   396.5132 </r>
       <r>    52.1043    11.6939   396.9231 </r>
       <r>    52.1394     6.5790   397.1538 </r>
       <r>    52.1744    13.9919   397.6444 </r>
       <r>    52.2095    12.4563   398.0811 </r>
       <r>    52.2446    14.2599   398.5810 </r>
       <r>    52.2796     9.6925   398.9209 </r>
       <r>    52.3147    12.0666   399.3439 </r>
       <r>    52.3497    20.1613   400.0508 </r>
       <r>    52.3848    11.8508   400.4663 </r>
       <r>    52.4199     8.3311   400.7584 </r>
       <r>    52.4549    19.0467   401.4261 </r>
       <r>    52.4900    13.3874   401.8955 </r>
       <r>    52.5250     8.5522   402.1954 </r>
       <r>    52.5601     5.5510   402.3900 </r>
       <r>    52.5952     9.8997   402.7371 </r>
       <r>    52.6302     7.9038   403.0142 </r>
       <r>    52.6653    18.5399   403.6642 </r>
       <r>    52.7003     7.5630   403.9293 </r>
       <r>    52.7354    10.9365   404.3128 </r>
       <r>    52.7705     9.2939   404.6386 </r>
       <r>    52.8055     3.6831   404.7677 </r>
       <r>    52.8406    17.9425   405.3968 </r>
       <r>    52.8756    20.6739   406.1216 </r>
       <r>    52.9107     7.5748   406.3872 </r>
       <r>    52.9458    19.3071   407.0641 </r>
       <r>    52.9808     6.8279   407.3035 </r>
       <r>    53.0159     9.0145   407.6196 </r>
       <r>    53.0509    10.2364   407.9785 </r>
       <r>    53.0860    10.7655   408.3559 </r>
       <r>    53.1211     6.3973   408.5802 </r>
       <r>    53.1561     5.2516   408.7643 </r>
       <r>    53.1912     4.5422   408.9236 </r>
       <r>    53.2263    13.5589   409.3989 </r>
       <r>    53.2613     6.7398   409.6352 </r>
       <r>    53.2964     6.6396   409.8680 </r>
       <r>    53.3314    16.2339   410.4372 </r>
       <r>    53.3665     6.7221   410.6729 </r>
       <r>    53.4016    15.0814   411.2016 </r>
       <r>    53.4366     7.2068   411.4543 </r>
       <r>    53.4717    11.3420   411.8519 </r>
       <r>    53.5067     1.4275   411.9020 </r>
       <r>    53.5418     5.0570   412.0793 </r>
       <r>    53.5769     9.9361   412.4276 </r>
       <r>    53.6119    12.3250   412.8598 </r>
       <r>    53.6470    18.3931   413.5046 </r>
       <r>    53.6820     6.1211   413.7192 </r>
       <r>    53.7171     7.9003   413.9962 </r>
       <r>    53.7522    13.4410   414.4675 </r>
       <r>    53.7872    17.8542   415.0934 </r>
       <r>    53.8223     6.3318   415.3154 </r>
       <r>    53.8573     5.7173   415.5159 </r>
       <r>    53.8924     5.5576   415.7107 </r>
       <r>    53.9275     4.2758   415.8606 </r>
       <r>    53.9625     1.9557   415.9292 </r>
       <r>    53.9976    12.7640   416.3767 </r>
       <r>    54.0326    17.1644   416.9785 </r>
       <r>    54.0677     5.9204   417.1861 </r>
       <r>    54.1028    15.6639   417.7353 </r>
       <r>    54.1378     2.5003   417.8229 </r>
       <r>    54.1729     7.4820   418.0852 </r>
       <r>    54.2079     7.7722   418.3577 </r>
       <r>    54.2430    12.7990   418.8065 </r>
       <r>    54.2781    11.2976   419.2026 </r>
       <r>    54.3131     6.6894   419.4371 </r>
       <r>    54.3482    14.0250   419.9288 </r>
       <r>    54.3832    16.9859   420.5243 </r>
       <r>    54.4183    11.6722   420.9336 </r>
       <r>    54.4534     1.1260   420.9730 </r>
       <r>    54.4884     7.7842   421.2460 </r>
       <r>    54.5235     9.5369   421.5803 </r>
       <r>    54.5585     6.4125   421.8052 </r>
       <r>    54.5936     6.5162   422.0336 </r>
       <r>    54.6287    10.4004   422.3983 </r>
       <r>    54.6637    17.5244   423.0127 </r>
       <r>    54.6988    15.0837   423.5415 </r>
       <r>    54.7338    18.0357   424.1738 </r>
       <r>    54.7689     9.5965   424.5103 </r>
       <r>    54.8040     3.0737   424.6180 </r>
       <r>    54.8390    25.0629   425.4968 </r>
       <r>    54.8741    16.0921   426.0609 </r>
       <r>    54.9091     6.7766   426.2985 </r>
       <r>    54.9442     2.7858   426.3962 </r>
       <r>    54.9793     7.2445   426.6502 </r>
       <r>    55.0143     8.3288   426.9422 </r>
       <r>    55.0494    15.3910   427.4818 </r>
       <r>    55.0844     4.7768   427.6493 </r>
       <r>    55.1195     2.4824   427.7363 </r>
       <r>    55.1546    13.0831   428.1950 </r>
       <r>    55.1896     4.7371   428.3611 </r>
       <r>    55.2247     0.1515   428.3664 </r>
       <r>    55.2597     3.4465   428.4873 </r>
       <r>    55.2948     2.1577   428.5629 </r>
       <r>    55.3299     8.6377   428.8657 </r>
       <r>    55.3649    10.4068   429.2306 </r>
       <r>    55.4000     8.7540   429.5375 </r>
       <r>    55.4350     9.2090   429.8604 </r>
       <r>    55.4701     9.2117   430.1834 </r>
       <r>    55.5052    12.1868   430.6106 </r>
       <r>    55.5402    16.6376   431.1939 </r>
       <r>    55.5753    11.8228   431.6085 </r>
       <r>    55.6103    16.9610   432.2031 </r>
       <r>    55.6454     9.6006   432.5397 </r>
       <r>    55.6805    17.0647   433.1380 </r>
       <r>    55.7155    25.5833   434.0350 </r>
       <r>    55.7506     6.3782   434.2586 </r>
       <r>    55.7856    11.2185   434.6519 </r>
       <r>    55.8207    13.5475   435.1269 </r>
       <r>    55.8558    18.0307   435.7590 </r>
       <r>    55.8908     9.8640   436.1049 </r>
       <r>    55.9259     8.9867   436.4199 </r>
       <r>    55.9609     2.1362   436.4948 </r>
       <r>    55.9960    12.4512   436.9314 </r>
       <r>    56.0311    14.3439   437.4343 </r>
       <r>    56.0661     8.8610   437.7449 </r>
       <r>    56.1012     0.1441   437.7500 </r>
       <r>    56.1362     1.6634   437.8083 </r>
       <r>    56.1713     6.5484   438.0379 </r>
       <r>    56.2064    10.3386   438.4004 </r>
       <r>    56.2414    14.9417   438.9242 </r>
       <r>    56.2765     3.8322   439.0586 </r>
       <r>    56.3115     6.3031   439.2796 </r>
       <r>    56.3466    15.7854   439.8330 </r>
       <r>    56.3817     3.8845   439.9692 </r>
       <r>    56.4167    15.1010   440.4987 </r>
       <r>    56.4518    16.7420   441.0856 </r>
       <r>    56.4868    20.8821   441.8178 </r>
       <r>    56.5219    16.4066   442.3930 </r>
       <r>    56.5570    18.1756   443.0302 </r>
       <r>    56.5920    11.8923   443.4472 </r>
       <r>    56.6271     9.0840   443.7657 </r>
       <r>    56.6621     5.4933   443.9583 </r>
       <r>    56.6972    17.6938   444.5786 </r>
       <r>    56.7323    23.0593   445.3871 </r>
       <r>    56.7673     8.9268   445.7000 </r>
       <r>    56.8024    19.7634   446.3929 </r>
       <r>    56.8374    11.9492   446.8119 </r>
       <r>    56.8725     7.2272   447.0653 </r>
       <r>    56.9076    10.3301   447.4275 </r>
       <r>    56.9426     8.0571   447.7099 </r>
       <r>    56.9777    10.0050   448.0607 </r>
       <r>    57.0127    13.4200   448.5312 </r>
       <r>    57.0478    19.0462   449.1990 </r>
       <r>    57.0829     5.5712   449.3943 </r>
       <r>    57.1179     9.5847   449.7304 </r>
       <r>    57.1530    10.9473   450.1142 </r>
       <r>    57.1880     9.1752   450.4359 </r>
       <r>    57.2231     9.7167   450.7765 </r>
       <r>    57.2582    14.7352   451.2931 </r>
       <r>    57.2932    28.0244   452.2757 </r>
       <r>    57.3283     7.4813   452.5380 </r>
       <r>    57.3634     6.8471   452.7780 </r>
       <r>    57.3984     0.9289   452.8106 </r>
       <r>    57.4335     4.4448   452.9664 </r>
       <r>    57.4685    12.4289   453.4022 </r>
       <r>    57.5036     2.3492   453.4846 </r>
       <r>    57.5387     8.8440   453.7946 </r>
       <r>    57.5737     8.8270   454.1041 </r>
       <r>    57.6088     4.9191   454.2766 </r>
       <r>    57.6438     4.9948   454.4517 </r>
       <r>    57.6789    11.4615   454.8535 </r>
       <r>    57.7140     2.6966   454.9481 </r>
       <r>    57.7490    11.0563   455.3357 </r>
       <r>    57.7841     0.7726   455.3628 </r>
       <r>    57.8191     4.7423   455.5291 </r>
       <r>    57.8542     6.5643   455.7592 </r>
       <r>    57.8893     2.1140   455.8333 </r>
       <r>    57.9243     2.8007   455.9315 </r>
       <r>    57.9594     1.9530   456.0000 </r>
       <r>    57.9944     0.0000   456.0000 </r>
       <r>    58.0295     0.0000   456.0000 </r>
       <r>    58.0646     0.0000   456.0000 </r>
       <r>    58.0996     0.0000   456.0000 </r>
       <r>    58.1347     0.0000   456.0000 </r>
       <r>    58.1697     0.0000   456.0000 </r>
       <r>    58.2048     0.0000   456.0000 </r>
       <r>    58.2399     0.0000   456.0000 </r>
       <r>    58.2749     0.0000   456.0000 </r>
       <r>    58.3100     0.0000   456.0000 </r>
       <r>    58.3450     0.0000   456.0000 </r>
       <r>    58.3801     0.0000   456.0000 </r>
       <r>    58.4152     0.0000   456.0000 </r>
       <r>    58.4502     0.0000   456.0000 </r>
       <r>    58.4853     0.0000   456.0000 </r>
       <r>    58.5203     0.0000   456.0000 </r>
       <r>    58.5554     0.0000   456.0000 </r>
       <r>    58.5905     0.0000   456.0000 </r>
       <r>    58.6255     0.0000   456.0000 </r>
       <r>    58.6606     0.0000   456.0000 </r>
       <r>    58.6956     0.0000   456.0000 </r>
       <r>    58.7307     0.0000   456.0000 </r>
       <r>    58.7658     0.0000   456.0000 </r>
       <r>    58.8008     0.0000   456.0000 </r>
       <r>    58.8359     0.0000   456.0000 </r>
       <r>    58.8709     0.0000   456.0000 </r>
       <r>    58.9060     0.0000   456.0000 </r>
       <r>    58.9411     0.0000   456.0000 </r>
       <r>    58.9761     0.0000   456.0000 </r>
       <r>    59.0112     0.0000   456.0000 </r>
       <r>    59.0462     0.0000   456.0000 </r>
       <r>    59.0813     0.0000   456.0000 </r>
       <r>    59.1164     0.0000   456.0000 </r>
       <r>    59.1514     0.0000   456.0000 </r>
       <r>    59.1865     0.0000   456.0000 </r>
       <r>    59.2215     0.0000   456.0000 </r>
       <r>    59.2566     0.0000   456.0000 </r>
       <r>    59.2917     0.0000   456.0000 </r>
       <r>    59.3267     0.0000   456.0000 </r>
       <r>    59.3618     0.0000   456.0000 </r>
       <r>    59.3968     0.0000   456.0000 </r>
       <r>    59.4319     0.0000   456.0000 </r>
       <r>    59.4670     0.0000   456.0000 </r>
       <r>    59.5020     0.0000   456.0000 </r>
       <r>    59.5371     0.0000   456.0000 </r>
       <r>    59.5721     0.0000   456.0000 </r>
       <r>    59.6072     0.0000   456.0000 </r>
       <r>    59.6423     0.0000   456.0000 </r>
       <r>    59.6773     0.0000   456.0000 </r>
       <r>    59.7124     0.0000   456.0000 </r>
       <r>    59.7474     0.0000   456.0000 </r>
       <r>    59.7825     0.0000   456.0000 </r>
       <r>    59.8176     0.0000   456.0000 </r>
       <r>    59.8526     0.0000   456.0000 </r>
       <r>    59.8877     0.0000   456.0000 </r>
       <r>    59.9227     0.0000   456.0000 </r>
       <r>    59.9578     0.0000   456.0000 </r>
       <r>    59.9929     0.0000   456.0000 </r>
       <r>    60.0279     0.0000   456.0000 </r>
       <r>    60.0630     0.0000   456.0000 </r>
       <r>    60.0980     0.0000   456.0000 </r>
       <r>    60.1331     0.0000   456.0000 </r>
       <r>    60.1682     0.0000   456.0000 </r>
       <r>    60.2032     0.0000   456.0000 </r>
       <r>    60.2383     0.0000   456.0000 </r>
       <r>    60.2733     0.0000   456.0000 </r>
       <r>    60.3084     0.0000   456.0000 </r>
       <r>    60.3435     0.0000   456.0000 </r>
       <r>    60.3785     0.0000   456.0000 </r>
       <r>    60.4136     0.0000   456.0000 </r>
       <r>    60.4486     0.0000   456.0000 </r>
       <r>    60.4837     0.0000   456.0000 </r>
       <r>    60.5188     0.0000   456.0000 </r>
       <r>    60.5538     0.0000   456.0000 </r>
       <r>    60.5889     0.0000   456.0000 </r>
       <r>    60.6239     0.0000   456.0000 </r>
       <r>    60.6590     0.0000   456.0000 </r>
       <r>    60.6941     0.0000   456.0000 </r>
       <r>    60.7291     0.0000   456.0000 </r>
       <r>    60.7642     0.0000   456.0000 </r>
       <r>    60.7992     0.0000   456.0000 </r>
       <r>    60.8343     0.0000   456.0000 </r>
       <r>    60.8694     0.0000   456.0000 </r>
       <r>    60.9044     0.0000   456.0000 </r>
       <r>    60.9395     0.0000   456.0000 </r>
       <r>    60.9745     0.0000   456.0000 </r>
       <r>    61.0096     0.0000   456.0000 </r>
       <r>    61.0447     0.0000   456.0000 </r>
       <r>    61.0797     0.0000   456.0000 </r>
       <r>    61.1148     0.0000   456.0000 </r>
       <r>    61.1498     0.0000   456.0000 </r>
       <r>    61.1849     0.0000   456.0000 </r>
       <r>    61.2200     0.0000   456.0000 </r>
       <r>    61.2550     0.0000   456.0000 </r>
       <r>    61.2901     0.0000   456.0000 </r>
       <r>    61.3252     0.0000   456.0000 </r>
       <r>    61.3602     0.0000   456.0000 </r>
       <r>    61.3953     0.0000   456.0000 </r>
       <r>    61.4303     0.0000   456.0000 </r>
       <r>    61.4654     0.0000   456.0000 </r>
       <r>    61.5005     0.0000   456.0000 </r>
       <r>    61.5355     0.0000   456.0000 </r>
       <r>    61.5706     0.0000   456.0000 </r>
       <r>    61.6056     0.0000   456.0000 </r>
       <r>    61.6407     0.0000   456.0000 </r>
       <r>    61.6758     0.0000   456.0000 </r>
       <r>    61.7108     0.0000   456.0000 </r>
       <r>    61.7459     0.0000   456.0000 </r>
      </set>
     </set>
    </array>
   </total>
  </dos>
 </calculation>
 <structure name="finalpos" >
  <crystal>
   <varray name="basis" >
    <v>       4.48084843       2.58701885       0.00000000 </v>
    <v>      -4.48084843       2.58701885       0.00000000 </v>
    <v>       0.00000000       0.00000000       8.52022140 </v>
   </varray>
   <i name="volume">    197.53348383 </i>
   <varray name="rec_basis" >
    <v>       0.11158601       0.19327265       0.00000000 </v>
    <v>      -0.11158601       0.19327265       0.00000000 </v>
    <v>       0.00000000       0.00000000       0.11736784 </v>
   </varray>
  </crystal>
  <varray name="positions" >
   <v>       0.33333300       0.66666600       0.25000000 </v>
   <v>       0.66666600       0.33333300       0.25000000 </v>
   <v>       0.15869124       0.31738348       0.25000000 </v>
   <v>       0.31738348       0.15869124       0.25000000 </v>
   <v>       0.15869124       0.84130776       0.25000000 </v>
   <v>       0.84130776       0.15869124       0.25000000 </v>
   <v>       0.68261552       0.84130776       0.25000000 </v>
   <v>       0.84130776       0.68261552       0.25000000 </v>
  </varray>
 </structure>
</modeling>
