    8    8    1    1
  0.5796174E+02  0.5174000E-09  0.5174160E-09  0.2000000E-08  0.5000000E-15
  1.000000000000000E-004
  CAR 
 BC3 bandstructure                       
     30     73     24
 
  0.0000000E+00  0.0000000E+00  0.0000000E+00  0.3906250E-02
    1      -20.312739   1.000000
    2      -16.422057   1.000000
    3      -16.421460   1.000000
    4      -14.074621   1.000000
    5      -14.074202   1.000000
    6      -13.004259   1.000000
    7      -11.691710   1.000000
    8       -9.119069   1.000000
    9       -8.897270   1.000000
   10       -6.747183   1.000000
   11       -6.746212   1.000000
   12       -4.922899   1.000000
   13       -4.922863   1.000000
   14       -4.243273   1.000000
   15       -4.240773   1.000000
   16       -2.408580   0.000000
   17       -0.675992   0.000000
   18       -0.675554   0.000000
   19       -0.018960   0.000000
   20        0.414875   0.000000
   21        1.272789   0.000000
   22        1.497794   0.000000
   23        2.501570   0.000000
   24        2.872467   0.000000
 
  0.6250000E-01 -0.1387779E-16  0.0000000E+00  0.1562500E-01
    1      -20.297438   1.000000
    2      -16.498199   1.000000
    3      -16.446038   1.000000
    4      -14.096151   1.000000
    5      -14.018276   1.000000
    6      -12.928477   1.000000
    7      -11.600021   1.000000
    8       -9.095904   1.000000
    9       -8.929355   1.000000
   10       -6.816935   1.000000
   11       -6.759868   1.000000
   12       -4.993637   1.000000
   13       -4.934611   1.000000
   14       -4.323485   1.000000
   15       -4.280466   1.000000
   16       -2.533811   0.000000
   17       -0.642036   0.000000
   18       -0.487795   0.000000
   19        0.046668   0.000000
   20        0.443985   0.000000
   21        1.304228   0.000000
   22        1.527051   0.000000
   23        2.530948   0.000000
   24        2.901895   0.000000
 
  0.1250000E+00 -0.2775558E-16  0.0000000E+00  0.1562500E-01
    1      -20.252191   1.000000
    2      -16.700756   1.000000
    3      -16.511250   1.000000
    4      -14.164228   1.000000
    5      -13.859256   1.000000
    6      -12.705587   1.000000
    7      -11.344131   1.000000
    8       -9.029342   1.000000
    9       -9.026646   1.000000
   10       -7.018696   1.000000
   11       -6.789078   1.000000
   12       -5.195727   1.000000
   13       -4.967391   1.000000
   14       -4.558787   1.000000
   15       -4.392945   1.000000
   16       -2.788909   0.000000
   17       -0.545848   0.000000
   18       -0.110113   0.000000
   19        0.295492   0.000000
   20        0.531128   0.000000
   21        1.399906   0.000000
   22        1.614792   0.000000
   23        2.619151   0.000000
   24        2.989911   0.000000
 
  0.1875000E+00 -0.2775558E-16  0.0000000E+00  0.1562500E-01
    1      -20.179274   1.000000
    2      -16.976131   1.000000
    3      -16.599000   1.000000
    4      -14.266687   1.000000
    5      -13.618747   1.000000
    6      -12.364323   1.000000
    7      -10.962576   1.000000
    8       -9.203897   1.000000
    9       -8.912532   1.000000
   10       -7.330625   1.000000
   11       -6.808795   1.000000
   12       -5.500312   1.000000
   13       -5.014765   1.000000
   14       -4.929805   1.000000
   15       -4.565417   1.000000
   16       -3.040913   0.000000
   17       -0.399870   0.000000
   18        0.190298   0.000000
   19        0.675878   0.000000
   20        0.814583   0.000000
   21        1.567760   0.000000
   22        1.760944   0.000000
   23        2.766404   0.000000
   24        3.135949   0.000000
 
  0.2500000E+00 -0.5551115E-16  0.0000000E+00  0.1562500E-01
    1      -20.083233   1.000000
    2      -17.276391   1.000000
    3      -16.690964   1.000000
    4      -14.378049   1.000000
    5      -13.321601   1.000000
    6      -11.946167   1.000000
    7      -10.491147   1.000000
    8       -9.451276   1.000000
    9       -8.756061   1.000000
   10       -7.722899   1.000000
   11       -6.795698   1.000000
   12       -5.867259   1.000000
   13       -5.410194   1.000000
   14       -5.068046   1.000000
   15       -4.778249   1.000000
   16       -3.247749   0.000000
   17       -0.224381   0.000000
   18        0.448354   0.000000
   19        0.877754   0.000000
   20        1.421844   0.000000
   21        1.855924   0.000000
   22        1.965430   0.000000
   23        2.973502   0.000000
   24        3.339487   0.000000
 
  0.3125000E+00 -0.5551115E-16  0.0000000E+00  0.1562500E-01
    1      -19.972362   1.000000
    2      -17.565476   1.000000
    3      -16.773461   1.000000
    4      -14.478308   1.000000
    5      -12.993964   1.000000
    6      -11.483300   1.000000
    7       -9.965033   1.000000
    8       -9.752476   1.000000
    9       -8.562385   1.000000
   10       -8.157170   1.000000
   11       -6.741859   1.000000
   12       -6.256498   1.000000
   13       -5.971579   1.000000
   14       -5.118976   1.000000
   15       -5.007727   1.000000
   16       -3.404351   0.000000
   17       -0.043819   0.000000
   18        0.696133   0.000000
   19        1.136374   0.000000
   20        1.866791   0.000000
   21        2.228195   0.000000
   22        2.410047   0.000000
   23        3.243122   0.000000
   24        3.600175   0.000000
 
  0.3750000E+00 -0.5551115E-16  0.0000000E+00  0.1562500E-01
    1      -19.861368   1.000000
    2      -17.812457   1.000000
    3      -16.837554   1.000000
    4      -14.555774   1.000000
    5      -12.669588   1.000000
    6      -10.999131   1.000000
    7      -10.068311   1.000000
    8       -9.467603   1.000000
    9       -8.543145   1.000000
   10       -8.343530   1.000000
   11       -6.658104   1.000000
   12       -6.630469   1.000000
   13       -6.585998   1.000000
   14       -5.225276   1.000000
   15       -5.160480   1.000000
   16       -3.513636   0.000000
   17        0.113594   0.000000
   18        0.912209   0.000000
   19        1.451449   0.000000
   20        2.217328   0.000000
   21        2.549202   0.000000
   22        3.100511   0.000000
   23        3.269742   0.000000
   24        3.578772   0.000000
 
  0.4375000E+00 -0.5551115E-16  0.0000000E+00  0.1562500E-01
    1      -19.774148   1.000000
    2      -17.984317   1.000000
    3      -16.877880   1.000000
    4      -14.604228   1.000000
    5      -12.405744   1.000000
    6      -10.525951   1.000000
    7      -10.331917   1.000000
    8       -9.407698   1.000000
    9       -8.455556   1.000000
   10       -8.133442   1.000000
   11       -7.224101   1.000000
   12       -6.939151   1.000000
   13       -6.574111   1.000000
   14       -5.392074   1.000000
   15       -5.187443   1.000000
   16       -3.578226   0.000000
   17        0.221944   0.000000
   18        1.063007   0.000000
   19        1.822728   0.000000
   20        2.590040   0.000000
   21        2.732517   0.000000
   22        2.928423   0.000000
   23        3.448985   0.000000
   24        3.775881   0.000000
 
  0.5000000E+00 -0.1110223E-15  0.0000000E+00  0.7812500E-02
    1      -19.740058   1.000000
    2      -18.047089   1.000000
    3      -16.891612   1.000000
    4      -14.620679   1.000000
    5      -12.296848   1.000000
    6      -10.441631   1.000000
    7      -10.235162   1.000000
    8       -9.627544   1.000000
    9       -8.030453   1.000000
   10       -8.004977   1.000000
   11       -7.752683   1.000000
   12       -7.075893   1.000000
   13       -6.536554   1.000000
   14       -5.457503   1.000000
   15       -5.196769   1.000000
   16       -3.599650   0.000000
   17        0.260618   0.000000
   18        1.117498   0.000000
   19        2.247911   0.000000
   20        2.251904   0.000000
   21        2.981968   0.000000
   22        3.034048   0.000000
   23        3.365520   0.000000
   24        3.366091   0.000000
 
  0.0000000E+00  0.6250000E-01  0.0000000E+00  0.7812500E-02
    1      -20.297442   1.000000
    2      -16.497730   1.000000
    3      -16.446490   1.000000
    4      -14.095907   1.000000
    5      -14.018600   1.000000
    6      -12.928391   1.000000
    7      -11.600058   1.000000
    8       -9.095908   1.000000
    9       -8.929344   1.000000
   10       -6.816185   1.000000
   11       -6.760614   1.000000
   12       -4.993661   1.000000
   13       -4.934598   1.000000
   14       -4.321634   1.000000
   15       -4.282322   1.000000
   16       -2.533655   0.000000
   17       -0.642375   0.000000
   18       -0.487808   0.000000
   19        0.046851   0.000000
   20        0.443984   0.000000
   21        1.304233   0.000000
   22        1.527050   0.000000
   23        2.530948   0.000000
   24        2.901895   0.000000
 
  0.1250000E+00  0.6250000E-01  0.0000000E+00  0.7812500E-02
    1      -20.267149   1.000000
    2      -16.632308   1.000000
    3      -16.496454   1.000000
    4      -14.121933   1.000000
    5      -13.932146   1.000000
    6      -12.775724   1.000000
    7      -11.427002   1.000000
    8       -9.049670   1.000000
    9       -8.995828   1.000000
   10       -6.944930   1.000000
   11       -6.788628   1.000000
   12       -5.122669   1.000000
   13       -4.965603   1.000000
   14       -4.479081   1.000000
   15       -4.358604   1.000000
   16       -2.713381   0.000000
   17       -0.606861   0.000000
   18       -0.164792   0.000000
   19        0.184664   0.000000
   20        0.502116   0.000000
   21        1.367627   0.000000
   22        1.585553   0.000000
   23        2.589735   0.000000
   24        2.960626   0.000000
 
  0.1875000E+00  0.6250000E-01  0.0000000E+00  0.1562500E-01
    1      -20.208015   1.000000
    2      -16.860139   1.000000
    3      -16.585458   1.000000
    4      -14.176669   1.000000
    5      -13.769882   1.000000
    6      -12.481529   1.000000
    7      -11.111961   1.000000
    8       -9.136277   1.000000
    9       -8.957958   1.000000
   10       -7.181231   1.000000
   11       -6.830793   1.000000
   12       -5.361357   1.000000
   13       -5.027892   1.000000
   14       -4.774448   1.000000
   15       -4.508817   1.000000
   16       -2.933860   0.000000
   17       -0.546030   0.000000
   18        0.248017   0.000000
   19        0.531878   0.000000
   20        0.618073   0.000000
   21        1.497416   0.000000
   22        1.702503   0.000000
   23        2.707402   0.000000
   24        3.077689   0.000000
 
  0.2500000E+00  0.6250000E-01  0.0000000E+00  0.1562500E-01
    1      -20.123338   1.000000
    2      -17.138235   1.000000
    3      -16.687522   1.000000
    4      -14.264433   1.000000
    5      -13.525036   1.000000
    6      -12.088266   1.000000
    7      -10.691244   1.000000
    8       -9.355538   1.000000
    9       -8.822547   1.000000
   10       -7.509260   1.000000
   11       -6.851085   1.000000
   12       -5.685795   1.000000
   13       -5.190335   1.000000
   14       -5.104449   1.000000
   15       -4.711075   1.000000
   16       -3.120792   0.000000
   17       -0.444490   0.000000
   18        0.543095   0.000000
   19        0.791412   0.000000
   20        1.127301   0.000000
   21        1.709790   0.000000
   22        1.877829   0.000000
   23        2.884299   0.000000
   24        3.252559   0.000000
 
  0.3125000E+00  0.6250000E-01  0.0000000E+00  0.1562500E-01
    1      -20.019315   1.000000
    2      -17.426525   1.000000
    3      -16.784187   1.000000
    4      -14.359389   1.000000
    5      -13.222879   1.000000
    6      -11.638466   1.000000
    7      -10.197178   1.000000
    8       -9.642848   1.000000
    9       -8.647029   1.000000
   10       -7.902052   1.000000
   11       -6.829338   1.000000
   12       -6.057855   1.000000
   13       -5.700548   1.000000
   14       -5.180611   1.000000
   15       -4.941961   1.000000
   16       -3.261830   0.000000
   17       -0.313168   0.000000
   18        0.815590   0.000000
   19        1.021697   0.000000
   20        1.689188   0.000000
   21        2.102163   0.000000
   22        2.111464   0.000000
   23        3.121658   0.000000
   24        3.484795   0.000000
 
  0.3750000E+00  0.6250000E-01  0.0000000E+00  0.1562500E-01
    1      -19.907054   1.000000
    2      -17.691470   1.000000
    3      -16.864004   1.000000
    4      -14.441915   1.000000
    5      -12.896562   1.000000
    6      -11.161980   1.000000
    7       -9.971555   1.000000
    8       -9.667317   1.000000
    9       -8.439222   1.000000
   10       -8.313314   1.000000
   11       -6.771514   1.000000
   12       -6.437754   1.000000
   13       -6.272712   1.000000
   14       -5.245815   1.000000
   15       -5.174948   1.000000
   16       -3.362285   0.000000
   17       -0.176448   0.000000
   18        1.065903   0.000000
   19        1.308591   0.000000
   20        2.068861   0.000000
   21        2.403363   0.000000
   22        2.749593   0.000000
   23        3.423279   0.000000
   24        3.580056   0.000000
 
  0.4375000E+00  0.6250000E-01  0.0000000E+00  0.1562500E-01
    1      -19.805525   1.000000
    2      -17.900749   1.000000
    3      -16.920247   1.000000
    4      -14.501275   1.000000
    5      -12.592074   1.000000
    6      -10.692372   1.000000
    7      -10.271034   1.000000
    8       -9.291023   1.000000
    9       -8.553054   1.000000
   10       -8.218969   1.000000
   11       -6.933843   1.000000
   12       -6.783364   1.000000
   13       -6.643961   1.000000
   14       -5.376987   1.000000
   15       -5.292958   1.000000
   16       -3.427396   0.000000
   17       -0.062956   0.000000
   18        1.264043   0.000000
   19        1.651821   0.000000
   20        2.424311   0.000000
   21        2.753487   0.000000
   22        3.016104   0.000000
   23        3.412992   0.000000
   24        3.712490   0.000000
 
  0.5000000E+00  0.6250000E-01  0.0000000E+00  0.1562500E-01
    1      -19.742328   1.000000
    2      -18.019424   1.000000
    3      -16.949209   1.000000
    4      -14.532073   1.000000
    5      -12.389340   1.000000
    6      -10.526859   1.000000
    7      -10.230038   1.000000
    8       -9.448308   1.000000
    9       -8.193961   1.000000
   10       -8.045947   1.000000
   11       -7.537418   1.000000
   12       -7.021906   1.000000
   13       -6.595491   1.000000
   14       -5.502127   1.000000
   15       -5.317590   1.000000
   16       -3.459504   0.000000
   17        0.001628   0.000000
   18        1.375415   0.000000
   19        2.051102   0.000000
   20        2.506068   0.000000
   21        2.815533   0.000000
   22        3.161811   0.000000
   23        3.255696   0.000000
   24        3.628237   0.000000
 
 -0.4375000E+00  0.6250000E-01  0.0000000E+00  0.1562500E-01
    1      -19.742339   1.000000
    2      -18.019387   1.000000
    3      -16.949238   1.000000
    4      -14.532046   1.000000
    5      -12.389414   1.000000
    6      -10.527308   1.000000
    7      -10.229315   1.000000
    8       -9.448490   1.000000
    9       -8.194290   1.000000
   10       -8.045969   1.000000
   11       -7.537050   1.000000
   12       -7.021868   1.000000
   13       -6.595479   1.000000
   14       -5.502227   1.000000
   15       -5.317639   1.000000
   16       -3.459414   0.000000
   17        0.001499   0.000000
   18        1.375482   0.000000
   19        2.051073   0.000000
   20        2.506102   0.000000
   21        2.815509   0.000000
   22        3.161783   0.000000
   23        3.255715   0.000000
   24        3.628268   0.000000
 
 -0.3750000E+00  0.6250000E-01  0.0000000E+00  0.1562500E-01
    1      -19.805551   1.000000
    2      -17.900642   1.000000
    3      -16.920335   1.000000
    4      -14.501191   1.000000
    5      -12.592281   1.000000
    6      -10.692782   1.000000
    7      -10.270207   1.000000
    8       -9.291199   1.000000
    9       -8.553373   1.000000
   10       -8.219009   1.000000
   11       -6.933359   1.000000
   12       -6.783272   1.000000
   13       -6.643967   1.000000
   14       -5.377268   1.000000
   15       -5.293091   1.000000
   16       -3.427133   0.000000
   17       -0.063314   0.000000
   18        1.264292   0.000000
   19        1.651796   0.000000
   20        2.424292   0.000000
   21        2.753463   0.000000
   22        3.016144   0.000000
   23        3.412808   0.000000
   24        3.712488   0.000000
 
 -0.3125000E+00  0.6250000E-01  0.0000000E+00  0.1562500E-01
    1      -19.907085   1.000000
    2      -17.691297   1.000000
    3      -16.864154   1.000000
    4      -14.441768   1.000000
    5      -12.896888   1.000000
    6      -11.161911   1.000000
    7       -9.971179   1.000000
    8       -9.667524   1.000000
    9       -8.439263   1.000000
   10       -8.313483   1.000000
   11       -6.771431   1.000000
   12       -6.437632   1.000000
   13       -6.272249   1.000000
   14       -5.246040   1.000000
   15       -5.175400   1.000000
   16       -3.361867   0.000000
   17       -0.177066   0.000000
   18        1.066232   0.000000
   19        1.308571   0.000000
   20        2.068834   0.000000
   21        2.403343   0.000000
   22        2.749440   0.000000
   23        3.423263   0.000000
   24        3.580106   0.000000
 
 -0.2500000E+00  0.6250000E-01  0.0000000E+00  0.1562500E-01
    1      -20.019346   1.000000
    2      -17.426281   1.000000
    3      -16.784407   1.000000
    4      -14.359167   1.000000
    5      -13.223324   1.000000
    6      -11.638247   1.000000
    7      -10.197376   1.000000
    8       -9.642629   1.000000
    9       -8.647064   1.000000
   10       -7.902074   1.000000
   11       -6.829370   1.000000
   12       -6.057703   1.000000
   13       -5.699890   1.000000
   14       -5.180896   1.000000
   15       -4.942609   1.000000
   16       -3.261296   0.000000
   17       -0.313987   0.000000
   18        0.816042   0.000000
   19        1.021681   0.000000
   20        1.689088   0.000000
   21        2.102086   0.000000
   22        2.111448   0.000000
   23        3.121647   0.000000
   24        3.484783   0.000000
 
 -0.1875000E+00  0.6250000E-01  0.0000000E+00  0.1562500E-01
    1      -20.123364   1.000000
    2      -17.137907   1.000000
    3      -16.687823   1.000000
    4      -14.264116   1.000000
    5      -13.525608   1.000000
    6      -12.087975   1.000000
    7      -10.691427   1.000000
    8       -9.355404   1.000000
    9       -8.822574   1.000000
   10       -7.509105   1.000000
   11       -6.851259   1.000000
   12       -5.685622   1.000000
   13       -5.189428   1.000000
   14       -5.104753   1.000000
   15       -4.711988   1.000000
   16       -3.120209   0.000000
   17       -0.445447   0.000000
   18        0.543646   0.000000
   19        0.791401   0.000000
   20        1.127120   0.000000
   21        1.709804   0.000000
   22        1.877817   0.000000
   23        2.884292   0.000000
   24        3.252550   0.000000
 
 -0.1250000E+00  0.6250000E-01  0.0000000E+00  0.1562500E-01
    1      -20.208034   1.000000
    2      -16.859710   1.000000
    3      -16.585852   1.000000
    4      -14.176238   1.000000
    5      -13.770575   1.000000
    6      -12.481228   1.000000
    7      -11.112111   1.000000
    8       -9.136201   1.000000
    9       -8.957977   1.000000
   10       -7.180832   1.000000
   11       -6.831191   1.000000
   12       -5.361198   1.000000
   13       -5.028145   1.000000
   14       -4.773158   1.000000
   15       -4.510120   1.000000
   16       -2.933319   0.000000
   17       -0.547011   0.000000
   18        0.248495   0.000000
   19        0.531823   0.000000
   20        0.618065   0.000000
   21        1.497437   0.000000
   22        1.702494   0.000000
   23        2.707397   0.000000
   24        3.077684   0.000000
 
 -0.6250000E-01  0.6250000E-01  0.0000000E+00  0.1562500E-01
    1      -20.267161   1.000000
    2      -16.631777   1.000000
    3      -16.496948   1.000000
    4      -14.121468   1.000000
    5      -13.932821   1.000000
    6      -12.775493   1.000000
    7      -11.427103   1.000000
    8       -9.049681   1.000000
    9       -8.995791   1.000000
   10       -6.944215   1.000000
   11       -6.789336   1.000000
   12       -5.122600   1.000000
   13       -4.965717   1.000000
   14       -4.477229   1.000000
   15       -4.360469   1.000000
   16       -2.712982   0.000000
   17       -0.607672   0.000000
   18       -0.164747   0.000000
   19        0.185006   0.000000
   20        0.502111   0.000000
   21        1.367641   0.000000
   22        1.585548   0.000000
   23        2.589733   0.000000
   24        2.960623   0.000000
 
  0.0000000E+00  0.1250000E+00  0.0000000E+00  0.7812500E-02
    1      -20.252207   1.000000
    2      -16.700270   1.000000
    3      -16.511678   1.000000
    4      -14.164089   1.000000
    5      -13.859632   1.000000
    6      -12.705348   1.000000
    7      -11.344255   1.000000
    8       -9.029299   1.000000
    9       -9.026662   1.000000
   10       -7.017901   1.000000
   11       -6.789858   1.000000
   12       -5.195776   1.000000
   13       -4.967372   1.000000
   14       -4.557095   1.000000
   15       -4.394655   1.000000
   16       -2.788505   0.000000
   17       -0.546212   0.000000
   18       -0.110996   0.000000
   19        0.296263   0.000000
   20        0.531122   0.000000
   21        1.399932   0.000000
   22        1.614785   0.000000
   23        2.619148   0.000000
   24        2.989907   0.000000
 
  0.2500000E+00  0.1250000E+00  0.0000000E+00  0.7812500E-02
    1      -20.136980   1.000000
    2      -17.071959   1.000000
    3      -16.709734   1.000000
    4      -14.153565   1.000000
    5      -13.672672   1.000000
    6      -12.120686   1.000000
    7      -10.763656   1.000000
    8       -9.328046   1.000000
    9       -8.844851   1.000000
   10       -7.393846   1.000000
   11       -6.907572   1.000000
   12       -5.592364   1.000000
   13       -5.159496   1.000000
   14       -5.101141   1.000000
   15       -4.702285   1.000000
   16       -3.043949   0.000000
   17       -0.581653   0.000000
   18        0.762643   0.000000
   19        0.804428   0.000000
   20        0.834334   0.000000
   21        1.663806   0.000000
   22        1.848632   0.000000
   23        2.854531   0.000000
   24        3.223654   0.000000
 
  0.3125000E+00  0.1250000E+00  0.0000000E+00  0.1562500E-01
    1      -20.043755   1.000000
    2      -17.316046   1.000000
    3      -16.842401   1.000000
    4      -14.165673   1.000000
    5      -13.484397   1.000000
    6      -11.678745   1.000000
    7      -10.329300   1.000000
    8       -9.603103   1.000000
    9       -8.690010   1.000000
   10       -7.666737   1.000000
   11       -6.962524   1.000000
   12       -5.890844   1.000000
   13       -5.524651   1.000000
   14       -5.310588   1.000000
   15       -4.944116   1.000000
   16       -3.099682   0.000000
   17       -0.582774   0.000000
   18        0.964437   0.000000
   19        1.106382   0.000000
   20        1.466140   0.000000
   21        1.922316   0.000000
   22        2.053118   0.000000
   23        3.060807   0.000000
   24        3.427365   0.000000
 
  0.3750000E+00  0.1250000E+00  0.0000000E+00  0.1562500E-01
    1      -19.936741   1.000000
    2      -17.565200   1.000000
    3      -16.956182   1.000000
    4      -14.212677   1.000000
    5      -13.209108   1.000000
    6      -11.203591   1.000000
    7       -9.941819   1.000000
    8       -9.829230   1.000000
    9       -8.498862   1.000000
   10       -8.002320   1.000000
   11       -6.962788   1.000000
   12       -6.235947   1.000000
   13       -6.023211   1.000000
   14       -5.438707   1.000000
   15       -5.201578   1.000000
   16       -3.123345   0.000000
   17       -0.546457   0.000000
   18        1.223061   0.000000
   19        1.392898   0.000000
   20        1.974357   0.000000
   21        2.315901   0.000000
   22        2.402321   0.000000
   23        3.327390   0.000000
   24        3.688427   0.000000
 
  0.4375000E+00  0.1250000E+00  0.0000000E+00  0.1562500E-01
    1      -19.830450   1.000000
    2      -17.785909   1.000000
    3      -17.040613   1.000000
    4      -14.262845   1.000000
    5      -12.902466   1.000000
    6      -10.752288   1.000000
    7      -10.251096   1.000000
    8       -9.341773   1.000000
    9       -8.341625   1.000000
   10       -8.283933   1.000000
   11       -6.954559   1.000000
   12       -6.584166   1.000000
   13       -6.535875   1.000000
   14       -5.531581   1.000000
   15       -5.441877   1.000000
   16       -3.134211   0.000000
   17       -0.491785   0.000000
   18        1.538191   0.000000
   19        1.644972   0.000000
   20        2.330472   0.000000
   21        2.636936   0.000000
   22        3.076735   0.000000
   23        3.356311   0.000000
   24        3.653950   0.000000
 
  0.5000000E+00  0.1250000E+00  0.0000000E+00  0.1562500E-01
    1      -19.747738   1.000000
    2      -17.942017   1.000000
    3      -17.092153   1.000000
    4      -14.298014   1.000000
    5      -12.637314   1.000000
    6      -10.674113   1.000000
    7      -10.165137   1.000000
    8       -9.146238   1.000000
    9       -8.366075   1.000000
   10       -8.079698   1.000000
   11       -7.280042   1.000000
   12       -6.876825   1.000000
   13       -6.726946   1.000000
   14       -5.624749   1.000000
   15       -5.587453   1.000000
   16       -3.139923   0.000000
   17       -0.444567   0.000000
   18        1.823738   0.000000
   19        1.909521   0.000000
   20        2.691552   0.000000
   21        2.819248   0.000000
   22        3.016202   0.000000
   23        3.528081   0.000000
   24        3.792938   0.000000
 
 -0.4375000E+00  0.1250000E+00  0.0000000E+00  0.1562500E-01
    1      -19.715670   1.000000
    2      -17.999254   1.000000
    3      -17.109494   1.000000
    4      -14.310412   1.000000
    5      -12.523918   1.000000
    6      -10.772602   1.000000
    7       -9.929117   1.000000
    8       -9.290321   1.000000
    9       -7.995740   1.000000
   10       -7.981127   1.000000
   11       -7.732999   1.000000
   12       -7.006139   1.000000
   13       -6.714221   1.000000
   14       -5.696656   1.000000
   15       -5.606140   1.000000
   16       -3.141734   0.000000
   17       -0.426229   0.000000
   18        1.888929   0.000000
   19        2.333068   0.000000
   20        2.340352   0.000000
   21        3.064613   0.000000
   22        3.136168   0.000000
   23        3.453557   0.000000
   24        3.453617   0.000000
 
 -0.3750000E+00  0.1250000E+00  0.0000000E+00  0.1562500E-01
    1      -19.747776   1.000000
    2      -17.941856   1.000000
    3      -17.092280   1.000000
    4      -14.297886   1.000000
    5      -12.637613   1.000000
    6      -10.674600   1.000000
    7      -10.164035   1.000000
    8       -9.146541   1.000000
    9       -8.366728   1.000000
   10       -8.079770   1.000000
   11       -7.279207   1.000000
   12       -6.876681   1.000000
   13       -6.726864   1.000000
   14       -5.625168   1.000000
   15       -5.587605   1.000000
   16       -3.139590   0.000000
   17       -0.444968   0.000000
   18        1.823864   0.000000
   19        1.909468   0.000000
   20        2.691512   0.000000
   21        2.819322   0.000000
   22        3.016151   0.000000
   23        3.527978   0.000000
   24        3.787929   0.000000
 
 -0.3125000E+00  0.1250000E+00  0.0000000E+00  0.1562500E-01
    1      -19.830510   1.000000
    2      -17.785594   1.000000
    3      -17.040873   1.000000
    4      -14.262574   1.000000
    5      -12.903017   1.000000
    6      -10.752734   1.000000
    7      -10.249904   1.000000
    8       -9.342188   1.000000
    9       -8.341987   1.000000
   10       -8.284019   1.000000
   11       -6.954208   1.000000
   12       -6.583932   1.000000
   13       -6.535163   1.000000
   14       -5.531882   1.000000
   15       -5.442662   1.000000
   16       -3.133574   0.000000
   17       -0.492554   0.000000
   18        1.538147   0.000000
   19        1.645218   0.000000
   20        2.330436   0.000000
   21        2.636893   0.000000
   22        3.076411   0.000000
   23        3.356399   0.000000
   24        3.653902   0.000000
 
 -0.2500000E+00  0.1250000E+00  0.0000000E+00  0.1562500E-01
    1      -19.936806   1.000000
    2      -17.564736   1.000000
    3      -16.956583   1.000000
    4      -14.212230   1.000000
    5      -13.209903   1.000000
    6      -11.203396   1.000000
    7       -9.941252   1.000000
    8       -9.829652   1.000000
    9       -8.498939   1.000000
   10       -8.002380   1.000000
   11       -6.962812   1.000000
   12       -6.235645   1.000000
   13       -6.022032   1.000000
   14       -5.439142   1.000000
   15       -5.202717   1.000000
   16       -3.122467   0.000000
   17       -0.547523   0.000000
   18        1.223025   0.000000
   19        1.393270   0.000000
   20        1.974231   0.000000
   21        2.315865   0.000000
   22        2.402097   0.000000
   23        3.327366   0.000000
   24        3.688400   0.000000
 
 -0.1875000E+00  0.1250000E+00  0.0000000E+00  0.1562500E-01
    1      -20.043813   1.000000
    2      -17.315442   1.000000
    3      -16.842937   1.000000
    4      -14.165020   1.000000
    5      -13.485449   1.000000
    6      -11.678351   1.000000
    7      -10.329674   1.000000
    8       -9.602770   1.000000
    9       -8.690073   1.000000
   10       -7.666446   1.000000
   11       -6.962856   1.000000
   12       -5.890509   1.000000
   13       -5.523125   1.000000
   14       -5.311093   1.000000
   15       -4.945630   1.000000
   16       -3.098682   0.000000
   17       -0.584024   0.000000
   18        0.964409   0.000000
   19        1.106905   0.000000
   20        1.465740   0.000000