       N       E                     dE             d eps       ncg     rms          rms(c)
DAV:   1     0.171733879072E+03    0.17173E+03   -0.89678E+03  3504   0.792E+02
DAV:   2    -0.373254637831E+02   -0.20906E+03   -0.19233E+03  6252   0.155E+02
DAV:   3    -0.664995897790E+02   -0.29174E+02   -0.28733E+02  4092   0.738E+01
DAV:   4    -0.672120050448E+02   -0.71242E+00   -0.71133E+00  4428   0.144E+01
DAV:   5    -0.672298604609E+02   -0.17855E-01   -0.17847E-01  4416   0.212E+00
DAV:   6    -0.672306109990E+02   -0.75054E-03   -0.75049E-03  4824   0.447E-01
DAV:   7    -0.672306332651E+02   -0.22266E-04   -0.22265E-04  4752   0.629E-02
DAV:   8    -0.672306341130E+02   -0.84782E-06   -0.84762E-06  5364   0.101E-02
   1 F= -.67230634E+02 E0= -.67230634E+02  d E =0.000000E+00
