 vasp.5.4.4.18Apr17-6-g9f103f2a35 (build Mar 30 2023 15:39:25) complex          
  
 executed on             LinuxIFC date 2023.05.25  15:33:16
 running on   12 total cores
 distrk:  each k-point on   12 cores,    1 groups
 distr:  one band on NCORES_PER_BAND=   1 cores,   12 groups


--------------------------------------------------------------------------------------------------------


 INCAR:
 POTCAR:    PAW_PBE B 06Sep2000                   
 POTCAR:    PAW_PBE C 08Apr2002                   

 ----------------------------------------------------------------------------- 
|                                                                             |
|           W    W    AA    RRRRR   N    N  II  N    N   GGGG   !!!           |
|           W    W   A  A   R    R  NN   N  II  NN   N  G    G  !!!           |
|           W    W  A    A  R    R  N N  N  II  N N  N  G       !!!           |
|           W WW W  AAAAAA  RRRRR   N  N N  II  N  N N  G  GGG   !            |
|           WW  WW  A    A  R   R   N   NN  II  N   NN  G    G                |
|           W    W  A    A  R    R  N    N  II  N    N   GGGG   !!!           |
|                                                                             |
|      For optimal performance we recommend to set                            |
|        NCORE= 4 - approx SQRT( number of cores)                             |
|      NCORE specifies how many cores store one orbital (NPAR=cpu/NCORE).     |
|      This setting can  greatly improve the performance of VASP for DFT.     |
|      The default,   NCORE=1            might be grossly inefficient         |
|      on modern multi-core architectures or massively parallel machines.     |
|      Do your own testing !!!!                                               |
|      Unfortunately you need to use the default for GW and RPA calculations. |
|      (for HF NCORE is supported but not extensively tested yet)             |
|                                                                             |
 ----------------------------------------------------------------------------- 

 POTCAR:    PAW_PBE B 06Sep2000                   
   SHA256 =  a32ced30f5ae56fd4d10b4325ff17eb3e4e38ee0f4288bc219fb012fddfa6e97 B/
   COPYR  = (c) Copyright 06Sep2000 Georg Kresse                                
   COPYR  = This file is part of the software VASP. Any use, copying, and all ot
   COPYR  = If you do not have a valid VASP license, you may not use, copy or di
   VRHFIN =B: s2p1                                                              
   LEXCH  = PE                                                                  
   EATOM  =    71.1703 eV,    5.2309 Ry                                         
                                                                                
   TITEL  = PAW_PBE B 06Sep2000                                                 
   LULTRA =        F    use ultrasoft PP ?                                      
   IUNSCR =        1    unscreen: 0-lin 1-nonlin 2-no                           
   RPACOR =    1.200    partial core radius                                     
   POMASS =   10.811; ZVAL   =    3.000    mass and valenz                      
   RCORE  =    1.700    outmost cutoff radius                                   
   RWIGS  =    1.710; RWIGS  =    0.905    wigner-seitz radius (au A)           
   ENMAX  =  318.614; ENMIN  =  238.960 eV                                      
   ICORE  =        2    local potential                                         
   LCOR   =        T    correct aug charges                                     
   LPAW   =        T    paw PP                                                  
   EAUG   =  535.514                                                            
   DEXC   =    0.000                                                            
   RMAX   =    1.732    core radius for proj-oper                               
   RAUG   =    1.300    factor for augmentation sphere                          
   RDEP   =    1.757    radius for radial grids                                 
   RDEPT  =    1.436    core radius for aug-charge                              
                                                                                
   Atomic configuration                                                         
    4 entries                                                                   
     n  l   j            E        occ.                                          
     1  0  0.50      -180.5896   2.0000                                         
     2  0  0.50        -9.4431   2.0000                                         
     2  1  0.50        -3.6068   1.0000                                         
     3  2  1.50        -4.0817   0.0000                                         
   Description                                                                  
     l       E           TYP  RCUT    TYP  RCUT                                 
     0     -9.4430752     23  1.500                                             
     0      0.8675899     23  1.500                                             
     1     -3.6067955     23  1.700                                             
     1      6.1086146     23  1.700                                             
     2     -4.0817478      7  1.700                                             
  local pseudopotential read in
  partial core-charges read in
  partial kinetic energy density read in
  atomic valenz-charges read in
  non local Contribution for L=           0  read in
    real space projection operators read in
  non local Contribution for L=           0  read in
    real space projection operators read in
  non local Contribution for L=           1  read in
    real space projection operators read in
  non local Contribution for L=           1  read in
    real space projection operators read in
    PAW grid and wavefunctions read in
 
   number of l-projection  operators is LMAX  =           4
   number of lm-projection operators is LMMAX =           8
 
 POTCAR:    PAW_PBE C 08Apr2002                   
   SHA256 =  253f7b50bb8d59471dbedb8285d89021f4a42ed1a2c5d38a03a736e69125dd95 C/
   COPYR  = (c) Copyright 08Apr2002 Georg Kresse                                
   COPYR  = This file is part of the software VASP. Any use, copying, and all ot
   COPYR  = If you do not have a valid VASP license, you may not use, copy or di
   VRHFIN =C: s2p2                                                              
   LEXCH  = PE                                                                  
   EATOM  =   147.1560 eV,   10.8157 Ry                                         
                                                                                
   TITEL  = PAW_PBE C 08Apr2002                                                 
   LULTRA =        F    use ultrasoft PP ?                                      
   IUNSCR =        1    unscreen: 0-lin 1-nonlin 2-no                           
   RPACOR =    1.200    partial core radius                                     
   POMASS =   12.011; ZVAL   =    4.000    mass and valenz                      
   RCORE  =    1.500    outmost cutoff radius                                   
   RWIGS  =    1.630; RWIGS  =    0.863    wigner-seitz radius (au A)           
   ENMAX  =  400.000; ENMIN  =  300.000 eV                                      
   ICORE  =        2    local potential                                         
   LCOR   =        T    correct aug charges                                     
   LPAW   =        T    paw PP                                                  
   EAUG   =  644.873                                                            
   DEXC   =    0.000                                                            
   RMAX   =    1.529    core radius for proj-oper                               
   RAUG   =    1.300    factor for augmentation sphere                          
   RDEP   =    1.501    radius for radial grids                                 
   RDEPT  =    1.300    core radius for aug-charge                              
                                                                                
   Atomic configuration                                                         
    4 entries                                                                   
     n  l   j            E        occ.                                          
     1  0  0.50      -273.3789   2.0000                                         
     2  0  0.50       -13.7508   2.0000                                         
     2  1  0.50        -5.2854   2.0000                                         
     3  2  1.50        -5.4423   0.0000                                         
   Description                                                                  
     l       E           TYP  RCUT    TYP  RCUT                                 
     0    -13.7508458     23  1.200                                             
     0     -8.2022199     23  1.200                                             
     1     -5.2854383     23  1.500                                             
     1     34.0145650     23  1.500                                             
     2     -5.4423304      7  1.500                                             
  local pseudopotential read in
  partial core-charges read in
  partial kinetic energy density read in
  atomic valenz-charges read in
  non local Contribution for L=           0  read in
    real space projection operators read in
  non local Contribution for L=           0  read in
    real space projection operators read in
  non local Contribution for L=           1  read in
    real space projection operators read in
  non local Contribution for L=           1  read in
    real space projection operators read in
    PAW grid and wavefunctions read in
 
   number of l-projection  operators is LMAX  =           4
   number of lm-projection operators is LMMAX =           8
 
  PAW_PBE B 06Sep2000                   :
 energy of atom  1       EATOM=  -71.1703
 kinetic energy error for atom=    0.0015 (will be added to EATOM!!)
  PAW_PBE C 08Apr2002                   :
 energy of atom  2       EATOM= -147.1560
 kinetic energy error for atom=    0.0116 (will be added to EATOM!!)
 
 
 POSCAR: BC3 with lattice parameter 5.174Ang, len
  positions in cartesian coordinates
  No initial velocities read in
 exchange correlation table for  LEXCH =        8
   RHO(1)=    0.500       N(1)  =     2000
   RHO(2)=  100.500       N(2)  =     4000
 


--------------------------------------------------------------------------------------------------------


 ion  position               nearest neighbor table
   1  0.175  0.175  0.000-   3 1.56   4 1.56   6 1.57
   2  0.508  0.508  0.000-   8 1.56   7 1.56   5 1.57
   3  0.000  0.000  0.000-   5 1.42   7 1.42   1 1.56
   4  0.524  0.000  0.000-   5 1.42   8 1.42   1 1.56
   5  0.683  0.159  0.000-   4 1.42   3 1.42   2 1.57
   6  1.000  0.524  0.000-   8 1.42   7 1.42   1 1.57
   7  0.159  0.683  0.000-   6 1.42   3 1.42   2 1.56
   8  0.682  0.683  0.000-   6 1.42   4 1.42   2 1.56
 
  LATTYP: Found a base centered orthorhombic cell.
 ALAT       =     5.1740000000
 B/A-ratio  =     1.7321221492
 C/A-ratio  =     3.8654812524
  
  Lattice vectors:
  
 A1 = (   2.5870000000,   4.4810000000,   0.0000000000)
 A2 = (   2.5870000000,  -4.4810000000,   0.0000000000)
 A3 = (   0.0000000000,   0.0000000000, -20.0000000000)


Analysis of symmetry for initial positions (statically):
=====================================================================
 Subroutine PRICEL returns:
 Original cell was already a primitive cell.
 

 Routine SETGRP: Setting up the symmetry group for a 
 base centered orthorhombic supercell.


 Subroutine GETGRP returns: Found  8 space group operations
 (whereof  2 operations were pure point group operations)
 out of a pool of  8 trial point group operations.


The static configuration has the point symmetry C_1h.
 The point group associated with its full space group is D_2h.


Analysis of symmetry for dynamics (positions and initial velocities):
=====================================================================
 Subroutine PRICEL returns:
 Original cell was already a primitive cell.
 

 Routine SETGRP: Setting up the symmetry group for a 
 base centered orthorhombic supercell.


 Subroutine GETGRP returns: Found  8 space group operations
 (whereof  2 operations were pure point group operations)
 out of a pool of  8 trial point group operations.


The dynamic configuration has the point symmetry C_1h.
 The point group associated with its full space group is D_2h.


 Subroutine INISYM returns: Found  8 space group operations
 (whereof  2 operations are pure point group operations),
 and found     1 'primitive' translations

 
 
 KPOINTS: K-points for BC3                        
  interpolating k-points between supplied coordinates
  k-points in reciprocal lattice
Space group operators:
 irot       det(A)        alpha          n_x          n_y          n_z        tau_x        tau_y        tau_z
    1     1.000000     0.000000     1.000000     0.000000     0.000000     0.000000     0.000000     0.000000
    2    -1.000000   180.000000     0.000000     0.000000     1.000000     0.000000     0.000000     0.000000
    3    -1.000000     0.000000     1.000000     0.000000     0.000000     0.682498    -0.317451     0.000000
    4     1.000000   180.000000     0.000000     0.000000     1.000000     0.682498    -0.317451     0.000000
    5     1.000000   179.999999     0.000000     1.000000     0.000000     0.523773     0.000000     0.000000
    6    -1.000000   179.999999     0.000000     1.000000     0.000000     0.158726     0.682549     0.000000
    7     1.000000   180.000000     1.000000     0.000000     0.000000     0.158726     0.682549     0.000000
    8    -1.000000   180.000000     1.000000     0.000000     0.000000     0.523773     0.000000     0.000000


--------------------------------------------------------------------------------------------------------




 Dimension of arrays:
   k-points           NKPTS =     96   k-points in BZ     NKDIM =     96   number of bands    NBANDS=     24
   number of dos      NEDOS =    301   number of ions     NIONS =      8
   non local maximal  LDIM  =      4   non local SUM 2l+1 LMDIM =      8
   total plane-waves  NPLWV = 181440
   max r-space proj   IRMAX =      1   max aug-charges    IRDMAX=   6301
   dimension x,y,z NGX =    36 NGY =   36 NGZ =  140
   dimension x,y,z NGXF=    72 NGYF=   72 NGZF=  280
   support grid    NGXF=    72 NGYF=   72 NGZF=  280
   ions per type =               2   6
   NGX,Y,Z   is equivalent  to a cutoff of  11.57, 11.57, 11.64 a.u.
   NGXF,Y,Z  is equivalent  to a cutoff of  23.13, 23.13, 23.27 a.u.

 SYSTEM =  BC3 bandstructure                       
 POSCAR =  BC3 with lattice parameter 5.174Ang, len

 Startparameter for this run:
   NWRITE =      2    write-flag & timer
   PREC   = accura    normal or accurate (medium, high low for compatibility)
   ISTART =      0    job   : 0-new  1-cont  2-samecut
   ICHARG =     11    charge: 1-file 2-atom 10-const
   ISPIN  =      1    spin polarized calculation?
   LNONCOLLINEAR =      F non collinear calculations
   LSORBIT =      F    spin-orbit coupling
   INIWAV =      1    electr: 0-lowe 1-rand  2-diag
   LASPH  =      F    aspherical Exc in radial PAW
   METAGGA=      F    non-selfconsistent MetaGGA calc.

 Electronic Relaxation 1
   ENCUT  =  450.0 eV  33.07 Ry    5.75 a.u.   8.95  8.95 34.59*2*pi/ulx,y,z
   ENINI  =  450.0     initial cutoff
   ENAUG  =  644.9 eV  augmentation charge cutoff
   NELM   =     60;   NELMIN=  2; NELMDL= -5     # of ELM steps 
   EDIFF  = 0.1E-05   stopping-criterion for ELM
   LREAL  =      F    real-space projection
   NLSPLINE    = F    spline interpolate recip. space projectors
   LCOMPAT=      F    compatible to vasp.4.4
   GGA_COMPAT  = T    GGA compatible to vasp.4.4-vasp.4.6
   LMAXPAW     = -100 max onsite density
   LMAXMIX     =    2 max onsite mixed and CHGCAR
   VOSKOWN=      0    Vosko Wilk Nusair interpolation
   ROPT   =    0.00000   0.00000
 Ionic relaxation
   EDIFFG = -.1E-05   stopping-criterion for IOM
   NSW    =      0    number of steps for IOM
   NBLOCK =      1;   KBLOCK =      1    inner block; outer block 
   IBRION =     -1    ionic relax: 0-MD 1-quasi-New 2-CG
   NFREE  =      0    steps in history (QN), initial steepest desc. (CG)
   ISIF   =      2    stress and relaxation
   IWAVPR =     10    prediction:  0-non 1-charg 2-wave 3-comb
   ISYM   =      2    0-nonsym 1-usesym 2-fastsym
   LCORR  =      T    Harris-Foulkes like correction to forces

   POTIM  = 0.5000    time-step for ionic-motion
   TEIN   =    0.0    initial temperature
   TEBEG  =    0.0;   TEEND  =   0.0 temperature during run
   SMASS  =  -3.00    Nose mass-parameter (am)
   estimated Nose-frequenzy (Omega)   =  0.10E-29 period in steps =****** mass=  -0.612E-27a.u.
   SCALEE = 1.0000    scale energy and forces
   NPACO  =    256;   APACO  = 16.0  distance and # of slots for P.C.
   PSTRESS=    0.0 pullay stress

  Mass of Ions in am
   POMASS =  10.81 12.01
  Ionic Valenz
   ZVAL   =   3.00  4.00
  Atomic Wigner-Seitz radii
   RWIGS  =  -1.00 -1.00
  virtual crystal weights 
   VCA    =   1.00  1.00
   NELECT =      30.0000    total number of electrons
   NUPDOWN=      -1.0000    fix difference up-down

 DOS related values:
   EMIN   =  10.00;   EMAX   =-10.00  energy-range for DOS
   EFERMI =   0.00
   ISMEAR =     0;   SIGMA  =   0.20  broadening in eV -4-tet -1-fermi 0-gaus

 Electronic relaxation 2 (details)
   IALGO  =     38    algorithm
   LDIAG  =      T    sub-space diagonalisation (order eigenvalues)
   LSUBROT=      F    optimize rotation matrix (better conditioning)
   TURBO    =      0    0=normal 1=particle mesh
   IRESTART =      0    0=no restart 2=restart with 2 vectors
   NREBOOT  =      0    no. of reboots
   NMIN     =      0    reboot dimension
   EREF     =   0.00    reference energy to select bands
   IMIX   =      4    mixing-type and parameters
     AMIX     =   0.40;   BMIX     =  1.00
     AMIX_MAG =   1.60;   BMIX_MAG =  1.00
     AMIN     =   0.10
     WC   =   100.;   INIMIX=   1;  MIXPRE=   1;  MAXMIX= -45

 Intra band minimization:
   WEIMIN = 0.0000     energy-eigenvalue tresh-hold
   EBREAK =  0.10E-08  absolut break condition
   DEPER  =   0.30     relativ break condition  

   TIME   =   0.40     timestep for ELM

  volume/ion in A,a.u.               =      57.96       391.15
  Fermi-wavevector in a.u.,A,eV,Ry     =   0.657211  1.241949  5.876713  0.431926
  Thomas-Fermi vector in A             =   1.728647
 
 Write flags
   LWAVE        =      T    write WAVECAR
   LDOWNSAMPLE  =      F    k-point downsampling of WAVECAR
   LCHARG       =      T    write CHGCAR
   LVTOT        =      F    write LOCPOT, total local potential
   LVHAR        =      F    write LOCPOT, Hartree potential only
   LELF         =      F    write electronic localiz. function (ELF)
   LORBIT       =     11    0 simple, 1 ext, 2 COOP (PROOUT), +10 PAW based schemes


 Dipole corrections
   LMONO  =      F    monopole corrections only (constant potential shift)
   LDIPOL =      F    correct potential (dipole corrections)
   IDIPOL =      0    1-x, 2-y, 3-z, 4-all directions 
   EPSILON=  1.0000000 bulk dielectric constant

 Exchange correlation treatment:
   GGA     =    --    GGA type
   LEXCH   =     8    internal setting for exchange type
   VOSKOWN=      0    Vosko Wilk Nusair interpolation
   LHFCALC =     F    Hartree Fock is set to
   LHFONE  =     F    Hartree Fock one center treatment
   AEXX    =    0.0000 exact exchange contribution

 Linear response parameters
   LEPSILON=     F    determine dielectric tensor
   LRPA    =     F    only Hartree local field effects (RPA)
   LNABLA  =     F    use nabla operator in PAW spheres
   LVEL    =     F    velocity operator in full k-point grid
   LINTERFAST=   F  fast interpolation
   KINTER  =     0    interpolate to denser k-point grid
   CSHIFT  =0.1000    complex shift for real part using Kramers Kronig
   OMEGAMAX=  -1.0    maximum frequency
   DEG_THRESHOLD= 0.2000000E-02 threshold for treating states as degnerate
   RTIME   =   -0.100 relaxation time in fs
  (WPLASMAI=    0.000 imaginary part of plasma frequency in eV, 0.658/RTIME)
   DFIELD  = 0.0000000 0.0000000 0.0000000 field for delta impulse in time
 
 Orbital magnetization related:
   ORBITALMAG=     F  switch on orbital magnetization
   LCHIMAG   =     F  perturbation theory with respect to B field
   DQ        =  0.001000  dq finite difference perturbation B field
   LLRAUG    =     F  two centre corrections for induced B field



--------------------------------------------------------------------------------------------------------


 Static calculation
 charge density and potential remain constant during run
 non-spin polarized calculation
 Variant of blocked Davidson
 Davidson routine will perform the subspace rotation
 perform sub-space diagonalisation
    after iterative eigenvector-optimisation
 no mixing
 using additional bands            9
 reciprocal scheme for non local part
 use partial core corrections
 calculate Harris-corrections to forces 
   (improved forces if not selfconsistent)
 use gradient corrections 
 WARNING: stress and forces are not correct
  (second derivative of E(xc) not defined)
 use of overlap-Matrix (Vanderbilt PP)
 Gauss-broadening in eV      SIGMA  =   0.20


--------------------------------------------------------------------------------------------------------


  energy-cutoff  :      450.00
  volume of cell :      463.69
      direct lattice vectors                 reciprocal lattice vectors
     5.174000000  0.000000000  0.000000000     0.193274063 -0.111582236  0.000000000
     2.587000000  4.481000000  0.000000000     0.000000000  0.223164472  0.000000000
     0.000000000  0.000000000 20.000000000     0.000000000  0.000000000  0.050000000

  length of vectors
     5.174000000  5.174159835 20.000000000     0.223171366  0.223164472  0.050000000


 
 k-points in units of 2pi/SCALE and weight: K-points for BC3                        
  -0.06436026  0.18600759  0.00000000       0.010
  -0.06228413  0.18000734  0.00000000       0.010
  -0.06020799  0.17400710  0.00000000       0.010
  -0.05813185  0.16800685  0.00000000       0.010
  -0.05605571  0.16200661  0.00000000       0.010
  -0.05397958  0.15600636  0.00000000       0.010
  -0.05190344  0.15000612  0.00000000       0.010
  -0.04982730  0.14400587  0.00000000       0.010
  -0.04775116  0.13800563  0.00000000       0.010
  -0.04567503  0.13200538  0.00000000       0.010
  -0.04359889  0.12600514  0.00000000       0.010
  -0.04152275  0.12000490  0.00000000       0.010
  -0.03944661  0.11400465  0.00000000       0.010
  -0.03737048  0.10800441  0.00000000       0.010
  -0.03529434  0.10200416  0.00000000       0.010
  -0.03321820  0.09600392  0.00000000       0.010
  -0.03114206  0.09000367  0.00000000       0.010
  -0.02906593  0.08400343  0.00000000       0.010
  -0.02698979  0.07800318  0.00000000       0.010
  -0.02491365  0.07200294  0.00000000       0.010
  -0.02283751  0.06600269  0.00000000       0.010
  -0.02076138  0.06000245  0.00000000       0.010
  -0.01868524  0.05400220  0.00000000       0.010
  -0.01660910  0.04800196  0.00000000       0.010
  -0.01453296  0.04200171  0.00000000       0.010
  -0.01245683  0.03600147  0.00000000       0.010
  -0.01038069  0.03000122  0.00000000       0.010
  -0.00830455  0.02400098  0.00000000       0.010
  -0.00622841  0.01800073  0.00000000       0.010
  -0.00415228  0.01200049  0.00000000       0.010
  -0.00207614  0.00600024  0.00000000       0.010
   0.00000000  0.00000000  0.00000000       0.010
   0.00000000  0.00000000  0.00000000       0.010
   0.00311732 -0.00179971  0.00000000       0.010
   0.00623465 -0.00359943  0.00000000       0.010
   0.00935197 -0.00539914  0.00000000       0.010
   0.01246929 -0.00719885  0.00000000       0.010
   0.01558662 -0.00899857  0.00000000       0.010
   0.01870394 -0.01079828  0.00000000       0.010
   0.02182127 -0.01259799  0.00000000       0.010
   0.02493859 -0.01439771  0.00000000       0.010
   0.02805591 -0.01619742  0.00000000       0.010
   0.03117324 -0.01799713  0.00000000       0.010
   0.03429056 -0.01979685  0.00000000       0.010
   0.03740788 -0.02159656  0.00000000       0.010
   0.04052521 -0.02339628  0.00000000       0.010
   0.04364253 -0.02519599  0.00000000       0.010
   0.04675985 -0.02699570  0.00000000       0.010
   0.04987718 -0.02879542  0.00000000       0.010
   0.05299450 -0.03059513  0.00000000       0.010
   0.05611182 -0.03239484  0.00000000       0.010
   0.05922915 -0.03419456  0.00000000       0.010
   0.06234647 -0.03599427  0.00000000       0.010
   0.06546380 -0.03779398  0.00000000       0.010
   0.06858112 -0.03959370  0.00000000       0.010
   0.07169844 -0.04139341  0.00000000       0.010
   0.07481577 -0.04319312  0.00000000       0.010
   0.07793309 -0.04499284  0.00000000       0.010
   0.08105041 -0.04679255  0.00000000       0.010
   0.08416774 -0.04859226  0.00000000       0.010
   0.08728506 -0.05039198  0.00000000       0.010
   0.09040238 -0.05219169  0.00000000       0.010
   0.09351971 -0.05399140  0.00000000       0.010
   0.09663703 -0.05579112  0.00000000       0.010
   0.09663703 -0.05579112  0.00000000       0.010
   0.09144357 -0.04799116  0.00000000       0.010
   0.08625011 -0.04019120  0.00000000       0.010
   0.08105665 -0.03239124  0.00000000       0.010
   0.07586319 -0.02459129  0.00000000       0.010
   0.07066973 -0.01679133  0.00000000       0.010
   0.06547626 -0.00899137  0.00000000       0.010
   0.06028280 -0.00119141  0.00000000       0.010
   0.05508934  0.00660855  0.00000000       0.010
   0.04989588  0.01440851  0.00000000       0.010
   0.04470242  0.02220846  0.00000000       0.010
   0.03950896  0.03000842  0.00000000       0.010
   0.03431550  0.03780838  0.00000000       0.010
   0.02912204  0.04560834  0.00000000       0.010
   0.02392858  0.05340830  0.00000000       0.010
   0.01873511  0.06120826  0.00000000       0.010
   0.01354165  0.06900821  0.00000000       0.010
   0.00834819  0.07680817  0.00000000       0.010
   0.00315473  0.08460813  0.00000000       0.010
  -0.00203873  0.09240809  0.00000000       0.010
  -0.00723219  0.10020805  0.00000000       0.010
  -0.01242565  0.10800801  0.00000000       0.010
  -0.01761911  0.11580796  0.00000000       0.010
  -0.02281257  0.12360792  0.00000000       0.010
  -0.02800604  0.13140788  0.00000000       0.010
  -0.03319950  0.13920784  0.00000000       0.010
  -0.03839296  0.14700780  0.00000000       0.010
  -0.04358642  0.15480775  0.00000000       0.010
  -0.04877988  0.16260771  0.00000000       0.010
  -0.05397334  0.17040767  0.00000000       0.010
  -0.05916680  0.17820763  0.00000000       0.010
  -0.06436026  0.18600759  0.00000000       0.010
 
 k-points in reciprocal lattice and weights: K-points for BC3                        
  -0.33300000  0.66700000  0.00000000       0.010
  -0.32225806  0.64548387  0.00000000       0.010
  -0.31151613  0.62396774  0.00000000       0.010
  -0.30077419  0.60245161  0.00000000       0.010
  -0.29003226  0.58093548  0.00000000       0.010
  -0.27929032  0.55941935  0.00000000       0.010
  -0.26854839  0.53790323  0.00000000       0.010
  -0.25780645  0.51638710  0.00000000       0.010
  -0.24706452  0.49487097  0.00000000       0.010
  -0.23632258  0.47335484  0.00000000       0.010
  -0.22558065  0.45183871  0.00000000       0.010
  -0.21483871  0.43032258  0.00000000       0.010
  -0.20409677  0.40880645  0.00000000       0.010
  -0.19335484  0.38729032  0.00000000       0.010
  -0.18261290  0.36577419  0.00000000       0.010
  -0.17187097  0.34425806  0.00000000       0.010
  -0.16112903  0.32274194  0.00000000       0.010
  -0.15038710  0.30122581  0.00000000       0.010
  -0.13964516  0.27970968  0.00000000       0.010
  -0.12890323  0.25819355  0.00000000       0.010
  -0.11816129  0.23667742  0.00000000       0.010
  -0.10741935  0.21516129  0.00000000       0.010
  -0.09667742  0.19364516  0.00000000       0.010
  -0.08593548  0.17212903  0.00000000       0.010
  -0.07519355  0.15061290  0.00000000       0.010
  -0.06445161  0.12909677  0.00000000       0.010
  -0.05370968  0.10758065  0.00000000       0.010
  -0.04296774  0.08606452  0.00000000       0.010
  -0.03222581  0.06454839  0.00000000       0.010
  -0.02148387  0.04303226  0.00000000       0.010
  -0.01074194  0.02151613  0.00000000       0.010
   0.00000000  0.00000000  0.00000000       0.010
   0.00000000  0.00000000  0.00000000       0.010
   0.01612903  0.00000000  0.00000000       0.010
   0.03225806  0.00000000  0.00000000       0.010
   0.04838710  0.00000000  0.00000000       0.010
   0.06451613  0.00000000  0.00000000       0.010
   0.08064516  0.00000000  0.00000000       0.010
   0.09677419  0.00000000  0.00000000       0.010
   0.11290323  0.00000000  0.00000000       0.010
   0.12903226  0.00000000  0.00000000       0.010
   0.14516129  0.00000000  0.00000000       0.010
   0.16129032  0.00000000  0.00000000       0.010
   0.17741935  0.00000000  0.00000000       0.010
   0.19354839  0.00000000  0.00000000       0.010
   0.20967742  0.00000000  0.00000000       0.010
   0.22580645  0.00000000  0.00000000       0.010
   0.24193548  0.00000000  0.00000000       0.010
   0.25806452  0.00000000  0.00000000       0.010
   0.27419355  0.00000000  0.00000000       0.010
   0.29032258  0.00000000  0.00000000       0.010
   0.30645161  0.00000000  0.00000000       0.010
   0.32258065  0.00000000  0.00000000       0.010
   0.33870968  0.00000000  0.00000000       0.010
   0.35483871  0.00000000  0.00000000       0.010
   0.37096774  0.00000000  0.00000000       0.010
   0.38709677  0.00000000  0.00000000       0.010
   0.40322581  0.00000000  0.00000000       0.010
   0.41935484  0.00000000  0.00000000       0.010
   0.43548387  0.00000000  0.00000000       0.010
   0.45161290  0.00000000  0.00000000       0.010
   0.46774194  0.00000000  0.00000000       0.010
   0.48387097  0.00000000  0.00000000       0.010
   0.50000000  0.00000000  0.00000000       0.010
   0.50000000  0.00000000  0.00000000       0.010
   0.47312903  0.02151613  0.00000000       0.010
   0.44625806  0.04303226  0.00000000       0.010
   0.41938710  0.06454839  0.00000000       0.010
   0.39251613  0.08606452  0.00000000       0.010
   0.36564516  0.10758065  0.00000000       0.010
   0.33877419  0.12909677  0.00000000       0.010
   0.31190323  0.15061290  0.00000000       0.010
   0.28503226  0.17212903  0.00000000       0.010
   0.25816129  0.19364516  0.00000000       0.010
   0.23129032  0.21516129  0.00000000       0.010
   0.20441935  0.23667742  0.00000000       0.010
   0.17754839  0.25819355  0.00000000       0.010
   0.15067742  0.27970968  0.00000000       0.010
   0.12380645  0.30122581  0.00000000       0.010
   0.09693548  0.32274194  0.00000000       0.010
   0.07006452  0.34425806  0.00000000       0.010
   0.04319355  0.36577419  0.00000000       0.010
   0.01632258  0.38729032  0.00000000       0.010
  -0.01054839  0.40880645  0.00000000       0.010
  -0.03741935  0.43032258  0.00000000       0.010
  -0.06429032  0.45183871  0.00000000       0.010
  -0.09116129  0.47335484  0.00000000       0.010
  -0.11803226  0.49487097  0.00000000       0.010
  -0.14490323  0.51638710  0.00000000       0.010
  -0.17177419  0.53790323  0.00000000       0.010
  -0.19864516  0.55941935  0.00000000       0.010
  -0.22551613  0.58093548  0.00000000       0.010
  -0.25238710  0.60245161  0.00000000       0.010
  -0.27925806  0.62396774  0.00000000       0.010
  -0.30612903  0.64548387  0.00000000       0.010
  -0.33300000  0.66700000  0.00000000       0.010
 
 position of ions in fractional coordinates (direct lattice) 
   0.17457326  0.17462620  0.00000000
   0.50792519  0.50792234  0.00000000
   0.00000000  0.00000000  0.00000000
   0.52377271  0.00000000  0.00000000
   0.68255138  0.15866994  0.00000000
   0.99994706  0.52387860  0.00000000
   0.15872573  0.68254854  0.00000000
   0.68249844  0.68254854  0.00000000
 
 position of ions in cartesian coordinates  (Angst):
   1.35500000  0.78250000  0.00000000
   3.94200000  2.27600000  0.00000000
   0.00000000  0.00000000  0.00000000
   2.71000000  0.00000000  0.00000000
   3.94200000  0.71100000  0.00000000
   6.52900000  2.34750000  0.00000000
   2.58700000  3.05850000  0.00000000
   5.29700000  3.05850000  0.00000000
 


--------------------------------------------------------------------------------------------------------


 k-point  1 :  -0.3330 0.6670 0.0000  plane waves:   10034
 k-point  2 :  -0.3223 0.6455 0.0000  plane waves:   10039
 k-point  3 :  -0.3115 0.6240 0.0000  plane waves:   10042
 k-point  4 :  -0.3008 0.6025 0.0000  plane waves:   10045
 k-point  5 :  -0.2900 0.5809 0.0000  plane waves:   10061
 k-point  6 :  -0.2793 0.5594 0.0000  plane waves:   10065
 k-point  7 :  -0.2685 0.5379 0.0000  plane waves:   10059
 k-point  8 :  -0.2578 0.5164 0.0000  plane waves:   10073
 k-point  9 :  -0.2471 0.4949 0.0000  plane waves:   10069
 k-point 10 :  -0.2363 0.4734 0.0000  plane waves:   10066
 k-point 11 :  -0.2256 0.4518 0.0000  plane waves:   10093
 k-point 12 :  -0.2148 0.4303 0.0000  plane waves:   10094
 k-point 13 :  -0.2041 0.4088 0.0000  plane waves:   10091
 k-point 14 :  -0.1934 0.3873 0.0000  plane waves:   10082
 k-point 15 :  -0.1826 0.3658 0.0000  plane waves:   10077
 k-point 16 :  -0.1719 0.3443 0.0000  plane waves:   10077
 k-point 17 :  -0.1611 0.3227 0.0000  plane waves:   10070
 k-point 18 :  -0.1504 0.3012 0.0000  plane waves:   10072
 k-point 19 :  -0.1396 0.2797 0.0000  plane waves:   10062
 k-point 20 :  -0.1289 0.2582 0.0000  plane waves:   10068
 k-point 21 :  -0.1182 0.2367 0.0000  plane waves:   10059
 k-point 22 :  -0.1074 0.2152 0.0000  plane waves:   10046
 k-point 23 :  -0.0967 0.1936 0.0000  plane waves:   10035
 k-point 24 :  -0.0859 0.1721 0.0000  plane waves:   10032
 k-point 25 :  -0.0752 0.1506 0.0000  plane waves:   10027
 k-point 26 :  -0.0645 0.1291 0.0000  plane waves:   10018
 k-point 27 :  -0.0537 0.1076 0.0000  plane waves:   10017
 k-point 28 :  -0.0430 0.0861 0.0000  plane waves:   10013
 k-point 29 :  -0.0322 0.0645 0.0000  plane waves:    9994
 k-point 30 :  -0.0215 0.0430 0.0000  plane waves:    9993
 k-point 31 :  -0.0107 0.0215 0.0000  plane waves:    9979
 k-point 32 :   0.0000 0.0000 0.0000  plane waves:    9963
 k-point 33 :   0.0000 0.0000 0.0000  plane waves:    9963
 k-point 34 :   0.0161 0.0000 0.0000  plane waves:    9969
 k-point 35 :   0.0323 0.0000 0.0000  plane waves:    9993
 k-point 36 :   0.0484 0.0000 0.0000  plane waves:    9999
 k-point 37 :   0.0645 0.0000 0.0000  plane waves:    9989
 k-point 38 :   0.0806 0.0000 0.0000  plane waves:   10001
 k-point 39 :   0.0968 0.0000 0.0000  plane waves:    9987
 k-point 40 :   0.1129 0.0000 0.0000  plane waves:    9997
 k-point 41 :   0.1290 0.0000 0.0000  plane waves:   10019
 k-point 42 :   0.1452 0.0000 0.0000  plane waves:   10029
 k-point 43 :   0.1613 0.0000 0.0000  plane waves:   10029
 k-point 44 :   0.1774 0.0000 0.0000  plane waves:   10041
 k-point 45 :   0.1935 0.0000 0.0000  plane waves:   10035
 k-point 46 :   0.2097 0.0000 0.0000  plane waves:   10019
 k-point 47 :   0.2258 0.0000 0.0000  plane waves:   10027
 k-point 48 :   0.2419 0.0000 0.0000  plane waves:   10031
 k-point 49 :   0.2581 0.0000 0.0000  plane waves:   10050
 k-point 50 :   0.2742 0.0000 0.0000  plane waves:   10054
 k-point 51 :   0.2903 0.0000 0.0000  plane waves:   10056
 k-point 52 :   0.3065 0.0000 0.0000  plane waves:   10040
 k-point 53 :   0.3226 0.0000 0.0000  plane waves:   10026
 k-point 54 :   0.3387 0.0000 0.0000  plane waves:   10034
 k-point 55 :   0.3548 0.0000 0.0000  plane waves:   10036
 k-point 56 :   0.3710 0.0000 0.0000  plane waves:   10064
 k-point 57 :   0.3871 0.0000 0.0000  plane waves:   10054
 k-point 58 :   0.4032 0.0000 0.0000  plane waves:   10050
 k-point 59 :   0.4194 0.0000 0.0000  plane waves:   10062
 k-point 60 :   0.4355 0.0000 0.0000  plane waves:   10046
 k-point 61 :   0.4516 0.0000 0.0000  plane waves:   10040
 k-point 62 :   0.4677 0.0000 0.0000  plane waves:   10050
 k-point 63 :   0.4839 0.0000 0.0000  plane waves:   10052
 k-point 64 :   0.5000 0.0000 0.0000  plane waves:   10056
 k-point 65 :   0.5000 0.0000 0.0000  plane waves:   10056
 k-point 66 :   0.4731 0.0215 0.0000  plane waves:   10041
 k-point 67 :   0.4463 0.0430 0.0000  plane waves:   10043
 k-point 68 :   0.4194 0.0645 0.0000  plane waves:   10045
 k-point 69 :   0.3925 0.0861 0.0000  plane waves:   10039
 k-point 70 :   0.3656 0.1076 0.0000  plane waves:   10053
 k-point 71 :   0.3388 0.1291 0.0000  plane waves:   10053
 k-point 72 :   0.3119 0.1506 0.0000  plane waves:   10035
 k-point 73 :   0.2850 0.1721 0.0000  plane waves:   10030
 k-point 74 :   0.2582 0.1936 0.0000  plane waves:   10033
 k-point 75 :   0.2313 0.2152 0.0000  plane waves:   10027
 k-point 76 :   0.2044 0.2367 0.0000  plane waves:   10027
 k-point 77 :   0.1775 0.2582 0.0000  plane waves:   10036
 k-point 78 :   0.1507 0.2797 0.0000  plane waves:   10026
 k-point 79 :   0.1238 0.3012 0.0000  plane waves:   10031
 k-point 80 :   0.0969 0.3227 0.0000  plane waves:   10048
 k-point 81 :   0.0701 0.3443 0.0000  plane waves:   10044
 k-point 82 :   0.0432 0.3658 0.0000  plane waves:   10047
 k-point 83 :   0.0163 0.3873 0.0000  plane waves:   10058
 k-point 84 :  -0.0105 0.4088 0.0000  plane waves:   10056
 k-point 85 :  -0.0374 0.4303 0.0000  plane waves:   10040
 k-point 86 :  -0.0643 0.4518 0.0000  plane waves:   10057
 k-point 87 :  -0.0912 0.4734 0.0000  plane waves:   10083
 k-point 88 :  -0.1180 0.4949 0.0000  plane waves:   10066
 k-point 89 :  -0.1449 0.5164 0.0000  plane waves:   10082
 k-point 90 :  -0.1718 0.5379 0.0000  plane waves:   10061
 k-point 91 :  -0.1986 0.5594 0.0000  plane waves:   10073
 k-point 92 :  -0.2255 0.5809 0.0000  plane waves:   10067
 k-point 93 :  -0.2524 0.6025 0.0000  plane waves:   10068
 k-point 94 :  -0.2793 0.6240 0.0000  plane waves:   10041
 k-point 95 :  -0.3061 0.6455 0.0000  plane waves:   10033
 k-point 96 :  -0.3330 0.6670 0.0000  plane waves:   10034

 maximum and minimum number of plane-waves per node :     10094     9963

 maximum number of plane-waves:     10094
 maximum index in each direction: 
   IXMAX=    9   IYMAX=    8   IZMAX=   34
   IXMIN=   -9   IYMIN=   -9   IZMIN=  -34


 serial   3D FFT for wavefunctions
 parallel 3D FFT for charge:
    minimum data exchange during FFTs selected (reduces bandwidth)


 total amount of memory used by VASP MPI-rank0   205636. kBytes
=======================================================================

   base      :      30000. kBytes
   nonl-proj :     125451. kBytes
   fftplans  :       4815. kBytes
   grid      :      14086. kBytes
   one-center:         24. kBytes
   wavefun   :      31260. kBytes
 
     INWAV:  cpu time    0.0000: real time    0.0000
 initial charge density was supplied:
 number of electron      30.0000002 magnetization 
 keeping initial charge density in first step


--------------------------------------------------------------------------------------------------------


 Maximum index for augmentation-charges          407 (set IRDMAX)


--------------------------------------------------------------------------------------------------------


 First call to EWALD:  gamma=   0.229
 Maximum number of real-space cells 4x 4x 1
 Maximum number of reciprocal cells 2x 2x 6

    FEWALD:  cpu time    0.0020: real time    0.0020


--------------------------------------- Iteration      1(   1)  ---------------------------------------


    POTLOK:  cpu time    0.1411: real time    0.1435
    SETDIJ:  cpu time    0.0022: real time    0.0022
     EDDAV:  cpu time   14.4835: real time   14.5167
       DOS:  cpu time    0.0016: real time    0.0015
    --------------------------------------------
      LOOP:  cpu time   14.6284: real time   14.6639

 eigenvalue-minimisations  :  4608
 total energy-change (2. order) : 0.1696006E+03  (-0.8934655E+03)
 number of electron      30.0000002 magnetization 
 augmentation part       30.0000002 magnetization 

 Free energy of the ion-electron system (eV)
  ---------------------------------------------------
  alpha Z        PSCENC =        10.93933817
  Ewald energy   TEWEN  =      4060.05404224
  -Hartree energ DENC   =     -4938.55703289
  -exchange      EXHF   =         0.00000000
  -V(xc)+E(xc)   XCENC  =        96.01877165
  PAW double counting   =      2893.57001696    -2896.09701513
  entropy T*S    EENTRO =        -0.06380433
  eigenvalues    EBANDS =       -81.46760358
  atomic energy  EATOM  =      1025.20389953
  Solvation  Ediel_sol  =         0.00000000
  ---------------------------------------------------
  free energy    TOTEN  =       169.60061261 eV

  energy without entropy =      169.66441694  energy(sigma->0) =      169.63251478


--------------------------------------------------------------------------------------------------------




--------------------------------------- Iteration      1(   2)  ---------------------------------------


     EDDAV:  cpu time   22.3175: real time   22.3578
       DOS:  cpu time    0.0017: real time    0.0017
    --------------------------------------------
      LOOP:  cpu time   22.3192: real time   22.3596

 eigenvalue-minimisations  :  8172
 total energy-change (2. order) :-0.2058449E+03  (-0.1873651E+03)
 number of electron      30.0000002 magnetization 
 augmentation part       30.0000002 magnetization 

 Free energy of the ion-electron system (eV)
  ---------------------------------------------------
  alpha Z        PSCENC =        10.93933817
  Ewald energy   TEWEN  =      4060.05404224
  -Hartree energ DENC   =     -4938.55703289
  -exchange      EXHF   =         0.00000000
  -V(xc)+E(xc)   XCENC  =        96.01877165
  PAW double counting   =      2893.57001696    -2896.09701513
  entropy T*S    EENTRO =        -0.03976183
  eigenvalues    EBANDS =      -287.33649953
  atomic energy  EATOM  =      1025.20389953
  Solvation  Ediel_sol  =         0.00000000
  ---------------------------------------------------
  free energy    TOTEN  =       -36.24424084 eV

  energy without entropy =      -36.20447901  energy(sigma->0) =      -36.22435992


--------------------------------------------------------------------------------------------------------




--------------------------------------- Iteration      1(   3)  ---------------------------------------


     EDDAV:  cpu time   16.2306: real time   16.2728
       DOS:  cpu time    0.0015: real time    0.0015
    --------------------------------------------
      LOOP:  cpu time   16.2321: real time   16.2743

 eigenvalue-minimisations  :  5412
 total energy-change (2. order) :-0.2928471E+02  (-0.2865712E+02)
 number of electron      30.0000002 magnetization 
 augmentation part       30.0000002 magnetization 

 Free energy of the ion-electron system (eV)
  ---------------------------------------------------
  alpha Z        PSCENC =        10.93933817
  Ewald energy   TEWEN  =      4060.05404224
  -Hartree energ DENC   =     -4938.55703289
  -exchange      EXHF   =         0.00000000
  -V(xc)+E(xc)   XCENC  =        96.01877165
  PAW double counting   =      2893.57001696    -2896.09701513
  entropy T*S    EENTRO =        -0.00301133
  eigenvalues    EBANDS =      -316.65795531
  atomic energy  EATOM  =      1025.20389953
  Solvation  Ediel_sol  =         0.00000000
  ---------------------------------------------------
  free energy    TOTEN  =       -65.52894611 eV

  energy without entropy =      -65.52593479  energy(sigma->0) =      -65.52744045


--------------------------------------------------------------------------------------------------------




--------------------------------------- Iteration      1(   4)  ---------------------------------------


     EDDAV:  cpu time   16.9953: real time   17.0147
       DOS:  cpu time    0.0016: real time    0.0016
    --------------------------------------------
      LOOP:  cpu time   16.9969: real time   17.0163

 eigenvalue-minimisations  :  5748
 total energy-change (2. order) :-0.7165309E+00  (-0.7154246E+00)
 number of electron      30.0000002 magnetization 
 augmentation part       30.0000002 magnetization 

 Free energy of the ion-electron system (eV)
  ---------------------------------------------------
  alpha Z        PSCENC =        10.93933817
  Ewald energy   TEWEN  =      4060.05404224
  -Hartree energ DENC   =     -4938.55703289
  -exchange      EXHF   =         0.00000000
  -V(xc)+E(xc)   XCENC  =        96.01877165
  PAW double counting   =      2893.57001696    -2896.09701513
  entropy T*S    EENTRO =        -0.00196148
  eigenvalues    EBANDS =      -317.37553610
  atomic energy  EATOM  =      1025.20389953
  Solvation  Ediel_sol  =         0.00000000
  ---------------------------------------------------
  free energy    TOTEN  =       -66.24547705 eV

  energy without entropy =      -66.24351557  energy(sigma->0) =      -66.24449631


--------------------------------------------------------------------------------------------------------




--------------------------------------- Iteration      1(   5)  ---------------------------------------


     EDDAV:  cpu time   16.9317: real time   16.9466
       DOS:  cpu time    0.0015: real time    0.0015
    --------------------------------------------
      LOOP:  cpu time   16.9332: real time   16.9481

 eigenvalue-minimisations  :  5736
 total energy-change (2. order) :-0.1785772E-01  (-0.1785001E-01)
 number of electron      30.0000002 magnetization 
 augmentation part       30.0000002 magnetization 

 Free energy of the ion-electron system (eV)
  ---------------------------------------------------
  alpha Z        PSCENC =        10.93933817
  Ewald energy   TEWEN  =      4060.05404224
  -Hartree energ DENC   =     -4938.55703289
  -exchange      EXHF   =         0.00000000
  -V(xc)+E(xc)   XCENC  =        96.01877165
  PAW double counting   =      2893.57001696    -2896.09701513
  entropy T*S    EENTRO =        -0.00193081
  eigenvalues    EBANDS =      -317.39342448
  atomic energy  EATOM  =      1025.20389953
  Solvation  Ediel_sol  =         0.00000000
  ---------------------------------------------------
  free energy    TOTEN  =       -66.26333477 eV

  energy without entropy =      -66.26140396  energy(sigma->0) =      -66.26236936


--------------------------------------------------------------------------------------------------------




--------------------------------------- Iteration      1(   6)  ---------------------------------------


     EDDAV:  cpu time   17.6426: real time   17.6639
       DOS:  cpu time    0.0015: real time    0.0015
    --------------------------------------------
      LOOP:  cpu time   17.6441: real time   17.6654

 eigenvalue-minimisations  :  6072
 total energy-change (2. order) :-0.7243037E-03  (-0.7242859E-03)
 number of electron      30.0000002 magnetization 
 augmentation part       30.0000002 magnetization 

 Free energy of the ion-electron system (eV)
  ---------------------------------------------------
  alpha Z        PSCENC =        10.93933817
  Ewald energy   TEWEN  =      4060.05404224
  -Hartree energ DENC   =     -4938.55703289
  -exchange      EXHF   =         0.00000000
  -V(xc)+E(xc)   XCENC  =        96.01877165
  PAW double counting   =      2893.57001696    -2896.09701513
  entropy T*S    EENTRO =        -0.00192952
  eigenvalues    EBANDS =      -317.39415007
  atomic energy  EATOM  =      1025.20389953
  Solvation  Ediel_sol  =         0.00000000
  ---------------------------------------------------
  free energy    TOTEN  =       -66.26405907 eV

  energy without entropy =      -66.26212955  energy(sigma->0) =      -66.26309431


--------------------------------------------------------------------------------------------------------




--------------------------------------- Iteration      1(   7)  ---------------------------------------


     EDDAV:  cpu time   17.9506: real time   17.9652
       DOS:  cpu time    0.0015: real time    0.0015
    --------------------------------------------
      LOOP:  cpu time   17.9522: real time   17.9668

 eigenvalue-minimisations  :  6204
 total energy-change (2. order) :-0.2332783E-04  (-0.2332740E-04)
 number of electron      30.0000002 magnetization 
 augmentation part       30.0000002 magnetization 

 Free energy of the ion-electron system (eV)
  ---------------------------------------------------
  alpha Z        PSCENC =        10.93933817
  Ewald energy   TEWEN  =      4060.05404224
  -Hartree energ DENC   =     -4938.55703289
  -exchange      EXHF   =         0.00000000
  -V(xc)+E(xc)   XCENC  =        96.01877165
  PAW double counting   =      2893.57001696    -2896.09701513
  entropy T*S    EENTRO =        -0.00192951
  eigenvalues    EBANDS =      -317.39417341
  atomic energy  EATOM  =      1025.20389953
  Solvation  Ediel_sol  =         0.00000000
  ---------------------------------------------------
  free energy    TOTEN  =       -66.26408240 eV

  energy without entropy =      -66.26215289  energy(sigma->0) =      -66.26311764


--------------------------------------------------------------------------------------------------------




--------------------------------------- Iteration      1(   8)  ---------------------------------------


     EDDAV:  cpu time   19.7711: real time   19.7894
       DOS:  cpu time    0.0015: real time    0.0015
    --------------------------------------------
      LOOP:  cpu time   19.7726: real time   19.7909

 eigenvalue-minimisations  :  7044
 total energy-change (2. order) :-0.9573109E-06  (-0.9567439E-06)
 number of electron      30.0000002 magnetization 
 augmentation part       30.0000002 magnetization 

 Free energy of the ion-electron system (eV)
  ---------------------------------------------------
  alpha Z        PSCENC =        10.93933817
  Ewald energy   TEWEN  =      4060.05404224
  -Hartree energ DENC   =     -4938.55703289
  -exchange      EXHF   =         0.00000000
  -V(xc)+E(xc)   XCENC  =        96.01877165
  PAW double counting   =      2893.57001696    -2896.09701513
  entropy T*S    EENTRO =        -0.00192951
  eigenvalues    EBANDS =      -317.39417437
  atomic energy  EATOM  =      1025.20389953
  Solvation  Ediel_sol  =         0.00000000
  ---------------------------------------------------
  free energy    TOTEN  =       -66.26408336 eV

  energy without entropy =      -66.26215384  energy(sigma->0) =      -66.26311860


--------------------------------------------------------------------------------------------------------




 average (electrostatic) potential at core
  the test charge radii are     0.7672  0.6991
  (the norm of the test charge is              1.0000)
       1 -35.0196       2 -35.0198       3 -57.5233       4 -57.5233       5 -57.5235
       6 -57.5232       7 -57.5233       8 -57.5232
 
 
 
 E-fermi :  -3.9114     XC(G=0):  -2.1058     alpha+bet : -1.7756


 k-point     1 :      -0.3330    0.6670    0.0000
  band No.  band energies     occupation 
      1     -19.9350      2.00000
      2     -17.6526      2.00000
      3     -16.7969      2.00000
      4     -14.5066      2.00000
      5     -12.8851      2.00000
      6     -11.3257      2.00000
      7      -9.8570      2.00000
      8      -9.7902      2.00000
      9      -8.4924      2.00000
     10      -8.2981      2.00000
     11      -6.7167      2.00000
     12      -6.3827      2.00000
     13      -6.1686      2.00000
     14      -5.1339      2.00000
     15      -5.0820      2.00000
     16      -3.4452      0.00098
     17       0.0117      0.00000
     18       0.7721      0.00000
     19       1.2335      0.00000
     20       1.9828      0.00000
     21       2.3271      0.00000
     22       2.6346      0.00000
     23       3.3462      0.00000
     24       3.6607      0.00000

 k-point     2 :      -0.3223    0.6455    0.0000
  band No.  band energies     occupation 
      1     -19.9230      2.00000
      2     -17.6734      2.00000
      3     -16.8180      2.00000
      4     -14.4922      2.00000
      5     -12.8758      2.00000
      6     -11.2615      2.00000
      7      -9.9017      2.00000
      8      -9.7352      2.00000
      9      -8.4695      2.00000
     10      -8.3189      2.00000
     11      -6.7280      2.00000
     12      -6.4128      2.00000
     13      -6.2210      2.00000
     14      -5.1668      2.00000
     15      -5.1161      2.00000
     16      -3.4267      0.00061
     17      -0.0441      0.00000
     18       0.8721      0.00000
     19       1.2658      0.00000
     20       2.0196      0.00000
     21       2.3599      0.00000
     22       2.6933      0.00000
     23       3.3800      0.00000
     24       3.6150      0.00000

 k-point     3 :      -0.3115    0.6240    0.0000
  band No.  band energies     occupation 
      1     -19.9065      2.00000
      2     -17.6911      2.00000
      3     -16.8677      2.00000
      4     -14.4369      2.00000
      5     -12.9009      2.00000
      6     -11.1568      2.00000
      7      -9.9748      2.00000
      8      -9.6653      2.00000
      9      -8.4382      2.00000
     10      -8.3102      2.00000
     11      -6.7758      2.00000
     12      -6.4371      2.00000
     13      -6.2725      2.00000
     14      -5.2524      2.00000
     15      -5.1790      2.00000
     16      -3.3557      0.00009
     17      -0.1879      0.00000
     18       1.0798      0.00000
     19       1.3101      0.00000
     20       2.0707      0.00000
     21       2.4049      0.00000
     22       2.7494      0.00000
     23       3.4247      0.00000
     24       3.5813      0.00000

 k-point     4 :      -0.3008    0.6025    0.0000
  band No.  band energies     occupation 
      1     -19.8860      2.00000
      2     -17.7057      2.00000
      3     -16.9401      2.00000
      4     -14.3468      2.00000
      5     -12.9509      2.00000
      6     -11.0229      2.00000
      7     -10.0679      2.00000
      8      -9.5827      2.00000
      9      -8.3987      2.00000
     10      -8.2774      2.00000
     11      -6.8563      2.00000
     12      -6.4560      2.00000
     13      -6.3237      2.00000
     14      -5.3768      2.00000
     15      -5.2686      2.00000
     16      -3.2459      0.00000
     17      -0.3595      0.00000
     18       1.3324      0.00000
     19       1.3664      0.00000
     20       2.1380      0.00000
     21       2.4620      0.00000
     22       2.8017      0.00000
     23       3.4803      0.00000
     24       3.5594      0.00000

 k-point     5 :      -0.2900    0.5809    0.0000
  band No.  band energies     occupation 
      1     -19.8620      2.00000
      2     -17.7177      2.00000
      3     -17.0274      2.00000
      4     -14.2311      2.00000
      5     -13.0147      2.00000
      6     -10.8761      2.00000
      7     -10.1681      2.00000
      8      -9.4878      2.00000
      9      -8.3517      2.00000
     10      -8.2294      2.00000
     11      -6.9622      2.00000
     12      -6.4706      2.00000
     13      -6.3770      2.00000
     14      -5.5238      2.00000
     15      -5.3808      2.00000
     16      -3.1132      0.00000
     17      -0.5330      0.00000
     18       1.4345      0.00000
     19       1.5995      0.00000
     20       2.2261      0.00000
     21       2.5312      0.00000
     22       2.8492      0.00000
     23       3.5468      0.00000
     24       3.5494      0.00000

 k-point     6 :      -0.2793    0.5594    0.0000
  band No.  band energies     occupation 
      1     -19.8351      2.00000
      2     -17.7284      2.00000
      3     -17.1211      2.00000
      4     -14.1006      2.00000
      5     -13.0814      2.00000
      6     -10.7441      2.00000
      7     -10.2499      2.00000
      8      -9.3808      2.00000
      9      -8.2975      2.00000
     10      -8.1779      2.00000
     11      -7.0830      2.00000
     12      -6.4832      2.00000
     13      -6.4356      2.00000
     14      -5.6790      2.00000
     15      -5.5095      2.00000
     16      -2.9721      0.00000
     17      -0.6965      0.00000
     18       1.5145      0.00000
     19       1.8594      0.00000
     20       2.3458      0.00000
     21       2.6125      0.00000
     22       2.8907      0.00000
     23       3.5509      0.00000
     24       3.6244      0.00000

 k-point     7 :      -0.2685    0.5379    0.0000
  band No.  band energies     occupation 
      1     -19.8065      2.00000
      2     -17.7401      2.00000
      3     -17.2124      2.00000
      4     -13.9692      2.00000
      5     -13.1386      2.00000
      6     -10.6864      2.00000
      7     -10.2552      2.00000
      8      -9.2623      2.00000
      9      -8.2373      2.00000
     10      -8.1380      2.00000
     11      -7.2048      2.00000
     12      -6.5021      2.00000
     13      -6.4985      2.00000
     14      -5.8291      2.00000
     15      -5.6465      2.00000
     16      -2.8353      0.00000
     17      -0.8418      0.00000
     18       1.6063      0.00000
     19       2.0855      0.00000
     20       2.5172      0.00000
     21       2.7058      0.00000
     22       2.9245      0.00000
     23       3.5641      0.00000
     24       3.7131      0.00000

 k-point     8 :      -0.2578    0.5164    0.0000
  band No.  band energies     occupation 
      1     -19.7772      2.00000
      2     -17.7562      2.00000
      3     -17.2924      2.00000
      4     -13.8570      2.00000
      5     -13.1692      2.00000
      6     -10.7340      2.00000
      7     -10.1533      2.00000
      8      -9.1341      2.00000
      9      -8.1723      2.00000
     10      -8.1291      2.00000
     11      -7.3095      2.00000
     12      -6.5790      2.00000
     13      -6.5253      2.00000
     14      -5.9587      2.00000
     15      -5.7808      2.00000
     16      -2.7148      0.00000
     17      -0.9611      0.00000
     18       1.7098      0.00000
     19       2.2612      0.00000
     20       2.7504      0.00000
     21       2.8113      0.00000
     22       2.9502      0.00000
     23       3.5885      0.00000
     24       3.8168      0.00000

 k-point     9 :      -0.2471    0.4949    0.0000
  band No.  band energies     occupation 
      1     -19.7487      2.00000
      2     -17.7806      2.00000
      3     -17.3526      2.00000
      4     -13.7891      2.00000
      5     -13.1523      2.00000
      6     -10.8271      2.00000
      7     -10.0038      2.00000
      8      -9.0023      2.00000
      9      -8.1658      2.00000
     10      -8.1048      2.00000
     11      -7.3820      2.00000
     12      -6.6661      2.00000
     13      -6.5753      2.00000
     14      -6.0506      2.00000
     15      -5.8997      2.00000
     16      -2.6226      0.00000
     17      -1.0459      0.00000
     18       1.8250      0.00000
     19       2.3997      0.00000
     20       2.9288      0.00000
     21       2.9553      0.00000
     22       3.0383      0.00000
     23       3.5439      0.00000
     24       3.6277      0.00000

 k-point    10 :      -0.2363    0.4734    0.0000
  band No.  band energies     occupation 
      1     -19.7231      2.00000
      2     -17.8147      2.00000
      3     -17.3876      2.00000
      4     -13.7773      2.00000
      5     -13.0820      2.00000
      6     -10.9233      2.00000
      7      -9.8478      2.00000
      8      -8.8859      2.00000
      9      -8.2329      2.00000
     10      -8.0382      2.00000
     11      -7.4305      2.00000
     12      -6.7555      2.00000
     13      -6.6530      2.00000
     14      -6.0949      2.00000
     15      -5.9910      2.00000
     16      -2.5687      0.00000
     17      -1.0889      0.00000
     18       1.9519      0.00000
     19       2.5130      0.00000
     20       2.9737      0.00000
     21       3.0583      0.00000
     22       3.2825      0.00000
     23       3.3260      0.00000
     24       3.6738      0.00000

 k-point    11 :      -0.2256    0.4518    0.0000
  band No.  band energies     occupation 
      1     -19.7022      2.00000
      2     -17.8543      2.00000
      3     -17.3978      2.00000
      4     -13.8065      2.00000
      5     -12.9815      2.00000
      6     -11.0032      2.00000
      7      -9.7033      2.00000
      8      -8.8354      2.00000
      9      -8.2634      2.00000
     10      -7.9778      2.00000
     11      -7.4891      2.00000
     12      -6.8281      2.00000
     13      -6.7453      2.00000
     14      -6.0979      2.00000
     15      -6.0470      2.00000
     16      -2.5573      0.00000
     17      -1.0888      0.00000
     18       2.0904      0.00000
     19       2.5915      0.00000
     20       3.0011      0.00000
     21       3.0306      0.00000
     22       3.2000      0.00000
     23       3.6470      0.00000
     24       3.7385      0.00000

 k-point    12 :      -0.2148    0.4303    0.0000
  band No.  band energies     occupation 
      1     -19.6884      2.00000
      2     -17.8914      2.00000
      3     -17.3879      2.00000
      4     -13.8559      2.00000
      5     -12.8820      2.00000
      6     -11.0529      2.00000
      7      -9.5879      2.00000
      8      -8.8918      2.00000
      9      -8.1937      2.00000
     10      -7.9321      2.00000
     11      -7.5846      2.00000
     12      -6.8651      2.00000
     13      -6.8301      2.00000
     14      -6.0724      2.00000
     15      -6.0644      2.00000
     16      -2.5840      0.00000
     17      -1.0517      0.00000
     18       2.2404      0.00000
     19       2.6102      0.00000
     20       2.7898      0.00000
     21       3.0678      0.00000
     22       3.3537      0.00000
     23       3.5484      0.00000
     24       3.8032      0.00000

 k-point    13 :      -0.2041    0.4088    0.0000
  band No.  band energies     occupation 
      1     -19.6837      2.00000
      2     -17.9184      2.00000
      3     -17.3631      2.00000
      4     -13.9126      2.00000
      5     -12.8073      2.00000
      6     -11.0604      2.00000
      7      -9.5389      2.00000
      8      -8.9842      2.00000
      9      -8.0799      2.00000
     10      -7.9119      2.00000
     11      -7.6906      2.00000
     12      -6.8869      2.00000
     13      -6.8695      2.00000
     14      -6.0435      2.00000
     15      -6.0279      2.00000
     16      -2.6385      0.00000
     17      -0.9895      0.00000
     18       2.4019      0.00000
     19       2.5603      0.00000
     20       2.5641      0.00000
     21       3.1702      0.00000
     22       3.3570      0.00000
     23       3.5194      0.00000
     24       3.6814      0.00000

 k-point    14 :      -0.1934    0.3873    0.0000
  band No.  band energies     occupation 
      1     -19.6895      2.00000
      2     -17.9294      2.00000
      3     -17.3272      2.00000
      4     -13.9699      2.00000
      5     -12.7714      2.00000
      6     -11.0188      2.00000
      7      -9.6104      2.00000
      8      -9.0144      2.00000
      9      -8.0807      2.00000
     10      -7.9265      2.00000
     11      -7.6718      2.00000
     12      -6.9012      2.00000
     13      -6.8561      2.00000
     14      -5.9872      2.00000
     15      -5.9698      2.00000
     16      -2.7099      0.00000
     17      -0.9144      0.00000
     18       2.3418      0.00000
     19       2.4700      0.00000
     20       2.5754      0.00000
     21       3.1181      0.00000
     22       3.3560      0.00000
     23       3.4578      0.00000
     24       3.6971      0.00000

 k-point    15 :      -0.1826    0.3658    0.0000
  band No.  band energies     occupation 
      1     -19.7065      2.00000
      2     -17.9215      2.00000
      3     -17.2827      2.00000
      4     -14.0245      2.00000
      5     -12.7775      2.00000
      6     -10.9306      2.00000
      7      -9.7845      2.00000
      8      -8.9918      2.00000
      9      -8.2097      2.00000
     10      -7.9770      2.00000
     11      -7.5078      2.00000
     12      -6.8689      2.00000
     13      -6.8316      2.00000
     14      -5.9014      2.00000
     15      -5.9012      2.00000
     16      -2.7887      0.00000
     17      -0.8363      0.00000
     18       2.1352      0.00000
     19       2.3428      0.00000
     20       2.7599      0.00000
     21       2.9361      0.00000
     22       3.2463      0.00000
     23       3.5063      0.00000
     24       3.8869      0.00000

 k-point    16 :      -0.1719    0.3443    0.0000
  band No.  band energies     occupation 
      1     -19.7342      2.00000
      2     -17.8933      2.00000
      3     -17.2314      2.00000
      4     -14.0743      2.00000
      5     -12.8197      2.00000
      6     -10.8098      2.00000
      7      -9.9993      2.00000
      8      -8.9995      2.00000
      9      -8.3211      2.00000
     10      -8.0552      2.00000
     11      -7.3166      2.00000
     12      -6.7970      2.00000
     13      -6.7888      2.00000
     14      -5.8248      2.00000
     15      -5.7927      2.00000
     16      -2.8684      0.00000
     17      -0.7617      0.00000
     18       1.9401      0.00000
     19       2.1921      0.00000
     20       2.7539      0.00000
     21       2.9559      0.00000
     22       3.0469      0.00000
     23       3.5828      0.00000
     24       3.7744      0.00000

 k-point    17 :      -0.1611    0.3227    0.0000
  band No.  band energies     occupation 
      1     -19.7712      2.00000
      2     -17.8456      2.00000
      3     -17.1746      2.00000
      4     -14.1181      2.00000
      5     -12.8883      2.00000
      6     -10.6907      2.00000
      7     -10.2037      2.00000
      8      -9.1010      2.00000
      9      -8.3413      2.00000
     10      -8.1503      2.00000
     11      -7.1542      2.00000
     12      -6.7027      2.00000
     13      -6.6957      2.00000
     14      -5.7419      2.00000
     15      -5.6686      2.00000
     16      -2.9439      0.00000
     17      -0.6949      0.00000
     18       1.7565      0.00000
     19       2.0249      0.00000
     20       2.5752      0.00000
     21       2.8594      0.00000
     22       3.1633      0.00000
     23       3.3586      0.00000
     24       3.8296      0.00000

 k-point    18 :      -0.1504    0.3012    0.0000
  band No.  band energies     occupation 
      1     -19.8155      2.00000
      2     -17.7799      2.00000
      3     -17.1134      2.00000
      4     -14.1551      2.00000
      5     -12.9741      2.00000
      6     -10.6912      2.00000
      7     -10.2797      2.00000
      8      -9.2845      2.00000
      9      -8.2793      2.00000
     10      -8.2533      2.00000
     11      -7.0534      2.00000
     12      -6.5740      2.00000
     13      -6.5482      2.00000
     14      -5.6543      2.00000
     15      -5.5346      2.00000
     16      -3.0115      0.00000
     17      -0.6381      0.00000
     18       1.5846      0.00000
     19       1.8459      0.00000
     20       2.3990      0.00000
     21       2.6840      0.00000
     22       3.0785      0.00000
     23       3.3819      0.00000
     24       3.6966      0.00000

 k-point    19 :      -0.1396    0.2797    0.0000
  band No.  band energies     occupation 
      1     -19.8648      2.00000
      2     -17.6984      2.00000
      3     -17.0489      2.00000
      4     -14.1846      2.00000
      5     -13.0700      2.00000
      6     -10.8752      2.00000
      7     -10.1674      2.00000
      8      -9.5071      2.00000
      9      -8.3582      2.00000
     10      -8.1752      2.00000
     11      -7.0019      2.00000
     12      -6.4381      2.00000
     13      -6.3410      2.00000
     14      -5.5638      2.00000
     15      -5.3957      2.00000
     16      -3.0680      0.00000
     17      -0.5923      0.00000
     18       1.4244      0.00000
     19       1.6586      0.00000
     20       2.2235      0.00000
     21       2.5208      0.00000
     22       2.7899      0.00000
     23       3.5348      0.00000
     24       3.6116      0.00000

 k-point    20 :      -0.1289    0.2582    0.0000
  band No.  band energies     occupation 
      1     -19.9170      2.00000
      2     -17.6033      2.00000
      3     -16.9821      2.00000
      4     -14.2065      2.00000
      5     -13.1711      2.00000
      6     -11.1117      2.00000
      7     -10.0025      2.00000
      8      -9.7430      2.00000
      9      -8.4613      2.00000
     10      -8.0513      2.00000
     11      -6.9721      2.00000
     12      -6.2924      2.00000
     13      -6.1106      2.00000
     14      -5.4726      2.00000
     15      -5.2554      2.00000
     16      -3.1107      0.00000
     17      -0.5575      0.00000
     18       1.2758      0.00000
     19       1.4654      0.00000
     20       2.0443      0.00000
     21       2.3696      0.00000
     22       2.5057      0.00000
     23       3.3818      0.00000
     24       3.7417      0.00000

 k-point    21 :      -0.1182    0.2367    0.0000
  band No.  band energies     occupation 
      1     -19.9700      2.00000
      2     -17.4970      2.00000
      3     -16.9140      2.00000
      4     -14.2205      2.00000
      5     -13.2740      2.00000
      6     -11.3562      2.00000
      7      -9.9911      2.00000
      8      -9.8226      2.00000
      9      -8.5600      2.00000
     10      -7.9167      2.00000
     11      -6.9498      2.00000
     12      -6.1406      2.00000
     13      -5.8736      2.00000
     14      -5.3828      2.00000
     15      -5.1169      2.00000
     16      -3.1368      0.00000
     17      -0.5333      0.00000
     18       1.1390      0.00000
     19       1.2683      0.00000
     20       1.8504      0.00000
     21       2.2304      0.00000
     22       2.2425      0.00000
     23       3.2408      0.00000
     24       3.6035      0.00000

 k-point    22 :      -0.1074    0.2152    0.0000
  band No.  band energies     occupation 
      1     -20.0224      2.00000
      2     -17.3819      2.00000
      3     -16.8458      2.00000
      4     -14.2265      2.00000
      5     -13.3763      2.00000
      6     -11.5979      2.00000
      7     -10.2261      2.00000
      8      -9.6598      2.00000
      9      -8.6529      2.00000
     10      -7.7757      2.00000
     11      -6.9290      2.00000
     12      -5.9853      2.00000
     13      -5.6384      2.00000
     14      -5.2970      2.00000
     15      -4.9825      2.00000
     16      -3.1439      0.00000
     17      -0.5189      0.00000
     18       1.0139      0.00000
     19       1.0694      0.00000
     20       1.6256      0.00000
     21       2.0213      0.00000
     22       2.1034      0.00000
     23       3.1121      0.00000
     24       3.4772      0.00000

 k-point    23 :      -0.0967    0.1936    0.0000
  band No.  band energies     occupation 
      1     -20.0726      2.00000
      2     -17.2604      2.00000
      3     -16.7786      2.00000
      4     -14.2249      2.00000
      5     -13.4764      2.00000
      6     -11.8316      2.00000
      7     -10.4569      2.00000
      8      -9.5075      2.00000
      9      -8.7387      2.00000
     10      -7.6311      2.00000
     11      -6.9075      2.00000
     12      -5.8295      2.00000
     13      -5.4101      2.00000
     14      -5.2176      2.00000
     15      -4.8546      2.00000
     16      -3.1298      0.00000
     17      -0.5135      0.00000
     18       0.8709      0.00000
     19       0.9005      0.00000
     20       1.3678      0.00000
     21       1.8491      0.00000
     22       1.9884      0.00000
     23       2.9958      0.00000
     24       3.3628      0.00000

 k-point    24 :      -0.0859    0.1721    0.0000
  band No.  band energies     occupation 
      1     -20.1198      2.00000
      2     -17.1347      2.00000
      3     -16.7137      2.00000
      4     -14.2160      2.00000
      5     -13.5734      2.00000
      6     -12.0536      2.00000
      7     -10.6779      2.00000
      8      -9.3711      2.00000
      9      -8.8167      2.00000
     10      -7.4856      2.00000
     11      -6.8845      2.00000
     12      -5.6757      2.00000
     13      -5.1927      2.00000
     14      -5.1467      2.00000
     15      -4.7351      2.00000
     16      -3.0928      0.00000
     17      -0.5162      0.00000
     18       0.6747      0.00000
     19       0.7990      0.00000
     20       1.0941      0.00000
     21       1.7138      0.00000
     22       1.8855      0.00000
     23       2.8919      0.00000
     24       3.2603      0.00000

 k-point    25 :      -0.0752    0.1506    0.0000
  band No.  band energies     occupation 
      1     -20.1629      2.00000
      2     -17.0078      2.00000
      3     -16.6524      2.00000
      4     -14.2008      2.00000
      5     -13.6664      2.00000
      6     -12.2604      2.00000
      7     -10.8860      2.00000
      8      -9.2528      2.00000
      9      -8.8865      2.00000
     10      -7.3424      2.00000
     11      -6.8605      2.00000
     12      -5.5270      2.00000
     13      -5.0860      2.00000
     14      -4.9899      2.00000
     15      -4.6257      2.00000
     16      -3.0328      0.00000
     17      -0.5262      0.00000
     18       0.4808      0.00000
     19       0.7093      0.00000
     20       0.8237      0.00000
     21       1.6037      0.00000
     22       1.7947      0.00000
     23       2.8003      0.00000
     24       3.1697      0.00000

 k-point    26 :      -0.0645    0.1291    0.0000
  band No.  band energies     occupation 
      1     -20.2014      2.00000
      2     -16.8825      2.00000
      3     -16.5960      2.00000
      4     -14.1806      2.00000
      5     -13.7546      2.00000
      6     -12.4482      2.00000
      7     -11.0781      2.00000
      8      -9.1529      2.00000
      9      -8.9475      2.00000
     10      -7.2052      2.00000
     11      -6.8361      2.00000
     12      -5.3865      2.00000
     13      -5.0362      2.00000
     14      -4.8049      2.00000
     15      -4.5278      1.99999
     16      -2.9508      0.00000
     17      -0.5431      0.00000
     18       0.2849      0.00000
     19       0.5753      0.00000
     20       0.6314      0.00000
     21       1.5127      0.00000
     22       1.7159      0.00000
     23       2.7209      0.00000
     24       3.0911      0.00000

 k-point    27 :      -0.0537    0.1076    0.0000
  band No.  band energies     occupation 
      1     -20.2347      2.00000
      2     -16.7628      2.00000
      3     -16.5457      2.00000
      4     -14.1570      2.00000
      5     -13.8372      2.00000
      6     -12.6135      2.00000
      7     -11.2509      2.00000
      8      -9.0711      2.00000
      9      -8.9996      2.00000
     10      -7.0783      2.00000
     11      -6.8126      2.00000
     12      -5.2578      2.00000
     13      -4.9971      2.00000
     14      -4.6412      2.00000
     15      -4.4429      1.99983
     16      -2.8502      0.00000
     17      -0.5660      0.00000
     18       0.0785      0.00000
     19       0.3693      0.00000
     20       0.5654      0.00000
     21       1.4379      0.00000
     22       1.6493      0.00000
     23       2.6539      0.00000
     24       3.0245      0.00000

 k-point    28 :      -0.0430    0.0861    0.0000
  band No.  band energies     occupation 
      1     -20.2624      2.00000
      2     -16.6530      2.00000
      3     -16.5027      2.00000
      4     -14.1325      2.00000
      5     -13.9125      2.00000
      6     -12.7525      2.00000
      7     -11.4008      2.00000
      8      -9.0424      2.00000
      9      -9.0064      2.00000
     10      -6.9662      2.00000
     11      -6.7910      2.00000
     12      -5.1448      2.00000
     13      -4.9677      2.00000
     14      -4.5019      1.99997
     15      -4.3720      1.99888
     16      -2.7370      0.00000
     17      -0.5937      0.00000
     18      -0.1366      0.00000
     19       0.2152      0.00000
     20       0.5113      0.00000
     21       1.3778      0.00000
     22       1.5948      0.00000
     23       2.5990      0.00000
     24       2.9699      0.00000

 k-point    29 :      -0.0322    0.0645    0.0000
  band No.  band energies     occupation 
      1     -20.2843      2.00000
      2     -16.5584      2.00000
      3     -16.4681      2.00000
      4     -14.1095      2.00000
      5     -13.9778      2.00000
      6     -12.8624      2.00000
      7     -11.5237      2.00000
      8      -9.0759      2.00000
      9      -8.9577      2.00000
     10      -6.8735      2.00000
     11      -6.7727      2.00000
     12      -5.0513      2.00000
     13      -4.9469      2.00000
     14      -4.3899      1.99929
     15      -4.3161      1.99578
     16      -2.6204      0.00000
     17      -0.6232      0.00000
     18      -0.3419      0.00000
     19       0.1066      0.00000
     20       0.4691      0.00000
     21       1.3316      0.00000
     22       1.5524      0.00000
     23       2.5564      0.00000
     24       2.9273      0.00000

 k-point    30 :      -0.0215    0.0430    0.0000
  band No.  band energies     occupation 
      1     -20.3001      2.00000
      2     -16.4848      2.00000
      3     -16.4427      2.00000
      4     -14.0907      2.00000
      5     -14.0294      2.00000
      6     -12.9413      2.00000
      7     -11.6155      2.00000
      8      -9.0999      2.00000
      9      -8.9238      2.00000
     10      -6.8040      2.00000
     11      -6.7588      2.00000
     12      -4.9812      2.00000
     13      -4.9331      2.00000
     14      -4.3080      1.99497
     15      -4.2756      1.98999
     16      -2.5143      0.00000
     17      -0.6501      0.00000
     18      -0.5150      0.00000
     19       0.0348      0.00000
     20       0.4390      0.00000
     21       1.2988      0.00000
     22       1.5220      0.00000
     23       2.5259      0.00000
     24       2.8969      0.00000

 k-point    31 :      -0.0107    0.0215    0.0000
  band No.  band energies     occupation 
      1     -20.3096      2.00000
      2     -16.4377      2.00000
      3     -16.4272      2.00000
      4     -14.0785      2.00000
      5     -14.0629      2.00000
      6     -12.9886      2.00000
      7     -11.6724      2.00000
      8      -9.1143      2.00000
      9      -8.9039      2.00000
     10      -6.7609      2.00000
     11      -6.7501      2.00000
     12      -4.9377      2.00000
     13      -4.9254      2.00000
     14      -4.2580      1.98574
     15      -4.2511      1.98370
     16      -2.4372      0.00000
     17      -0.6690      0.00000
     18      -0.6331      0.00000
     19      -0.0058      0.00000
     20       0.4209      0.00000
     21       1.2793      0.00000
     22       1.5039      0.00000
     23       2.5077      0.00000
     24       2.8786      0.00000

 k-point    32 :       0.0000    0.0000    0.0000
  band No.  band energies     occupation 
      1     -20.3127      2.00000
      2     -16.4221      2.00000
      3     -16.4214      2.00000
      4     -14.0746      2.00000
      5     -14.0742      2.00000
      6     -13.0043      2.00000
      7     -11.6917      2.00000
      8      -9.1191      2.00000
      9      -8.8973      2.00000
[...]
      1     -19.7609      2.00000
      2     -18.0002      2.00000
      3     -16.9052      2.00000
      4     -14.5788      2.00000
      5     -12.3959      2.00000
      6     -10.4598      2.00000
      7     -10.3577      2.00000
      8      -9.4241      2.00000
      9      -8.3614      2.00000
     10      -8.0974      2.00000
     11      -7.3423      2.00000
     12      -6.9758      2.00000
     13      -6.5810      2.00000
     14      -5.4359      2.00000
     15      -5.2366      2.00000
     16      -3.5346      0.00772
     17       0.1305      0.00000
     18       1.1918      0.00000
     19       1.9051      0.00000
     20       2.6470      0.00000
     21       2.6718      0.00000
     22       3.0125      0.00000
     23       3.3811      0.00000
     24       3.7732      0.00000

 k-point    86 :      -0.0643    0.4518    0.0000
  band No.  band energies     occupation 
      1     -19.7358      2.00000
      2     -18.0295      2.00000
      3     -16.9557      2.00000
      4     -14.5301      2.00000
      5     -12.3726      2.00000
      6     -10.5480      2.00000
      7     -10.1702      2.00000
      8      -9.4916      2.00000
      9      -8.0708      2.00000
     10      -8.0250      2.00000
     11      -7.6699      2.00000
     12      -7.0472      2.00000
     13      -6.5930      2.00000
     14      -5.5189      2.00000
     15      -5.3265      2.00000
     16      -3.4543      0.00123
     17      -0.0045      0.00000
     18       1.3978      0.00000
     19       2.1580      0.00000
     20       2.3912      0.00000
     21       2.9177      0.00000
     22       3.1490      0.00000
     23       3.2713      0.00000
     24       3.5104      0.00000

 k-point    87 :      -0.0912    0.4734    0.0000
  band No.  band energies     occupation 
      1     -19.7301      2.00000
      2     -18.0152      2.00000
      3     -17.0150      2.00000
      4     -14.4452      2.00000
      5     -12.4379      2.00000
      6     -10.6357      2.00000
      7     -10.0942      2.00000
      8      -9.3941      2.00000
      9      -8.0850      2.00000
     10      -8.0146      2.00000
     11      -7.6452      2.00000
     12      -7.0250      2.00000
     13      -6.6427      2.00000
     14      -5.5815      2.00000
     15      -5.4384      2.00000
     16      -3.3289      0.00004
     17      -0.1877      0.00000
     18       1.6016      0.00000
     19       2.1607      0.00000
     20       2.4364      0.00000
     21       2.9230      0.00000
     22       3.1940      0.00000
     23       3.2737      0.00000
     24       3.5564      0.00000

 k-point    88 :      -0.1180    0.4949    0.0000
  band No.  band energies     occupation 
      1     -19.7426      2.00000
      2     -17.9603      2.00000
      3     -17.0769      2.00000
      4     -14.3309      2.00000
      5     -12.5893      2.00000
      6     -10.6710      2.00000
      7     -10.1466      2.00000
      8      -9.1893      2.00000
      9      -8.3246      2.00000
     10      -8.0626      2.00000
     11      -7.3461      2.00000
     12      -6.9142      2.00000
     13      -6.7131      2.00000
     14      -5.6191      2.00000
     15      -5.5571      2.00000
     16      -3.1789      0.00000
     17      -0.3924      0.00000
     18       1.7812      0.00000
     19       1.9556      0.00000
     20       2.7330      0.00000
     21       2.7400      0.00000
     22       3.0634      0.00000
     23       3.4696      0.00000
     24       3.8675      0.00000

 k-point    89 :      -0.1449    0.5164    0.0000
  band No.  band energies     occupation 
      1     -19.7692      2.00000
      2     -17.8739      2.00000
      3     -17.1334      2.00000
      4     -14.1969      2.00000
      5     -12.8027      2.00000
      6     -10.6694      2.00000
      7     -10.2238      2.00000
      8      -9.1081      2.00000
      9      -8.3894      2.00000
     10      -8.1418      2.00000
     11      -7.1342      2.00000
     12      -6.7470      2.00000
     13      -6.7229      2.00000
     14      -5.6684      2.00000
     15      -5.6305      2.00000
     16      -3.0290      0.00000
     17      -0.5922      0.00000
     18       1.7758      0.00000
     19       1.9210      0.00000
     20       2.5762      0.00000
     21       2.8793      0.00000
     22       3.0686      0.00000
     23       3.4453      0.00000
     24       3.7965      0.00000

 k-point    90 :      -0.1718    0.5379    0.0000
  band No.  band energies     occupation 
      1     -19.8037      2.00000
      2     -17.7719      2.00000
      3     -17.1730      2.00000
      4     -14.0604      2.00000
      5     -13.0384      2.00000
      6     -10.6771      2.00000
      7     -10.2680      2.00000
      8      -9.2396      2.00000
      9      -8.2289      2.00000
     10      -8.2252      2.00000
     11      -7.1370      2.00000
     12      -6.5588      2.00000
     13      -6.5550      2.00000
     14      -5.7550      2.00000
     15      -5.6121      2.00000
     16      -2.9114      0.00000
     17      -0.7514      0.00000
     18       1.6215      0.00000
     19       2.0000      0.00000
     20       2.4692      0.00000
     21       2.7215      0.00000
     22       3.0610      0.00000
     23       3.4216      0.00000
     24       3.7304      0.00000

 k-point    91 :      -0.1986    0.5594    0.0000
  band No.  band energies     occupation 
      1     -19.8404      2.00000
      2     -17.6796      2.00000
      3     -17.1769      2.00000
      4     -13.9638      2.00000
      5     -13.2347      2.00000
      6     -10.7465      2.00000
      7     -10.2413      2.00000
      8      -9.4230      2.00000
      9      -8.3109      2.00000
     10      -8.0368      2.00000
     11      -7.1936      2.00000
     12      -6.3928      2.00000
     13      -6.3522      2.00000
     14      -5.7856      2.00000
     15      -5.5539      2.00000
     16      -2.8654      0.00000
     17      -0.8264      0.00000
     18       1.4926      0.00000
     19       1.9880      0.00000
     20       2.4235      0.00000
     21       2.5900      0.00000
     22       2.6738      0.00000
     23       3.5984      0.00000
     24       3.7981      0.00000

 k-point    92 :      -0.2255    0.5809    0.0000
  band No.  band energies     occupation 
      1     -19.8748      2.00000
      2     -17.6255      2.00000
      3     -17.1250      2.00000
      4     -13.9929      2.00000
      5     -13.2919      2.00000
      6     -10.8762      2.00000
      7     -10.1582      2.00000
      8      -9.5792      2.00000
      9      -8.3811      2.00000
     10      -7.9690      2.00000
     11      -7.1582      2.00000
     12      -6.3065      2.00000
     13      -6.2131      2.00000
     14      -5.7122      2.00000
     15      -5.4478      2.00000
     16      -2.9173      0.00000
     17      -0.7837      0.00000
     18       1.3893      0.00000
     19       1.8640      0.00000
     20       2.2804      0.00000
     21       2.4847      0.00000
     22       2.4981      0.00000
     23       3.4938      0.00000
     24       3.8567      0.00000

 k-point    93 :      -0.2524    0.6025    0.0000
  band No.  band energies     occupation 
      1     -19.9034      2.00000
      2     -17.6136      2.00000
      3     -17.0251      2.00000
      4     -14.1480      2.00000
      5     -13.2008      2.00000
      6     -11.0338      2.00000
      7     -10.0544      2.00000
      8      -9.6901      2.00000
      9      -8.4358      2.00000
     10      -8.0340      2.00000
     11      -7.0229      2.00000
     12      -6.3026      2.00000
     13      -6.1475      2.00000
     14      -5.5439      2.00000
     15      -5.3129      2.00000
     16      -3.0541      0.00000
     17      -0.6272      0.00000
     18       1.3115      0.00000
     19       1.5938      0.00000
     20       2.0988      0.00000
     21       2.4058      0.00000
     22       2.5253      0.00000
     23       3.4173      0.00000
     24       3.7779      0.00000

 k-point    94 :      -0.2793    0.6240    0.0000
  band No.  band energies     occupation 
      1     -19.9238      2.00000
      2     -17.6237      2.00000
      3     -16.9133      2.00000
      4     -14.3245      2.00000
      5     -13.0612      2.00000
      6     -11.1864      2.00000
      7      -9.9558      2.00000
      8      -9.7567      2.00000
      9      -8.4732      2.00000
     10      -8.1479      2.00000
     11      -6.8711      2.00000
     12      -6.3306      2.00000
     13      -6.1322      2.00000
     14      -5.3504      2.00000
     15      -5.1881      2.00000
     16      -3.2287      0.00000
     17      -0.3924      0.00000
     18       1.2479      0.00000
     19       1.2595      0.00000
     20       2.0169      0.00000
     21       2.3532      0.00000
     22       2.5652      0.00000
     23       3.3679      0.00000
     24       3.7250      0.00000

 k-point    95 :      -0.3061    0.6455    0.0000
  band No.  band energies     occupation 
      1     -19.9346      2.00000
      2     -17.6392      2.00000
      3     -16.8275      2.00000
      4     -14.4560      2.00000
      5     -12.9411      2.00000
      6     -11.2965      2.00000
      7      -9.8826      2.00000
      8      -9.7885      2.00000
      9      -8.4923      2.00000
     10      -8.2480      2.00000
     11      -6.7596      2.00000
     12      -6.3608      2.00000
     13      -6.1445      2.00000
     14      -5.1946      2.00000
     15      -5.1053      2.00000
     16      -3.3802      0.00017
     17      -0.1346      0.00000
     18       0.9275      0.00000
     19       1.2335      0.00000
     20       1.9832      0.00000
     21       2.3269      0.00000
     22       2.6022      0.00000
     23       3.3446      0.00000
     24       3.6979      0.00000

 k-point    96 :      -0.3330    0.6670    0.0000
  band No.  band energies     occupation 
      1     -19.9350      2.00000
      2     -17.6526      2.00000
      3     -16.7969      2.00000
      4     -14.5066      2.00000
      5     -12.8851      2.00000
      6     -11.3257      2.00000
      7      -9.8570      2.00000
      8      -9.7902      2.00000
      9      -8.4924      2.00000
     10      -8.2981      2.00000
     11      -6.7167      2.00000
     12      -6.3827      2.00000
     13      -6.1686      2.00000
     14      -5.1339      2.00000
     15      -5.0820      2.00000
     16      -3.4452      0.00098
     17       0.0117      0.00000
     18       0.7721      0.00000
     19       1.2335      0.00000
     20       1.9828      0.00000
     21       2.3271      0.00000
     22       2.6346      0.00000
     23       3.3462      0.00000
     24       3.6606      0.00000


--------------------------------------------------------------------------------------------------------


 soft charge-density along one line, spin component           1
         0         1         2         3         4         5         6         7         8         9
 total charge-density along one line
 
 pseudopotential strength for first ion, spin component:           1
  6.760  10.317  -0.000   0.000  -0.000  -0.000   0.000  -0.000
 10.317  15.742  -0.000   0.000  -0.000  -0.000   0.000  -0.000
 -0.000  -0.000  -2.329   0.000  -0.000  -4.001   0.000  -0.000
  0.000   0.000   0.000  -2.335  -0.000   0.000  -4.008  -0.000
 -0.000  -0.000  -0.000  -0.000  -2.329  -0.000  -0.000  -4.001
 -0.000  -0.000  -4.001   0.000  -0.000  -6.676   0.000  -0.000
  0.000   0.000   0.000  -4.008  -0.000   0.000  -6.685  -0.000
 -0.000  -0.000  -0.000  -0.000  -4.001  -0.000  -0.000  -6.676
 total augmentation occupancy for first ion, spin component:           1
  2.000   0.000   0.000   0.000   0.000   0.000   0.000   0.000
  0.000   0.000   0.000   0.000   0.000   0.000   0.000   0.000
  0.000   0.000   0.333   0.000   0.000   0.000   0.000   0.000
  0.000   0.000   0.000   0.333   0.000   0.000   0.000   0.000
  0.000   0.000   0.000   0.000   0.333   0.000   0.000   0.000
  0.000   0.000   0.000   0.000   0.000   0.000   0.000   0.000
  0.000   0.000   0.000   0.000   0.000   0.000   0.000   0.000
  0.000   0.000   0.000   0.000   0.000   0.000   0.000   0.000


------------------------ aborting loop because EDIFF is reached ----------------------------------------


 


 total charge     
 
# of ion       s       p       d       tot
------------------------------------------
    1        0.748   1.294   0.000   2.042
    2        0.748   1.294   0.000   2.042
    3        0.870   1.758   0.000   2.628
    4        0.870   1.736   0.000   2.606
    5        0.870   1.749   0.000   2.620
    6        0.870   1.749   0.000   2.620
    7        0.870   1.736   0.000   2.606
    8        0.870   1.758   0.000   2.628
--------------------------------------------------
tot          6.717  13.074   0.000  19.791
 
    CHARGE:  cpu time    1.2381: real time    1.2451
    FORLOC:  cpu time    0.0103: real time    0.0103
    FORNL :  cpu time    1.5588: real time    1.5596
    STRESS:  cpu time   10.6771: real time   10.6857
    FORCOR:  cpu time    0.1420: real time    0.1422
    FORHAR:  cpu time    0.0377: real time    0.0378
    OFIELD:  cpu time    0.0013: real time    0.0013

  FORCE on cell =-STRESS in cart. coord.  units (eV):
  Direction    XX          YY          ZZ          XY          YZ          ZX
  --------------------------------------------------------------------------------------
  Alpha Z    10.93934    10.93934    10.93934
  Ewald    4956.93453  4956.75668 -5853.63745     0.00000     0.00000    -0.00000
  Hartree  4882.87440  4882.83733 -4822.37724    -0.00000    -0.00000    -0.00000
  E(xc)    -107.43144  -107.42835  -111.23875    -0.00000     0.00000    -0.00000
  Local  -10153.33493-10152.72697 10344.13593     0.00003     0.00000     0.00000
  n-local   -23.23892   -23.19554   -11.89985    -0.07860     0.00000    -0.00000
  augment    -1.88544    -1.88617    -1.85886    -0.00004    -0.00000    -0.00000
  Kinetic   436.55091   436.28312   447.37649     1.29454    -0.00000    -0.00000
  Fock        0.00000     0.00000     0.00000     0.00000     0.00000     0.00000
  -------------------------------------------------------------------------------------
  Total       1.40845     1.57943     1.43962     0.00000     0.00000     0.00000
  in kB       4.86654     5.45732     4.97426     0.00000     0.00000     0.00000
  external pressure =        5.10 kB  Pullay stress =        0.00 kB


 VOLUME and BASIS-vectors are now :
 -----------------------------------------------------------------------------
  energy-cutoff  :      450.00
  volume of cell :      463.69
      direct lattice vectors                 reciprocal lattice vectors
     5.174000000  0.000000000  0.000000000     0.193274063 -0.111582236  0.000000000
     2.587000000  4.481000000  0.000000000     0.000000000  0.223164472  0.000000000
     0.000000000  0.000000000 20.000000000     0.000000000  0.000000000  0.050000000

  length of vectors
     5.174000000  5.174159835 20.000000000     0.223171366  0.223164472  0.050000000


 FORCES acting on ions
    electron-ion (+dipol)            ewald-force                    non-local-force                 convergence-correction
 -----------------------------------------------------------------------------------------------
   0.269E-05 0.242E-01 0.172E-06   0.297E-11 0.403E-01 -.298E-20   -.139E-16 -.493E-01 0.000E+00   -.209E-04 -.378E-01 -.251E-13
   -.191E-05 -.242E-01 -.178E-06   -.660E-11 -.403E-01 -.487E-20   0.781E-17 0.493E-01 0.000E+00   0.230E-03 0.381E-01 0.760E-12
   -.454E+02 -.261E+02 -.427E-06   0.478E+02 0.276E+02 0.132E-20   -.355E+01 -.199E+01 0.265E-22   0.798E+00 0.388E+00 -.224E-12
   0.454E+02 -.261E+02 0.416E-06   -.478E+02 0.276E+02 0.293E-19   0.355E+01 -.199E+01 0.331E-23   -.798E+00 0.388E+00 -.377E-12
   -.147E-05 -.524E+02 -.503E-06   -.137E-11 0.552E+02 -.156E-19   0.000E+00 -.412E+01 0.000E+00   0.448E-03 0.856E+00 0.682E-12
   -.367E-05 0.524E+02 0.412E-06   -.159E-10 -.552E+02 0.646E-20   0.000E+00 0.412E+01 0.132E-22   -.191E-03 -.856E+00 0.829E-12
   -.454E+02 0.261E+02 -.507E-06   0.478E+02 -.276E+02 0.205E-20   -.355E+01 0.199E+01 0.000E+00   0.797E+00 -.388E+00 0.494E-12
   0.454E+02 0.261E+02 0.396E-06   -.478E+02 -.276E+02 -.156E-19   0.355E+01 0.199E+01 -.132E-22   -.798E+00 -.388E+00 0.114E-11
 -----------------------------------------------------------------------------------------------
   -.897E-05 -.475E-05 -.219E-06   -.711E-14 0.000E+00 0.000E+00   0.000E+00 0.000E+00 0.298E-22   -.328E-03 -.575E-03 0.327E-11
 
 
 POSITION                                       TOTAL-FORCE (eV/Angst)
 -----------------------------------------------------------------------------------
      1.35500      0.78250      0.00000         0.000000     -0.022714     -0.000000
      3.94200      2.27600      0.00000        -0.000000      0.022714      0.000000
      0.00000      0.00000      0.00000        -0.413891     -0.157955      0.000000
      2.71000      0.00000      0.00000         0.413891     -0.157955      0.000000
      3.94200      0.71100      0.00000        -0.000000     -0.493000      0.000000
      6.52900      2.34750      0.00000         0.000000      0.493000     -0.000000
      2.58700      3.05850      0.00000        -0.413891      0.157955     -0.000000
      5.29700      3.05850      0.00000         0.413891      0.157955      0.000000
 -----------------------------------------------------------------------------------
    total drift:                               -0.000337     -0.000580     -0.000000


--------------------------------------------------------------------------------------------------------



  FREE ENERGIE OF THE ION-ELECTRON SYSTEM (eV)
  ---------------------------------------------------
  free  energy   TOTEN  =       -66.26408336 eV

  energy  without entropy=      -66.26215384  energy(sigma->0) =      -66.26311860
 


--------------------------------------------------------------------------------------------------------


    POTLOK:  cpu time    0.1388: real time    0.1388


--------------------------------------------------------------------------------------------------------


 writing wavefunctions
     LOOP+:  cpu time  159.4420: real time  166.8221
    4ORBIT:  cpu time    0.0000: real time    0.0000
 


 total charge     
 
# of ion       s       p       d       tot
------------------------------------------
    1        0.748   1.294   0.000   2.042
    2        0.748   1.294   0.000   2.042
    3        0.870   1.758   0.000   2.628
    4        0.870   1.736   0.000   2.606
    5        0.870   1.749   0.000   2.620
    6        0.870   1.749   0.000   2.620
    7        0.870   1.736   0.000   2.606
    8        0.870   1.758   0.000   2.628
--------------------------------------------------
tot          6.717  13.074   0.000  19.791
 

 total amount of memory used by VASP MPI-rank0   205636. kBytes
=======================================================================

   base      :      30000. kBytes
   nonl-proj :     125451. kBytes
   fftplans  :       4815. kBytes
   grid      :      14086. kBytes
   one-center:         24. kBytes
   wavefun   :      31260. kBytes
 
  
  
 General timing and accounting informations for this job:
 ========================================================
  
                  Total CPU time used (sec):      167.632
                            User time (sec):      166.167
                          System time (sec):        1.465
                         Elapsed time (sec):      176.244
  
                   Maximum memory used (kb):      310684.
                   Average memory used (kb):           0.
  
                          Minor page faults:        49063
                          Major page faults:            0
                 Voluntary context switches:        10874
