PROCAR lm decomposed
# of k-points:   73         # of bands:   24         # of ions:    8

 k-point     1 :    0.00000000 0.00000000 0.00000000     weight = 0.00390625

band     1 # energy  -20.31273941 # occ.  2.00000000
 
ion      s     py     pz     px    dxy    dyz    dz2    dxz  x2-y2    tot
    1  0.028  0.000  0.000  0.000  0.000  0.000  0.000  0.000  0.000  0.028
    2  0.028  0.000  0.000  0.000  0.000  0.000  0.000  0.000  0.000  0.028
    3  0.093  0.001  0.000  0.004  0.000  0.000  0.000  0.000  0.000  0.098
    4  0.093  0.001  0.000  0.004  0.000  0.000  0.000  0.000  0.000  0.098
    5  0.093  0.005  0.000  0.000  0.000  0.000  0.000  0.000  0.000  0.098
    6  0.093  0.005  0.000  0.000  0.000  0.000  0.000  0.000  0.000  0.098
    7  0.093  0.001  0.000  0.004  0.000  0.000  0.000  0.000  0.000  0.098
    8  0.093  0.001  0.000  0.004  0.000  0.000  0.000  0.000  0.000  0.098
tot    0.612  0.015  0.000  0.015  0.000  0.000  0.000  0.000  0.000  0.642
 
band     2 # energy  -16.42205703 # occ.  2.00000000
 
ion      s     py     pz     px    dxy    dyz    dz2    dxz  x2-y2    tot
    1  0.000  0.000  0.000  0.014  0.000  0.000  0.000  0.000  0.000  0.014
    2  0.000  0.000  0.000  0.014  0.000  0.000  0.000  0.000  0.000  0.014
    3  0.142  0.011  0.000  0.000  0.000  0.000  0.000  0.000  0.000  0.154
    4  0.151  0.010  0.000  0.000  0.000  0.000  0.000  0.000  0.000  0.162
    5  0.000  0.000  0.000  0.027  0.000  0.000  0.000  0.000  0.000  0.027
    6  0.000  0.000  0.000  0.027  0.000  0.000  0.000  0.000  0.000  0.027
    7  0.151  0.010  0.000  0.000  0.000  0.000  0.000  0.000  0.000  0.161
    8  0.142  0.011  0.000  0.000  0.000  0.000  0.000  0.000  0.000  0.154
tot    0.586  0.044  0.000  0.083  0.000  0.000  0.000  0.000  0.000  0.712
 
band     3 # energy  -16.42145983 # occ.  2.00000000
 
ion      s     py     pz     px    dxy    dyz    dz2    dxz  x2-y2    tot
    1  0.000  0.014  0.000  0.000  0.000  0.000  0.000  0.000  0.000  0.014
    2  0.000  0.014  0.000  0.000  0.000  0.000  0.000  0.000  0.000  0.014
    3  0.053  0.010  0.000  0.011  0.000  0.000  0.000  0.000  0.000  0.075
    4  0.045  0.011  0.000  0.011  0.000  0.000  0.000  0.000  0.000  0.067
    5  0.195  0.006  0.000  0.000  0.000  0.000  0.000  0.000  0.000  0.201
    6  0.195  0.006  0.000  0.000  0.000  0.000  0.000  0.000  0.000  0.201
    7  0.045  0.011  0.000  0.011  0.000  0.000  0.000  0.000  0.000  0.067
    8  0.053  0.010  0.000  0.011  0.000  0.000  0.000  0.000  0.000  0.075
tot    0.586  0.083  0.000  0.044  0.000  0.000  0.000  0.000  0.000  0.712
 
band     4 # energy  -14.07462072 # occ.  2.00000000
 
ion      s     py     pz     px    dxy    dyz    dz2    dxz  x2-y2    tot
    1  0.000  0.000  0.000  0.054  0.000  0.000  0.000  0.000  0.000  0.054
    2  0.000  0.000  0.000  0.054  0.000  0.000  0.000  0.000  0.000  0.054
    3  0.074  0.022  0.000  0.001  0.000  0.000  0.000  0.000  0.000  0.097
    4  0.070  0.025  0.000  0.001  0.000  0.000  0.000  0.000  0.000  0.096
    5  0.000  0.000  0.000  0.087  0.000  0.000  0.000  0.000  0.000  0.087
    6  0.000  0.000  0.000  0.087  0.000  0.000  0.000  0.000  0.000  0.087
    7  0.070  0.025  0.000  0.001  0.000  0.000  0.000  0.000  0.000  0.096
    8  0.074  0.022  0.000  0.001  0.000  0.000  0.000  0.000  0.000  0.097
tot    0.289  0.094  0.000  0.285  0.000  0.000  0.000  0.000  0.000  0.668
 
band     5 # energy  -14.07420204 # occ.  2.00000000
 
ion      s     py     pz     px    dxy    dyz    dz2    dxz  x2-y2    tot
    1  0.000  0.054  0.000  0.000  0.000  0.000  0.000  0.000  0.000  0.054
    2  0.000  0.054  0.000  0.000  0.000  0.000  0.000  0.000  0.000  0.054
    3  0.022  0.044  0.000  0.024  0.000  0.000  0.000  0.000  0.000  0.090
    4  0.026  0.041  0.000  0.023  0.000  0.000  0.000  0.000  0.000  0.091
    5  0.096  0.003  0.000  0.000  0.000  0.000  0.000  0.000  0.000  0.099
    6  0.096  0.003  0.000  0.000  0.000  0.000  0.000  0.000  0.000  0.100
    7  0.026  0.041  0.000  0.023  0.000  0.000  0.000  0.000  0.000  0.091
    8  0.022  0.044  0.000  0.024  0.000  0.000  0.000  0.000  0.000  0.090
tot    0.288  0.285  0.000  0.094  0.000  0.000  0.000  0.000  0.000  0.668
 
band     6 # energy  -13.00425916 # occ.  2.00000000
 
ion      s     py     pz     px    dxy    dyz    dz2    dxz  x2-y2    tot
    1  0.121  0.000  0.000  0.000  0.000  0.000  0.000  0.000  0.000  0.121
    2  0.121  0.000  0.000  0.000  0.000  0.000  0.000  0.000  0.000  0.121
    3  0.000  0.016  0.000  0.047  0.000  0.000  0.000  0.000  0.000  0.063
    4  0.000  0.016  0.000  0.047  0.000  0.000  0.000  0.000  0.000  0.063
    5  0.000  0.062  0.000  0.000  0.000  0.000  0.000  0.000  0.000  0.063
    6  0.000  0.062  0.000  0.000  0.000  0.000  0.000  0.000  0.000  0.063
    7  0.000  0.016  0.000  0.047  0.000  0.000  0.000  0.000  0.000  0.063
    8  0.000  0.016  0.000  0.047  0.000  0.000  0.000  0.000  0.000  0.063
tot    0.245  0.187  0.000  0.186  0.000  0.000  0.000  0.000  0.000  0.618
 
band     7 # energy  -11.69171021 # occ.  2.00000000
 
ion      s     py     pz     px    dxy    dyz    dz2    dxz  x2-y2    tot
    1  0.201  0.000  0.000  0.000  0.000  0.000  0.000  0.000  0.000  0.201
    2  0.201  0.000  0.000  0.000  0.000  0.000  0.000  0.000  0.000  0.201
    3  0.030  0.005  0.000  0.016  0.000  0.000  0.000  0.000  0.000  0.051
    4  0.030  0.005  0.000  0.016  0.000  0.000  0.000  0.000  0.000  0.051
    5  0.030  0.021  0.000  0.000  0.000  0.000  0.000  0.000  0.000  0.051
    6  0.030  0.021  0.000  0.000  0.000  0.000  0.000  0.000  0.000  0.051
    7  0.030  0.005  0.000  0.016  0.000  0.000  0.000  0.000  0.000  0.051
    8  0.030  0.005  0.000  0.016  0.000  0.000  0.000  0.000  0.000  0.051
tot    0.581  0.064  0.000  0.064  0.000  0.000  0.000  0.000  0.000  0.709
 
band     8 # energy   -9.11906941 # occ.  2.00000000
 
ion      s     py     pz     px    dxy    dyz    dz2    dxz  x2-y2    tot
    1  0.000  0.000  0.032  0.000  0.000  0.000  0.000  0.000  0.000  0.032
    2  0.000  0.000  0.032  0.000  0.000  0.000  0.000  0.000  0.000  0.032
    3  0.000  0.000  0.059  0.000  0.000  0.000  0.000  0.000  0.000  0.059
    4  0.000  0.000  0.059  0.000  0.000  0.000  0.000  0.000  0.000  0.059
    5  0.000  0.000  0.059  0.000  0.000  0.000  0.000  0.000  0.000  0.059
    6  0.000  0.000  0.059  0.000  0.000  0.000  0.000  0.000  0.000  0.059
    7  0.000  0.000  0.059  0.000  0.000  0.000  0.000  0.000  0.000  0.059
    8  0.000  0.000  0.059  0.000  0.000  0.000  0.000  0.000  0.000  0.059
tot    0.000  0.000  0.416  0.000  0.000  0.000  0.000  0.000  0.000  0.416
 
band     9 # energy   -8.89726980 # occ.  2.00000000
 
ion      s     py     pz     px    dxy    dyz    dz2    dxz  x2-y2    tot
    1  0.000  0.000  0.000  0.000  0.000  0.000  0.000  0.000  0.000  0.000
    2  0.000  0.000  0.000  0.000  0.000  0.000  0.000  0.000  0.000  0.000
    3  0.000  0.096  0.000  0.032  0.000  0.000  0.000  0.000  0.000  0.128
    4  0.000  0.096  0.000  0.032  0.000  0.000  0.000  0.000  0.000  0.128
    5  0.000  0.000  0.000  0.128  0.000  0.000  0.000  0.000  0.000  0.128
    6  0.000  0.000  0.000  0.128  0.000  0.000  0.000  0.000  0.000  0.128
    7  0.000  0.096  0.000  0.032  0.000  0.000  0.000  0.000  0.000  0.128
    8  0.000  0.096  0.000  0.032  0.000  0.000  0.000  0.000  0.000  0.128
tot    0.000  0.383  0.000  0.383  0.000  0.000  0.000  0.000  0.000  0.767
 
band    10 # energy   -6.74718283 # occ.  2.00000000
 
ion      s     py     pz     px    dxy    dyz    dz2    dxz  x2-y2    tot
    1  0.000  0.000  0.000  0.130  0.000  0.000  0.000  0.000  0.000  0.130
    2  0.000  0.000  0.000  0.130  0.000  0.000  0.000  0.000  0.000  0.130
    3  0.000  0.046  0.000  0.074  0.000  0.000  0.000  0.000  0.000  0.121
    4  0.001  0.047  0.000  0.075  0.000  0.000  0.000  0.000  0.000  0.122
    5  0.000  0.000  0.000  0.010  0.000  0.000  0.000  0.000  0.000  0.010
    6  0.000  0.000  0.000  0.010  0.000  0.000  0.000  0.000  0.000  0.010
    7  0.001  0.047  0.000  0.075  0.000  0.000  0.000  0.000  0.000  0.122
    8  0.000  0.046  0.000  0.074  0.000  0.000  0.000  0.000  0.000  0.121
tot    0.002  0.186  0.000  0.578  0.000  0.000  0.000  0.000  0.000  0.766
 
band    11 # energy   -6.74621233 # occ.  2.00000000
 
ion      s     py     pz     px    dxy    dyz    dz2    dxz  x2-y2    tot
    1  0.000  0.130  0.000  0.000  0.000  0.000  0.000  0.000  0.000  0.130
    2  0.000  0.130  0.000  0.000  0.000  0.000  0.000  0.000  0.000  0.130
    3  0.000  0.001  0.000  0.047  0.000  0.000  0.000  0.000  0.000  0.048
    4  0.000  0.001  0.000  0.046  0.000  0.000  0.000  0.000  0.000  0.047
    5  0.001  0.158  0.000  0.000  0.000  0.000  0.000  0.000  0.000  0.158
    6  0.001  0.158  0.000  0.000  0.000  0.000  0.000  0.000  0.000  0.158
    7  0.000  0.001  0.000  0.046  0.000  0.000  0.000  0.000  0.000  0.047
    8  0.000  0.001  0.000  0.047  0.000  0.000  0.000  0.000  0.000  0.048
tot    0.002  0.578  0.000  0.186  0.000  0.000  0.000  0.000  0.000  0.766
 
band    12 # energy   -4.92289882 # occ.  2.00000000
 
ion      s     py     pz     px    dxy    dyz    dz2    dxz  x2-y2    tot
    1  0.000  0.000  0.000  0.000  0.000  0.000  0.000  0.000  0.000  0.000
    2  0.000  0.000  0.000  0.000  0.000  0.000  0.000  0.000  0.000  0.000
    3  0.000  0.000  0.005  0.000  0.000  0.000  0.000  0.000  0.000  0.005
    4  0.000  0.000  0.097  0.000  0.000  0.000  0.000  0.000  0.000  0.097
    5  0.000  0.000  0.144  0.000  0.000  0.000  0.000  0.000  0.000  0.144
    6  0.000  0.000  0.144  0.000  0.000  0.000  0.000  0.000  0.000  0.144
    7  0.000  0.000  0.097  0.000  0.000  0.000  0.000  0.000  0.000  0.097
    8  0.000  0.000  0.005  0.000  0.000  0.000  0.000  0.000  0.000  0.005
tot    0.000  0.000  0.491  0.000  0.000  0.000  0.000  0.000  0.000  0.491
 
band    13 # energy   -4.92286341 # occ.  2.00000000
 
ion      s     py     pz     px    dxy    dyz    dz2    dxz  x2-y2    tot
    1  0.000  0.000  0.000  0.000  0.000  0.000  0.000  0.000  0.000  0.000
    2  0.000  0.000  0.000  0.000  0.000  0.000  0.000  0.000  0.000  0.000
    3  0.000  0.000  0.159  0.000  0.000  0.000  0.000  0.000  0.000  0.159
    4  0.000  0.000  0.067  0.000  0.000  0.000  0.000  0.000  0.000  0.067
    5  0.000  0.000  0.019  0.000  0.000  0.000  0.000  0.000  0.000  0.019
    6  0.000  0.000  0.019  0.000  0.000  0.000  0.000  0.000  0.000  0.019
    7  0.000  0.000  0.067  0.000  0.000  0.000  0.000  0.000  0.000  0.067
    8  0.000  0.000  0.159  0.000  0.000  0.000  0.000  0.000  0.000  0.159
tot    0.000  0.000  0.491  0.000  0.000  0.000  0.000  0.000  0.000  0.491
 
band    14 # energy   -4.24327287 # occ.  2.00000000
 
ion      s     py     pz     px    dxy    dyz    dz2    dxz  x2-y2    tot
    1  0.000  0.000  0.000  0.106  0.000  0.000  0.000  0.000  0.000  0.106
    2  0.000  0.000  0.000  0.106  0.000  0.000  0.000  0.000  0.000  0.106
    3  0.001  0.000  0.000  0.101  0.000  0.000  0.000  0.000  0.000  0.102
    4  0.001  0.000  0.000  0.101  0.000  0.000  0.000  0.000  0.000  0.102
    5  0.000  0.000  0.000  0.092  0.000  0.000  0.000  0.000  0.000  0.092
    6  0.000  0.000  0.000  0.092  0.000  0.000  0.000  0.000  0.000  0.092
    7  0.001  0.000  0.000  0.101  0.000  0.000  0.000  0.000  0.000  0.102
    8  0.001  0.000  0.000  0.101  0.000  0.000  0.000  0.000  0.000  0.102
tot    0.003  0.000  0.000  0.801  0.000  0.000  0.000  0.000  0.000  0.804
 
band    15 # energy   -4.24077323 # occ.  2.00000000
 
ion      s     py     pz     px    dxy    dyz    dz2    dxz  x2-y2    tot
    1  0.000  0.106  0.000  0.000  0.000  0.000  0.000  0.000  0.000  0.106
    2  0.000  0.106  0.000  0.000  0.000  0.000  0.000  0.000  0.000  0.106
    3  0.000  0.095  0.000  0.000  0.000  0.000  0.000  0.000  0.000  0.095
    4  0.000  0.095  0.000  0.000  0.000  0.000  0.000  0.000  0.000  0.095
    5  0.001  0.105  0.000  0.000  0.000  0.000  0.000  0.000  0.000  0.105
    6  0.001  0.105  0.000  0.000  0.000  0.000  0.000  0.000  0.000  0.105
    7  0.000  0.095  0.000  0.000  0.000  0.000  0.000  0.000  0.000  0.095
    8  0.000  0.095  0.000  0.000  0.000  0.000  0.000  0.000  0.000  0.095
tot    0.003  0.801  0.000  0.000  0.000  0.000  0.000  0.000  0.000  0.804
 
band    16 # energy   -2.40858049 # occ.  0.00000000
 
ion      s     py     pz     px    dxy    dyz    dz2    dxz  x2-y2    tot
    1  0.000  0.000  0.175  0.000  0.000  0.000  0.000  0.000  0.000  0.175
    2  0.000  0.000  0.175  0.000  0.000  0.000  0.000  0.000  0.000  0.175
    3  0.000  0.000  0.023  0.000  0.000  0.000  0.000  0.000  0.000  0.023
    4  0.000  0.000  0.023  0.000  0.000  0.000  0.000  0.000  0.000  0.023
    5  0.000  0.000  0.023  0.000  0.000  0.000  0.000  0.000  0.000  0.023
    6  0.000  0.000  0.023  0.000  0.000  0.000  0.000  0.000  0.000  0.023
    7  0.000  0.000  0.023  0.000  0.000  0.000  0.000  0.000  0.000  0.023
    8  0.000  0.000  0.023  0.000  0.000  0.000  0.000  0.000  0.000  0.023
tot    0.000  0.000  0.491  0.000  0.000  0.000  0.000  0.000  0.000  0.491
 
band    17 # energy   -0.67599191 # occ.  0.00000000
 
ion      s     py     pz     px    dxy    dyz    dz2    dxz  x2-y2    tot
    1  0.000  0.000  0.000  0.000  0.000  0.000  0.000  0.000  0.000  0.000
    2  0.000  0.000  0.000  0.000  0.000  0.000  0.000  0.000  0.000  0.000
    3  0.000  0.000  0.106  0.000  0.000  0.000  0.000  0.000  0.000  0.106
    4  0.000  0.000  0.108  0.000  0.000  0.000  0.000  0.000  0.000  0.108
    5  0.000  0.000  0.000  0.000  0.000  0.000  0.000  0.000  0.000  0.000
    6  0.000  0.000  0.000  0.000  0.000  0.000  0.000  0.000  0.000  0.000
    7  0.000  0.000  0.108  0.000  0.000  0.000  0.000  0.000  0.000  0.108
    8  0.000  0.000  0.106  0.000  0.000  0.000  0.000  0.000  0.000  0.106
tot    0.000  0.000  0.427  0.000  0.000  0.000  0.000  0.000  0.000  0.427
 
band    18 # energy   -0.67555394 # occ.  0.00000000
 
ion      s     py     pz     px    dxy    dyz    dz2    dxz  x2-y2    tot
    1  0.000  0.000  0.000  0.000  0.000  0.000  0.000  0.000  0.000  0.000
    2  0.000  0.000  0.000  0.000  0.000  0.000  0.000  0.000  0.000  0.000
    3  0.000  0.000  0.036  0.000  0.000  0.000  0.000  0.000  0.000  0.036
    4  0.000  0.000  0.035  0.000  0.000  0.000  0.000  0.000  0.000  0.035
    5  0.000  0.000  0.143  0.000  0.000  0.000  0.000  0.000  0.000  0.143
    6  0.000  0.000  0.143  0.000  0.000  0.000  0.000  0.000  0.000  0.143
    7  0.000  0.000  0.035  0.000  0.000  0.000  0.000  0.000  0.000  0.035
    8  0.000  0.000  0.036  0.000  0.000  0.000  0.000  0.000  0.000  0.036
tot    0.000  0.000  0.427  0.000  0.000  0.000  0.000  0.000  0.000  0.427
 
band    19 # energy   -0.01896028 # occ.  0.00000000
 
ion      s     py     pz     px    dxy    dyz    dz2    dxz  x2-y2    tot
    1  0.000  0.000  0.127  0.000  0.000  0.000  0.000  0.000  0.000  0.127
    2  0.000  0.000  0.127  0.000  0.000  0.000  0.000  0.000  0.000  0.127
    3  0.000  0.000  0.017  0.000  0.000  0.000  0.000  0.000  0.000  0.017
    4  0.000  0.000  0.017  0.000  0.000  0.000  0.000  0.000  0.000  0.017
    5  0.000  0.000  0.017  0.000  0.000  0.000  0.000  0.000  0.000  0.017
    6  0.000  0.000  0.017  0.000  0.000  0.000  0.000  0.000  0.000  0.017
    7  0.000  0.000  0.017  0.000  0.000  0.000  0.000  0.000  0.000  0.017
    8  0.000  0.000  0.017  0.000  0.000  0.000  0.000  0.000  0.000  0.017
tot    0.000  0.000  0.359  0.000  0.000  0.000  0.000  0.000  0.000  0.359
 
band    20 # energy    0.41487529 # occ.  0.00000000
 
ion      s     py     pz     px    dxy    dyz    dz2    dxz  x2-y2    tot
    1  0.000  0.000  0.000  0.000  0.000  0.000  0.000  0.000  0.000  0.000
    2  0.000  0.000  0.000  0.000  0.000  0.000  0.000  0.000  0.000  0.000
    3  0.003  0.000  0.000  0.000  0.000  0.000  0.000  0.000  0.000  0.004
    4  0.003  0.000  0.000  0.000  0.000  0.000  0.000  0.000  0.000  0.004
    5  0.003  0.000  0.000  0.000  0.000  0.000  0.000  0.000  0.000  0.004
    6  0.003  0.000  0.000  0.000  0.000  0.000  0.000  0.000  0.000  0.004
    7  0.003  0.000  0.000  0.000  0.000  0.000  0.000  0.000  0.000  0.004
    8  0.003  0.000  0.000  0.000  0.000  0.000  0.000  0.000  0.000  0.004
tot    0.021  0.001  0.000  0.001  0.000  0.000  0.000  0.000  0.000  0.023
 
band    21 # energy    1.27278927 # occ.  0.00000000
 
ion      s     py     pz     px    dxy    dyz    dz2    dxz  x2-y2    tot
    1  0.000  0.000  0.025  0.000  0.000  0.000  0.000  0.000  0.000  0.025
    2  0.000  0.000  0.025  0.000  0.000  0.000  0.000  0.000  0.000  0.025
    3  0.000  0.000  0.000  0.000  0.000  0.000  0.000  0.000  0.000  0.000
    4  0.000  0.000  0.000  0.000  0.000  0.000  0.000  0.000  0.000  0.000
    5  0.000  0.000  0.000  0.000  0.000  0.000  0.000  0.000  0.000  0.000
    6  0.000  0.000  0.000  0.000  0.000  0.000  0.000  0.000  0.000  0.000
    7  0.000  0.000  0.000  0.000  0.000  0.000  0.000  0.000  0.000  0.000
    8  0.000  0.000  0.000  0.000  0.000  0.000  0.000  0.000  0.000  0.000
tot    0.000  0.000  0.051  0.000  0.000  0.000  0.000  0.000  0.000  0.051
 
band    22 # energy    1.49779383 # occ.  0.00000000
 
ion      s     py     pz     px    dxy    dyz    dz2    dxz  x2-y2    tot
    1  0.000  0.000  0.000  0.000  0.000  0.000  0.000  0.000  0.000  0.000
    2  0.000  0.000  0.000  0.000  0.000  0.000  0.000  0.000  0.000  0.000
    3  0.000  0.000  0.000  0.000  0.000  0.000  0.000  0.000  0.000  0.001
    4  0.000  0.000  0.000  0.000  0.000  0.000  0.000  0.000  0.000  0.001
    5  0.000  0.000  0.000  0.000  0.000  0.000  0.000  0.000  0.000  0.001
    6  0.000  0.000  0.000  0.000  0.000  0.000  0.000  0.000  0.000  0.001
    7  0.000  0.000  0.000  0.000  0.000  0.000  0.000  0.000  0.000  0.001
    8  0.000  0.000  0.000  0.000  0.000  0.000  0.000  0.000  0.000  0.001
tot    0.003  0.000  0.000  0.000  0.000  0.000  0.000  0.000  0.000  0.003
 
band    23 # energy    2.50156961 # occ.  0.00000000
 
ion      s     py     pz     px    dxy    dyz    dz2    dxz  x2-y2    tot
    1  0.000  0.000  0.010  0.000  0.000  0.000  0.000  0.000  0.000  0.010
    2  0.000  0.000  0.010  0.000  0.000  0.000  0.000  0.000  0.000  0.010
    3  0.000  0.000  0.001  0.000  0.000  0.000  0.000  0.000  0.000  0.001
    4  0.000  0.000  0.001  0.000  0.000  0.000  0.000  0.000  0.000  0.001
    5  0.000  0.000  0.001  0.000  0.000  0.000  0.000  0.000  0.000  0.001
    6  0.000  0.000  0.001  0.000  0.000  0.000  0.000  0.000  0.000  0.001
    7  0.000  0.000  0.001  0.000  0.000  0.000  0.000  0.000  0.000  0.001
    8  0.000  0.000  0.001  0.000  0.000  0.000  0.000  0.000  0.000  0.001
tot    0.000  0.000  0.027  0.000  0.000  0.000  0.000  0.000  0.000  0.027
 
band    24 # energy    2.87246688 # occ.  0.00000000
 
ion      s     py     pz     px    dxy    dyz    dz2    dxz  x2-y2    tot
    1  0.000  0.000  0.000  0.000  0.000  0.000  0.000  0.000  0.000  0.000
    2  0.000  0.000  0.000  0.000  0.000  0.000  0.000  0.000  0.000  0.000
    3  0.002  0.000  0.000  0.000  0.000  0.000  0.000  0.000  0.000  0.002
    4  0.002  0.000  0.000  0.000  0.000  0.000  0.000  0.000  0.000  0.002
    5  0.002  0.000  0.000  0.000  0.000  0.000  0.000  0.000  0.000  0.002
    6  0.002  0.000  0.000  0.000  0.000  0.000  0.000  0.000  0.000  0.002
    7  0.002  0.000  0.000  0.000  0.000  0.000  0.000  0.000  0.000  0.002
    8  0.002  0.000  0.000  0.000  0.000  0.000  0.000  0.000  0.000  0.002
tot    0.012  0.001  0.000  0.001  0.000  0.000  0.000  0.000  0.000  0.014
 

 k-point     2 :    0.06250000-0.00000000 0.00000000     weight = 0.01562500

band     1 # energy  -20.29743816 # occ.  2.00000000
 
ion      s     py     pz     px    dxy    dyz    dz2    dxz  x2-y2    tot
    1  0.027  0.000  0.000  0.000  0.000  0.000  0.000  0.000  0.000  0.028
    2  0.027  0.000  0.000  0.000  0.000  0.000  0.000  0.000  0.000  0.028
    3  0.093  0.001  0.000  0.004  0.000  0.000  0.000  0.000  0.000  0.098
    4  0.093  0.001  0.000  0.004  0.000  0.000  0.000  0.000  0.000  0.098
    5  0.093  0.005  0.000  0.000  0.000  0.000  0.000  0.000  0.000  0.098
    6  0.093  0.005  0.000  0.000  0.000  0.000  0.000  0.000  0.000  0.098
    7  0.093  0.001  0.000  0.004  0.000  0.000  0.000  0.000  0.000  0.098
    8  0.093  0.001  0.000  0.004  0.000  0.000  0.000  0.000  0.000  0.098
tot    0.612  0.015  0.000  0.015  0.000  0.000  0.000  0.000  0.000  0.642
 
band     2 # energy  -16.49819892 # occ.  2.00000000
 
ion      s     py     pz     px    dxy    dyz    dz2    dxz  x2-y2    tot
    1  0.003  0.003  0.000  0.010  0.000  0.000  0.000  0.000  0.000  0.016
    2  0.003  0.003  0.000  0.010  0.000  0.000  0.000  0.000  0.000  0.016
    3  0.050  0.019  0.000  0.002  0.000  0.000  0.000  0.000  0.000  0.071
    4  0.190  0.002  0.000  0.005  0.000  0.000  0.000  0.000  0.000  0.197
    5  0.048  0.002  0.000  0.020  0.000  0.000  0.000  0.000  0.000  0.070
    6  0.048  0.002  0.000  0.020  0.000  0.000  0.000  0.000  0.000  0.070
    7  0.190  0.002  0.000  0.005  0.000  0.000  0.000  0.000  0.000  0.197
    8  0.050  0.019  0.000  0.002  0.000  0.000  0.000  0.000  0.000  0.071
tot    0.582  0.052  0.000  0.075  0.000  0.000  0.000  0.000  0.000  0.709
 
band     3 # energy  -16.44603785 # occ.  2.00000000
 
ion      s     py     pz     px    dxy    dyz    dz2    dxz  x2-y2    tot
    1  0.000  0.011  0.000  0.004  0.000  0.000  0.000  0.000  0.000  0.015
    2  0.000  0.011  0.000  0.004  0.000  0.000  0.000  0.000  0.000  0.015
    3  0.145  0.001  0.000  0.009  0.000  0.000  0.000  0.000  0.000  0.156
    4  0.000  0.021  0.000  0.007  0.000  0.000  0.000  0.000  0.000  0.028
    5  0.147  0.004  0.000  0.006  0.000  0.000  0.000  0.000  0.000  0.157
    6  0.147  0.004  0.000  0.006  0.000  0.000  0.000  0.000  0.000  0.157
    7  0.000  0.021  0.000  0.007  0.000  0.000  0.000  0.000  0.000  0.028
    8  0.145  0.001  0.000  0.009  0.000  0.000  0.000  0.000  0.000  0.156
tot    0.583  0.075  0.000  0.053  0.000  0.000  0.000  0.000  0.000  0.711
 
band     4 # energy  -14.09615079 # occ.  2.00000000
 
ion      s     py     pz     px    dxy    dyz    dz2    dxz  x2-y2    tot
    1  0.008  0.012  0.000  0.037  0.000  0.000  0.000  0.000  0.000  0.057
    2  0.008  0.012  0.000  0.037  0.000  0.000  0.000  0.000  0.000  0.057
    3  0.023  0.057  0.000  0.008  0.000  0.000  0.000  0.000  0.000  0.088
    4  0.099  0.001  0.000  0.002  0.000  0.000  0.000  0.000  0.000  0.101
    5  0.023  0.002  0.000  0.063  0.000  0.000  0.000  0.000  0.000  0.088
    6  0.023  0.002  0.000  0.063  0.000  0.000  0.000  0.000  0.000  0.088
    7  0.099  0.001  0.000  0.002  0.000  0.000  0.000  0.000  0.000  0.101
    8  0.023  0.057  0.000  0.008  0.000  0.000  0.000  0.000  0.000  0.088
tot    0.305  0.144  0.000  0.220  0.000  0.000  0.000  0.000  0.000  0.669
 
band     5 # energy  -14.01827591 # occ.  2.00000000
 
ion      s     py     pz     px    dxy    dyz    dz2    dxz  x2-y2    tot
    1  0.000  0.040  0.000  0.013  0.000  0.000  0.000  0.000  0.000  0.053
    2  0.000  0.040  0.000  0.013  0.000  0.000  0.000  0.000  0.000  0.053
    3  0.073  0.011  0.000  0.014  0.000  0.000  0.000  0.000  0.000  0.098
    4  0.000  0.065  0.000  0.022  0.000  0.000  0.000  0.000  0.000  0.087
    5  0.073  0.003  0.000  0.022  0.000  0.000  0.000  0.000  0.000  0.098
    6  0.073  0.003  0.000  0.022  0.000  0.000  0.000  0.000  0.000  0.098
    7  0.000  0.065  0.000  0.022  0.000  0.000  0.000  0.000  0.000  0.087
    8  0.073  0.011  0.000  0.014  0.000  0.000  0.000  0.000  0.000  0.098
tot    0.291  0.236  0.000  0.142  0.000  0.000  0.000  0.000  0.000  0.670
 
band     6 # energy  -12.92847673 # occ.  2.00000000
 
ion      s     py     pz     px    dxy    dyz    dz2    dxz  x2-y2    tot
    1  0.119  0.000  0.000  0.001  0.000  0.000  0.000  0.000  0.000  0.120
    2  0.119  0.000  0.000  0.001  0.000  0.000  0.000  0.000  0.000  0.120
    3  0.001  0.014  0.000  0.048  0.000  0.000  0.000  0.000  0.000  0.063
    4  0.003  0.016  0.000  0.047  0.000  0.000  0.000  0.000  0.000  0.066
    5  0.001  0.061  0.000  0.001  0.000  0.000  0.000  0.000  0.000  0.063
    6  0.001  0.061  0.000  0.001  0.000  0.000  0.000  0.000  0.000  0.063
    7  0.003  0.016  0.000  0.047  0.000  0.000  0.000  0.000  0.000  0.066
    8  0.001  0.014  0.000  0.048  0.000  0.000  0.000  0.000  0.000  0.063
tot    0.246  0.182  0.000  0.193  0.000  0.000  0.000  0.000  0.000  0.621
 
band     7 # energy  -11.60002092 # occ.  2.00000000
 
ion      s     py     pz     px    dxy    dyz    dz2    dxz  x2-y2    tot
    1  0.193  0.001  0.000  0.003  0.000  0.000  0.000  0.000  0.000  0.197
    2  0.193  0.001  0.000  0.003  0.000  0.000  0.000  0.000  0.000  0.197
    3  0.030  0.007  0.000  0.017  0.000  0.000  0.000  0.000  0.000  0.053
    4  0.030  0.005  0.000  0.016  0.000  0.000  0.000  0.000  0.000  0.051
    5  0.030  0.021  0.000  0.002  0.000  0.000  0.000  0.000  0.000  0.053
    6  0.030  0.021  0.000  0.002  0.000  0.000  0.000  0.000  0.000  0.053
    7  0.030  0.005  0.000  0.016  0.000  0.000  0.000  0.000  0.000  0.051
    8  0.030  0.007  0.000  0.017  0.000  0.000  0.000  0.000  0.000  0.053
tot    0.565  0.068  0.000  0.077  0.000  0.000  0.000  0.000  0.000  0.709
 
band     8 # energy   -9.09590374 # occ.  2.00000000
 
ion      s     py     pz     px    dxy    dyz    dz2    dxz  x2-y2    tot
    1  0.000  0.000  0.032  0.000  0.000  0.000  0.000  0.000  0.000  0.032
    2  0.000  0.000  0.032  0.000  0.000  0.000  0.000  0.000  0.000  0.032
    3  0.000  0.000  0.059  0.000  0.000  0.000  0.000  0.000  0.000  0.059
    4  0.000  0.000  0.059  0.000  0.000  0.000  0.000  0.000  0.000  0.059
    5  0.000  0.000  0.059  0.000  0.000  0.000  0.000  0.000  0.000  0.059
    6  0.000  0.000  0.059  0.000  0.000  0.000  0.000  0.000  0.000  0.059
    7  0.000  0.000  0.059  0.000  0.000  0.000  0.000  0.000  0.000  0.059
    8  0.000  0.000  0.059  0.000  0.000  0.000  0.000  0.000  0.000  0.059
tot    0.000  0.000  0.416  0.000  0.000  0.000  0.000  0.000  0.000  0.416
 
band     9 # energy   -8.92935471 # occ.  2.00000000
 
ion      s     py     pz     px    dxy    dyz    dz2    dxz  x2-y2    tot
    1  0.000  0.000  0.000  0.000  0.000  0.000  0.000  0.000  0.000  0.000
    2  0.000  0.000  0.000  0.000  0.000  0.000  0.000  0.000  0.000  0.000
    3  0.001  0.094  0.000  0.034  0.000  0.000  0.000  0.000  0.000  0.128
    4  0.000  0.095  0.000  0.032  0.000  0.000  0.000  0.000  0.000  0.126
    5  0.001  0.000  0.000  0.128  0.000  0.000  0.000  0.000  0.000  0.128
    6  0.001  0.000  0.000  0.128  0.000  0.000  0.000  0.000  0.000  0.128
    7  0.000  0.095  0.000  0.032  0.000  0.000  0.000  0.000  0.000  0.126
    8  0.001  0.094  0.000  0.034  0.000  0.000  0.000  0.000  0.000  0.128
tot    0.002  0.377  0.000  0.386  0.000  0.000  0.000  0.000  0.000  0.765
 
band    10 # energy   -6.81693537 # occ.  2.00000000
 
ion      s     py     pz     px    dxy    dyz    dz2    dxz  x2-y2    tot
    1  0.002  0.031  0.000  0.097  0.000  0.000  0.000  0.000  0.000  0.130
    2  0.002  0.031  0.000  0.097  0.000  0.000  0.000  0.000  0.000  0.130
    3  0.000  0.031  0.000  0.017  0.000  0.000  0.000  0.000  0.000  0.048
    4  0.002  0.039  0.000  0.117  0.000  0.000  0.000  0.000  0.000  0.158
    5  0.000  0.038  0.000  0.008  0.000  0.000  0.000  0.000  0.000  0.046
    6  0.000  0.038  0.000  0.008  0.000  0.000  0.000  0.000  0.000  0.046
    7  0.002  0.039  0.000  0.117  0.000  0.000  0.000  0.000  0.000  0.158
    8  0.000  0.031  0.000  0.017  0.000  0.000  0.000  0.000  0.000  0.048
tot    0.007  0.279  0.000  0.477  0.000  0.000  0.000  0.000  0.000  0.763
 
band    11 # energy   -6.75986762 # occ.  2.00000000
 
ion      s     py     pz     px    dxy    dyz    dz2    dxz  x2-y2    tot
    1  0.000  0.098  0.000  0.032  0.000  0.000  0.000  0.000  0.000  0.130
    2  0.000  0.098  0.000  0.032  0.000  0.000  0.000  0.000  0.000  0.130
    3  0.001  0.018  0.000  0.101  0.000  0.000  0.000  0.000  0.000  0.120
    4  0.000  0.008  0.000  0.003  0.000  0.000  0.000  0.000  0.000  0.012
    5  0.001  0.119  0.000  0.002  0.000  0.000  0.000  0.000  0.000  0.121
    6  0.001  0.119  0.000  0.002  0.000  0.000  0.000  0.000  0.000  0.121
    7  0.000  0.008  0.000  0.003  0.000  0.000  0.000  0.000  0.000  0.012
    8  0.001  0.018  0.000  0.101  0.000  0.000  0.000  0.000  0.000  0.120
tot    0.003  0.487  0.000  0.275  0.000  0.000  0.000  0.000  0.000  0.765
 
band    12 # energy   -4.99363702 # occ.  2.00000000
 
ion      s     py     pz     px    dxy    dyz    dz2    dxz  x2-y2    tot
    1  0.000  0.000  0.002  0.000  0.000  0.000  0.000  0.000  0.000  0.002
    2  0.000  0.000  0.002  0.000  0.000  0.000  0.000  0.000  0.000  0.002
    3  0.000  0.000  0.042  0.000  0.000  0.000  0.000  0.000  0.000  0.042
    4  0.000  0.000  0.159  0.000  0.000  0.000  0.000  0.000  0.000  0.159
    5  0.000  0.000  0.042  0.000  0.000  0.000  0.000  0.000  0.000  0.042
    6  0.000  0.000  0.042  0.000  0.000  0.000  0.000  0.000  0.000  0.042
    7  0.000  0.000  0.159  0.000  0.000  0.000  0.000  0.000  0.000  0.159
    8  0.000  0.000  0.042  0.000  0.000  0.000  0.000  0.000  0.000  0.042
tot    0.000  0.000  0.488  0.000  0.000  0.000  0.000  0.000  0.000  0.488
 
band    13 # energy   -4.93461067 # occ.  2.00000000
 
ion      s     py     pz     px    dxy    dyz    dz2    dxz  x2-y2    tot
    1  0.000  0.000  0.000  0.000  0.000  0.000  0.000  0.000  0.000  0.000
    2  0.000  0.000  0.000  0.000  0.000  0.000  0.000  0.000  0.000  0.000
    3  0.000  0.000  0.122  0.000  0.000  0.000  0.000  0.000  0.000  0.122