 running on   12 total cores
 distrk:  each k-point on   12 cores,    1 groups
 distr:  one band on    1 cores,   12 groups
 using from now: INCAR     
 vasp.5.4.4.18Apr17-6-g9f103f2a35 (build Mar 30 2023 15:39:25) complex          
  
 POSCAR found type information on POSCAR  B  C 
 POSCAR found :  2 types and       8 ions
 scaLAPACK will be used

 ----------------------------------------------------------------------------- 
|                                                                             |
|           W    W    AA    RRRRR   N    N  II  N    N   GGGG   !!!           |
|           W    W   A  A   R    R  NN   N  II  NN   N  G    G  !!!           |
|           W    W  A    A  R    R  N N  N  II  N N  N  G       !!!           |
|           W WW W  AAAAAA  RRRRR   N  N N  II  N  N N  G  GGG   !            |
|           WW  WW  A    A  R   R   N   NN  II  N   NN  G    G                |
|           W    W  A    A  R    R  N    N  II  N    N   GGGG   !!!           |
|                                                                             |
|      For optimal performance we recommend to set                            |
|        NCORE= 4 - approx SQRT( number of cores)                             |
|      NCORE specifies how many cores store one orbital (NPAR=cpu/NCORE).     |
|      This setting can  greatly improve the performance of VASP for DFT.     |
|      The default,   NCORE=1            might be grossly inefficient         |
|      on modern multi-core architectures or massively parallel machines.     |
|      Do your own testing !!!!                                               |
|      Unfortunately you need to use the default for GW and RPA calculations. |
|      (for HF NCORE is supported but not extensively tested yet)             |
|                                                                             |
 ----------------------------------------------------------------------------- 

 LDA part: xc-table for Pade appr. of Perdew
 WARNING: stress and forces are not correct
 POSCAR, INCAR and KPOINTS ok, starting setup
 FFT: planning ...
 WAVECAR not read
 charge-density read from file: BC3                                     
 entering main loop
       N       E                     dE             d eps       ncg     rms          rms(c)
DAV:   1     0.171733879072E+03    0.17173E+03   -0.89678E+03  3504   0.792E+02
DAV:   2    -0.373254637831E+02   -0.20906E+03   -0.19233E+03  6252   0.155E+02
DAV:   3    -0.664995897790E+02   -0.29174E+02   -0.28733E+02  4092   0.738E+01
DAV:   4    -0.672120050448E+02   -0.71242E+00   -0.71133E+00  4428   0.144E+01
DAV:   5    -0.672298604609E+02   -0.17855E-01   -0.17847E-01  4416   0.212E+00
DAV:   6    -0.672306109990E+02   -0.75054E-03   -0.75049E-03  4824   0.447E-01
DAV:   7    -0.672306332651E+02   -0.22266E-04   -0.22265E-04  4752   0.629E-02
DAV:   8    -0.672306341130E+02   -0.84782E-06   -0.84762E-06  5364   0.101E-02
   1 F= -.67230634E+02 E0= -.67230634E+02  d E =0.000000E+00
 writing wavefunctions
