<?xml version="1.0" encoding="ISO-8859-1"?>
<modeling>
 <generator>
  <i name="program" type="string">vasp </i>
  <i name="version" type="string">5.4.4.18Apr17-6-g9f103f2a35  </i>
  <i name="subversion" type="string">(build Mar 30 2023 15:39:25) complex            parallel </i>
  <i name="platform" type="string">LinuxIFC </i>
  <i name="date" type="string">2023 05 23 </i>
  <i name="time" type="string">12:00:52 </i>
 </generator>
 <incar>
  <i type="string" name="SYSTEM"> BC3 bandstructure</i>
  <i type="int" name="ISTART">     0</i>
  <i type="string" name="PREC">accurate</i>
  <i type="int" name="ICHARG">    11</i>
  <i name="EDIFF">      0.00000100</i>
  <i name="EDIFFG">     -0.00000100</i>
  <i name="ENCUT">    450.00000000</i>
  <i type="int" name="ISMEAR">    -5</i>
  <i name="SIGMA">      0.20000000</i>
  <i type="int" name="LORBIT">    11</i>
  <v type="int" name="KPOINT_BSE">    -1     0     0     0</v>
 </incar>
 <structure name="primitive_cell" >
  <crystal>
   <varray name="basis" >
    <v>       5.17400000       0.00000000       0.00000000 </v>
    <v>       2.58700000       4.48100000       0.00000000 </v>
    <v>       0.00000000       0.00000000      20.00000000 </v>
   </varray>
   <i name="volume">    463.69388000 </i>
   <varray name="rec_basis" >
    <v>       0.19327406      -0.11158224       0.00000000 </v>
    <v>       0.00000000       0.22316447       0.00000000 </v>
    <v>       0.00000000       0.00000000       0.05000000 </v>
   </varray>
  </crystal>
  <varray name="positions" >
   <v>       0.17457326       0.17462620       0.00000000 </v>
   <v>       0.00000000       0.00000000       0.00000000 </v>
   <v>      -0.47622729       0.00000000       0.00000000 </v>
   <v>      -0.00005294      -0.47612140       0.00000000 </v>
   <v>      -0.31744862       0.15866994       0.00000000 </v>
   <v>      -0.31750156      -0.31745146       0.00000000 </v>
   <v>       0.15872573      -0.31745146       0.00000000 </v>
   <v>      -0.49207481      -0.49207766       0.00000000 </v>
  </varray>
 </structure>
 <varray name="primitive_index" >
  <v type="int" >        1 </v>
  <v type="int" >        3 </v>
  <v type="int" >        4 </v>
  <v type="int" >        6 </v>
  <v type="int" >        5 </v>
  <v type="int" >        8 </v>
  <v type="int" >        7 </v>
  <v type="int" >        2 </v>
 </varray>
 <kpoints>
  <generation param="Gamma">
   <v type="int" name="divisions">      16       16        1 </v>
   <v name="usershift">      0.00000000       0.00000000       0.00000000 </v>
   <v name="genvec1">      0.06250000       0.00000000       0.00000000 </v>
   <v name="genvec2">      0.00000000       0.06250000       0.00000000 </v>
   <v name="genvec3">      0.00000000       0.00000000       1.00000000 </v>
   <v name="shift">      0.00000000       0.00000000       0.00000000 </v>
  </generation>
  <varray name="kpointlist" >
   <v>       0.00000000       0.00000000       0.00000000 </v>
   <v>       0.06250000      -0.00000000       0.00000000 </v>
   <v>       0.12500000      -0.00000000       0.00000000 </v>
   <v>       0.18750000      -0.00000000       0.00000000 </v>
   <v>       0.25000000      -0.00000000       0.00000000 </v>
   <v>       0.31250000      -0.00000000       0.00000000 </v>
   <v>       0.37500000      -0.00000000       0.00000000 </v>
   <v>       0.43750000      -0.00000000       0.00000000 </v>
   <v>       0.50000000      -0.00000000       0.00000000 </v>
   <v>       0.00000000       0.06250000       0.00000000 </v>
   <v>       0.12500000       0.06250000       0.00000000 </v>
   <v>       0.18750000       0.06250000       0.00000000 </v>
   <v>       0.25000000       0.06250000       0.00000000 </v>
   <v>       0.31250000       0.06250000       0.00000000 </v>
   <v>       0.37500000       0.06250000       0.00000000 </v>
   <v>       0.43750000       0.06250000       0.00000000 </v>
   <v>       0.50000000       0.06250000       0.00000000 </v>
   <v>      -0.43750000       0.06250000       0.00000000 </v>
   <v>      -0.37500000       0.06250000       0.00000000 </v>
   <v>      -0.31250000       0.06250000       0.00000000 </v>
   <v>      -0.25000000       0.06250000       0.00000000 </v>
   <v>      -0.18750000       0.06250000       0.00000000 </v>
   <v>      -0.12500000       0.06250000       0.00000000 </v>
   <v>      -0.06250000       0.06250000       0.00000000 </v>
   <v>       0.00000000       0.12500000       0.00000000 </v>
   <v>       0.25000000       0.12500000       0.00000000 </v>
   <v>       0.31250000       0.12500000       0.00000000 </v>
   <v>       0.37500000       0.12500000       0.00000000 </v>
   <v>       0.43750000       0.12500000       0.00000000 </v>
   <v>       0.50000000       0.12500000       0.00000000 </v>
   <v>      -0.43750000       0.12500000       0.00000000 </v>
   <v>      -0.37500000       0.12500000       0.00000000 </v>
   <v>      -0.31250000       0.12500000       0.00000000 </v>
   <v>      -0.25000000       0.12500000       0.00000000 </v>
   <v>      -0.18750000       0.12500000       0.00000000 </v>
   <v>      -0.12500000       0.12500000       0.00000000 </v>
   <v>      -0.06250000       0.12500000       0.00000000 </v>
   <v>       0.00000000       0.18750000       0.00000000 </v>
   <v>       0.37500000       0.18750000       0.00000000 </v>
   <v>       0.43750000       0.18750000       0.00000000 </v>
   <v>       0.50000000       0.18750000       0.00000000 </v>
   <v>      -0.43750000       0.18750000       0.00000000 </v>
   <v>      -0.37500000       0.18750000       0.00000000 </v>
   <v>      -0.31250000       0.18750000       0.00000000 </v>
   <v>      -0.25000000       0.18750000       0.00000000 </v>
   <v>      -0.18750000       0.18750000       0.00000000 </v>
   <v>      -0.12500000       0.18750000       0.00000000 </v>
   <v>      -0.06250000       0.18750000       0.00000000 </v>
   <v>       0.00000000       0.25000000       0.00000000 </v>
   <v>       0.50000000       0.25000000       0.00000000 </v>
   <v>      -0.43750000       0.25000000       0.00000000 </v>
   <v>      -0.37500000       0.25000000       0.00000000 </v>
   <v>      -0.31250000       0.25000000       0.00000000 </v>
   <v>      -0.25000000       0.25000000       0.00000000 </v>
   <v>      -0.18750000       0.25000000       0.00000000 </v>
   <v>      -0.12500000       0.25000000       0.00000000 </v>
   <v>      -0.06250000       0.25000000       0.00000000 </v>
   <v>       0.00000000       0.31250000       0.00000000 </v>
   <v>      -0.37500000       0.31250000       0.00000000 </v>
   <v>      -0.31250000       0.31250000       0.00000000 </v>
   <v>      -0.25000000       0.31250000       0.00000000 </v>
   <v>      -0.18750000       0.31250000       0.00000000 </v>
   <v>      -0.12500000       0.31250000       0.00000000 </v>
   <v>      -0.06250000       0.31250000       0.00000000 </v>
   <v>       0.00000000       0.37500000       0.00000000 </v>
   <v>      -0.25000000       0.37500000       0.00000000 </v>
   <v>      -0.18750000       0.37500000       0.00000000 </v>
   <v>      -0.12500000       0.37500000       0.00000000 </v>
   <v>      -0.06250000       0.37500000       0.00000000 </v>
   <v>       0.00000000       0.43750000       0.00000000 </v>
   <v>      -0.12500000       0.43750000       0.00000000 </v>
   <v>      -0.06250000       0.43750000       0.00000000 </v>
   <v>       0.00000000       0.50000000       0.00000000 </v>
  </varray>
  <varray name="weights" >
   <v>       0.00390625 </v>
   <v>       0.01562500 </v>
   <v>       0.01562500 </v>
   <v>       0.01562500 </v>
   <v>       0.01562500 </v>
   <v>       0.01562500 </v>
   <v>       0.01562500 </v>
   <v>       0.01562500 </v>
   <v>       0.00781250 </v>
   <v>       0.00781250 </v>
   <v>       0.00781250 </v>
   <v>       0.01562500 </v>
   <v>       0.01562500 </v>
   <v>       0.01562500 </v>
   <v>       0.01562500 </v>
   <v>       0.01562500 </v>
   <v>       0.01562500 </v>
   <v>       0.01562500 </v>
   <v>       0.01562500 </v>
   <v>       0.01562500 </v>
   <v>       0.01562500 </v>
   <v>       0.01562500 </v>
   <v>       0.01562500 </v>
   <v>       0.01562500 </v>
   <v>       0.00781250 </v>
   <v>       0.00781250 </v>
   <v>       0.01562500 </v>
   <v>       0.01562500 </v>
   <v>       0.01562500 </v>
   <v>       0.01562500 </v>
   <v>       0.01562500 </v>
   <v>       0.01562500 </v>
   <v>       0.01562500 </v>
   <v>       0.01562500 </v>
   <v>       0.01562500 </v>
   <v>       0.01562500 </v>
   <v>       0.01562500 </v>
   <v>       0.00781250 </v>
   <v>       0.00781250 </v>
   <v>       0.01562500 </v>
   <v>       0.01562500 </v>
   <v>       0.01562500 </v>
   <v>       0.01562500 </v>
   <v>       0.01562500 </v>
   <v>       0.01562500 </v>
   <v>       0.01562500 </v>
   <v>       0.01562500 </v>
   <v>       0.01562500 </v>
   <v>       0.00781250 </v>
   <v>       0.00781250 </v>
   <v>       0.01562500 </v>
   <v>       0.01562500 </v>
   <v>       0.01562500 </v>
   <v>       0.01562500 </v>
   <v>       0.01562500 </v>
   <v>       0.01562500 </v>
   <v>       0.01562500 </v>
   <v>       0.00781250 </v>
   <v>       0.00781250 </v>
   <v>       0.01562500 </v>
   <v>       0.01562500 </v>
   <v>       0.01562500 </v>
   <v>       0.01562500 </v>
   <v>       0.01562500 </v>
   <v>       0.00781250 </v>
   <v>       0.00781250 </v>
   <v>       0.01562500 </v>
   <v>       0.01562500 </v>
   <v>       0.01562500 </v>
   <v>       0.00781250 </v>
   <v>       0.00781250 </v>
   <v>       0.01562500 </v>
   <v>       0.00390625 </v>
  </varray>
  <varray name="tetrahedronlist"  type="int" >
   <v type="int" >        2        1        1        2        2 </v>
   <v type="int" >        4        1        1        2       10 </v>
   <v type="int" >        4        1        2       10       10 </v>
   <v type="int" >        4        1        2        2        2 </v>
   <v type="int" >        4        1        2        2       10 </v>
   <v type="int" >        4        2        2        3       11 </v>
   <v type="int" >        4        2        2        2       11 </v>
   <v type="int" >        4        2        3        3       11 </v>
   <v type="int" >        4        2        3       11       11 </v>
   <v type="int" >        2        2        2       11       11 </v>
   <v type="int" >        4        3        3        4       12 </v>
   <v type="int" >        4        3        3       11       12 </v>
   <v type="int" >        4        3       11       11       12 </v>
   <v type="int" >        4        3        4        4       12 </v>
   <v type="int" >        4        3        4       12       12 </v>
   <v type="int" >        4        3       11       12       12 </v>
   <v type="int" >        4        4        4        5       13 </v>
   <v type="int" >        4        4        4       12       13 </v>
   <v type="int" >        4        4       12       12       13 </v>
   <v type="int" >        4        4        5        5       13 </v>
   <v type="int" >        4        4        5       13       13 </v>
   <v type="int" >        4        4       12       13       13 </v>
   <v type="int" >        4        5        5        6       14 </v>
   <v type="int" >        4        5        5       13       14 </v>
   <v type="int" >        4        5       13       13       14 </v>
   <v type="int" >        4        5        6        6       14 </v>
   <v type="int" >        4        5        6       14       14 </v>
   <v type="int" >        4        5       13       14       14 </v>
   <v type="int" >        4        6        6        7       15 </v>
   <v type="int" >        4        6        6       14       15 </v>
   <v type="int" >        4        6       14       14       15 </v>
   <v type="int" >        4        6        7        7       15 </v>
   <v type="int" >        4        6        7       15       15 </v>
   <v type="int" >        4        6       14       15       15 </v>
   <v type="int" >        4        7        7        8       16 </v>
   <v type="int" >        4        7        7       15       16 </v>
   <v type="int" >        4        7       15       15       16 </v>
   <v type="int" >        4        7        8        8       16 </v>
   <v type="int" >        4        7        8       16       16 </v>
   <v type="int" >        4        7       15       16       16 </v>
   <v type="int" >        4        8        8        9       17 </v>
   <v type="int" >        4        8        8       16       17 </v>
   <v type="int" >        4        8       16       16       17 </v>
   <v type="int" >        4        8        9        9       17 </v>
   <v type="int" >        4        8        9       17       17 </v>
   <v type="int" >        4        8       16       17       17 </v>
   <v type="int" >        4        8        9        9       18 </v>
   <v type="int" >        4        9        9       17       18 </v>
   <v type="int" >        4        9       17       17       18 </v>
   <v type="int" >        4        8        8        9       18 </v>
   <v type="int" >        4        8        9       18       18 </v>
   <v type="int" >        4        9       17       18       18 </v>
   <v type="int" >        4        7        8        8       19 </v>
   <v type="int" >        4        8        8       18       19 </v>
   <v type="int" >        4        8       18       18       19 </v>
   <v type="int" >        4        7        7        8       19 </v>
   <v type="int" >        4        7        8       19       19 </v>
   <v type="int" >        4        8       18       19       19 </v>
   <v type="int" >        4        6        7        7       20 </v>
   <v type="int" >        4        7        7       19       20 </v>
   <v type="int" >        4        7       19       19       20 </v>
   <v type="int" >        4        6        6        7       20 </v>
   <v type="int" >        4        6        7       20       20 </v>
   <v type="int" >        4        7       19       20       20 </v>
   <v type="int" >        4        5        6        6       21 </v>
   <v type="int" >        4        6        6       20       21 </v>
   <v type="int" >        4        6       20       20       21 </v>
   <v type="int" >        4        5        5        6       21 </v>
   <v type="int" >        4        5        6       21       21 </v>
   <v type="int" >        4        6       20       21       21 </v>
   <v type="int" >        4        4        5        5       22 </v>
   <v type="int" >        4        5        5       21       22 </v>
   <v type="int" >        4        5       21       21       22 </v>
   <v type="int" >        4        4        4        5       22 </v>
   <v type="int" >        4        4        5       22       22 </v>
   <v type="int" >        4        5       21       22       22 </v>
   <v type="int" >        4        3        4        4       23 </v>
   <v type="int" >        4        4        4       22       23 </v>
   <v type="int" >        4        4       22       22       23 </v>
   <v type="int" >        4        3        3        4       23 </v>
   <v type="int" >        4        3        4       23       23 </v>
   <v type="int" >        4        4       22       23       23 </v>
   <v type="int" >        4        2        3        3       24 </v>
   <v type="int" >        4        3        3       23       24 </v>
   <v type="int" >        4        3       23       23       24 </v>
   <v type="int" >        4        2        2        3       24 </v>
   <v type="int" >        4        2        3       24       24 </v>
   <v type="int" >        4        3       23       24       24 </v>
   <v type="int" >        4        2        2       10       24 </v>
   <v type="int" >        4        2       10       24       24 </v>
   <v type="int" >        4        2       10       10       24 </v>
   <v type="int" >        4       10       10       24       25 </v>
   <v type="int" >        4       10       24       25       25 </v>
   <v type="int" >        4       10       24       24       25 </v>
   <v type="int" >        2       11       11       12       12 </v>
   <v type="int" >        4       11       12       12       12 </v>
   <v type="int" >        4       12       12       13       26 </v>
   <v type="int" >        4       12       12       12       26 </v>
   <v type="int" >        4       12       13       13       26 </v>
   <v type="int" >        4       12       13       26       26 </v>
   <v type="int" >        2       12       12       26       26 </v>
   <v type="int" >        4       13       13       14       27 </v>
   <v type="int" >        4       13       13       26       27 </v>
   <v type="int" >        4       13       26       26       27 </v>
   <v type="int" >        4       13       14       14       27 </v>
   <v type="int" >        4       13       14       27       27 </v>
   <v type="int" >        4       13       26       27       27 </v>
   <v type="int" >        4       14       14       15       28 </v>
   <v type="int" >        4       14       14       27       28 </v>
   <v type="int" >        4       14       27       27       28 </v>
   <v type="int" >        4       14       15       15       28 </v>
   <v type="int" >        4       14       15       28       28 </v>
   <v type="int" >        4       14       27       28       28 </v>
   <v type="int" >        4       15       15       16       29 </v>
   <v type="int" >        4       15       15       28       29 </v>
   <v type="int" >        4       15       28       28       29 </v>
   <v type="int" >        4       15       16       16       29 </v>
   <v type="int" >        4       15       16       29       29 </v>
   <v type="int" >        4       15       28       29       29 </v>
   <v type="int" >        4       16       16       17       30 </v>
   <v type="int" >        4       16       16       29       30 </v>
   <v type="int" >        4       16       29       29       30 </v>
   <v type="int" >        4       16       17       17       30 </v>
   <v type="int" >        4       16       17       30       30 </v>
   <v type="int" >        4       16       29       30       30 </v>
   <v type="int" >        4       17       17       18       31 </v>
   <v type="int" >        4       17       17       30       31 </v>
   <v type="int" >        4       17       30       30       31 </v>
   <v type="int" >        4       17       18       18       31 </v>
   <v type="int" >        4       17       18       31       31 </v>
   <v type="int" >        4       17       30       31       31 </v>
   <v type="int" >        4       18       18       19       32 </v>
   <v type="int" >        4       18       18       31       32 </v>
   <v type="int" >        4       18       31       31       32 </v>
   <v type="int" >        4       18       19       19       32 </v>
   <v type="int" >        4       18       19       32       32 </v>
   <v type="int" >        4       18       31       32       32 </v>
   <v type="int" >        4       19       19       20       33 </v>
   <v type="int" >        4       19       19       32       33 </v>
   <v type="int" >        4       19       32       32       33 </v>
   <v type="int" >        4       19       20       20       33 </v>
   <v type="int" >        4       19       20       33       33 </v>
   <v type="int" >        4       19       32       33       33 </v>
   <v type="int" >        4       20       20       21       34 </v>
   <v type="int" >        4       20       20       33       34 </v>
   <v type="int" >        4       20       33       33       34 </v>
   <v type="int" >        4       20       21       21       34 </v>
   <v type="int" >        4       20       21       34       34 </v>
   <v type="int" >        4       20       33       34       34 </v>
   <v type="int" >        4       21       21       22       35 </v>
   <v type="int" >        4       21       21       34       35 </v>
   <v type="int" >        4       21       34       34       35 </v>
   <v type="int" >        4       21       22       22       35 </v>
   <v type="int" >        4       21       22       35       35 </v>
   <v type="int" >        4       21       34       35       35 </v>
   <v type="int" >        4       22       22       23       36 </v>
   <v type="int" >        4       22       22       35       36 </v>
   <v type="int" >        4       22       35       35       36 </v>
   <v type="int" >        4       22       23       23       36 </v>
   <v type="int" >        4       22       23       36       36 </v>
   <v type="int" >        4       22       35       36       36 </v>
   <v type="int" >        4       23       23       24       37 </v>
   <v type="int" >        4       23       23       36       37 </v>
   <v type="int" >        4       23       36       36       37 </v>
   <v type="int" >        4       23       24       24       37 </v>
   <v type="int" >        4       23       24       37       37 </v>
   <v type="int" >        4       23       36       37       37 </v>
   <v type="int" >        4       24       24       25       37 </v>
   <v type="int" >        4       24       25       37       37 </v>
   <v type="int" >        4       24       25       25       37 </v>
   <v type="int" >        4       25       25       37       38 </v>
   <v type="int" >        4       25       37       38       38 </v>
   <v type="int" >        4       25       37       37       38 </v>
   <v type="int" >        2       26       26       27       27 </v>
   <v type="int" >        4       26       27       27       27 </v>
   <v type="int" >        4       27       27       28       39 </v>
   <v type="int" >        4       27       27       27       39 </v>
   <v type="int" >        4       27       28       28       39 </v>
   <v type="int" >        4       27       28       39       39 </v>
   <v type="int" >        2       27       27       39       39 </v>
   <v type="int" >        4       28       28       29       40 </v>
   <v type="int" >        4       28       28       39       40 </v>
   <v type="int" >        4       28       39       39       40 </v>
   <v type="int" >        4       28       29       29       40 </v>
   <v type="int" >        4       28       29       40       40 </v>
   <v type="int" >        4       28       39       40       40 </v>
   <v type="int" >        4       29       29       30       41 </v>
   <v type="int" >        4       29       29       40       41 </v>
   <v type="int" >        4       29       40       40       41 </v>
   <v type="int" >        4       29       30       30       41 </v>
   <v type="int" >        4       29       30       41       41 </v>
   <v type="int" >        4       29       40       41       41 </v>
   <v type="int" >        4       30       30       31       42 </v>
   <v type="int" >        4       30       30       41       42 </v>
   <v type="int" >        4       30       41       41       42 </v>
   <v type="int" >        4       30       31       31       42 </v>
   <v type="int" >        4       30       31       42       42 </v>
   <v type="int" >        4       30       41       42       42 </v>
   <v type="int" >        4       31       31       32       43 </v>
   <v type="int" >        4       31       31       42       43 </v>
   <v type="int" >        4       31       42       42       43 </v>
   <v type="int" >        4       31       32       32       43 </v>
   <v type="int" >        4       31       32       43       43 </v>
   <v type="int" >        4       31       42       43       43 </v>
   <v type="int" >        4       32       32       33       44 </v>
   <v type="int" >        4       32       32       43       44 </v>
   <v type="int" >        4       32       43       43       44 </v>
   <v type="int" >        4       32       33       33       44 </v>
   <v type="int" >        4       32       33       44       44 </v>
   <v type="int" >        4       32       43       44       44 </v>
   <v type="int" >        4       33       33       34       45 </v>
   <v type="int" >        4       33       33       44       45 </v>
   <v type="int" >        4       33       44       44       45 </v>
   <v type="int" >        4       33       34       34       45 </v>
   <v type="int" >        4       33       34       45       45 </v>
   <v type="int" >        4       33       44       45       45 </v>
   <v type="int" >        4       34       34       35       46 </v>
   <v type="int" >        4       34       34       45       46 </v>
   <v type="int" >        4       34       45       45       46 </v>
   <v type="int" >        4       34       35       35       46 </v>
   <v type="int" >        4       34       35       46       46 </v>
   <v type="int" >        4       34       45       46       46 </v>
   <v type="int" >        4       35       35       36       47 </v>
   <v type="int" >        4       35       35       46       47 </v>
   <v type="int" >        4       35       46       46       47 </v>
   <v type="int" >        4       35       36       36       47 </v>
   <v type="int" >        4       35       36       47       47 </v>
   <v type="int" >        4       35       46       47       47 </v>
   <v type="int" >        4       36       36       37       48 </v>
   <v type="int" >        4       36       36       47       48 </v>
   <v type="int" >        4       36       47       47       48 </v>
   <v type="int" >        4       36       37       37       48 </v>
   <v type="int" >        4       36       37       48       48 </v>
   <v type="int" >        4       36       47       48       48 </v>
   <v type="int" >        4       37       37       38       48 </v>
   <v type="int" >        4       37       38       48       48 </v>
   <v type="int" >        4       37       38       38       48 </v>
   <v type="int" >        4       38       38       48       49 </v>
   <v type="int" >        4       38       48       49       49 </v>
   <v type="int" >        4       38       48       48       49 </v>
   <v type="int" >        2       39       39       40       40 </v>
   <v type="int" >        4       39       40       40       40 </v>
   <v type="int" >        4       40       40       41       50 </v>
   <v type="int" >        4       40       40       40       50 </v>
   <v type="int" >        4       40       41       41       50 </v>
   <v type="int" >        4       40       41       50       50 </v>
   <v type="int" >        2       40       40       50       50 </v>
   <v type="int" >        4       41       41       42       51 </v>
   <v type="int" >        4       41       41       50       51 </v>
   <v type="int" >        4       41       50       50       51 </v>
   <v type="int" >        4       41       42       42       51 </v>
   <v type="int" >        4       41       42       51       51 </v>
   <v type="int" >        4       41       50       51       51 </v>
   <v type="int" >        4       42       42       43       52 </v>
   <v type="int" >        4       42       42       51       52 </v>
   <v type="int" >        4       42       51       51       52 </v>
   <v type="int" >        4       42       43       43       52 </v>
   <v type="int" >        4       42       43       52       52 </v>
   <v type="int" >        4       42       51       52       52 </v>
   <v type="int" >        4       43       43       44       53 </v>
   <v type="int" >        4       43       43       52       53 </v>
   <v type="int" >        4       43       52       52       53 </v>
   <v type="int" >        4       43       44       44       53 </v>
   <v type="int" >        4       43       44       53       53 </v>
   <v type="int" >        4       43       52       53       53 </v>
   <v type="int" >        4       44       44       45       54 </v>
   <v type="int" >        4       44       44       53       54 </v>
   <v type="int" >        4       44       53       53       54 </v>
   <v type="int" >        4       44       45       45       54 </v>
   <v type="int" >        4       44       45       54       54 </v>
   <v type="int" >        4       44       53       54       54 </v>
   <v type="int" >        4       45       45       46       55 </v>
   <v type="int" >        4       45       45       54       55 </v>
   <v type="int" >        4       45       54       54       55 </v>
   <v type="int" >        4       45       46       46       55 </v>
   <v type="int" >        4       45       46       55       55 </v>
   <v type="int" >        4       45       54       55       55 </v>
   <v type="int" >        4       46       46       47       56 </v>
   <v type="int" >        4       46       46       55       56 </v>
   <v type="int" >        4       46       55       55       56 </v>
   <v type="int" >        4       46       47       47       56 </v>
   <v type="int" >        4       46       47       56       56 </v>
   <v type="int" >        4       46       55       56       56 </v>
   <v type="int" >        4       47       47       48       57 </v>
   <v type="int" >        4       47       47       56       57 </v>
   <v type="int" >        4       47       56       56       57 </v>
   <v type="int" >        4       47       48       48       57 </v>
   <v type="int" >        4       47       48       57       57 </v>
   <v type="int" >        4       47       56       57       57 </v>
   <v type="int" >        4       48       48       49       57 </v>
   <v type="int" >        4       48       49       57       57 </v>
   <v type="int" >        4       48       49       49       57 </v>
   <v type="int" >        4       49       49       57       58 </v>
   <v type="int" >        4       49       57       58       58 </v>
   <v type="int" >        4       49       57       57       58 </v>
   <v type="int" >        2       50       50       51       51 </v>
   <v type="int" >        4       50       51       51       51 </v>
   <v type="int" >        4       51       51       52       59 </v>
   <v type="int" >        4       51       51       51       59 </v>
   <v type="int" >        4       51       52       52       59 </v>
   <v type="int" >        4       51       52       59       59 </v>
   <v type="int" >        2       51       51       59       59 </v>
   <v type="int" >        4       52       52       53       60 </v>
   <v type="int" >        4       52       52       59       60 </v>
   <v type="int" >        4       52       59       59       60 </v>
   <v type="int" >        4       52       53       53       60 </v>
   <v type="int" >        4       52       53       60       60 </v>
   <v type="int" >        4       52       59       60       60 </v>
   <v type="int" >        4       53       53       54       61 </v>
   <v type="int" >        4       53       53       60       61 </v>
   <v type="int" >        4       53       60       60       61 </v>
   <v type="int" >        4       53       54       54       61 </v>
   <v type="int" >        4       53       54       61       61 </v>
   <v type="int" >        4       53       60       61       61 </v>
   <v type="int" >        4       54       54       55       62 </v>
   <v type="int" >        4       54       54       61       62 </v>
   <v type="int" >        4       54       61       61       62 </v>
   <v type="int" >        4       54       55       55       62 </v>
   <v type="int" >        4       54       55       62       62 </v>
   <v type="int" >        4       54       61       62       62 </v>
   <v type="int" >        4       55       55       56       63 </v>
   <v type="int" >        4       55       55       62       63 </v>
   <v type="int" >        4       55       62       62       63 </v>
   <v type="int" >        4       55       56       56       63 </v>
   <v type="int" >        4       55       56       63       63 </v>
   <v type="int" >        4       55       62       63       63 </v>
   <v type="int" >        4       56       56       57       64 </v>
   <v type="int" >        4       56       56       63       64 </v>
   <v type="int" >        4       56       63       63       64 </v>
   <v type="int" >        4       56       57       57       64 </v>
   <v type="int" >        4       56       57       64       64 </v>
   <v type="int" >        4       56       63       64       64 </v>
   <v type="int" >        4       57       57       58       64 </v>
   <v type="int" >        4       57       58       64       64 </v>
   <v type="int" >        4       57       58       58       64 </v>
   <v type="int" >        4       58       58       64       65 </v>
   <v type="int" >        4       58       64       65       65 </v>
   <v type="int" >        4       58       64       64       65 </v>
   <v type="int" >        2       59       59       60       60 </v>
   <v type="int" >        4       59       60       60       60 </v>
   <v type="int" >        4       60       60       61       66 </v>
   <v type="int" >        4       60       60       60       66 </v>
   <v type="int" >        4       60       61       61       66 </v>
   <v type="int" >        4       60       61       66       66 </v>
   <v type="int" >        2       60       60       66       66 </v>
   <v type="int" >        4       61       61       62       67 </v>
   <v type="int" >        4       61       61       66       67 </v>
   <v type="int" >        4       61       66       66       67 </v>
   <v type="int" >        4       61       62       62       67 </v>
   <v type="int" >        4       61       62       67       67 </v>
   <v type="int" >        4       61       66       67       67 </v>
   <v type="int" >        4       62       62       63       68 </v>
   <v type="int" >        4       62       62       67       68 </v>
   <v type="int" >        4       62       67       67       68 </v>
   <v type="int" >        4       62       63       63       68 </v>
   <v type="int" >        4       62       63       68       68 </v>
   <v type="int" >        4       62       67       68       68 </v>
   <v type="int" >        4       63       63       64       69 </v>
   <v type="int" >        4       63       63       68       69 </v>
   <v type="int" >        4       63       68       68       69 </v>
   <v type="int" >        4       63       64       64       69 </v>
   <v type="int" >        4       63       64       69       69 </v>
   <v type="int" >        4       63       68       69       69 </v>
   <v type="int" >        4       64       64       65       69 </v>
   <v type="int" >        4       64       65       69       69 </v>
   <v type="int" >        4       64       65       65       69 </v>
   <v type="int" >        4       65       65       69       70 </v>
   <v type="int" >        4       65       69       70       70 </v>
   <v type="int" >        4       65       69       69       70 </v>
   <v type="int" >        2       66       66       67       67 </v>
   <v type="int" >        4       66       67       67       67 </v>
   <v type="int" >        4       67       67       68       71 </v>
   <v type="int" >        4       67       67       67       71 </v>
   <v type="int" >        4       67       68       68       71 </v>
   <v type="int" >        4       67       68       71       71 </v>
   <v type="int" >        2       67       67       71       71 </v>
   <v type="int" >        4       68       68       69       72 </v>
   <v type="int" >        4       68       68       71       72 </v>
   <v type="int" >        4       68       71       71       72 </v>
   <v type="int" >        4       68       69       69       72 </v>
   <v type="int" >        4       68       69       72       72 </v>
   <v type="int" >        4       68       71       72       72 </v>
   <v type="int" >        4       69       69       70       72 </v>
   <v type="int" >        4       69       70       72       72 </v>
   <v type="int" >        4       69       70       70       72 </v>
   <v type="int" >        4       70       70       72       73 </v>
   <v type="int" >        4       70       72       73       73 </v>
   <v type="int" >        4       70       72       72       73 </v>
   <v type="int" >        2       71       71       72       72 </v>
   <v type="int" >        4       71       72       72       72 </v>
   <v type="int" >        4       72       72       72       73 </v>
   <v type="int" >        2       72       72       73       73 </v>
  </varray>
  <i name="volumeweight">      0.00065104 </i>
 </kpoints>
 <parameters>
  <separator name="general" >
   <i type="string" name="SYSTEM">BC3 bandstructure</i>
   <i type="logical" name="LCOMPAT"> F  </i>
  </separator>
  <separator name="electronic" >
   <i type="string" name="PREC">accura</i>
   <i name="ENMAX">    450.00000000</i>
   <i name="ENAUG">    644.87300000</i>
   <i name="EDIFF">      0.00000100</i>
   <i type="int" name="IALGO">    38</i>
   <i type="int" name="IWAVPR">    10</i>
   <i type="int" name="NBANDS">    24</i>
   <i name="NELECT">     30.00000000</i>
   <i type="int" name="TURBO">     0</i>
   <i type="int" name="IRESTART">     0</i>
   <i type="int" name="NREBOOT">     0</i>
   <i type="int" name="NMIN">     0</i>
   <i name="EREF">      0.00000000</i>
   <separator name="electronic smearing" >
    <i type="int" name="ISMEAR">    -5</i>
    <i name="SIGMA">      0.20000000</i>
    <i name="KSPACING">      0.50000000</i>
    <i type="logical" name="KGAMMA"> T  </i>
   </separator>
   <separator name="electronic projectors" >
    <i type="logical" name="LREAL"> F  </i>
    <v name="ROPT">      0.00000000      0.00000000</v>
    <i type="int" name="LMAXPAW">  -100</i>
    <i type="int" name="LMAXMIX">     2</i>
    <i type="logical" name="NLSPLINE"> F  </i>
   </separator>
   <separator name="electronic startup" >
    <i type="int" name="ISTART">     0</i>
    <i type="int" name="ICHARG">    11</i>
    <i type="int" name="INIWAV">     1</i>
   </separator>
   <separator name="electronic spin" >
    <i type="int" name="ISPIN">     1</i>
    <i type="logical" name="LNONCOLLINEAR"> F  </i>
    <v name="MAGMOM">      1.00000000      1.00000000      1.00000000      1.00000000      1.00000000      1.00000000      1.00000000      1.00000000</v>
    <i name="NUPDOWN">     -1.00000000</i>
    <i type="logical" name="LSORBIT"> F  </i>
    <v name="SAXIS">      0.00000000      0.00000000      1.00000000</v>
    <i type="logical" name="LSPIRAL"> F  </i>
    <v name="QSPIRAL">      0.00000000      0.00000000      0.00000000</v>
    <i type="logical" name="LZEROZ"> F  </i>
   </separator>
   <separator name="electronic exchange-correlation" >
    <i type="logical" name="LASPH"> F  </i>
    <i type="logical" name="LMETAGGA"> F  </i>
   </separator>
   <separator name="electronic convergence" >
    <i type="int" name="NELM">    60</i>
    <i type="int" name="NELMDL">    -5</i>
    <i type="int" name="NELMIN">     2</i>
    <i name="ENINI">    450.00000000</i>
    <separator name="electronic convergence detail" >
     <i type="logical" name="LDIAG"> T  </i>
     <i type="logical" name="LSUBROT"> F  </i>
     <i name="WEIMIN">      0.00000000</i>
     <i name="EBREAK">      0.00000000</i>
     <i name="DEPER">      0.30000000</i>
     <i type="int" name="NRMM">     4</i>
     <i name="TIME">      0.40000000</i>
    </separator>
   </separator>
   <separator name="electronic mixer" >
    <i name="AMIX">      0.40000000</i>
    <i name="BMIX">      1.00000000</i>
    <i name="AMIN">      0.10000000</i>
    <i name="AMIX_MAG">      1.60000000</i>
    <i name="BMIX_MAG">      1.00000000</i>
    <separator name="electronic mixer details" >
     <i type="int" name="IMIX">     4</i>
     <i type="logical" name="MIXFIRST"> F  </i>
     <i type="int" name="MAXMIX">   -45</i>
     <i name="WC">    100.00000000</i>
     <i type="int" name="INIMIX">     1</i>
     <i type="int" name="MIXPRE">     1</i>
     <i type="int" name="MREMOVE">     5</i>
    </separator>
   </separator>
   <separator name="electronic dipolcorrection" >
    <i type="logical" name="LDIPOL"> F  </i>
    <i type="logical" name="LMONO"> F  </i>
    <i type="int" name="IDIPOL">     0</i>
    <i name="EPSILON">      1.00000000</i>
    <v name="DIPOL">   -100.00000000   -100.00000000   -100.00000000</v>
    <i name="EFIELD">      0.00000000</i>
   </separator>
  </separator>
  <separator name="grids" >
   <i type="int" name="NGX">    36</i>
   <i type="int" name="NGY">    36</i>
   <i type="int" name="NGZ">   140</i>
   <i type="int" name="NGXF">    72</i>
   <i type="int" name="NGYF">    72</i>
   <i type="int" name="NGZF">   280</i>
   <i type="logical" name="ADDGRID"> F  </i>
  </separator>
  <separator name="ionic" >
   <i type="int" name="NSW">     0</i>
   <i type="int" name="IBRION">    -1</i>
   <i type="int" name="MDALGO">     0</i>
   <i type="int" name="ISIF">     2</i>
   <i name="PSTRESS">      0.00000000</i>
   <i name="EDIFFG">     -0.00000100</i>
   <i type="int" name="NFREE">     0</i>
   <i name="POTIM">      0.50000000</i>
   <i name="SMASS">     -3.00000000</i>
   <i name="SCALEE">      1.00000000</i>
  </separator>
  <separator name="ionic md" >
   <i name="TEBEG">      0.00010000</i>
   <i name="TEEND">      0.00010000</i>
   <i type="int" name="NBLOCK">     1</i>
   <i type="int" name="KBLOCK">     1</i>
   <i type="int" name="NPACO">   256</i>
   <i name="APACO">     16.00000000</i>
  </separator>
  <separator name="symmetry" >
   <i type="int" name="ISYM">     2</i>
   <i name="SYMPREC">      0.00001000</i>
  </separator>
  <separator name="dos" >
   <i type="int" name="LORBIT">    11</i>
   <v name="RWIGS">     -1.00000000     -1.00000000</v>
   <i type="int" name="NEDOS">   301</i>
   <i name="EMIN">     10.00000000</i>
   <i name="EMAX">    -10.00000000</i>
   <i name="EFERMI">      0.00000000</i>
  </separator>
  <separator name="writing" >
   <i type="int" name="NWRITE">     2</i>
   <i type="logical" name="LWAVE"> T  </i>
   <i type="logical" name="LDOWNSAMPLE"> F  </i>
   <i type="logical" name="LCHARG"> T  </i>
   <i type="logical" name="LPARD"> F  </i>
   <i type="logical" name="LVTOT"> F  </i>
   <i type="logical" name="LVHAR"> F  </i>
   <i type="logical" name="LELF"> F  </i>
   <i type="logical" name="LOPTICS"> F  </i>
   <v name="STM">      0.00000000      0.00000000      0.00000000      0.00000000      0.00000000      0.00000000      0.00000000</v>
  </separator>
  <separator name="performance" >
   <i type="int" name="NPAR">    12</i>
   <i type="int" name="NSIM">     4</i>
   <i type="int" name="NBLK">    -1</i>
   <i type="logical" name="LPLANE"> T  </i>
   <i type="logical" name="LSCALAPACK"> T  </i>
   <i type="logical" name="LSCAAWARE"> F  </i>
   <i type="logical" name="LSCALU"> F  </i>
   <i type="logical" name="LASYNC"> F  </i>
   <i type="logical" name="LORBITALREAL"> F  </i>
  </separator>
  <separator name="miscellaneous" >
   <i type="int" name="IDIOT">     3</i>
   <i type="int" name="ISPECIAL">     0</i>
   <i type="logical" name="LMUSIC"> F  </i>
   <v name="POMASS">     10.81100000     12.01100000</v>
   <v name="DARWINR">      0.00000000      0.00000000</v>
   <v name="DARWINV">      1.00000000      1.00000000</v>
   <i type="logical" name="LCORR"> T  </i>
  </separator>
  <i type="logical" name="GGA_COMPAT"> T  </i>
  <i type="logical" name="LBERRY"> F  </i>
  <i type="int" name="ICORELEVEL">     0</i>
  <i type="logical" name="LDAU"> F  </i>
  <i type="int" name="I_CONSTRAINED_M">     0</i>
  <separator name="electronic exchange-correlation" >
   <i type="string" name="GGA">--</i>
   <i type="int" name="VOSKOWN">     0</i>
   <i type="logical" name="LHFCALC"> F  </i>
   <i type="string" name="PRECFOCK"></i>
   <i type="logical" name="LSYMGRAD"> F  </i>
   <i type="logical" name="LHFONE"> F  </i>
   <i type="logical" name="LRHFCALC"> F  </i>
   <i type="logical" name="LTHOMAS"> F  </i>
   <i type="logical" name="LMODELHF"> F  </i>
   <i name="ENCUT4O">     -1.00000000</i>
   <i type="int" name="EXXOEP">     0</i>
   <i type="int" name="FOURORBIT">     0</i>
   <i name="AEXX">      0.00000000</i>
   <i name="HFALPHA">      0.00000000</i>
   <i name="MCALPHA">      0.00000000</i>
   <i name="ALDAX">      1.00000000</i>
   <i name="AGGAX">      1.00000000</i>
   <i name="ALDAC">      1.00000000</i>
   <i name="AGGAC">      1.00000000</i>
   <i type="int" name="NKREDX">     1</i>
   <i type="int" name="NKREDY">     1</i>
   <i type="int" name="NKREDZ">     1</i>
   <i type="logical" name="SHIFTRED"> F  </i>
   <i type="logical" name="ODDONLY"> F  </i>
   <i type="logical" name="EVENONLY"> F  </i>
   <i type="int" name="LMAXFOCK">     0</i>
   <i type="int" name="NMAXFOCKAE">     0</i>
   <i type="logical" name="LFOCKAEDFT"> F  </i>
   <i name="HFSCREEN">      0.00000000</i>
   <i name="HFSCREENC">      0.00000000</i>
   <i type="int" name="NBANDSGWLOW">     0</i>
  </separator>
  <separator name="vdW DFT" >
   <i type="logical" name="LUSE_VDW"> F  </i>
   <i name="Zab_VDW">     -0.84910000</i>
   <i name="PARAM1">      0.12340000</i>
   <i name="PARAM2">      1.00000000</i>
   <i name="PARAM3">      0.00000000</i>
  </separator>
  <separator name="model GW" >
   <i type="int" name="MODEL_GW">     0</i>
   <i name="MODEL_EPS0">     34.77704100</i>
   <i name="MODEL_ALPHA">      1.00000000</i>
  </separator>
  <separator name="linear response parameters" >
   <i type="logical" name="LEPSILON"> F  </i>
   <i type="logical" name="LRPA"> F  </i>
   <i type="logical" name="LNABLA"> F  </i>
   <i type="logical" name="LVEL"> F  </i>
   <i type="int" name="KINTER">     0</i>
   <i name="CSHIFT">      0.10000000</i>
   <i name="OMEGAMAX">     -1.00000000</i>
   <i name="DEG_THRESHOLD">      0.00200000</i>
   <i name="RTIME">     -0.10000000</i>
   <i name="WPLASMAI">      0.00000000</i>
   <v name="DFIELD">      0.00000000      0.00000000      0.00000000</v>
   <v name="WPLASMA">      0.00000000      0.00000000      0.00000000      0.00000000      0.00000000      0.00000000      0.00000000      0.00000000      0.00000000</v>
  </separator>
  <separator name="orbital magnetization" >
   <i type="logical" name="NUCIND"> F  </i>
   <v name="MAGPOS">      0.00000000      0.00000000      0.00000000</v>
   <i type="logical" name="LNICSALL"> T  </i>
   <i type="logical" name="ORBITALMAG"> F  </i>
   <i type="logical" name="LMAGBLOCH"> F  </i>
   <i type="logical" name="LCHIMAG"> F  </i>
   <i type="logical" name="LGAUGE"> T  </i>
   <i type="int" name="MAGATOM">     0</i>
   <v name="MAGDIPOL">      0.00000000      0.00000000      0.00000000</v>
   <v name="AVECCONST">      0.00000000      0.00000000      0.00000000</v>
  </separator>
  <separator name="response functions" >
   <i type="logical" name="LADDER"> F  </i>
   <i type="logical" name="LRPAFORCE"> F  </i>
   <i type="logical" name="LFXC"> F  </i>
   <i type="logical" name="LHARTREE"> T  </i>
   <i type="int" name="IBSE">     0</i>
   <v type="int" name="KPOINT">    -1     0     0     0</v>
   <i type="logical" name="LTCTE"> F  </i>
   <i type="logical" name="LTETE"> F  </i>
   <i type="logical" name="LTRIPLET"> F  </i>
   <i type="logical" name="LFXCEPS"> F  </i>
   <i type="logical" name="LFXHEG"> F  </i>
   <i type="int" name="NATURALO">     2</i>
   <i type="logical" name="L2ORDER"> F  </i>
   <i type="logical" name="LMP2LT"> F  </i>
   <i type="logical" name="LUSEW"> F  </i>
   <i name="ENCUTGW">     -2.00000000</i>
   <i name="ENCUTGWSOFT">     -2.00000000</i>
   <i name="ENCUTLF">     -1.00000000</i>
   <i type="int" name="LMAXMP2">    -1</i>
   <i name="SCISSOR">      0.00000000</i>
   <i type="int" name="NOMEGA">     0</i>
   <i type="int" name="NOMEGAR">     0</i>
   <i type="int" name="NBANDSGW">    -1</i>
   <i type="int" name="NBANDSO">    -1</i>
   <i type="int" name="NBANDSV">    -1</i>
   <i type="int" name="NELM">     1</i>
   <i type="int" name="NELMHF">     1</i>
   <i type="int" name="DIM">     3</i>
   <i type="int" name="ANTIRES">     0</i>
   <i name="OMEGAMAX">    -30.00000000</i>
   <i name="OMEGAMIN">    -30.00000000</i>
   <i name="OMEGATL">   -200.00000000</i>
   <i type="int" name="OMEGAGRID">   140</i>
   <i name="CSHIFT">     -0.10000000</i>
   <i type="logical" name="SELFENERGY"> F  </i>
   <i type="logical" name="LSPECTRAL"> F  </i>
   <i type="logical" name="LSPECTRALGW"> F  </i>
   <i type="logical" name="LSINGLES"> F  </i>
   <i type="logical" name="LFERMIGW"> F  </i>
   <i type="logical" name="ODDONLYGW"> F  </i>
   <i type="logical" name="EVENONLYGW"> F  </i>
   <i type="int" name="NKREDLFX">     1</i>
   <i type="int" name="NKREDLFY">     1</i>
   <i type="int" name="NKREDLFZ">     1</i>
   <i type="int" name="MAXMEM">  2800</i>
   <i type="int" name="TELESCOPE">     0</i>
   <i type="int" name="TAUPAR">     1</i>
   <i type="int" name="OMEGAPAR">    -1</i>
   <i name="LAMBDA">      1.00000000</i>
  </separator>
  <separator name="External order field" >
   <i name="OFIELD_KAPPA">      0.00000000</i>
   <v name="OFIELD_K">      0.00000000      0.00000000      0.00000000</v>
   <i name="OFIELD_Q6_NEAR">      0.00000000</i>
   <i name="OFIELD_Q6_FAR">      0.00000000</i>
   <i name="OFIELD_A">      0.00000000</i>
  </separator>
 </parameters>
 <atominfo>
  <atoms>       8 </atoms>
  <types>       2 </types>
  <array name="atoms" >
   <dimension dim="1">ion</dimension>
   <field type="string">element</field>
   <field type="int">atomtype</field>
   <set>
    <rc><c>B </c><c>   1</c></rc>
    <rc><c>B </c><c>   1</c></rc>
    <rc><c>C </c><c>   2</c></rc>
    <rc><c>C </c><c>   2</c></rc>
    <rc><c>C </c><c>   2</c></rc>
    <rc><c>C </c><c>   2</c></rc>
    <rc><c>C </c><c>   2</c></rc>
    <rc><c>C </c><c>   2</c></rc>
   </set>
  </array>
  <array name="atomtypes" >
   <dimension dim="1">type</dimension>
   <field type="int">atomspertype</field>
   <field type="string">element</field>
   <field>mass</field>
   <field>valence</field>
   <field type="string">pseudopotential</field>
   <set>
    <rc><c>   2</c><c>B </c><c>     10.81100000</c><c>      3.00000000</c><c>  PAW_PBE B 06Sep2000                   </c></rc>
    <rc><c>   6</c><c>C </c><c>     12.01100000</c><c>      4.00000000</c><c>  PAW_PBE C 08Apr2002                   </c></rc>
   </set>
  </array>
 </atominfo>
 <structure name="initialpos" >
  <crystal>
   <varray name="basis" >
    <v>       5.17400000       0.00000000       0.00000000 </v>
    <v>       2.58700000       4.48100000       0.00000000 </v>
    <v>       0.00000000       0.00000000      20.00000000 </v>
   </varray>
   <i name="volume">    463.69388000 </i>
   <varray name="rec_basis" >
    <v>       0.19327406      -0.11158224       0.00000000 </v>
    <v>       0.00000000       0.22316447       0.00000000 </v>
    <v>       0.00000000       0.00000000       0.05000000 </v>
   </varray>
  </crystal>
  <varray name="positions" >
   <v>       0.17457326       0.17462620       0.00000000 </v>
   <v>       0.50792519       0.50792234       0.00000000 </v>
   <v>       0.00000000       0.00000000       0.00000000 </v>
   <v>       0.52377271       0.00000000       0.00000000 </v>
   <v>       0.68255138       0.15866994       0.00000000 </v>
   <v>       0.99994706       0.52387860       0.00000000 </v>
   <v>       0.15872573       0.68254854       0.00000000 </v>
   <v>       0.68249844       0.68254854       0.00000000 </v>
  </varray>
 </structure>
 <calculation>
  <scstep>
   <time name="dav">   11.17   11.21</time>
   <time name="total">   11.33   11.37</time>
   <energy>
    <i name="alphaZ">     10.93933817 </i>
    <i name="ewald">   4060.05404224 </i>
    <i name="hartreedc">  -4938.55710043 </i>
    <i name="XCdc">     96.01877314 </i>
    <i name="pawpsdc">   2893.57001696 </i>
    <i name="pawaedc">  -2896.09701513 </i>
    <i name="eentropy">      0.00000000 </i>
    <i name="bandstr">    -79.39807541 </i>
    <i name="atom">   1025.20389953 </i>
    <i name="e_fr_energy">    171.73387907 </i>
    <i name="e_wo_entrp">    171.73387907 </i>
    <i name="e_0_energy">    171.73387907 </i>
   </energy>
  </scstep>
  <scstep>
   <time name="dav">   17.25   17.29</time>
   <time name="total">   17.26   17.31</time>
   <energy>
    <i name="e_fr_energy">    -37.32546378 </i>
    <i name="e_wo_entrp">    -37.32546378 </i>
    <i name="e_0_energy">    -37.32546378 </i>
   </energy>
  </scstep>
  <scstep>
   <time name="dav">   12.43   12.45</time>
   <time name="total">   12.44   12.45</time>
   <energy>
    <i name="e_fr_energy">    -66.49958978 </i>
    <i name="e_wo_entrp">    -66.49958978 </i>
    <i name="e_0_energy">    -66.49958978 </i>
   </energy>
  </scstep>
  <scstep>
   <time name="dav">   13.20   13.22</time>
   <time name="total">   13.20   13.22</time>
   <energy>
    <i name="e_fr_energy">    -67.21200504 </i>
    <i name="e_wo_entrp">    -67.21200504 </i>
    <i name="e_0_energy">    -67.21200504 </i>
   </energy>
  </scstep>
  <scstep>
   <time name="dav">   13.15   13.17</time>
   <time name="total">   13.16   13.17</time>
   <energy>
    <i name="e_fr_energy">    -67.22986046 </i>
    <i name="e_wo_entrp">    -67.22986046 </i>
    <i name="e_0_energy">    -67.22986046 </i>
   </energy>
  </scstep>
  <scstep>
   <time name="dav">   14.05   14.07</time>
   <time name="total">   14.05   14.07</time>
   <energy>
    <i name="e_fr_energy">    -67.23061100 </i>
    <i name="e_wo_entrp">    -67.23061100 </i>
    <i name="e_0_energy">    -67.23061100 </i>
   </energy>
  </scstep>
  <scstep>
   <time name="dav">   13.89   13.92</time>
   <time name="total">   13.90   13.92</time>
   <energy>
    <i name="e_fr_energy">    -67.23063327 </i>
    <i name="e_wo_entrp">    -67.23063327 </i>
    <i name="e_0_energy">    -67.23063327 </i>
   </energy>
  </scstep>
  <scstep>
   <time name="dav">   15.22   15.24</time>
   <time name="total">   15.22   15.25</time>
   <energy>
    <i name="alphaZ">     10.93933817 </i>
    <i name="ewald">   4060.05404224 </i>
    <i name="hartreedc">  -4938.55710043 </i>
    <i name="XCdc">     96.01877314 </i>
    <i name="pawpsdc">   2893.57001696 </i>
    <i name="pawaedc">  -2896.09701513 </i>
    <i name="eentropy">      0.00000000 </i>
    <i name="bandstr">   -318.36258859 </i>
    <i name="atom">   1025.20389953 </i>
    <i name="e_fr_energy">    -67.23063411 </i>
    <i name="e_wo_entrp">    -67.23063411 </i>
    <i name="e_0_energy">    -67.23063411 </i>
   </energy>
  </scstep>
  <structure>
   <crystal>
    <varray name="basis" >
     <v>       5.17400000       0.00000000       0.00000000 </v>
     <v>       2.58700000       4.48100000       0.00000000 </v>
     <v>       0.00000000       0.00000000      20.00000000 </v>
    </varray>
    <i name="volume">    463.69388000 </i>
    <varray name="rec_basis" >
     <v>       0.19327406      -0.11158224       0.00000000 </v>
     <v>       0.00000000       0.22316447       0.00000000 </v>
     <v>       0.00000000       0.00000000       0.05000000 </v>
    </varray>
   </crystal>
   <varray name="positions" >
    <v>       0.17457326       0.17462620       0.00000000 </v>
    <v>       0.50792519       0.50792234       0.00000000 </v>
    <v>       0.00000000       0.00000000       0.00000000 </v>
    <v>       0.52377271       0.00000000       0.00000000 </v>
    <v>       0.68255138       0.15866994       0.00000000 </v>
    <v>       0.99994706       0.52387860       0.00000000 </v>
    <v>       0.15872573       0.68254854       0.00000000 </v>
    <v>       0.68249844       0.68254854       0.00000000 </v>
   </varray>
  </structure>
  <varray name="forces" >
   <v>       0.00000000       0.00441905      -0.00000000 </v>
   <v>      -0.00000000      -0.00441905       0.00000000 </v>
   <v>      -0.01811248      -0.01149434       0.00000000 </v>
   <v>       0.01811248      -0.01149434      -0.00000000 </v>
   <v>      -0.00000000      -0.00889209       0.00000000 </v>
   <v>       0.00000000       0.00889209       0.00000000 </v>
   <v>      -0.01811248       0.01149434       0.00000000 </v>
   <v>       0.01811248       0.01149434       0.00000000 </v>
  </varray>
  <varray name="stress" >
   <v>      -0.27543556      -0.00000000       0.00000000 </v>
   <v>      -0.00000000      -0.32742531       0.00000000 </v>
   <v>       0.00000000       0.00000000      -0.61371023 </v>
  </varray>
  <energy>
   <i name="e_fr_energy">    -67.23063411 </i>
   <i name="e_wo_entrp">    -67.23063411 </i>
   <i name="e_0_energy">      0.00000000 </i>
  </energy>
  <time name="totalsc">  124.04  126.82</time>
  <eigenvalues>
   <array>
    <dimension dim="1">band</dimension>
    <dimension dim="2">kpoint</dimension>
    <dimension dim="3">spin</dimension>
    <field>eigene</field>
    <field>occ</field>
    <set>
     <set comment="spin 1">
      <set comment="kpoint 1">
       <r>  -20.3127    1.0000 </r>
       <r>  -16.4221    1.0000 </r>
       <r>  -16.4215    1.0000 </r>
       <r>  -14.0746    1.0000 </r>
       <r>  -14.0742    1.0000 </r>
       <r>  -13.0043    1.0000 </r>
       <r>  -11.6917    1.0000 </r>
       <r>   -9.1191    1.0000 </r>
       <r>   -8.8973    1.0000 </r>
       <r>   -6.7472    1.0000 </r>
       <r>   -6.7462    1.0000 </r>
       <r>   -4.9229    1.0000 </r>
       <r>   -4.9229    1.0000 </r>
       <r>   -4.2433    1.0000 </r>
       <r>   -4.2408    1.0000 </r>
       <r>   -2.4086    0.0000 </r>
       <r>   -0.6760    0.0000 </r>
       <r>   -0.6756    0.0000 </r>
       <r>   -0.0190    0.0000 </r>
       <r>    0.4149    0.0000 </r>
       <r>    1.2728    0.0000 </r>
       <r>    1.4978    0.0000 </r>
       <r>    2.5016    0.0000 </r>
       <r>    2.8725    0.0000 </r>
      </set>
      <set comment="kpoint 2">
       <r>  -20.2974    1.0000 </r>
       <r>  -16.4982    1.0000 </r>
       <r>  -16.4460    1.0000 </r>
       <r>  -14.0962    1.0000 </r>
       <r>  -14.0183    1.0000 </r>
       <r>  -12.9285    1.0000 </r>
       <r>  -11.6000    1.0000 </r>
       <r>   -9.0959    1.0000 </r>
       <r>   -8.9294    1.0000 </r>
       <r>   -6.8169    1.0000 </r>
       <r>   -6.7599    1.0000 </r>
       <r>   -4.9936    1.0000 </r>
       <r>   -4.9346    1.0000 </r>
       <r>   -4.3235    1.0000 </r>
       <r>   -4.2805    1.0000 </r>
       <r>   -2.5338    0.0000 </r>
       <r>   -0.6420    0.0000 </r>
       <r>   -0.4878    0.0000 </r>
       <r>    0.0467    0.0000 </r>
       <r>    0.4440    0.0000 </r>
       <r>    1.3042    0.0000 </r>
       <r>    1.5271    0.0000 </r>
       <r>    2.5309    0.0000 </r>
       <r>    2.9019    0.0000 </r>
      </set>
      <set comment="kpoint 3">
       <r>  -20.2522    1.0000 </r>
       <r>  -16.7008    1.0000 </r>
       <r>  -16.5113    1.0000 </r>
       <r>  -14.1642    1.0000 </r>
       <r>  -13.8593    1.0000 </r>
       <r>  -12.7056    1.0000 </r>
       <r>  -11.3441    1.0000 </r>
       <r>   -9.0293    1.0000 </r>
       <r>   -9.0266    1.0000 </r>
       <r>   -7.0187    1.0000 </r>
       <r>   -6.7891    1.0000 </r>
       <r>   -5.1957    1.0000 </r>
       <r>   -4.9674    1.0000 </r>
       <r>   -4.5588    1.0000 </r>
       <r>   -4.3929    1.0000 </r>
       <r>   -2.7889    0.0000 </r>
       <r>   -0.5458    0.0000 </r>
       <r>   -0.1101    0.0000 </r>
       <r>    0.2955    0.0000 </r>
       <r>    0.5311    0.0000 </r>
       <r>    1.3999    0.0000 </r>
       <r>    1.6148    0.0000 </r>
       <r>    2.6192    0.0000 </r>
       <r>    2.9899    0.0000 </r>
      </set>
      <set comment="kpoint 4">
       <r>  -20.1793    1.0000 </r>
       <r>  -16.9761    1.0000 </r>
       <r>  -16.5990    1.0000 </r>
       <r>  -14.2667    1.0000 </r>
       <r>  -13.6187    1.0000 </r>
       <r>  -12.3643    1.0000 </r>
       <r>  -10.9626    1.0000 </r>
       <r>   -9.2039    1.0000 </r>
       <r>   -8.9125    1.0000 </r>
       <r>   -7.3306    1.0000 </r>
       <r>   -6.8088    1.0000 </r>
       <r>   -5.5003    1.0000 </r>
       <r>   -5.0148    1.0000 </r>
       <r>   -4.9298    1.0000 </r>
       <r>   -4.5654    1.0000 </r>
       <r>   -3.0409    0.0000 </r>
       <r>   -0.3999    0.0000 </r>
       <r>    0.1903    0.0000 </r>
       <r>    0.6759    0.0000 </r>
       <r>    0.8146    0.0000 </r>
       <r>    1.5678    0.0000 </r>
       <r>    1.7609    0.0000 </r>
       <r>    2.7664    0.0000 </r>
       <r>    3.1359    0.0000 </r>
      </set>
      <set comment="kpoint 5">
       <r>  -20.0832    1.0000 </r>
       <r>  -17.2764    1.0000 </r>
       <r>  -16.6910    1.0000 </r>
       <r>  -14.3780    1.0000 </r>
       <r>  -13.3216    1.0000 </r>
       <r>  -11.9462    1.0000 </r>
       <r>  -10.4911    1.0000 </r>
       <r>   -9.4513    1.0000 </r>
       <r>   -8.7561    1.0000 </r>
       <r>   -7.7229    1.0000 </r>
       <r>   -6.7957    1.0000 </r>
       <r>   -5.8673    1.0000 </r>
       <r>   -5.4102    1.0000 </r>
       <r>   -5.0680    1.0000 </r>
       <r>   -4.7782    1.0000 </r>
       <r>   -3.2477    0.0000 </r>
       <r>   -0.2244    0.0000 </r>
       <r>    0.4484    0.0000 </r>
       <r>    0.8778    0.0000 </r>
       <r>    1.4218    0.0000 </r>
       <r>    1.8559    0.0000 </r>
       <r>    1.9654    0.0000 </r>
       <r>    2.9735    0.0000 </r>
       <r>    3.3395    0.0000 </r>
      </set>
      <set comment="kpoint 6">
       <r>  -19.9724    1.0000 </r>
       <r>  -17.5655    1.0000 </r>
       <r>  -16.7735    1.0000 </r>
       <r>  -14.4783    1.0000 </r>
       <r>  -12.9940    1.0000 </r>
       <r>  -11.4833    1.0000 </r>
       <r>   -9.9650    1.0000 </r>
       <r>   -9.7525    1.0000 </r>
       <r>   -8.5624    1.0000 </r>
       <r>   -8.1572    1.0000 </r>
       <r>   -6.7419    1.0000 </r>
       <r>   -6.2565    1.0000 </r>
       <r>   -5.9716    1.0000 </r>
       <r>   -5.1190    1.0000 </r>
       <r>   -5.0077    1.0000 </r>
       <r>   -3.4044    0.0000 </r>
       <r>   -0.0438    0.0000 </r>
       <r>    0.6961    0.0000 </r>
       <r>    1.1364    0.0000 </r>
       <r>    1.8668    0.0000 </r>
       <r>    2.2282    0.0000 </r>
       <r>    2.4100    0.0000 </r>
       <r>    3.2431    0.0000 </r>
       <r>    3.6002    0.0000 </r>
      </set>
      <set comment="kpoint 7">
       <r>  -19.8614    1.0000 </r>
       <r>  -17.8125    1.0000 </r>
       <r>  -16.8376    1.0000 </r>
       <r>  -14.5558    1.0000 </r>
       <r>  -12.6696    1.0000 </r>
       <r>  -10.9991    1.0000 </r>
       <r>  -10.0683    1.0000 </r>
       <r>   -9.4676    1.0000 </r>
       <r>   -8.5431    1.0000 </r>
       <r>   -8.3435    1.0000 </r>
       <r>   -6.6581    1.0000 </r>
       <r>   -6.6305    1.0000 </r>
       <r>   -6.5860    1.0000 </r>
       <r>   -5.2253    1.0000 </r>
       <r>   -5.1605    1.0000 </r>
       <r>   -3.5136    0.0000 </r>
       <r>    0.1136    0.0000 </r>
       <r>    0.9122    0.0000 </r>
       <r>    1.4514    0.0000 </r>
       <r>    2.2173    0.0000 </r>
       <r>    2.5492    0.0000 </r>
       <r>    3.1005    0.0000 </r>
       <r>    3.2697    0.0000 </r>
       <r>    3.5788    0.0000 </r>
      </set>
      <set comment="kpoint 8">
       <r>  -19.7741    1.0000 </r>
       <r>  -17.9843    1.0000 </r>
       <r>  -16.8779    1.0000 </r>
       <r>  -14.6042    1.0000 </r>
       <r>  -12.4057    1.0000 </r>
       <r>  -10.5260    1.0000 </r>
       <r>  -10.3319    1.0000 </r>
       <r>   -9.4077    1.0000 </r>
       <r>   -8.4556    1.0000 </r>
       <r>   -8.1334    1.0000 </r>
       <r>   -7.2241    1.0000 </r>
       <r>   -6.9392    1.0000 </r>
       <r>   -6.5741    1.0000 </r>
       <r>   -5.3921    1.0000 </r>
       <r>   -5.1874    1.0000 </r>
       <r>   -3.5782    0.0000 </r>
       <r>    0.2219    0.0000 </r>
       <r>    1.0630    0.0000 </r>
       <r>    1.8227    0.0000 </r>
       <r>    2.5900    0.0000 </r>
       <r>    2.7325    0.0000 </r>
       <r>    2.9284    0.0000 </r>
       <r>    3.4490    0.0000 </r>
       <r>    3.7759    0.0000 </r>
      </set>
      <set comment="kpoint 9">
       <r>  -19.7401    1.0000 </r>
       <r>  -18.0471    1.0000 </r>
       <r>  -16.8916    1.0000 </r>
       <r>  -14.6207    1.0000 </r>
       <r>  -12.2968    1.0000 </r>
       <r>  -10.4416    1.0000 </r>
       <r>  -10.2352    1.0000 </r>
       <r>   -9.6275    1.0000 </r>
       <r>   -8.0305    1.0000 </r>
       <r>   -8.0050    1.0000 </r>
       <r>   -7.7527    1.0000 </r>
       <r>   -7.0759    1.0000 </r>
       <r>   -6.5366    1.0000 </r>
       <r>   -5.4575    1.0000 </r>
       <r>   -5.1968    1.0000 </r>
       <r>   -3.5997    0.0000 </r>
       <r>    0.2606    0.0000 </r>
       <r>    1.1175    0.0000 </r>
       <r>    2.2479    0.0000 </r>
       <r>    2.2519    0.0000 </r>
       <r>    2.9820    0.0000 </r>
       <r>    3.0340    0.0000 </r>
       <r>    3.3655    0.0000 </r>
       <r>    3.3661    0.0000 </r>
      </set>
      <set comment="kpoint 10">
       <r>  -20.2974    1.0000 </r>
       <r>  -16.4977    1.0000 </r>
       <r>  -16.4465    1.0000 </r>
       <r>  -14.0959    1.0000 </r>
       <r>  -14.0186    1.0000 </r>
       <r>  -12.9284    1.0000 </r>
       <r>  -11.6001    1.0000 </r>
       <r>   -9.0959    1.0000 </r>
       <r>   -8.9293    1.0000 </r>
       <r>   -6.8162    1.0000 </r>
       <r>   -6.7606    1.0000 </r>
       <r>   -4.9937    1.0000 </r>
       <r>   -4.9346    1.0000 </r>
       <r>   -4.3216    1.0000 </r>
       <r>   -4.2823    1.0000 </r>
       <r>   -2.5337    0.0000 </r>
       <r>   -0.6424    0.0000 </r>
       <r>   -0.4878    0.0000 </r>
       <r>    0.0469    0.0000 </r>
       <r>    0.4440    0.0000 </r>
       <r>    1.3042    0.0000 </r>
       <r>    1.5270    0.0000 </r>
       <r>    2.5309    0.0000 </r>
       <r>    2.9019    0.0000 </r>
      </set>
      <set comment="kpoint 11">
       <r>  -20.2671    1.0000 </r>
       <r>  -16.6323    1.0000 </r>
       <r>  -16.4965    1.0000 </r>
       <r>  -14.1219    1.0000 </r>
       <r>  -13.9321    1.0000 </r>
       <r>  -12.7757    1.0000 </r>
       <r>  -11.4270    1.0000 </r>
       <r>   -9.0497    1.0000 </r>
       <r>   -8.9958    1.0000 </r>
       <r>   -6.9449    1.0000 </r>
       <r>   -6.7886    1.0000 </r>
       <r>   -5.1227    1.0000 </r>
       <r>   -4.9656    1.0000 </r>
       <r>   -4.4791    1.0000 </r>
       <r>   -4.3586    1.0000 </r>
       <r>   -2.7134    0.0000 </r>
       <r>   -0.6069    0.0000 </r>
       <r>   -0.1648    0.0000 </r>
       <r>    0.1847    0.0000 </r>
       <r>    0.5021    0.0000 </r>
       <r>    1.3676    0.0000 </r>
       <r>    1.5856    0.0000 </r>
       <r>    2.5897    0.0000 </r>
       <r>    2.9606    0.0000 </r>
      </set>
      <set comment="kpoint 12">
       <r>  -20.2080    1.0000 </r>
       <r>  -16.8601    1.0000 </r>
       <r>  -16.5855    1.0000 </r>
       <r>  -14.1767    1.0000 </r>
       <r>  -13.7699    1.0000 </r>
       <r>  -12.4815    1.0000 </r>
       <r>  -11.1120    1.0000 </r>
       <r>   -9.1363    1.0000 </r>
       <r>   -8.9580    1.0000 </r>
       <r>   -7.1812    1.0000 </r>
       <r>   -6.8308    1.0000 </r>
       <r>   -5.3614    1.0000 </r>
       <r>   -5.0279    1.0000 </r>
       <r>   -4.7744    1.0000 </r>
       <r>   -4.5088    1.0000 </r>
       <r>   -2.9339    0.0000 </r>
       <r>   -0.5460    0.0000 </r>
       <r>    0.2480    0.0000 </r>
       <r>    0.5319    0.0000 </r>
       <r>    0.6181    0.0000 </r>
       <r>    1.4974    0.0000 </r>
       <r>    1.7025    0.0000 </r>
       <r>    2.7074    0.0000 </r>
       <r>    3.0777    0.0000 </r>
      </set>
      <set comment="kpoint 13">
       <r>  -20.1233    1.0000 </r>
       <r>  -17.1382    1.0000 </r>
       <r>  -16.6875    1.0000 </r>
       <r>  -14.2644    1.0000 </r>
       <r>  -13.5250    1.0000 </r>
       <r>  -12.0883    1.0000 </r>
       <r>  -10.6912    1.0000 </r>
       <r>   -9.3555    1.0000 </r>
       <r>   -8.8225    1.0000 </r>
       <r>   -7.5093    1.0000 </r>
       <r>   -6.8511    1.0000 </r>
       <r>   -5.6858    1.0000 </r>
       <r>   -5.1903    1.0000 </r>
       <r>   -5.1044    1.0000 </r>
       <r>   -4.7111    1.0000 </r>
       <r>   -3.1208    0.0000 </r>
       <r>   -0.4445    0.0000 </r>
       <r>    0.5431    0.0000 </r>
       <r>    0.7914    0.0000 </r>
       <r>    1.1273    0.0000 </r>
       <r>    1.7098    0.0000 </r>
       <r>    1.8778    0.0000 </r>
       <r>    2.8843    0.0000 </r>
       <r>    3.2526    0.0000 </r>
      </set>
      <set comment="kpoint 14">
       <r>  -20.0193    1.0000 </r>
       <r>  -17.4265    1.0000 </r>
       <r>  -16.7842    1.0000 </r>
       <r>  -14.3594    1.0000 </r>
       <r>  -13.2229    1.0000 </r>
       <r>  -11.6385    1.0000 </r>
       <r>  -10.1972    1.0000 </r>
       <r>   -9.6428    1.0000 </r>
       <r>   -8.6470    1.0000 </r>
       <r>   -7.9021    1.0000 </r>
       <r>   -6.8293    1.0000 </r>
       <r>   -6.0579    1.0000 </r>
       <r>   -5.7005    1.0000 </r>
       <r>   -5.1806    1.0000 </r>
       <r>   -4.9420    1.0000 </r>
       <r>   -3.2618    0.0000 </r>
       <r>   -0.3132    0.0000 </r>
       <r>    0.8156    0.0000 </r>
       <r>    1.0217    0.0000 </r>
       <r>    1.6892    0.0000 </r>
       <r>    2.1022    0.0000 </r>
       <r>    2.1115    0.0000 </r>
       <r>    3.1217    0.0000 </r>
       <r>    3.4848    0.0000 </r>
      </set>
      <set comment="kpoint 15">
       <r>  -19.9071    1.0000 </r>
       <r>  -17.6915    1.0000 </r>
       <r>  -16.8640    1.0000 </r>
       <r>  -14.4419    1.0000 </r>
       <r>  -12.8966    1.0000 </r>
       <r>  -11.1620    1.0000 </r>
       <r>   -9.9716    1.0000 </r>
       <r>   -9.6673    1.0000 </r>
       <r>   -8.4392    1.0000 </r>
       <r>   -8.3133    1.0000 </r>
       <r>   -6.7715    1.0000 </r>
       <r>   -6.4378    1.0000 </r>
       <r>   -6.2727    1.0000 </r>
       <r>   -5.2458    1.0000 </r>
       <r>   -5.1749    1.0000 </r>
       <r>   -3.3623    0.0000 </r>
       <r>   -0.1764    0.0000 </r>
       <r>    1.0659    0.0000 </r>
       <r>    1.3086    0.0000 </r>
       <r>    2.0689    0.0000 </r>
       <r>    2.4034    0.0000 </r>
       <r>    2.7496    0.0000 </r>
       <r>    3.4233    0.0000 </r>
       <r>    3.5801    0.0000 </r>
      </set>
      <set comment="kpoint 16">
       <r>  -19.8055    1.0000 </r>
       <r>  -17.9007    1.0000 </r>
       <r>  -16.9202    1.0000 </r>
       <r>  -14.5013    1.0000 </r>
       <r>  -12.5921    1.0000 </r>
       <r>  -10.6924    1.0000 </r>
       <r>  -10.2710    1.0000 </r>
       <r>   -9.2910    1.0000 </r>
       <r>   -8.5531    1.0000 </r>
       <r>   -8.2190    1.0000 </r>
       <r>   -6.9338    1.0000 </r>
       <r>   -6.7834    1.0000 </r>
       <r>   -6.6440    1.0000 </r>
       <r>   -5.3770    1.0000 </r>
       <r>   -5.2930    1.0000 </r>
       <r>   -3.4274    0.0000 </r>
       <r>   -0.0630    0.0000 </r>
       <r>    1.2640    0.0000 </r>
       <r>    1.6518    0.0000 </r>
       <r>    2.4243    0.0000 </r>
       <r>    2.7535    0.0000 </r>
       <r>    3.0161    0.0000 </r>
       <r>    3.4130    0.0000 </r>
       <r>    3.7125    0.0000 </r>
      </set>
      <set comment="kpoint 17">
       <r>  -19.7423    1.0000 </r>
       <r>  -18.0194    1.0000 </r>
       <r>  -16.9492    1.0000 </r>
       <r>  -14.5321    1.0000 </r>
       <r>  -12.3893    1.0000 </r>
       <r>  -10.5269    1.0000 </r>
       <r>  -10.2300    1.0000 </r>
       <r>   -9.4483    1.0000 </r>
       <r>   -8.1940    1.0000 </r>
       <r>   -8.0459    1.0000 </r>
       <r>   -7.5374    1.0000 </r>
       <r>   -7.0219    1.0000 </r>
       <r>   -6.5955    1.0000 </r>
       <r>   -5.5021    1.0000 </r>
       <r>   -5.3176    1.0000 </r>
       <r>   -3.4595    0.0000 </r>
       <r>    0.0016    0.0000 </r>
       <r>    1.3754    0.0000 </r>
       <r>    2.0511    0.0000 </r>
       <r>    2.5061    0.0000 </r>
       <r>    2.8155    0.0000 </r>
       <r>    3.1618    0.0000 </r>
       <r>    3.2557    0.0000 </r>
       <r>    3.6282    0.0000 </r>
      </set>
      <set comment="kpoint 18">
       <r>  -19.7423    1.0000 </r>
       <r>  -18.0194    1.0000 </r>
       <r>  -16.9492    1.0000 </r>
       <r>  -14.5320    1.0000 </r>
       <r>  -12.3894    1.0000 </r>
       <r>  -10.5273    1.0000 </r>
       <r>  -10.2293    1.0000 </r>
       <r>   -9.4485    1.0000 </r>
       <r>   -8.1943    1.0000 </r>
       <r>   -8.0460    1.0000 </r>
       <r>   -7.5371    1.0000 </r>
       <r>   -7.0219    1.0000 </r>
       <r>   -6.5955    1.0000 </r>
       <r>   -5.5022    1.0000 </r>
       <r>   -5.3176    1.0000 </r>
       <r>   -3.4594    0.0000 </r>
       <r>    0.0015    0.0000 </r>
       <r>    1.3755    0.0000 </r>
       <r>    2.0511    0.0000 </r>
       <r>    2.5061    0.0000 </r>
       <r>    2.8155    0.0000 </r>
       <r>    3.1618    0.0000 </r>
       <r>    3.2557    0.0000 </r>
       <r>    3.6283    0.0000 </r>
      </set>
      <set comment="kpoint 19">
       <r>  -19.8056    1.0000 </r>
       <r>  -17.9006    1.0000 </r>
       <r>  -16.9203    1.0000 </r>
       <r>  -14.5012    1.0000 </r>
       <r>  -12.5923    1.0000 </r>
       <r>  -10.6928    1.0000 </r>
       <r>  -10.2702    1.0000 </r>
       <r>   -9.2912    1.0000 </r>
       <r>   -8.5534    1.0000 </r>
       <r>   -8.2190    1.0000 </r>
       <r>   -6.9334    1.0000 </r>
       <r>   -6.7833    1.0000 </r>
       <r>   -6.6440    1.0000 </r>
       <r>   -5.3773    1.0000 </r>
       <r>   -5.2931    1.0000 </r>
       <r>   -3.4271    0.0000 </r>
       <r>   -0.0633    0.0000 </r>
       <r>    1.2643    0.0000 </r>
       <r>    1.6518    0.0000 </r>
       <r>    2.4243    0.0000 </r>
       <r>    2.7535    0.0000 </r>
       <r>    3.0161    0.0000 </r>
       <r>    3.4128    0.0000 </r>
       <r>    3.7125    0.0000 </r>
      </set>
      <set comment="kpoint 20">
       <r>  -19.9071    1.0000 </r>
       <r>  -17.6913    1.0000 </r>
       <r>  -16.8642    1.0000 </r>
       <r>  -14.4418    1.0000 </r>
       <r>  -12.8969    1.0000 </r>
       <r>  -11.1619    1.0000 </r>
       <r>   -9.9712    1.0000 </r>
       <r>   -9.6675    1.0000 </r>
       <r>   -8.4393    1.0000 </r>
       <r>   -8.3135    1.0000 </r>
       <r>   -6.7714    1.0000 </r>
       <r>   -6.4376    1.0000 </r>
       <r>   -6.2722    1.0000 </r>
       <r>   -5.2460    1.0000 </r>
       <r>   -5.1754    1.0000 </r>
       <r>   -3.3619    0.0000 </r>
       <r>   -0.1771    0.0000 </r>
       <r>    1.0662    0.0000 </r>
       <r>    1.3086    0.0000 </r>
       <r>    2.0688    0.0000 </r>
       <r>    2.4033    0.0000 </r>
       <r>    2.7494    0.0000 </r>
       <r>    3.4233    0.0000 </r>
       <r>    3.5801    0.0000 </r>
      </set>
      <set comment="kpoint 21">
       <r>  -20.0193    1.0000 </r>
       <r>  -17.4263    1.0000 </r>
       <r>  -16.7844    1.0000 </r>
       <r>  -14.3592    1.0000 </r>
       <r>  -13.2233    1.0000 </r>
       <r>  -11.6382    1.0000 </r>
       <r>  -10.1974    1.0000 </r>
       <r>   -9.6426    1.0000 </r>
       <r>   -8.6471    1.0000 </r>
       <r>   -7.9021    1.0000 </r>
       <r>   -6.8294    1.0000 </r>
       <r>   -6.0577    1.0000 </r>
       <r>   -5.6999    1.0000 </r>
       <r>   -5.1809    1.0000 </r>
       <r>   -4.9426    1.0000 </r>
       <r>   -3.2613    0.0000 </r>
       <r>   -0.3140    0.0000 </r>
       <r>    0.8160    0.0000 </r>
       <r>    1.0217    0.0000 </r>
       <r>    1.6891    0.0000 </r>
       <r>    2.1021    0.0000 </r>
       <r>    2.1114    0.0000 </r>
       <r>    3.1216    0.0000 </r>
       <r>    3.4848    0.0000 </r>
      </set>
      <set comment="kpoint 22">
       <r>  -20.1234    1.0000 </r>
       <r>  -17.1379    1.0000 </r>
       <r>  -16.6878    1.0000 </r>
       <r>  -14.2641    1.0000 </r>
       <r>  -13.5256    1.0000 </r>
       <r>  -12.0880    1.0000 </r>
       <r>  -10.6914    1.0000 </r>
       <r>   -9.3554    1.0000 </r>
       <r>   -8.8226    1.0000 </r>
       <r>   -7.5091    1.0000 </r>
       <r>   -6.8513    1.0000 </r>
       <r>   -5.6856    1.0000 </r>
       <r>   -5.1894    1.0000 </r>
       <r>   -5.1048    1.0000 </r>
       <r>   -4.7120    1.0000 </r>
       <r>   -3.1202    0.0000 </r>
       <r>   -0.4454    0.0000 </r>
       <r>    0.5436    0.0000 </r>
       <r>    0.7914    0.0000 </r>
       <r>    1.1271    0.0000 </r>
       <r>    1.7098    0.0000 </r>
       <r>    1.8778    0.0000 </r>
       <r>    2.8843    0.0000 </r>
       <r>    3.2525    0.0000 </r>
      </set>
      <set comment="kpoint 23">
       <r>  -20.2080    1.0000 </r>
       <r>  -16.8597    1.0000 </r>
       <r>  -16.5859    1.0000 </r>
       <r>  -14.1762    1.0000 </r>
       <r>  -13.7706    1.0000 </r>
       <r>  -12.4812    1.0000 </r>
       <r>  -11.1121    1.0000 </r>
       <r>   -9.1362    1.0000 </r>
       <r>   -8.9580    1.0000 </r>
       <r>   -7.1808    1.0000 </r>
       <r>   -6.8312    1.0000 </r>
       <r>   -5.3612    1.0000 </r>
       <r>   -5.0281    1.0000 </r>
       <r>   -4.7732    1.0000 </r>
       <r>   -4.5101    1.0000 </r>
       <r>   -2.9333    0.0000 </r>
       <r>   -0.5470    0.0000 </r>
       <r>    0.2485    0.0000 </r>
       <r>    0.5318    0.0000 </r>
       <r>    0.6181    0.0000 </r>
       <r>    1.4974    0.0000 </r>
       <r>    1.7025    0.0000 </r>
       <r>    2.7074    0.0000 </r>
       <r>    3.0777    0.0000 </r>
      </set>
      <set comment="kpoint 24">
       <r>  -20.2672    1.0000 </r>
       <r>  -16.6318    1.0000 </r>
       <r>  -16.4969    1.0000 </r>
       <r>  -14.1215    1.0000 </r>
       <r>  -13.9328    1.0000 </r>
       <r>  -12.7755    1.0000 </r>
       <r>  -11.4271    1.0000 </r>
       <r>   -9.0497    1.0000 </r>
       <r>   -8.9958    1.0000 </r>
       <r>   -6.9442    1.0000 </r>
       <r>   -6.7893    1.0000 </r>
       <r>   -5.1226    1.0000 </r>
       <r>   -4.9657    1.0000 </r>
       <r>   -4.4772    1.0000 </r>
       <r>   -4.3605    1.0000 </r>
       <r>   -2.7130    0.0000 </r>
       <r>   -0.6077    0.0000 </r>
       <r>   -0.1647    0.0000 </r>
       <r>    0.1850    0.0000 </r>
       <r>    0.5021    0.0000 </r>
       <r>    1.3676    0.0000 </r>
       <r>    1.5855    0.0000 </r>
       <r>    2.5897    0.0000 </r>
       <r>    2.9606    0.0000 </r>
      </set>
      <set comment="kpoint 25">
       <r>  -20.2522    1.0000 </r>
       <r>  -16.7003    1.0000 </r>
       <r>  -16.5117    1.0000 </r>
       <r>  -14.1641    1.0000 </r>
       <r>  -13.8596    1.0000 </r>
       <r>  -12.7053    1.0000 </r>
       <r>  -11.3443    1.0000 </r>
       <r>   -9.0293    1.0000 </r>
       <r>   -9.0267    1.0000 </r>
       <r>   -7.0179    1.0000 </r>
       <r>   -6.7899    1.0000 </r>
       <r>   -5.1958    1.0000 </r>
       <r>   -4.9674    1.0000 </r>
       <r>   -4.5571    1.0000 </r>
       <r>   -4.3947    1.0000 </r>
       <r>   -2.7885    0.0000 </r>
       <r>   -0.5462    0.0000 </r>
       <r>   -0.1110    0.0000 </r>
       <r>    0.2963    0.0000 </r>
       <r>    0.5311    0.0000 </r>
       <r>    1.3999    0.0000 </r>
       <r>    1.6148    0.0000 </r>
       <r>    2.6191    0.0000 </r>
       <r>    2.9899    0.0000 </r>
      </set>
      <set comment="kpoint 26">
       <r>  -20.1370    1.0000 </r>
       <r>  -17.0720    1.0000 </r>
       <r>  -16.7097    1.0000 </r>
[...]
        <r>  0.0004  0.0002  0.0000  0.0000  0.0000  0.0000  0.0000  0.0000  0.0000 </r>
        <r>  0.0004  0.0002  0.0000  0.0000  0.0000  0.0000  0.0000  0.0000  0.0000 </r>
        <r>  0.0001  0.0002  0.0000  0.0000  0.0000  0.0000  0.0000  0.0000  0.0000 </r>
        <r>  0.0001  0.0002  0.0000  0.0000  0.0000  0.0000  0.0000  0.0000  0.0000 </r>
        <r>  0.0004  0.0002  0.0000  0.0000  0.0000  0.0000  0.0000  0.0000  0.0000 </r>
        <r>  0.0004  0.0002  0.0000  0.0000  0.0000  0.0000  0.0000  0.0000  0.0000 </r>
       </set>
      </set>
      <set comment="kpoint 73">
       <set comment="band 1">
        <r>  0.0047  0.0082  0.0000  0.0000  0.0000  0.0000  0.0000  0.0000  0.0000 </r>
        <r>  0.0047  0.0082  0.0000  0.0000  0.0000  0.0000  0.0000  0.0000  0.0000 </r>
        <r>  0.1029  0.0039  0.0000  0.0050  0.0000  0.0000  0.0000  0.0000  0.0000 </r>
        <r>  0.1029  0.0039  0.0000  0.0050  0.0000  0.0000  0.0000  0.0000  0.0000 </r>
        <r>  0.0803  0.0117  0.0000  0.0000  0.0000  0.0000  0.0000  0.0000  0.0000 </r>
        <r>  0.0803  0.0117  0.0000  0.0000  0.0000  0.0000  0.0000  0.0000  0.0000 </r>
        <r>  0.1029  0.0039  0.0000  0.0050  0.0000  0.0000  0.0000  0.0000  0.0000 </r>
        <r>  0.1029  0.0039  0.0000  0.0050  0.0000  0.0000  0.0000  0.0000  0.0000 </r>
       </set>
       <set comment="band 2">
        <r>  0.0505  0.0042  0.0000  0.0000  0.0000  0.0000  0.0000  0.0000  0.0000 </r>
        <r>  0.0505  0.0042  0.0000  0.0000  0.0000  0.0000  0.0000  0.0000  0.0000 </r>
        <r>  0.0428  0.0120  0.0000  0.0037  0.0000  0.0000  0.0000  0.0000  0.0000 </r>
        <r>  0.0428  0.0120  0.0000  0.0037  0.0000  0.0000  0.0000  0.0000  0.0000 </r>
        <r>  0.1564  0.0002  0.0000  0.0000  0.0000  0.0000  0.0000  0.0000  0.0000 </r>
        <r>  0.1564  0.0002  0.0000  0.0000  0.0000  0.0000  0.0000  0.0000  0.0000 </r>
        <r>  0.0428  0.0120  0.0000  0.0037  0.0000  0.0000  0.0000  0.0000  0.0000 </r>
        <r>  0.0428  0.0120  0.0000  0.0037  0.0000  0.0000  0.0000  0.0000  0.0000 </r>
       </set>
       <set comment="band 3">
        <r>  0.0000  0.0000  0.0000  0.0247  0.0000  0.0000  0.0000  0.0000  0.0000 </r>
        <r>  0.0000  0.0000  0.0000  0.0247  0.0000  0.0000  0.0000  0.0000  0.0000 </r>
        <r>  0.1377  0.0050  0.0000  0.0003  0.0000  0.0000  0.0000  0.0000  0.0000 </r>
        <r>  0.1377  0.0050  0.0000  0.0003  0.0000  0.0000  0.0000  0.0000  0.0000 </r>
        <r>  0.0000  0.0000  0.0000  0.0367  0.0000  0.0000  0.0000  0.0000  0.0000 </r>
        <r>  0.0000  0.0000  0.0000  0.0367  0.0000  0.0000  0.0000  0.0000  0.0000 </r>
        <r>  0.1377  0.0050  0.0000  0.0003  0.0000  0.0000  0.0000  0.0000  0.0000 </r>
        <r>  0.1377  0.0050  0.0000  0.0003  0.0000  0.0000  0.0000  0.0000  0.0000 </r>
       </set>
       <set comment="band 4">
        <r>  0.0915  0.0010  0.0000  0.0000  0.0000  0.0000  0.0000  0.0000  0.0000 </r>
        <r>  0.0915  0.0010  0.0000  0.0000  0.0000  0.0000  0.0000  0.0000  0.0000 </r>
        <r>  0.0142  0.0111  0.0000  0.0432  0.0000  0.0000  0.0000  0.0000  0.0000 </r>
        <r>  0.0142  0.0111  0.0000  0.0432  0.0000  0.0000  0.0000  0.0000  0.0000 </r>
        <r>  0.1018  0.0001  0.0000  0.0000  0.0000  0.0000  0.0000  0.0000  0.0000 </r>
        <r>  0.1019  0.0001  0.0000  0.0000  0.0000  0.0000  0.0000  0.0000  0.0000 </r>
        <r>  0.0142  0.0111  0.0000  0.0432  0.0000  0.0000  0.0000  0.0000  0.0000 </r>
        <r>  0.0142  0.0111  0.0000  0.0432  0.0000  0.0000  0.0000  0.0000  0.0000 </r>
       </set>
       <set comment="band 5">
        <r>  0.0000  0.0000  0.0000  0.0311  0.0000  0.0000  0.0000  0.0000  0.0000 </r>
        <r>  0.0000  0.0000  0.0000  0.0311  0.0000  0.0000  0.0000  0.0000  0.0000 </r>
        <r>  0.0916  0.0258  0.0000  0.0022  0.0000  0.0000  0.0000  0.0000  0.0000 </r>
        <r>  0.0916  0.0258  0.0000  0.0022  0.0000  0.0000  0.0000  0.0000  0.0000 </r>
        <r>  0.0000  0.0000  0.0000  0.0975  0.0000  0.0000  0.0000  0.0000  0.0000 </r>
        <r>  0.0000  0.0000  0.0000  0.0975  0.0000  0.0000  0.0000  0.0000  0.0000 </r>
        <r>  0.0916  0.0258  0.0000  0.0022  0.0000  0.0000  0.0000  0.0000  0.0000 </r>
        <r>  0.0916  0.0258  0.0000  0.0022  0.0000  0.0000  0.0000  0.0000  0.0000 </r>
       </set>
       <set comment="band 6">
        <r>  0.0000  0.0000  0.0000  0.0252  0.0000  0.0000  0.0000  0.0000  0.0000 </r>
        <r>  0.0000  0.0000  0.0000  0.0252  0.0000  0.0000  0.0000  0.0000  0.0000 </r>
        <r>  0.0040  0.1166  0.0000  0.0038  0.0000  0.0000  0.0000  0.0000  0.0000 </r>
        <r>  0.0040  0.1166  0.0000  0.0038  0.0000  0.0000  0.0000  0.0000  0.0000 </r>
        <r>  0.0000  0.0000  0.0000  0.0671  0.0000  0.0000  0.0000  0.0000  0.0000 </r>
        <r>  0.0000  0.0000  0.0000  0.0671  0.0000  0.0000  0.0000  0.0000  0.0000 </r>
        <r>  0.0040  0.1166  0.0000  0.0038  0.0000  0.0000  0.0000  0.0000  0.0000 </r>
        <r>  0.0040  0.1166  0.0000  0.0038  0.0000  0.0000  0.0000  0.0000  0.0000 </r>
       </set>
       <set comment="band 7">
        <r>  0.1302  0.0047  0.0000  0.0000  0.0000  0.0000  0.0000  0.0000  0.0000 </r>
        <r>  0.1303  0.0047  0.0000  0.0000  0.0000  0.0000  0.0000  0.0000  0.0000 </r>
        <r>  0.0002  0.0007  0.0000  0.0595  0.0000  0.0000  0.0000  0.0000  0.0000 </r>
        <r>  0.0002  0.0007  0.0000  0.0595  0.0000  0.0000  0.0000  0.0000  0.0000 </r>
        <r>  0.0428  0.0633  0.0000  0.0000  0.0000  0.0000  0.0000  0.0000  0.0000 </r>
        <r>  0.0428  0.0632  0.0000  0.0000  0.0000  0.0000  0.0000  0.0000  0.0000 </r>
        <r>  0.0002  0.0007  0.0000  0.0595  0.0000  0.0000  0.0000  0.0000  0.0000 </r>
        <r>  0.0002  0.0007  0.0000  0.0595  0.0000  0.0000  0.0000  0.0000  0.0000 </r>
       </set>
       <set comment="band 8">
        <r>  0.0017  0.0866  0.0000  0.0000  0.0000  0.0000  0.0000  0.0000  0.0000 </r>
        <r>  0.0017  0.0866  0.0000  0.0000  0.0000  0.0000  0.0000  0.0000  0.0000 </r>
        <r>  0.0001  0.0403  0.0000  0.0270  0.0000  0.0000  0.0000  0.0000  0.0000 </r>
        <r>  0.0001  0.0403  0.0000  0.0270  0.0000  0.0000  0.0000  0.0000  0.0000 </r>
        <r>  0.0416  0.0688  0.0000  0.0000  0.0000  0.0000  0.0000  0.0000  0.0000 </r>
        <r>  0.0416  0.0688  0.0000  0.0000  0.0000  0.0000  0.0000  0.0000  0.0000 </r>
        <r>  0.0001  0.0403  0.0000  0.0270  0.0000  0.0000  0.0000  0.0000  0.0000 </r>
        <r>  0.0001  0.0403  0.0000  0.0270  0.0000  0.0000  0.0000  0.0000  0.0000 </r>
       </set>
       <set comment="band 9">
        <r>  0.0000  0.0000  0.0083  0.0000  0.0000  0.0000  0.0000  0.0000  0.0000 </r>
        <r>  0.0000  0.0000  0.0083  0.0000  0.0000  0.0000  0.0000  0.0000  0.0000 </r>
        <r>  0.0000  0.0000  0.0775  0.0000  0.0000  0.0000  0.0000  0.0000  0.0000 </r>
        <r>  0.0000  0.0000  0.0775  0.0000  0.0000  0.0000  0.0000  0.0000  0.0000 </r>
        <r>  0.0000  0.0000  0.0530  0.0000  0.0000  0.0000  0.0000  0.0000  0.0000 </r>
        <r>  0.0000  0.0000  0.0530  0.0000  0.0000  0.0000  0.0000  0.0000  0.0000 </r>
        <r>  0.0000  0.0000  0.0775  0.0000  0.0000  0.0000  0.0000  0.0000  0.0000 </r>
        <r>  0.0000  0.0000  0.0775  0.0000  0.0000  0.0000  0.0000  0.0000  0.0000 </r>
       </set>
       <set comment="band 10">
        <r>  0.1056  0.0234  0.0000  0.0000  0.0000  0.0000  0.0000  0.0000  0.0000 </r>
        <r>  0.1056  0.0234  0.0000  0.0000  0.0000  0.0000  0.0000  0.0000  0.0000 </r>
        <r>  0.0004  0.0876  0.0000  0.0027  0.0000  0.0000  0.0000  0.0000  0.0000 </r>
        <r>  0.0004  0.0876  0.0000  0.0027  0.0000  0.0000  0.0000  0.0000  0.0000 </r>
        <r>  0.0006  0.0644  0.0000  0.0000  0.0000  0.0000  0.0000  0.0000  0.0000 </r>
        <r>  0.0006  0.0644  0.0000  0.0000  0.0000  0.0000  0.0000  0.0000  0.0000 </r>
        <r>  0.0004  0.0875  0.0000  0.0027  0.0000  0.0000  0.0000  0.0000  0.0000 </r>
        <r>  0.0004  0.0875  0.0000  0.0027  0.0000  0.0000  0.0000  0.0000  0.0000 </r>
       </set>
       <set comment="band 11">
        <r>  0.0000  0.1431  0.0000  0.0000  0.0000  0.0000  0.0000  0.0000  0.0000 </r>
        <r>  0.0000  0.1430  0.0000  0.0000  0.0000  0.0000  0.0000  0.0000  0.0000 </r>
        <r>  0.0454  0.0022  0.0000  0.0023  0.0000  0.0000  0.0000  0.0000  0.0000 </r>
        <r>  0.0454  0.0022  0.0000  0.0023  0.0000  0.0000  0.0000  0.0000  0.0000 </r>
        <r>  0.0203  0.1056  0.0000  0.0000  0.0000  0.0000  0.0000  0.0000  0.0000 </r>
        <r>  0.0203  0.1056  0.0000  0.0000  0.0000  0.0000  0.0000  0.0000  0.0000 </r>
        <r>  0.0454  0.0022  0.0000  0.0023  0.0000  0.0000  0.0000  0.0000  0.0000 </r>
        <r>  0.0454  0.0022  0.0000  0.0023  0.0000  0.0000  0.0000  0.0000  0.0000 </r>
       </set>
       <set comment="band 12">
        <r>  0.0000  0.0000  0.0524  0.0000  0.0000  0.0000  0.0000  0.0000  0.0000 </r>
        <r>  0.0000  0.0000  0.0524  0.0000  0.0000  0.0000  0.0000  0.0000  0.0000 </r>
        <r>  0.0000  0.0000  0.0309  0.0000  0.0000  0.0000  0.0000  0.0000  0.0000 </r>
        <r>  0.0000  0.0000  0.0309  0.0000  0.0000  0.0000  0.0000  0.0000  0.0000 </r>
        <r>  0.0000  0.0000  0.0994  0.0000  0.0000  0.0000  0.0000  0.0000  0.0000 </r>
        <r>  0.0000  0.0000  0.0994  0.0000  0.0000  0.0000  0.0000  0.0000  0.0000 </r>
        <r>  0.0000  0.0000  0.0309  0.0000  0.0000  0.0000  0.0000  0.0000  0.0000 </r>
        <r>  0.0000  0.0000  0.0309  0.0000  0.0000  0.0000  0.0000  0.0000  0.0000 </r>
       </set>
       <set comment="band 13">
        <r>  0.0000  0.0000  0.0000  0.0867  0.0000  0.0000  0.0000  0.0000  0.0000 </r>
        <r>  0.0000  0.0000  0.0000  0.0867  0.0000  0.0000  0.0000  0.0000  0.0000 </r>
        <r>  0.0000  0.0037  0.0000  0.1179  0.0000  0.0000  0.0000  0.0000  0.0000 </r>
        <r>  0.0000  0.0037  0.0000  0.1179  0.0000  0.0000  0.0000  0.0000  0.0000 </r>
        <r>  0.0000  0.0000  0.0000  0.0488  0.0000  0.0000  0.0000  0.0000  0.0000 </r>
        <r>  0.0000  0.0000  0.0000  0.0488  0.0000  0.0000  0.0000  0.0000  0.0000 </r>
        <r>  0.0000  0.0037  0.0000  0.1179  0.0000  0.0000  0.0000  0.0000  0.0000 </r>
        <r>  0.0000  0.0037  0.0000  0.1179  0.0000  0.0000  0.0000  0.0000  0.0000 </r>
       </set>
       <set comment="band 14">
        <r>  0.0000  0.0000  0.0000  0.1394  0.0000  0.0000  0.0000  0.0000  0.0000 </r>
        <r>  0.0000  0.0000  0.0000  0.1394  0.0000  0.0000  0.0000  0.0000  0.0000 </r>
        <r>  0.0041  0.0005  0.0000  0.0790  0.0000  0.0000  0.0000  0.0000  0.0000 </r>
        <r>  0.0041  0.0005  0.0000  0.0790  0.0000  0.0000  0.0000  0.0000  0.0000 </r>
        <r>  0.0000  0.0000  0.0000  0.0880  0.0000  0.0000  0.0000  0.0000  0.0000 </r>
        <r>  0.0000  0.0000  0.0000  0.0880  0.0000  0.0000  0.0000  0.0000  0.0000 </r>
        <r>  0.0041  0.0005  0.0000  0.0790  0.0000  0.0000  0.0000  0.0000  0.0000 </r>
        <r>  0.0041  0.0005  0.0000  0.0790  0.0000  0.0000  0.0000  0.0000  0.0000 </r>
       </set>
       <set comment="band 15">
        <r>  0.0000  0.0000  0.0000  0.0000  0.0000  0.0000  0.0000  0.0000  0.0000 </r>
        <r>  0.0000  0.0000  0.0000  0.0000  0.0000  0.0000  0.0000  0.0000  0.0000 </r>
        <r>  0.0000  0.0000  0.1172  0.0000  0.0000  0.0000  0.0000  0.0000  0.0000 </r>
        <r>  0.0000  0.0000  0.1172  0.0000  0.0000  0.0000  0.0000  0.0000  0.0000 </r>
        <r>  0.0000  0.0000  0.0000  0.0000  0.0000  0.0000  0.0000  0.0000  0.0000 </r>
        <r>  0.0000  0.0000  0.0000  0.0000  0.0000  0.0000  0.0000  0.0000  0.0000 </r>
        <r>  0.0000  0.0000  0.1172  0.0000  0.0000  0.0000  0.0000  0.0000  0.0000 </r>
        <r>  0.0000  0.0000  0.1172  0.0000  0.0000  0.0000  0.0000  0.0000  0.0000 </r>
       </set>
       <set comment="band 16">
        <r>  0.0000  0.0000  0.1115  0.0000  0.0000  0.0000  0.0000  0.0000  0.0000 </r>
        <r>  0.0000  0.0000  0.1115  0.0000  0.0000  0.0000  0.0000  0.0000  0.0000 </r>
        <r>  0.0000  0.0000  0.0045  0.0000  0.0000  0.0000  0.0000  0.0000  0.0000 </r>
        <r>  0.0000  0.0000  0.0045  0.0000  0.0000  0.0000  0.0000  0.0000  0.0000 </r>
        <r>  0.0000  0.0000  0.1058  0.0000  0.0000  0.0000  0.0000  0.0000  0.0000 </r>
        <r>  0.0000  0.0000  0.1058  0.0000  0.0000  0.0000  0.0000  0.0000  0.0000 </r>
        <r>  0.0000  0.0000  0.0045  0.0000  0.0000  0.0000  0.0000  0.0000  0.0000 </r>
        <r>  0.0000  0.0000  0.0045  0.0000  0.0000  0.0000  0.0000  0.0000  0.0000 </r>
       </set>
       <set comment="band 17">
        <r>  0.0000  0.0000  0.0000  0.0000  0.0000  0.0000  0.0000  0.0000  0.0000 </r>
        <r>  0.0000  0.0000  0.0000  0.0000  0.0000  0.0000  0.0000  0.0000  0.0000 </r>
        <r>  0.0000  0.0000  0.1307  0.0000  0.0000  0.0000  0.0000  0.0000  0.0000 </r>
        <r>  0.0000  0.0000  0.1307  0.0000  0.0000  0.0000  0.0000  0.0000  0.0000 </r>
        <r>  0.0000  0.0000  0.0000  0.0000  0.0000  0.0000  0.0000  0.0000  0.0000 </r>
        <r>  0.0000  0.0000  0.0000  0.0000  0.0000  0.0000  0.0000  0.0000  0.0000 </r>
        <r>  0.0000  0.0000  0.1307  0.0000  0.0000  0.0000  0.0000  0.0000  0.0000 </r>
        <r>  0.0000  0.0000  0.1307  0.0000  0.0000  0.0000  0.0000  0.0000  0.0000 </r>
       </set>
       <set comment="band 18">
        <r>  0.0000  0.0000  0.1231  0.0000  0.0000  0.0000  0.0000  0.0000  0.0000 </r>
        <r>  0.0000  0.0000  0.1231  0.0000  0.0000  0.0000  0.0000  0.0000  0.0000 </r>
        <r>  0.0000  0.0000  0.0000  0.0000  0.0000  0.0000  0.0000  0.0000  0.0000 </r>
        <r>  0.0000  0.0000  0.0000  0.0000  0.0000  0.0000  0.0000  0.0000  0.0000 </r>
        <r>  0.0000  0.0000  0.1262  0.0000  0.0000  0.0000  0.0000  0.0000  0.0000 </r>
        <r>  0.0000  0.0000  0.1262  0.0000  0.0000  0.0000  0.0000  0.0000  0.0000 </r>
        <r>  0.0000  0.0000  0.0000  0.0000  0.0000  0.0000  0.0000  0.0000  0.0000 </r>
        <r>  0.0000  0.0000  0.0000  0.0000  0.0000  0.0000  0.0000  0.0000  0.0000 </r>
       </set>
       <set comment="band 19">
        <r>  0.0007  0.0004  0.0000  0.0000  0.0000  0.0000  0.0000  0.0000  0.0000 </r>
        <r>  0.0007  0.0004  0.0000  0.0000  0.0000  0.0000  0.0000  0.0000  0.0000 </r>
        <r>  0.0043  0.0000  0.0000  0.0001  0.0000  0.0000  0.0000  0.0000  0.0000 </r>
        <r>  0.0043  0.0000  0.0000  0.0001  0.0000  0.0000  0.0000  0.0000  0.0000 </r>
        <r>  0.0008  0.0007  0.0000  0.0000  0.0000  0.0000  0.0000  0.0000  0.0000 </r>
        <r>  0.0008  0.0007  0.0000  0.0000  0.0000  0.0000  0.0000  0.0000  0.0000 </r>
        <r>  0.0043  0.0000  0.0000  0.0001  0.0000  0.0000  0.0000  0.0000  0.0000 </r>
        <r>  0.0043  0.0000  0.0000  0.0001  0.0000  0.0000  0.0000  0.0000  0.0000 </r>
       </set>
       <set comment="band 20">
        <r>  0.0008  0.0002  0.0000  0.0000  0.0000  0.0000  0.0000  0.0000  0.0000 </r>
        <r>  0.0008  0.0002  0.0000  0.0000  0.0000  0.0000  0.0000  0.0000  0.0000 </r>
        <r>  0.0018  0.0021  0.0000  0.0003  0.0000  0.0000  0.0000  0.0000  0.0000 </r>
        <r>  0.0018  0.0021  0.0000  0.0003  0.0000  0.0000  0.0000  0.0000  0.0000 </r>
        <r>  0.0021  0.0022  0.0000  0.0000  0.0000  0.0000  0.0000  0.0000  0.0000 </r>
        <r>  0.0021  0.0022  0.0000  0.0000  0.0000  0.0000  0.0000  0.0000  0.0000 </r>
        <r>  0.0019  0.0021  0.0000  0.0003  0.0000  0.0000  0.0000  0.0000  0.0000 </r>
        <r>  0.0019  0.0021  0.0000  0.0003  0.0000  0.0000  0.0000  0.0000  0.0000 </r>
       </set>
       <set comment="band 21">
        <r>  0.0000  0.0000  0.0008  0.0000  0.0000  0.0000  0.0000  0.0000  0.0000 </r>
        <r>  0.0000  0.0000  0.0008  0.0000  0.0000  0.0000  0.0000  0.0000  0.0000 </r>
        <r>  0.0000  0.0000  0.0062  0.0000  0.0000  0.0000  0.0000  0.0000  0.0000 </r>
        <r>  0.0000  0.0000  0.0062  0.0000  0.0000  0.0000  0.0000  0.0000  0.0000 </r>
        <r>  0.0000  0.0000  0.0001  0.0000  0.0000  0.0000  0.0000  0.0000  0.0000 </r>
        <r>  0.0000  0.0000  0.0001  0.0000  0.0000  0.0000  0.0000  0.0000  0.0000 </r>
        <r>  0.0000  0.0000  0.0062  0.0000  0.0000  0.0000  0.0000  0.0000  0.0000 </r>
        <r>  0.0000  0.0000  0.0062  0.0000  0.0000  0.0000  0.0000  0.0000  0.0000 </r>
       </set>
       <set comment="band 22">
        <r>  0.0000  0.0000  0.0106  0.0000  0.0000  0.0000  0.0000  0.0000  0.0000 </r>
        <r>  0.0000  0.0000  0.0106  0.0000  0.0000  0.0000  0.0000  0.0000  0.0000 </r>
        <r>  0.0000  0.0000  0.0099  0.0000  0.0000  0.0000  0.0000  0.0000  0.0000 </r>
        <r>  0.0000  0.0000  0.0099  0.0000  0.0000  0.0000  0.0000  0.0000  0.0000 </r>
        <r>  0.0000  0.0000  0.0011  0.0000  0.0000  0.0000  0.0000  0.0000  0.0000 </r>
        <r>  0.0000  0.0000  0.0011  0.0000  0.0000  0.0000  0.0000  0.0000  0.0000 </r>
        <r>  0.0000  0.0000  0.0099  0.0000  0.0000  0.0000  0.0000  0.0000  0.0000 </r>
        <r>  0.0000  0.0000  0.0099  0.0000  0.0000  0.0000  0.0000  0.0000  0.0000 </r>
       </set>
       <set comment="band 23">
        <r>  0.0000  0.0000  0.0000  0.0000  0.0000  0.0000  0.0000  0.0000  0.0000 </r>
        <r>  0.0000  0.0000  0.0000  0.0000  0.0000  0.0000  0.0000  0.0000  0.0000 </r>
        <r>  0.0003  0.0003  0.0000  0.0000  0.0000  0.0000  0.0000  0.0000  0.0000 </r>
        <r>  0.0003  0.0003  0.0000  0.0000  0.0000  0.0000  0.0000  0.0000  0.0000 </r>
        <r>  0.0002  0.0003  0.0000  0.0000  0.0000  0.0000  0.0000  0.0000  0.0000 </r>
        <r>  0.0002  0.0003  0.0000  0.0000  0.0000  0.0000  0.0000  0.0000  0.0000 </r>
        <r>  0.0003  0.0003  0.0000  0.0000  0.0000  0.0000  0.0000  0.0000  0.0000 </r>
        <r>  0.0003  0.0003  0.0000  0.0000  0.0000  0.0000  0.0000  0.0000  0.0000 </r>
       </set>
       <set comment="band 24">
        <r>  0.0000  0.0000  0.0000  0.0000  0.0000  0.0000  0.0000  0.0000  0.0000 </r>
        <r>  0.0000  0.0000  0.0000  0.0000  0.0000  0.0000  0.0000  0.0000  0.0000 </r>
        <r>  0.0006  0.0000  0.0000  0.0000  0.0000  0.0000  0.0000  0.0000  0.0000 </r>
        <r>  0.0006  0.0000  0.0000  0.0000  0.0000  0.0000  0.0000  0.0000  0.0000 </r>
        <r>  0.0001  0.0001  0.0000  0.0000  0.0000  0.0000  0.0000  0.0000  0.0000 </r>
        <r>  0.0001  0.0001  0.0000  0.0000  0.0000  0.0000  0.0000  0.0000  0.0000 </r>
        <r>  0.0005  0.0000  0.0000  0.0000  0.0000  0.0000  0.0000  0.0000  0.0000 </r>
        <r>  0.0005  0.0000  0.0000  0.0000  0.0000  0.0000  0.0000  0.0000  0.0000 </r>
       </set>
      </set>
     </set>
    </set>
   </array>
  </projected>
 </calculation>
 <structure name="finalpos" >
  <crystal>
   <varray name="basis" >
    <v>       5.17400000       0.00000000       0.00000000 </v>
    <v>       2.58700000       4.48100000       0.00000000 </v>
    <v>       0.00000000       0.00000000      20.00000000 </v>
   </varray>
   <i name="volume">    463.69388000 </i>
   <varray name="rec_basis" >
    <v>       0.19327406      -0.11158224       0.00000000 </v>
    <v>       0.00000000       0.22316447       0.00000000 </v>
    <v>       0.00000000       0.00000000       0.05000000 </v>
   </varray>
  </crystal>
  <varray name="positions" >
   <v>       0.17457326       0.17462620       0.00000000 </v>
   <v>       0.50792519       0.50792234       0.00000000 </v>
   <v>       0.00000000       0.00000000       0.00000000 </v>
   <v>       0.52377271       0.00000000       0.00000000 </v>
   <v>       0.68255138       0.15866994       0.00000000 </v>
   <v>       0.99994706       0.52387860       0.00000000 </v>
   <v>       0.15872573       0.68254854       0.00000000 </v>
   <v>       0.68249844       0.68254854       0.00000000 </v>
  </varray>
 </structure>
</modeling>
