<?xml version="1.0" encoding="ISO-8859-1"?>
<modeling>
 <generator>
  <i name="program" type="string">vasp </i>
  <i name="version" type="string">5.4.4.18Apr17-6-g9f103f2a35  </i>
  <i name="subversion" type="string">(build Mar 30 2023 15:39:25) complex            parallel </i>
  <i name="platform" type="string">LinuxIFC </i>
  <i name="date" type="string">2023 05 18 </i>
  <i name="time" type="string">22:38:23 </i>
 </generator>
 <incar>
  <i type="string" name="SYSTEM"> BC3 bandstructure</i>
  <i type="int" name="ISTART">     0</i>
  <i type="string" name="PREC">accurate</i>
  <i type="int" name="ICHARG">     2</i>
  <i type="int" name="IBRION">     2</i>
  <i name="EDIFF">      0.00000100</i>
  <i name="EDIFFG">     -0.00000100</i>
  <i type="int" name="NSW">    40</i>
  <i name="ENCUT">    400.00000000</i>
  <i type="int" name="ISMEAR">    -5</i>
  <i name="SIGMA">      0.20000000</i>
  <i type="int" name="LORBIT">    11</i>
  <v type="int" name="KPOINT_BSE">    -1     0     0     0</v>
 </incar>
 <structure name="primitive_cell" >
  <crystal>
   <varray name="basis" >
    <v>       5.17400000       0.00000000       0.00000000 </v>
    <v>       2.58700000       4.48100000       0.00000000 </v>
    <v>       0.00000000       0.00000000      20.00000000 </v>
   </varray>
   <i name="volume">    463.69388000 </i>
   <varray name="rec_basis" >
    <v>       0.19327406      -0.11158224       0.00000000 </v>
    <v>       0.00000000       0.22316447       0.00000000 </v>
    <v>       0.00000000       0.00000000       0.05000000 </v>
   </varray>
  </crystal>
  <varray name="positions" >
   <v>       0.17457326       0.17462620       0.00000000 </v>
   <v>       0.00000000       0.00000000       0.00000000 </v>
   <v>      -0.47622729       0.00000000       0.00000000 </v>
   <v>      -0.00005294      -0.47612140       0.00000000 </v>
   <v>      -0.31744862       0.15866994       0.00000000 </v>
   <v>      -0.31750156      -0.31745146       0.00000000 </v>
   <v>       0.15872573      -0.31745146       0.00000000 </v>
   <v>      -0.49207481      -0.49207766       0.00000000 </v>
  </varray>
 </structure>
 <varray name="primitive_index" >
  <v type="int" >        1 </v>
  <v type="int" >        3 </v>
  <v type="int" >        4 </v>
  <v type="int" >        6 </v>
  <v type="int" >        5 </v>
  <v type="int" >        8 </v>
  <v type="int" >        7 </v>
  <v type="int" >        2 </v>
 </varray>
 <kpoints>
  <generation param="Gamma">
   <v type="int" name="divisions">       4        4        1 </v>
   <v name="usershift">      0.00000000       0.00000000       0.00000000 </v>
   <v name="genvec1">      0.25000000       0.00000000       0.00000000 </v>
   <v name="genvec2">      0.00000000       0.25000000       0.00000000 </v>
   <v name="genvec3">      0.00000000       0.00000000       1.00000000 </v>
   <v name="shift">      0.00000000       0.00000000       0.00000000 </v>
  </generation>
  <varray name="kpointlist" >
   <v>       0.00000000       0.00000000       0.00000000 </v>
   <v>       0.25000000      -0.00000000       0.00000000 </v>
   <v>       0.50000000      -0.00000000       0.00000000 </v>
   <v>       0.00000000       0.25000000       0.00000000 </v>
   <v>       0.50000000       0.25000000       0.00000000 </v>
   <v>      -0.25000000       0.25000000       0.00000000 </v>
   <v>       0.00000000       0.50000000       0.00000000 </v>
  </varray>
  <varray name="weights" >
   <v>       0.06250000 </v>
   <v>       0.25000000 </v>
   <v>       0.12500000 </v>
   <v>       0.12500000 </v>
   <v>       0.12500000 </v>
   <v>       0.25000000 </v>
   <v>       0.06250000 </v>
  </varray>
  <varray name="tetrahedronlist"  type="int" >
   <v type="int" >        2        1        1        2        2 </v>
   <v type="int" >        4        1        1        2        4 </v>
   <v type="int" >        4        1        2        4        4 </v>
   <v type="int" >        4        1        2        2        2 </v>
   <v type="int" >        4        1        2        2        4 </v>
   <v type="int" >        4        2        2        3        5 </v>
   <v type="int" >        4        2        2        2        5 </v>
   <v type="int" >        4        2        3        3        5 </v>
   <v type="int" >        4        2        3        5        5 </v>
   <v type="int" >        2        2        2        5        5 </v>
   <v type="int" >        4        2        3        3        6 </v>
   <v type="int" >        4        3        3        5        6 </v>
   <v type="int" >        4        3        5        5        6 </v>
   <v type="int" >        4        2        2        3        6 </v>
   <v type="int" >        4        2        3        6        6 </v>
   <v type="int" >        4        3        5        6        6 </v>
   <v type="int" >        4        2        2        4        6 </v>
   <v type="int" >        4        2        4        6        6 </v>
   <v type="int" >        4        2        4        4        6 </v>
   <v type="int" >        4        4        4        6        7 </v>
   <v type="int" >        4        4        6        7        7 </v>
   <v type="int" >        4        4        6        6        7 </v>
   <v type="int" >        2        5        5        6        6 </v>
   <v type="int" >        4        5        6        6        6 </v>
   <v type="int" >        4        6        6        6        7 </v>
   <v type="int" >        2        6        6        7        7 </v>
  </varray>
  <i name="volumeweight">      0.01041667 </i>
 </kpoints>
 <parameters>
  <separator name="general" >
   <i type="string" name="SYSTEM">BC3 bandstructure</i>
   <i type="logical" name="LCOMPAT"> F  </i>
  </separator>
  <separator name="electronic" >
   <i type="string" name="PREC">accura</i>
   <i name="ENMAX">    400.00000000</i>
   <i name="ENAUG">    644.87300000</i>
   <i name="EDIFF">      0.00000100</i>
   <i type="int" name="IALGO">    38</i>
   <i type="int" name="IWAVPR">    11</i>
   <i type="int" name="NBANDS">    24</i>
   <i name="NELECT">     30.00000000</i>
   <i type="int" name="TURBO">     0</i>
   <i type="int" name="IRESTART">     0</i>
   <i type="int" name="NREBOOT">     0</i>
   <i type="int" name="NMIN">     0</i>
   <i name="EREF">      0.00000000</i>
   <separator name="electronic smearing" >
    <i type="int" name="ISMEAR">    -5</i>
    <i name="SIGMA">      0.20000000</i>
    <i name="KSPACING">      0.50000000</i>
    <i type="logical" name="KGAMMA"> T  </i>
   </separator>
   <separator name="electronic projectors" >
    <i type="logical" name="LREAL"> F  </i>
    <v name="ROPT">      0.00000000      0.00000000</v>
    <i type="int" name="LMAXPAW">  -100</i>
    <i type="int" name="LMAXMIX">     2</i>
    <i type="logical" name="NLSPLINE"> F  </i>
   </separator>
   <separator name="electronic startup" >
    <i type="int" name="ISTART">     0</i>
    <i type="int" name="ICHARG">     2</i>
    <i type="int" name="INIWAV">     1</i>
   </separator>
   <separator name="electronic spin" >
    <i type="int" name="ISPIN">     1</i>
    <i type="logical" name="LNONCOLLINEAR"> F  </i>
    <v name="MAGMOM">      1.00000000      1.00000000      1.00000000      1.00000000      1.00000000      1.00000000      1.00000000      1.00000000</v>
    <i name="NUPDOWN">     -1.00000000</i>
    <i type="logical" name="LSORBIT"> F  </i>
    <v name="SAXIS">      0.00000000      0.00000000      1.00000000</v>
    <i type="logical" name="LSPIRAL"> F  </i>
    <v name="QSPIRAL">      0.00000000      0.00000000      0.00000000</v>
    <i type="logical" name="LZEROZ"> F  </i>
   </separator>
   <separator name="electronic exchange-correlation" >
    <i type="logical" name="LASPH"> F  </i>
    <i type="logical" name="LMETAGGA"> F  </i>
   </separator>
   <separator name="electronic convergence" >
    <i type="int" name="NELM">    60</i>
    <i type="int" name="NELMDL">    -5</i>
    <i type="int" name="NELMIN">     2</i>
    <i name="ENINI">    400.00000000</i>
    <separator name="electronic convergence detail" >
     <i type="logical" name="LDIAG"> T  </i>
     <i type="logical" name="LSUBROT"> F  </i>
     <i name="WEIMIN">      0.00100000</i>
     <i name="EBREAK">      0.00000000</i>
     <i name="DEPER">      0.30000000</i>
     <i type="int" name="NRMM">     4</i>
     <i name="TIME">      0.40000000</i>
    </separator>
   </separator>
   <separator name="electronic mixer" >
    <i name="AMIX">      0.40000000</i>
    <i name="BMIX">      1.00000000</i>
    <i name="AMIN">      0.10000000</i>
    <i name="AMIX_MAG">      1.60000000</i>
    <i name="BMIX_MAG">      1.00000000</i>
    <separator name="electronic mixer details" >
     <i type="int" name="IMIX">     4</i>
     <i type="logical" name="MIXFIRST"> F  </i>
     <i type="int" name="MAXMIX">   -45</i>
     <i name="WC">    100.00000000</i>
     <i type="int" name="INIMIX">     1</i>
     <i type="int" name="MIXPRE">     1</i>
     <i type="int" name="MREMOVE">     5</i>
    </separator>
   </separator>
   <separator name="electronic dipolcorrection" >
    <i type="logical" name="LDIPOL"> F  </i>
    <i type="logical" name="LMONO"> F  </i>
    <i type="int" name="IDIPOL">     0</i>
    <i name="EPSILON">      1.00000000</i>
    <v name="DIPOL">   -100.00000000   -100.00000000   -100.00000000</v>
    <i name="EFIELD">      0.00000000</i>
   </separator>
  </separator>
  <separator name="grids" >
   <i type="int" name="NGX">    36</i>
   <i type="int" name="NGY">    36</i>
   <i type="int" name="NGZ">   140</i>
   <i type="int" name="NGXF">    72</i>
   <i type="int" name="NGYF">    72</i>
   <i type="int" name="NGZF">   280</i>
   <i type="logical" name="ADDGRID"> F  </i>
  </separator>
  <separator name="ionic" >
   <i type="int" name="NSW">    40</i>
   <i type="int" name="IBRION">     2</i>
   <i type="int" name="MDALGO">     0</i>
   <i type="int" name="ISIF">     2</i>
   <i name="PSTRESS">      0.00000000</i>
   <i name="EDIFFG">     -0.00000100</i>
   <i type="int" name="NFREE">     1</i>
   <i name="POTIM">      0.50000000</i>
   <i name="SMASS">     -3.00000000</i>
   <i name="SCALEE">      1.00000000</i>
  </separator>
  <separator name="ionic md" >
   <i name="TEBEG">      0.00010000</i>
   <i name="TEEND">      0.00010000</i>
   <i type="int" name="NBLOCK">     1</i>
   <i type="int" name="KBLOCK">    40</i>
   <i type="int" name="NPACO">   256</i>
   <i name="APACO">     16.00000000</i>
  </separator>
  <separator name="symmetry" >
   <i type="int" name="ISYM">     2</i>
   <i name="SYMPREC">      0.00001000</i>
  </separator>
  <separator name="dos" >
   <i type="int" name="LORBIT">    11</i>
   <v name="RWIGS">     -1.00000000     -1.00000000</v>
   <i type="int" name="NEDOS">   301</i>
   <i name="EMIN">     10.00000000</i>
   <i name="EMAX">    -10.00000000</i>
   <i name="EFERMI">      0.00000000</i>
  </separator>
  <separator name="writing" >
   <i type="int" name="NWRITE">     2</i>
   <i type="logical" name="LWAVE"> T  </i>
   <i type="logical" name="LDOWNSAMPLE"> F  </i>
   <i type="logical" name="LCHARG"> T  </i>
   <i type="logical" name="LPARD"> F  </i>
   <i type="logical" name="LVTOT"> F  </i>
   <i type="logical" name="LVHAR"> F  </i>
   <i type="logical" name="LELF"> F  </i>
   <i type="logical" name="LOPTICS"> F  </i>
   <v name="STM">      0.00000000      0.00000000      0.00000000      0.00000000      0.00000000      0.00000000      0.00000000</v>
  </separator>
  <separator name="performance" >
   <i type="int" name="NPAR">    12</i>
   <i type="int" name="NSIM">     4</i>
   <i type="int" name="NBLK">    -1</i>
   <i type="logical" name="LPLANE"> T  </i>
   <i type="logical" name="LSCALAPACK"> T  </i>
   <i type="logical" name="LSCAAWARE"> F  </i>
   <i type="logical" name="LSCALU"> F  </i>
   <i type="logical" name="LASYNC"> F  </i>
   <i type="logical" name="LORBITALREAL"> F  </i>
  </separator>
  <separator name="miscellaneous" >
   <i type="int" name="IDIOT">     3</i>
   <i type="int" name="ISPECIAL">     0</i>
   <i type="logical" name="LMUSIC"> F  </i>
   <v name="POMASS">     10.81100000     12.01100000</v>
   <v name="DARWINR">      0.00000000      0.00000000</v>
   <v name="DARWINV">      1.00000000      1.00000000</v>
   <i type="logical" name="LCORR"> T  </i>
  </separator>
  <i type="logical" name="GGA_COMPAT"> T  </i>
  <i type="logical" name="LBERRY"> F  </i>
  <i type="int" name="ICORELEVEL">     0</i>
  <i type="logical" name="LDAU"> F  </i>
  <i type="int" name="I_CONSTRAINED_M">     0</i>
  <separator name="electronic exchange-correlation" >
   <i type="string" name="GGA">--</i>
   <i type="int" name="VOSKOWN">     0</i>
   <i type="logical" name="LHFCALC"> F  </i>
   <i type="string" name="PRECFOCK"></i>
   <i type="logical" name="LSYMGRAD"> F  </i>
   <i type="logical" name="LHFONE"> F  </i>
   <i type="logical" name="LRHFCALC"> F  </i>
   <i type="logical" name="LTHOMAS"> F  </i>
   <i type="logical" name="LMODELHF"> F  </i>
   <i name="ENCUT4O">     -1.00000000</i>
   <i type="int" name="EXXOEP">     0</i>
   <i type="int" name="FOURORBIT">     0</i>
   <i name="AEXX">      0.00000000</i>
   <i name="HFALPHA">      0.00000000</i>
   <i name="MCALPHA">      0.00000000</i>
   <i name="ALDAX">      1.00000000</i>
   <i name="AGGAX">      1.00000000</i>
   <i name="ALDAC">      1.00000000</i>
   <i name="AGGAC">      1.00000000</i>
   <i type="int" name="NKREDX">     1</i>
   <i type="int" name="NKREDY">     1</i>
   <i type="int" name="NKREDZ">     1</i>
   <i type="logical" name="SHIFTRED"> F  </i>
   <i type="logical" name="ODDONLY"> F  </i>
   <i type="logical" name="EVENONLY"> F  </i>
   <i type="int" name="LMAXFOCK">     0</i>
   <i type="int" name="NMAXFOCKAE">     0</i>
   <i type="logical" name="LFOCKAEDFT"> F  </i>
   <i name="HFSCREEN">      0.00000000</i>
   <i name="HFSCREENC">      0.00000000</i>
   <i type="int" name="NBANDSGWLOW">     0</i>
  </separator>
  <separator name="vdW DFT" >
   <i type="logical" name="LUSE_VDW"> F  </i>
   <i name="Zab_VDW">     -0.84910000</i>
   <i name="PARAM1">      0.12340000</i>
   <i name="PARAM2">      1.00000000</i>
   <i name="PARAM3">      0.00000000</i>
  </separator>
  <separator name="model GW" >
   <i type="int" name="MODEL_GW">     0</i>
   <i name="MODEL_EPS0">     34.77704100</i>
   <i name="MODEL_ALPHA">      1.00000000</i>
  </separator>
  <separator name="linear response parameters" >
   <i type="logical" name="LEPSILON"> F  </i>
   <i type="logical" name="LRPA"> F  </i>
   <i type="logical" name="LNABLA"> F  </i>
   <i type="logical" name="LVEL"> F  </i>
   <i type="int" name="KINTER">     0</i>
   <i name="CSHIFT">      0.10000000</i>
   <i name="OMEGAMAX">     -1.00000000</i>
   <i name="DEG_THRESHOLD">      0.00200000</i>
   <i name="RTIME">     -0.10000000</i>
   <i name="WPLASMAI">      0.00000000</i>
   <v name="DFIELD">      0.00000000      0.00000000      0.00000000</v>
   <v name="WPLASMA">      0.00000000      0.00000000      0.00000000      0.00000000      0.00000000      0.00000000      0.00000000      0.00000000      0.00000000</v>
  </separator>
  <separator name="orbital magnetization" >
   <i type="logical" name="NUCIND"> F  </i>
   <v name="MAGPOS">      0.00000000      0.00000000      0.00000000</v>
   <i type="logical" name="LNICSALL"> T  </i>
   <i type="logical" name="ORBITALMAG"> F  </i>
   <i type="logical" name="LMAGBLOCH"> F  </i>
   <i type="logical" name="LCHIMAG"> F  </i>
   <i type="logical" name="LGAUGE"> T  </i>
   <i type="int" name="MAGATOM">     0</i>
   <v name="MAGDIPOL">      0.00000000      0.00000000      0.00000000</v>
   <v name="AVECCONST">      0.00000000      0.00000000      0.00000000</v>
  </separator>
  <separator name="response functions" >
   <i type="logical" name="LADDER"> F  </i>
   <i type="logical" name="LRPAFORCE"> F  </i>
   <i type="logical" name="LFXC"> F  </i>
   <i type="logical" name="LHARTREE"> T  </i>
   <i type="int" name="IBSE">     0</i>
   <v type="int" name="KPOINT">    -1     0     0     0</v>
   <i type="logical" name="LTCTE"> F  </i>
   <i type="logical" name="LTETE"> F  </i>
   <i type="logical" name="LTRIPLET"> F  </i>
   <i type="logical" name="LFXCEPS"> F  </i>
   <i type="logical" name="LFXHEG"> F  </i>
   <i type="int" name="NATURALO">     2</i>
   <i type="logical" name="L2ORDER"> F  </i>
   <i type="logical" name="LMP2LT"> F  </i>
   <i type="logical" name="LUSEW"> F  </i>
   <i name="ENCUTGW">     -2.00000000</i>
   <i name="ENCUTGWSOFT">     -2.00000000</i>
   <i name="ENCUTLF">     -1.00000000</i>
   <i type="int" name="LMAXMP2">    -1</i>
   <i name="SCISSOR">      0.00000000</i>
   <i type="int" name="NOMEGA">     0</i>
   <i type="int" name="NOMEGAR">     0</i>
   <i type="int" name="NBANDSGW">    -1</i>
   <i type="int" name="NBANDSO">    -1</i>
   <i type="int" name="NBANDSV">    -1</i>
   <i type="int" name="NELM">     1</i>
   <i type="int" name="NELMHF">     1</i>
   <i type="int" name="DIM">     3</i>
   <i type="int" name="ANTIRES">     0</i>
   <i name="OMEGAMAX">    -30.00000000</i>
   <i name="OMEGAMIN">    -30.00000000</i>
   <i name="OMEGATL">   -200.00000000</i>
   <i type="int" name="OMEGAGRID">   140</i>
   <i name="CSHIFT">     -0.10000000</i>
   <i type="logical" name="SELFENERGY"> F  </i>
   <i type="logical" name="LSPECTRAL"> F  </i>
   <i type="logical" name="LSPECTRALGW"> F  </i>
   <i type="logical" name="LSINGLES"> F  </i>
   <i type="logical" name="LFERMIGW"> F  </i>
   <i type="logical" name="ODDONLYGW"> F  </i>
   <i type="logical" name="EVENONLYGW"> F  </i>
   <i type="int" name="NKREDLFX">     1</i>
   <i type="int" name="NKREDLFY">     1</i>
   <i type="int" name="NKREDLFZ">     1</i>
   <i type="int" name="MAXMEM">  2800</i>
   <i type="int" name="TELESCOPE">     0</i>
   <i type="int" name="TAUPAR">     1</i>
   <i type="int" name="OMEGAPAR">    -1</i>
   <i name="LAMBDA">      1.00000000</i>
  </separator>
  <separator name="External order field" >
   <i name="OFIELD_KAPPA">      0.00000000</i>
   <v name="OFIELD_K">      0.00000000      0.00000000      0.00000000</v>
   <i name="OFIELD_Q6_NEAR">      0.00000000</i>
   <i name="OFIELD_Q6_FAR">      0.00000000</i>
   <i name="OFIELD_A">      0.00000000</i>
  </separator>
 </parameters>
 <atominfo>
  <atoms>       8 </atoms>
  <types>       2 </types>
  <array name="atoms" >
   <dimension dim="1">ion</dimension>
   <field type="string">element</field>
   <field type="int">atomtype</field>
   <set>
    <rc><c>B </c><c>   1</c></rc>
    <rc><c>B </c><c>   1</c></rc>
    <rc><c>C </c><c>   2</c></rc>
    <rc><c>C </c><c>   2</c></rc>
    <rc><c>C </c><c>   2</c></rc>
    <rc><c>C </c><c>   2</c></rc>
    <rc><c>C </c><c>   2</c></rc>
    <rc><c>C </c><c>   2</c></rc>
   </set>
  </array>
  <array name="atomtypes" >
   <dimension dim="1">type</dimension>
   <field type="int">atomspertype</field>
   <field type="string">element</field>
   <field>mass</field>
   <field>valence</field>
   <field type="string">pseudopotential</field>
   <set>
    <rc><c>   2</c><c>B </c><c>     10.81100000</c><c>      3.00000000</c><c>  PAW_PBE B 06Sep2000                   </c></rc>
    <rc><c>   6</c><c>C </c><c>     12.01100000</c><c>      4.00000000</c><c>  PAW_PBE C 08Apr2002                   </c></rc>
   </set>
  </array>
 </atominfo>
 <structure name="initialpos" >
  <crystal>
   <varray name="basis" >
    <v>       5.17400000       0.00000000       0.00000000 </v>
    <v>       2.58700000       4.48100000       0.00000000 </v>
    <v>       0.00000000       0.00000000      20.00000000 </v>
   </varray>
   <i name="volume">    463.69388000 </i>
   <varray name="rec_basis" >
    <v>       0.19327406      -0.11158224       0.00000000 </v>
    <v>       0.00000000       0.22316447       0.00000000 </v>
    <v>       0.00000000       0.00000000       0.05000000 </v>
   </varray>
  </crystal>
  <varray name="positions" >
   <v>       0.17457326       0.17462620       0.00000000 </v>
   <v>       0.50792519       0.50792234       0.00000000 </v>
   <v>       0.00000000       0.00000000       0.00000000 </v>
   <v>       0.52377271       0.00000000       0.00000000 </v>
   <v>       0.68255138       0.15866994       0.00000000 </v>
   <v>       0.99994706       0.52387860       0.00000000 </v>
   <v>       0.15872573       0.68254854       0.00000000 </v>
   <v>       0.68249844       0.68254854       0.00000000 </v>
  </varray>
 </structure>
 <calculation>
  <scstep>
   <time name="dav">    1.09    1.09</time>
   <time name="total">    1.25    1.25</time>
   <energy>
    <i name="alphaZ">     10.93933817 </i>
    <i name="ewald">   4060.05404224 </i>
    <i name="hartreedc">  -4796.78910906 </i>
    <i name="XCdc">     91.14028263 </i>
    <i name="pawpsdc">    738.13200929 </i>
    <i name="pawaedc">   -739.83780425 </i>
    <i name="eentropy">      0.00000000 </i>
    <i name="bandstr">   -207.64699817 </i>
    <i name="atom">   1025.09994095 </i>
    <i name="e_fr_energy">    181.09170180 </i>
    <i name="e_wo_entrp">    181.09170180 </i>
    <i name="e_0_energy">    181.09170180 </i>
   </energy>
  </scstep>
  <scstep>
   <time name="dav">    1.29    1.29</time>
   <time name="total">    1.29    1.29</time>
   <energy>
    <i name="e_fr_energy">    -42.76057825 </i>
    <i name="e_wo_entrp">    -42.76057825 </i>
    <i name="e_0_energy">    -42.76057825 </i>
   </energy>
  </scstep>
  <scstep>
   <time name="dav">    1.19    1.19</time>
   <time name="total">    1.19    1.19</time>
   <energy>
    <i name="e_fr_energy">    -72.65291784 </i>
    <i name="e_wo_entrp">    -72.65291784 </i>
    <i name="e_0_energy">    -72.65291784 </i>
   </energy>
  </scstep>
  <scstep>
   <time name="dav">    1.31    1.31</time>
   <time name="total">    1.31    1.31</time>
   <energy>
    <i name="e_fr_energy">    -73.40167917 </i>
    <i name="e_wo_entrp">    -73.40167917 </i>
    <i name="e_0_energy">    -73.40167917 </i>
   </energy>
  </scstep>
  <scstep>
   <time name="dav">    1.21    1.21</time>
   <time name="total">    1.34    1.34</time>
   <energy>
    <i name="e_fr_energy">    -73.42173798 </i>
    <i name="e_wo_entrp">    -73.42173798 </i>
    <i name="e_0_energy">    -73.42173798 </i>
   </energy>
  </scstep>
  <scstep>
   <time name="dav">    1.34    1.34</time>
   <time name="total">    1.61    1.61</time>
   <energy>
    <i name="e_fr_energy">    -68.98161849 </i>
    <i name="e_wo_entrp">    -68.98161849 </i>
    <i name="e_0_energy">    -68.98161849 </i>
   </energy>
  </scstep>
  <scstep>
   <time name="dav">    1.33    1.33</time>
   <time name="total">    1.60    1.60</time>
   <energy>
    <i name="e_fr_energy">    -67.33462238 </i>
    <i name="e_wo_entrp">    -67.33462238 </i>
    <i name="e_0_energy">    -67.33462238 </i>
   </energy>
  </scstep>
  <scstep>
   <time name="dav">    1.16    1.16</time>
   <time name="total">    1.42    1.42</time>
   <energy>
    <i name="e_fr_energy">    -67.25838863 </i>
    <i name="e_wo_entrp">    -67.25838863 </i>
    <i name="e_0_energy">    -67.25838863 </i>
   </energy>
  </scstep>
  <scstep>
   <time name="dav">    1.21    1.21</time>
   <time name="total">    1.48    1.48</time>
   <energy>
    <i name="e_fr_energy">    -67.24095436 </i>
    <i name="e_wo_entrp">    -67.24095436 </i>
    <i name="e_0_energy">    -67.24095436 </i>
   </energy>
  </scstep>
  <scstep>
   <time name="dav">    1.16    1.16</time>
   <time name="total">    1.43    1.43</time>
   <energy>
    <i name="e_fr_energy">    -67.22984358 </i>
    <i name="e_wo_entrp">    -67.22984358 </i>
    <i name="e_0_energy">    -67.22984358 </i>
   </energy>
  </scstep>
  <scstep>
   <time name="dav">    1.10    1.10</time>
   <time name="total">    1.38    1.38</time>
   <energy>
    <i name="e_fr_energy">    -67.22867956 </i>
    <i name="e_wo_entrp">    -67.22867956 </i>
    <i name="e_0_energy">    -67.22867956 </i>
   </energy>
  </scstep>
  <scstep>
   <time name="dav">    1.05    1.05</time>
   <time name="total">    1.32    1.32</time>
   <energy>
    <i name="e_fr_energy">    -67.22899769 </i>
    <i name="e_wo_entrp">    -67.22899769 </i>
    <i name="e_0_energy">    -67.22899769 </i>
   </energy>
  </scstep>
  <scstep>
   <time name="dav">    1.00    1.00</time>
   <time name="total">    1.27    1.27</time>
   <energy>
    <i name="e_fr_energy">    -67.23289029 </i>
    <i name="e_wo_entrp">    -67.23289029 </i>
    <i name="e_0_energy">    -67.23289029 </i>
   </energy>
  </scstep>
  <scstep>
   <time name="dav">    1.10    1.10</time>
   <time name="total">    1.37    1.37</time>
   <energy>
    <i name="e_fr_energy">    -67.23559725 </i>
    <i name="e_wo_entrp">    -67.23559725 </i>
    <i name="e_0_energy">    -67.23559725 </i>
   </energy>
  </scstep>
  <scstep>
   <time name="dav">    1.05    1.05</time>
   <time name="total">    1.32    1.32</time>
   <energy>
    <i name="e_fr_energy">    -67.23636731 </i>
    <i name="e_wo_entrp">    -67.23636731 </i>
    <i name="e_0_energy">    -67.23636731 </i>
   </energy>
  </scstep>
  <scstep>
   <time name="dav">    1.05    1.05</time>
   <time name="total">    1.32    1.32</time>
   <energy>
    <i name="e_fr_energy">    -67.23666566 </i>
    <i name="e_wo_entrp">    -67.23666566 </i>
    <i name="e_0_energy">    -67.23666566 </i>
   </energy>
  </scstep>
  <scstep>
   <time name="dav">    1.15    1.15</time>
   <time name="total">    1.42    1.42</time>
   <energy>
    <i name="e_fr_energy">    -67.23674234 </i>
    <i name="e_wo_entrp">    -67.23674234 </i>
    <i name="e_0_energy">    -67.23674234 </i>
   </energy>
  </scstep>
  <scstep>
   <time name="dav">    1.20    1.20</time>
   <time name="total">    1.47    1.47</time>
   <energy>
    <i name="e_fr_energy">    -67.23676945 </i>
    <i name="e_wo_entrp">    -67.23676945 </i>
    <i name="e_0_energy">    -67.23676945 </i>
   </energy>
  </scstep>
  <scstep>
   <time name="dav">    1.05    1.05</time>
   <time name="total">    1.32    1.32</time>
   <energy>
    <i name="e_fr_energy">    -67.23678456 </i>
    <i name="e_wo_entrp">    -67.23678456 </i>
    <i name="e_0_energy">    -67.23678456 </i>
   </energy>
  </scstep>
  <scstep>
   <time name="dav">    0.84    0.84</time>
   <time name="total">    1.11    1.11</time>
   <energy>
    <i name="e_fr_energy">    -67.23679505 </i>
    <i name="e_wo_entrp">    -67.23679505 </i>
    <i name="e_0_energy">    -67.23679505 </i>
   </energy>
  </scstep>
  <scstep>
   <time name="dav">    0.84    0.84</time>
   <time name="total">    1.11    1.11</time>
   <energy>
    <i name="e_fr_energy">    -67.23679973 </i>
    <i name="e_wo_entrp">    -67.23679973 </i>
    <i name="e_0_energy">    -67.23679973 </i>
   </energy>
  </scstep>
  <scstep>
   <time name="dav">    0.84    0.84</time>
   <time name="total">    0.98    0.98</time>
   <energy>
    <i name="alphaZ">     10.93933817 </i>
    <i name="ewald">   4060.05404224 </i>
    <i name="hartreedc">  -4938.70525277 </i>
    <i name="XCdc">     96.02736096 </i>
    <i name="pawpsdc">   2920.96470173 </i>
    <i name="pawaedc">  -2923.45111188 </i>
    <i name="eentropy">      0.00000000 </i>
    <i name="bandstr">   -318.16582001 </i>
    <i name="atom">   1025.09994095 </i>
    <i name="e_fr_energy">    -67.23680062 </i>
    <i name="e_wo_entrp">    -67.23680062 </i>
    <i name="e_0_energy">    -67.23680062 </i>
   </energy>
  </scstep>
  <structure>
   <crystal>
    <varray name="basis" >
     <v>       5.17400000       0.00000000       0.00000000 </v>
     <v>       2.58700000       4.48100000       0.00000000 </v>
     <v>       0.00000000       0.00000000      20.00000000 </v>
    </varray>
    <i name="volume">    463.69388000 </i>
    <varray name="rec_basis" >
     <v>       0.19327406      -0.11158224       0.00000000 </v>
     <v>       0.00000000       0.22316447       0.00000000 </v>
     <v>       0.00000000       0.00000000       0.05000000 </v>
    </varray>
   </crystal>
   <varray name="positions" >
    <v>       0.17457326       0.17462620       0.00000000 </v>
    <v>       0.50792519       0.50792234       0.00000000 </v>
    <v>       0.00000000       0.00000000       0.00000000 </v>
    <v>       0.52377271       0.00000000       0.00000000 </v>
    <v>       0.68255138       0.15866994       0.00000000 </v>
    <v>       0.99994706       0.52387860       0.00000000 </v>
    <v>       0.15872573       0.68254854       0.00000000 </v>
    <v>       0.68249844       0.68254854       0.00000000 </v>
   </varray>
  </structure>
  <varray name="forces" >
   <v>       0.00000000       0.00446406      -0.00000000 </v>
   <v>      -0.00000000      -0.00446406      -0.00000000 </v>
   <v>      -0.08050864      -0.04741989      -0.00000000 </v>
   <v>       0.08050864      -0.04741989      -0.00000000 </v>
   <v>      -0.00000000      -0.08087523       0.00000000 </v>
   <v>       0.00000000       0.08087523      -0.00000000 </v>
   <v>      -0.08050864       0.04741989      -0.00000000 </v>
   <v>       0.08050864       0.04741989      -0.00000000 </v>
  </varray>
  <varray name="stress" >
   <v>      -2.26504676       0.00000000       0.00000000 </v>
   <v>      -0.00000000      -2.31641659       0.00000000 </v>
   <v>       0.00000000       0.00000000      -2.74983441 </v>
  </varray>
  <energy>
   <i name="e_fr_energy">    -67.23680062 </i>
   <i name="e_wo_entrp">    -67.23680062 </i>
   <i name="e_0_energy">      0.00000000 </i>
  </energy>
  <time name="totalsc">   32.35   32.62</time>
 </calculation>
 <calculation>
  <scstep>
   <time name="dav">    1.02    1.02</time>
   <time name="total">    1.30    1.31</time>
   <energy>
    <i name="alphaZ">     10.93933817 </i>
    <i name="ewald">   4061.50503815 </i>
    <i name="hartreedc">  -4939.73589461 </i>
    <i name="XCdc">     96.05026288 </i>
    <i name="pawpsdc">   2920.95976056 </i>
    <i name="pawaedc">  -2923.44617912 </i>
    <i name="eentropy">      0.00000000 </i>
    <i name="bandstr">   -318.60833585 </i>
    <i name="atom">   1025.09994095 </i>
    <i name="e_fr_energy">    -67.23606889 </i>
    <i name="e_wo_entrp">    -67.23606889 </i>
    <i name="e_0_energy">    -67.23606889 </i>
   </energy>
  </scstep>
  <scstep>
   <time name="dav">    1.11    1.11</time>
   <time name="total">    1.38    1.38</time>
   <energy>
    <i name="e_fr_energy">    -67.23563218 </i>
    <i name="e_wo_entrp">    -67.23563218 </i>
    <i name="e_0_energy">    -67.23563218 </i>
   </energy>
  </scstep>
  <scstep>
   <time name="dav">    1.01    1.01</time>
   <time name="total">    1.27    1.28</time>
   <energy>
    <i name="e_fr_energy">    -67.23554101 </i>
    <i name="e_wo_entrp">    -67.23554101 </i>
    <i name="e_0_energy">    -67.23554101 </i>
   </energy>
  </scstep>
  <scstep>
   <time name="dav">    1.01    1.01</time>
   <time name="total">    1.27    1.28</time>
   <energy>
    <i name="e_fr_energy">    -67.23554243 </i>
    <i name="e_wo_entrp">    -67.23554243 </i>
    <i name="e_0_energy">    -67.23554243 </i>
   </energy>
  </scstep>
  <scstep>
   <time name="dav">    1.01    1.01</time>
   <time name="total">    1.28    1.28</time>
   <energy>
    <i name="e_fr_energy">    -67.23554509 </i>
    <i name="e_wo_entrp">    -67.23554509 </i>
    <i name="e_0_energy">    -67.23554509 </i>
   </energy>
  </scstep>
  <scstep>
   <time name="dav">    1.13    1.13</time>
   <time name="total">    1.27    1.27</time>
   <energy>
    <i name="alphaZ">     10.93933817 </i>
    <i name="ewald">   4061.50503815 </i>
    <i name="hartreedc">  -4940.14380968 </i>
    <i name="XCdc">     96.06650220 </i>
    <i name="pawpsdc">   2928.68606252 </i>
    <i name="pawaedc">  -2931.17558866 </i>
    <i name="eentropy">      0.00000000 </i>
    <i name="bandstr">   -318.21302902 </i>
    <i name="atom">   1025.09994095 </i>
    <i name="e_fr_energy">    -67.23554538 </i>
    <i name="e_wo_entrp">    -67.23554538 </i>
    <i name="e_0_energy">    -67.23554538 </i>
   </energy>
  </scstep>
  <structure>
   <crystal>
    <varray name="basis" >
     <v>       5.17400000       0.00000000       0.00000000 </v>
     <v>       2.58700000       4.48100000       0.00000000 </v>
     <v>       0.00000000       0.00000000      20.00000000 </v>
    </varray>
    <i name="volume">    463.69388000 </i>
    <varray name="rec_basis" >
     <v>       0.19327406      -0.11158224       0.00000000 </v>
     <v>       0.00000000       0.22316447       0.00000000 </v>
     <v>       0.00000000       0.00000000       0.05000000 </v>
    </varray>
   </crystal>
   <varray name="positions" >
    <v>       0.17454922       0.17467426      -0.00000000 </v>
    <v>       0.50794922       0.50787428      -0.00000000 </v>
    <v>      -0.00049540      -0.00051052      -0.00000000 </v>
    <v>       0.52477864      -0.00051052      -0.00000000 </v>
    <v>       0.68298674       0.15779923       0.00000000 </v>
    <v>       0.99951170       0.52474931      -0.00000000 </v>
    <v>       0.15771980       0.68305906      -0.00000000 </v>
    <v>       0.68299385       0.68305906      -0.00000000 </v>
   </varray>
  </structure>
  <varray name="forces" >
   <v>      -0.00000000      -0.01705316      -0.00000000 </v>
   <v>      -0.00000000       0.01705316       0.00000000 </v>
   <v>       0.16266876       0.10810118       0.00000000 </v>
   <v>      -0.16266876       0.10810118      -0.00000000 </v>
   <v>      -0.00000000       0.16915570      -0.00000000 </v>
   <v>      -0.00000000      -0.16915570       0.00000000 </v>
   <v>       0.16266876      -0.10810118       0.00000000 </v>
   <v>      -0.16266876      -0.10810118      -0.00000000 </v>
  </varray>
  <varray name="stress" >
   <v>      -1.37901760      -0.00000000       0.00000000 </v>
   <v>       0.00000000      -1.31664701       0.00000000 </v>
   <v>       0.00000000       0.00000000      -2.74983101 </v>
  </varray>
  <energy>
   <i name="e_fr_energy">    -67.23554538 </i>
   <i name="e_wo_entrp">    -67.23554538 </i>
   <i name="e_0_energy">      0.00000000 </i>
  </energy>
  <time name="totalsc">    9.05    9.15</time>
 </calculation>
 <calculation>
  <scstep>
   <time name="dav">    1.02    1.02</time>
   <time name="total">    1.29    1.29</time>
   <energy>
    <i name="alphaZ">     10.93933817 </i>
    <i name="ewald">   4060.51991896 </i>
    <i name="hartreedc">  -4939.44915989 </i>
    <i name="XCdc">     96.05095803 </i>
    <i name="pawpsdc">   2928.56127048 </i>
    <i name="pawaedc">  -2931.05068918 </i>
    <i name="eentropy">      0.00000000 </i>
    <i name="bandstr">   -317.90899249 </i>
    <i name="atom">   1025.09994095 </i>
    <i name="e_fr_energy">    -67.23741497 </i>
    <i name="e_wo_entrp">    -67.23741497 </i>
    <i name="e_0_energy">    -67.23741497 </i>
   </energy>
  </scstep>
  <scstep>
   <time name="dav">    1.01    1.01</time>
   <time name="total">    1.28    1.28</time>
   <energy>
    <i name="e_fr_energy">    -67.23721149 </i>
    <i name="e_wo_entrp">    -67.23721149 </i>
    <i name="e_0_energy">    -67.23721149 </i>
   </energy>
  </scstep>
  <scstep>
   <time name="dav">    1.01    1.01</time>
   <time name="total">    1.28    1.28</time>
   <energy>
    <i name="e_fr_energy">    -67.23717329 </i>
    <i name="e_wo_entrp">    -67.23717329 </i>
    <i name="e_0_energy">    -67.23717329 </i>
   </energy>
  </scstep>
  <scstep>
   <time name="dav">    1.11    1.11</time>
   <time name="total">    1.38    1.38</time>
   <energy>
    <i name="e_fr_energy">    -67.23717503 </i>
    <i name="e_wo_entrp">    -67.23717503 </i>
    <i name="e_0_energy">    -67.23717503 </i>
   </energy>
  </scstep>
  <scstep>
   <time name="dav">    1.01    1.01</time>
   <time name="total">    1.28    1.28</time>
   <energy>
    <i name="e_fr_energy">    -67.23717728 </i>
    <i name="e_wo_entrp">    -67.23717728 </i>
    <i name="e_0_energy">    -67.23717728 </i>
   </energy>
  </scstep>
  <scstep>
   <time name="dav">    1.18    1.18</time>
   <time name="total">    1.32    1.33</time>
   <energy>
    <i name="alphaZ">     10.93933817 </i>
    <i name="ewald">   4060.51991896 </i>
    <i name="hartreedc">  -4939.18536280 </i>
    <i name="XCdc">     96.04011904 </i>
    <i name="pawpsdc">   2923.25710790 </i>
    <i name="pawaedc">  -2925.74440851 </i>
    <i name="eentropy">      0.00000000 </i>
    <i name="bandstr">   -318.16383106 </i>
    <i name="atom">   1025.09994095 </i>
    <i name="e_fr_energy">    -67.23717736 </i>
    <i name="e_wo_entrp">    -67.23717736 </i>
    <i name="e_0_energy">    -67.23717736 </i>
   </energy>
  </scstep>
  <structure>
   <crystal>
    <varray name="basis" >
     <v>       5.17400000       0.00000000       0.00000000 </v>
     <v>       2.58700000       4.48100000       0.00000000 </v>
     <v>       0.00000000       0.00000000      20.00000000 </v>
    </varray>
    <i name="volume">    463.69388000 </i>
    <varray name="rec_basis" >
     <v>       0.19327406      -0.11158224       0.00000000 </v>
     <v>       0.00000000       0.22316447       0.00000000 </v>
     <v>       0.00000000       0.00000000       0.05000000 </v>
    </varray>
   </crystal>
   <varray name="positions" >
    <v>       0.17456544       0.17464182      -0.00000000 </v>
    <v>       0.50793300       0.50790672      -0.00000000 </v>
    <v>      -0.00016104      -0.00016595      -0.00000000 </v>
    <v>       0.52409970      -0.00016595      -0.00000000 </v>
    <v>       0.68269290       0.15838690       0.00000000 </v>
    <v>       0.99980554       0.52416163      -0.00000000 </v>
    <v>       0.15839874       0.68271449      -0.00000000 </v>
    <v>       0.68265948       0.68271449      -0.00000000 </v>
   </varray>
  </structure>
  <varray name="forces" >
   <v>      -0.00000000      -0.00260264       0.00000000 </v>
   <v>       0.00000000       0.00260264       0.00000000 </v>
   <v>      -0.00193892       0.00276925       0.00000000 </v>
   <v>       0.00193892       0.00276925       0.00000000 </v>
   <v>      -0.00000000      -0.00022643       0.00000000 </v>
   <v>       0.00000000       0.00022643      -0.00000000 </v>
   <v>      -0.00193892      -0.00276925       0.00000000 </v>
   <v>       0.00193892      -0.00276925       0.00000000 </v>
  </varray>
  <varray name="stress" >
   <v>      -1.98359666      -0.00000000       0.00000000 </v>
   <v>       0.00000000      -1.99932002       0.00000000 </v>
   <v>       0.00000000       0.00000000      -2.75098997 </v>
  </varray>
  <energy>
   <i name="e_fr_energy">    -67.23717736 </i>
   <i name="e_wo_entrp">    -67.23717736 </i>
   <i name="e_0_energy">      0.00000000 </i>
  </energy>
  <time name="totalsc">    9.12    9.18</time>
 </calculation>
 <calculation>
  <scstep>
   <time name="dav">    0.87    0.87</time>
   <time name="total">    1.15    1.16</time>
   <energy>
    <i name="alphaZ">     10.93933817 </i>
    <i name="ewald">   4060.52100826 </i>
    <i name="hartreedc">  -4939.18377171 </i>
    <i name="XCdc">     96.04010032 </i>
    <i name="pawpsdc">   2923.34368949 </i>
    <i name="pawaedc">  -2925.83106219 </i>
    <i name="eentropy">      0.00000000 </i>
    <i name="bandstr">   -318.16642058 </i>
    <i name="atom">   1025.09994095 </i>
    <i name="e_fr_energy">    -67.23717730 </i>
    <i name="e_wo_entrp">    -67.23717730 </i>
    <i name="e_0_energy">    -67.23717730 </i>
   </energy>
  </scstep>
  <scstep>
   <time name="dav">    1.04    1.04</time>
   <time name="total">    1.18    1.18</time>
   <energy>
    <i name="alphaZ">     10.93933817 </i>
    <i name="ewald">   4060.52100826 </i>
    <i name="hartreedc">  -4939.18304946 </i>
    <i name="XCdc">     96.04009971 </i>
    <i name="pawpsdc">   2923.35372465 </i>
    <i name="pawaedc">  -2925.84109648 </i>
    <i name="eentropy">      0.00000000 </i>
    <i name="bandstr">   -318.16714313 </i>
    <i name="atom">   1025.09994095 </i>
    <i name="e_fr_energy">    -67.23717734 </i>
    <i name="e_wo_entrp">    -67.23717734 </i>
    <i name="e_0_energy">    -67.23717734 </i>
   </energy>
  </scstep>
  <structure>
   <crystal>
    <varray name="basis" >
     <v>       5.17400000       0.00000000       0.00000000 </v>
     <v>       2.58700000       4.48100000       0.00000000 </v>
     <v>       0.00000000       0.00000000      20.00000000 </v>
    </varray>
    <i name="volume">    463.69388000 </i>
    <varray name="rec_basis" >
     <v>       0.19327406      -0.11158224       0.00000000 </v>
     <v>       0.00000000       0.22316447       0.00000000 </v>
     <v>       0.00000000       0.00000000       0.05000000 </v>
    </varray>
   </crystal>
   <varray name="positions" >
    <v>       0.17456543       0.17464186      -0.00000000 </v>
    <v>       0.50793301       0.50790668      -0.00000000 </v>
    <v>      -0.00016141      -0.00016634      -0.00000000 </v>
    <v>       0.52410046      -0.00016634      -0.00000000 </v>
    <v>       0.68269323       0.15838625       0.00000000 </v>
    <v>       0.99980521       0.52416229      -0.00000000 </v>
    <v>       0.15839798       0.68271488      -0.00000000 </v>
    <v>       0.68265985       0.68271488      -0.00000000 </v>
   </varray>
  </structure>
  <varray name="forces" >
   <v>      -0.00000000      -0.00262841       0.00000000 </v>
   <v>       0.00000000       0.00262841       0.00000000 </v>
   <v>      -0.00147518       0.00306099       0.00000000 </v>
   <v>       0.00147518       0.00306099       0.00000000 </v>
   <v>       0.00000000       0.00026636       0.00000000 </v>
   <v>       0.00000000      -0.00026636      -0.00000000 </v>
   <v>      -0.00147518      -0.00306099       0.00000000 </v>
   <v>       0.00147518      -0.00306099       0.00000000 </v>
  </varray>
  <varray name="stress" >
   <v>      -1.98396040       0.00000000       0.00000000 </v>
   <v>       0.00000000      -1.99855872       0.00000000 </v>
   <v>       0.00000000       0.00000000      -2.75296845 </v>
  </varray>
  <energy>
   <i name="e_fr_energy">    -67.23717734 </i>
   <i name="e_wo_entrp">    -67.23717734 </i>
   <i name="e_0_energy">      0.00000000 </i>
  </energy>
  <time name="totalsc">    3.62    3.67</time>
 </calculation>
 <calculation>
  <scstep>
   <time name="dav">    0.90    0.90</time>
   <time name="total">    1.18    1.18</time>
   <energy>
    <i name="alphaZ">     10.93933817 </i>
    <i name="ewald">   4060.52034959 </i>
    <i name="hartreedc">  -4939.18092377 </i>
    <i name="XCdc">     96.04008032 </i>
    <i name="pawpsdc">   2923.36752350 </i>
    <i name="pawaedc">  -2925.85489242 </i>
    <i name="eentropy">      0.00000000 </i>
    <i name="bandstr">   -318.16859377 </i>
    <i name="atom">   1025.09994095 </i>
    <i name="e_fr_energy">    -67.23717743 </i>
    <i name="e_wo_entrp">    -67.23717743 </i>
    <i name="e_0_energy">    -67.23717743 </i>
   </energy>
  </scstep>
  <scstep>
   <time name="dav">    0.84    0.85</time>
   <time name="total">    0.99    0.99</time>
   <energy>
    <i name="alphaZ">     10.93933817 </i>
    <i name="ewald">   4060.52034959 </i>
    <i name="hartreedc">  -4939.18032142 </i>
    <i name="XCdc">     96.04006965 </i>
    <i name="pawpsdc">   2923.36695144 </i>
    <i name="pawaedc">  -2925.85431922 </i>
    <i name="eentropy">      0.00000000 </i>
    <i name="bandstr">   -318.16918663 </i>
    <i name="atom">   1025.09994095 </i>
    <i name="e_fr_energy">    -67.23717748 </i>
    <i name="e_wo_entrp">    -67.23717748 </i>
    <i name="e_0_energy">    -67.23717748 </i>
   </energy>
  </scstep>
  <structure>
   <crystal>
    <varray name="basis" >
     <v>       5.17400000       0.00000000       0.00000000 </v>
     <v>       2.58700000       4.48100000       0.00000000 </v>
     <v>       0.00000000       0.00000000      20.00000000 </v>
    </varray>
    <i name="volume">    463.69388000 </i>
    <varray name="rec_basis" >
     <v>       0.19327406      -0.11158224       0.00000000 </v>
     <v>       0.00000000       0.22316447       0.00000000 </v>
     <v>       0.00000000       0.00000000       0.05000000 </v>
    </varray>
   </crystal>
   <varray name="positions" >
    <v>       0.17456544       0.17464184      -0.00000000 </v>
    <v>       0.50793300       0.50790670      -0.00000000 </v>
    <v>      -0.00016119      -0.00016611      -0.00000000 </v>
    <v>       0.52410000      -0.00016611      -0.00000000 </v>
    <v>       0.68269303       0.15838664       0.00000000 </v>
    <v>       0.99980541       0.52416189      -0.00000000 </v>
    <v>       0.15839844       0.68271464      -0.00000000 </v>
    <v>       0.68265963       0.68271464      -0.00000000 </v>
   </varray>
  </structure>
  <varray name="forces" >
   <v>      -0.00000000      -0.00261746       0.00000000 </v>
   <v>       0.00000000       0.00261746       0.00000000 </v>
   <v>      -0.00162419       0.00296394       0.00000000 </v>
   <v>       0.00162419       0.00296394       0.00000000 </v>
   <v>       0.00000000       0.00011831       0.00000000 </v>
   <v>      -0.00000000      -0.00011831      -0.00000000 </v>
   <v>      -0.00162419      -0.00296394       0.00000000 </v>
   <v>       0.00162419      -0.00296394       0.00000000 </v>
  </varray>
  <varray name="stress" >
   <v>      -1.98466087      -0.00000000       0.00000000 </v>
   <v>      -0.00000000      -1.99950554       0.00000000 </v>
   <v>       0.00000000       0.00000000      -2.75259796 </v>
  </varray>
  <energy>
   <i name="e_fr_energy">    -67.23717748 </i>
   <i name="e_wo_entrp">    -67.23717748 </i>
   <i name="e_0_energy">      0.00000000 </i>
  </energy>
  <time name="totalsc">    3.47    3.53</time>
 </calculation>
 <calculation>
  <scstep>
   <time name="dav">    0.85    0.85</time>
   <time name="total">    1.13    1.13</time>
   <energy>
    <i name="alphaZ">     10.93933817 </i>
    <i name="ewald">   4060.52016849 </i>
    <i name="hartreedc">  -4939.17924277 </i>
    <i name="XCdc">     96.04005203 </i>
    <i name="pawpsdc">   2923.36534416 </i>
    <i name="pawaedc">  -2925.85271056 </i>
    <i name="eentropy">      0.00000000 </i>
    <i name="bandstr">   -318.17006802 </i>
    <i name="atom">   1025.09994095 </i>
    <i name="e_fr_energy">    -67.23717755 </i>
    <i name="e_wo_entrp">    -67.23717755 </i>
    <i name="e_0_energy">    -67.23717755 </i>
   </energy>
  </scstep>
  <scstep>
   <time name="dav">    0.89    0.89</time>
   <time name="total">    1.03    1.03</time>
   <energy>
    <i name="alphaZ">     10.93933817 </i>
    <i name="ewald">   4060.52016849 </i>
    <i name="hartreedc">  -4939.17891891 </i>
    <i name="XCdc">     96.04004950 </i>
    <i name="pawpsdc">   2923.36455305 </i>
    <i name="pawaedc">  -2925.85191962 </i>
    <i name="eentropy">      0.00000000 </i>
    <i name="bandstr">   -318.17038921 </i>
    <i name="atom">   1025.09994095 </i>
    <i name="e_fr_energy">    -67.23717758 </i>
    <i name="e_wo_entrp">    -67.23717758 </i>
    <i name="e_0_energy">    -67.23717758 </i>
   </energy>
  </scstep>
  <structure>
   <crystal>
    <varray name="basis" >
     <v>       5.17400000       0.00000000       0.00000000 </v>
     <v>       2.58700000       4.48100000       0.00000000 </v>
     <v>       0.00000000       0.00000000      20.00000000 </v>
    </varray>
    <i name="volume">    463.69388000 </i>
    <varray name="rec_basis" >
     <v>       0.19327406      -0.11158224       0.00000000 </v>
     <v>       0.00000000       0.22316447       0.00000000 </v>
     <v>       0.00000000       0.00000000       0.05000000 </v>
    </varray>
   </crystal>
   <varray name="positions" >
    <v>       0.17456544       0.17464183      -0.00000000 </v>
    <v>       0.50793300       0.50790671      -0.00000000 </v>
    <v>      -0.00016112      -0.00016604      -0.00000000 </v>
    <v>       0.52409988      -0.00016604      -0.00000000 </v>
    <v>       0.68269298       0.15838675       0.00000000 </v>
    <v>       0.99980546       0.52416179      -0.00000000 </v>
    <v>       0.15839856       0.68271458      -0.00000000 </v>
    <v>       0.68265956       0.68271458      -0.00000000 </v>
   </varray>
  </structure>
  <varray name="forces" >
   <v>      -0.00000000      -0.00261442       0.00000000 </v>
   <v>      -0.00000000       0.00261442       0.00000000 </v>
   <v>      -0.00165436       0.00294575       0.00000000 </v>
   <v>       0.00165436       0.00294575       0.00000000 </v>
   <v>      -0.00000000       0.00008609       0.00000000 </v>
   <v>      -0.00000000      -0.00008609       0.00000000 </v>
   <v>      -0.00165436      -0.00294575       0.00000000 </v>
   <v>       0.00165436      -0.00294575       0.00000000 </v>
  </varray>
  <varray name="stress" >
   <v>      -1.98464211       0.00000000       0.00000000 </v>
   <v>      -0.00000000      -1.99948839       0.00000000 </v>
   <v>       0.00000000       0.00000000      -2.75187711 </v>
  </varray>
  <energy>
   <i name="e_fr_energy">    -67.23717758 </i>
   <i name="e_wo_entrp">    -67.23717758 </i>
   <i name="e_0_energy">      0.00000000 </i>
  </energy>
  <time name="totalsc">    3.46    3.51</time>
 </calculation>
 <calculation>
  <scstep>
   <time name="dav">    0.85    0.85</time>
   <time name="total">    1.13    1.13</time>
   <energy>
    <i name="alphaZ">     10.93933817 </i>
    <i name="ewald">   4060.52004373 </i>
    <i name="hartreedc">  -4939.17776257 </i>
    <i name="XCdc">     96.04003856 </i>
    <i name="pawpsdc">   2923.36221775 </i>
    <i name="pawaedc">  -2925.84958497 </i>
    <i name="eentropy">      0.00000000 </i>
    <i name="bandstr">   -318.17140925 </i>
    <i name="atom">   1025.09994095 </i>
    <i name="e_fr_energy">    -67.23717765 </i>
    <i name="e_wo_entrp">    -67.23717765 </i>
    <i name="e_0_energy">    -67.23717765 </i>
   </energy>
  </scstep>
  <scstep>
   <time name="dav">    0.99    0.99</time>
   <time name="total">    1.13    1.13</time>
   <energy>
    <i name="alphaZ">     10.93933817 </i>
    <i name="ewald">   4060.52004373 </i>
    <i name="hartreedc">  -4939.17758751 </i>
    <i name="XCdc">     96.04003689 </i>
    <i name="pawpsdc">   2923.36248188 </i>
    <i name="pawaedc">  -2925.84984906 </i>
    <i name="eentropy">      0.00000000 </i>
    <i name="bandstr">   -318.17158270 </i>
    <i name="atom">   1025.09994095 </i>
    <i name="e_fr_energy">    -67.23717766 </i>
    <i name="e_wo_entrp">    -67.23717766 </i>
    <i name="e_0_energy">    -67.23717766 </i>
   </energy>
  </scstep>
  <structure>
   <crystal>
    <varray name="basis" >
     <v>       5.17400000       0.00000000       0.00000000 </v>
     <v>       2.58700000       4.48100000       0.00000000 </v>
     <v>       0.00000000       0.00000000      20.00000000 </v>
    </varray>
    <i name="volume">    463.69388000 </i>
    <varray name="rec_basis" >
     <v>       0.19327406      -0.11158224       0.00000000 </v>
     <v>       0.00000000       0.22316447       0.00000000 </v>
     <v>       0.00000000       0.00000000       0.05000000 </v>
    </varray>
   </crystal>
   <varray name="positions" >
    <v>       0.17456544       0.17464183      -0.00000000 </v>
    <v>       0.50793300       0.50790671      -0.00000000 </v>
    <v>      -0.00016108      -0.00016600      -0.00000000 </v>
    <v>       0.52409979      -0.00016600      -0.00000000 </v>
    <v>       0.68269294       0.15838683       0.00000000 </v>
    <v>       0.99980550       0.52416171      -0.00000000 </v>
    <v>       0.15839865       0.68271454      -0.00000000 </v>
    <v>       0.68265952       0.68271454      -0.00000000 </v>
   </varray>
  </structure>
  <varray name="forces" >
   <v>       0.00000000      -0.00261261       0.00000000 </v>
   <v>      -0.00000000       0.00261261       0.00000000 </v>
   <v>      -0.00167104       0.00293461       0.00000000 </v>
   <v>       0.00167104       0.00293461       0.00000000 </v>
   <v>       0.00000000       0.00006915       0.00000000 </v>
   <v>       0.00000000      -0.00006915       0.00000000 </v>
   <v>      -0.00167104      -0.00293461       0.00000000 </v>
   <v>       0.00167104      -0.00293461       0.00000000 </v>
  </varray>
  <varray name="stress" >
   <v>      -1.98473275       0.00000000       0.00000000 </v>
   <v>      -0.00000000      -1.99959416       0.00000000 </v>
   <v>       0.00000000       0.00000000      -2.75153850 </v>
  </varray>
  <energy>
   <i name="e_fr_energy">    -67.23717766 </i>
   <i name="e_wo_entrp">    -67.23717766 </i>
   <i name="e_0_energy">      0.00000000 </i>
  </energy>
  <time name="totalsc">    3.55    3.60</time>
 </calculation>
 <calculation>
  <scstep>
   <time name="dav">    0.85    0.85</time>
   <time name="total">    1.13    1.13</time>
   <energy>
    <i name="alphaZ">     10.93933817 </i>
    <i name="ewald">   4060.51998134 </i>
    <i name="hartreedc">  -4939.17722220 </i>
    <i name="XCdc">     96.04003282 </i>
    <i name="pawpsdc">   2923.36259659 </i>
    <i name="pawaedc">  -2925.84996374 </i>
    <i name="eentropy">      0.00000000 </i>
    <i name="bandstr">   -318.17188160 </i>
    <i name="atom">   1025.09994095 </i>
    <i name="e_fr_energy">    -67.23717768 </i>
    <i name="e_wo_entrp">    -67.23717768 </i>
    <i name="e_0_energy">    -67.23717768 </i>
   </energy>
  </scstep>
  <scstep>
   <time name="dav">    0.94    0.94</time>
   <time name="total">    1.08    1.08</time>
   <energy>
    <i name="alphaZ">     10.93933817 </i>
    <i name="ewald">   4060.51998134 </i>
    <i name="hartreedc">  -4939.17710498 </i>
    <i name="XCdc">     96.04003188 </i>
    <i name="pawpsdc">   2923.36255925 </i>
    <i name="pawaedc">  -2925.84992644 </i>
    <i name="eentropy">      0.00000000 </i>
    <i name="bandstr">   -318.17199786 </i>
    <i name="atom">   1025.09994095 </i>
    <i name="e_fr_energy">    -67.23717768 </i>
    <i name="e_wo_entrp">    -67.23717768 </i>
    <i name="e_0_energy">    -67.23717768 </i>
   </energy>
  </scstep>
  <structure>
   <crystal>
    <varray name="basis" >
     <v>       5.17400000       0.00000000       0.00000000 </v>
     <v>       2.58700000       4.48100000       0.00000000 </v>
     <v>       0.00000000       0.00000000      20.00000000 </v>
    </varray>
    <i name="volume">    463.69388000 </i>
    <varray name="rec_basis" >
     <v>       0.19327406      -0.11158224       0.00000000 </v>
     <v>       0.00000000       0.22316447       0.00000000 </v>
     <v>       0.00000000       0.00000000       0.05000000 </v>
    </varray>
   </crystal>
   <varray name="positions" >
    <v>       0.17456544       0.17464182      -0.00000000 </v>
    <v>       0.50793300       0.50790671      -0.00000000 </v>
    <v>      -0.00016106      -0.00016598      -0.00000000 </v>
    <v>       0.52409975      -0.00016598      -0.00000000 </v>
    <v>       0.68269292       0.15838687       0.00000000 </v>
    <v>       0.99980552       0.52416167      -0.00000000 </v>
    <v>       0.15839869       0.68271451      -0.00000000 </v>
    <v>       0.68265950       0.68271451      -0.00000000 </v>
   </varray>
  </structure>
  <varray name="forces" >
   <v>       0.00000000      -0.00261164       0.00000000 </v>
   <v>       0.00000000       0.00261164      -0.00000000 </v>
   <v>      -0.00167916       0.00292947       0.00000000 </v>
   <v>       0.00167916       0.00292947       0.00000000 </v>
   <v>      -0.00000000       0.00006085       0.00000000 </v>
   <v>       0.00000000      -0.00006085       0.00000000 </v>
   <v>      -0.00167916      -0.00292947       0.00000000 </v>
   <v>       0.00167916      -0.00292947      -0.00000000 </v>
  </varray>
  <varray name="stress" >
   <v>      -1.98476292       0.00000000       0.00000000 </v>
   <v>       0.00000000      -1.99962690       0.00000000 </v>
   <v>       0.00000000       0.00000000      -2.75139559 </v>
  </varray>
  <energy>
   <i name="e_fr_energy">    -67.23717768 </i>
   <i name="e_wo_entrp">    -67.23717768 </i>
   <i name="e_0_energy">      0.00000000 </i>
  </energy>
  <time name="totalsc">    3.51    3.58</time>
 </calculation>
 <calculation>
  <scstep>
   <time name="dav">    0.85    0.85</time>
   <time name="total">    1.13    1.13</time>
   <energy>
    <i name="alphaZ">     10.93933817 </i>
    <i name="ewald">   4060.51995015 </i>
    <i name="hartreedc">  -4939.17673713 </i>
    <i name="XCdc">     96.04002861 </i>
    <i name="pawpsdc">   2923.36231078 </i>
    <i name="pawaedc">  -2925.84967804 </i>
    <i name="eentropy">      0.00000000 </i>
    <i name="bandstr">   -318.17233117 </i>
    <i name="atom">   1025.09994095 </i>
    <i name="e_fr_energy">    -67.23717769 </i>
    <i name="e_wo_entrp">    -67.23717769 </i>
    <i name="e_0_energy">    -67.23717769 </i>
   </energy>
  </scstep>
  <scstep>
   <time name="dav">    1.04    1.04</time>
   <time name="total">    1.18    1.18</time>
   <energy>
    <i name="alphaZ">     10.93933817 </i>
    <i name="ewald">   4060.51995015 </i>
    <i name="hartreedc">  -4939.17667518 </i>
    <i name="XCdc">     96.04002828 </i>
    <i name="pawpsdc">   2923.36230231 </i>
    <i name="pawaedc">  -2925.84966959 </i>
    <i name="eentropy">      0.00000000 </i>
    <i name="bandstr">   -318.17239277 </i>
    <i name="atom">   1025.09994095 </i>
    <i name="e_fr_energy">    -67.23717769 </i>
    <i name="e_wo_entrp">    -67.23717769 </i>
    <i name="e_0_energy">    -67.23717769 </i>
   </energy>
  </scstep>
  <structure>
   <crystal>
    <varray name="basis" >
     <v>       5.17400000       0.00000000       0.00000000 </v>
     <v>       2.58700000       4.48100000       0.00000000 </v>
     <v>       0.00000000       0.00000000      20.00000000 </v>
    </varray>
    <i name="volume">    463.69388000 </i>
    <varray name="rec_basis" >
     <v>       0.19327406      -0.11158224       0.00000000 </v>
     <v>       0.00000000       0.22316447       0.00000000 </v>
     <v>       0.00000000       0.00000000       0.05000000 </v>
    </varray>
   </crystal>
   <varray name="positions" >
    <v>       0.17456544       0.17464182      -0.00000000 </v>
    <v>       0.50793300       0.50790671      -0.00000000 </v>
    <v>      -0.00016105      -0.00016596      -0.00000000 </v>
    <v>       0.52409972      -0.00016596      -0.00000000 </v>
    <v>       0.68269291       0.15838688       0.00000000 </v>
    <v>       0.99980553       0.52416165      -0.00000000 </v>
    <v>       0.15839872       0.68271450      -0.00000000 </v>
    <v>       0.68265949       0.68271450      -0.00000000 </v>
   </varray>
  </structure>
  <varray name="forces" >
   <v>       0.00000000      -0.00261117      -0.00000000 </v>
   <v>       0.00000000       0.00261117       0.00000000 </v>
   <v>      -0.00168411       0.00292623       0.00000000 </v>
   <v>       0.00168411       0.00292623       0.00000000 </v>
   <v>       0.00000000       0.00005562       0.00000000 </v>
   <v>       0.00000000      -0.00005562       0.00000000 </v>
   <v>      -0.00168411      -0.00292623       0.00000000 </v>
   <v>       0.00168411      -0.00292623       0.00000000 </v>
  </varray>
  <varray name="stress" >
   <v>      -1.98477706       0.00000000       0.00000000 </v>
   <v>      -0.00000000      -1.99964524       0.00000000 </v>
   <v>       0.00000000       0.00000000      -2.75127649 </v>
  </varray>
  <energy>
   <i name="e_fr_energy">    -67.23717769 </i>
   <i name="e_wo_entrp">    -67.23717769 </i>
   <i name="e_0_energy">      0.00000000 </i>
  </energy>
  <time name="totalsc">    3.60    3.65</time>
 </calculation>
 <calculation>
  <scstep>
   <time name="dav">    0.84    0.84</time>
   <time name="total">    1.12    1.12</time>
   <energy>
    <i name="alphaZ">     10.93933817 </i>
    <i name="ewald">   4060.51993456 </i>
    <i name="hartreedc">  -4939.17647864 </i>
    <i name="XCdc">     96.04002676 </i>
    <i name="pawpsdc">   2923.36221477 </i>
    <i name="pawaedc">  -2925.84958212 </i>
    <i name="eentropy">      0.00000000 </i>
    <i name="bandstr">   -318.17257214 </i>
    <i name="atom">   1025.09994095 </i>
    <i name="e_fr_energy">    -67.23717770 </i>
    <i name="e_wo_entrp">    -67.23717770 </i>
    <i name="e_0_energy">    -67.23717770 </i>
   </energy>
  </scstep>
  <scstep>
   <time name="dav">    0.99    0.99</time>
   <time name="total">    1.13    1.13</time>
   <energy>
    <i name="alphaZ">     10.93933817 </i>
    <i name="ewald">   4060.51993456 </i>
    <i name="hartreedc">  -4939.17644053 </i>
    <i name="XCdc">     96.04002648 </i>
    <i name="pawpsdc">   2923.36222811 </i>
    <i name="pawaedc">  -2925.84959547 </i>
    <i name="eentropy">      0.00000000 </i>
    <i name="bandstr">   -318.17260996 </i>
    <i name="atom">   1025.09994095 </i>
    <i name="e_fr_energy">    -67.23717770 </i>
    <i name="e_wo_entrp">    -67.23717770 </i>
    <i name="e_0_energy">    -67.23717770 </i>
   </energy>
  </scstep>
  <structure>
   <crystal>
    <varray name="basis" >
     <v>       5.17400000       0.00000000       0.00000000 </v>
     <v>       2.58700000       4.48100000       0.00000000 </v>
     <v>       0.00000000       0.00000000      20.00000000 </v>
    </varray>
    <i name="volume">    463.69388000 </i>
    <varray name="rec_basis" >
     <v>       0.19327406      -0.11158224       0.00000000 </v>
     <v>       0.00000000       0.22316447       0.00000000 </v>
     <v>       0.00000000       0.00000000       0.05000000 </v>
    </varray>
   </crystal>
   <varray name="positions" >
    <v>       0.17456544       0.17464182      -0.00000000 </v>
    <v>       0.50793300       0.50790672      -0.00000000 </v>
    <v>      -0.00016104      -0.00016596      -0.00000000 </v>
    <v>       0.52409971      -0.00016596      -0.00000000 </v>
    <v>       0.68269291       0.15838689       0.00000000 </v>
    <v>       0.99980553       0.52416164      -0.00000000 </v>
    <v>       0.15839873       0.68271450      -0.00000000 </v>
    <v>       0.68265948       0.68271450      -0.00000000 </v>
   </varray>
  </structure>
  <varray name="forces" >
   <v>      -0.00000000      -0.00261093       0.00000000 </v>
   <v>       0.00000000       0.00261093       0.00000000 </v>
   <v>      -0.00168561       0.00292525       0.00000000 </v>
   <v>       0.00168561       0.00292525       0.00000000 </v>
   <v>       0.00000000       0.00005413       0.00000000 </v>
   <v>      -0.00000000      -0.00005413       0.00000000 </v>
   <v>      -0.00168561      -0.00292525       0.00000000 </v>
   <v>       0.00168561      -0.00292525       0.00000000 </v>
  </varray>
  <varray name="stress" >
   <v>      -1.98478901       0.00000000       0.00000000 </v>
   <v>       0.00000000      -1.99965785       0.00000000 </v>
   <v>       0.00000000       0.00000000      -2.75122437 </v>
  </varray>
  <energy>
   <i name="e_fr_energy">    -67.23717770 </i>
   <i name="e_wo_entrp">    -67.23717770 </i>
   <i name="e_0_energy">      0.00000000 </i>
  </energy>
  <time name="totalsc">    3.54    3.59</time>
 </calculation>
 <calculation>
  <scstep>
   <time name="dav">    0.85    0.85</time>
   <time name="total">    1.13    1.13</time>
   <energy>
    <i name="alphaZ">     10.93933817 </i>
    <i name="ewald">   4060.51992676 </i>
    <i name="hartreedc">  -4939.17631143 </i>
    <i name="XCdc">     96.04002544 </i>
    <i name="pawpsdc">   2923.36221454 </i>
    <i name="pawaedc">  -2925.84958190 </i>
    <i name="eentropy">      0.00000000 </i>
    <i name="bandstr">   -318.17273022 </i>
    <i name="atom">   1025.09994095 </i>
    <i name="e_fr_energy">    -67.23717770 </i>
    <i name="e_wo_entrp">    -67.23717770 </i>
    <i name="e_0_energy">    -67.23717770 </i>
   </energy>
  </scstep>
  <scstep>
   <time name="dav">    1.04    1.04</time>
   <time name="total">    1.18    1.18</time>
   <energy>
    <i name="alphaZ">     10.93933817 </i>
    <i name="ewald">   4060.51992676 </i>
    <i name="hartreedc">  -4939.17629277 </i>
    <i name="XCdc">     96.04002538 </i>
    <i name="pawpsdc">   2923.36220751 </i>
    <i name="pawaedc">  -2925.84957488 </i>
    <i name="eentropy">      0.00000000 </i>
    <i name="bandstr">   -318.17274880 </i>
    <i name="atom">   1025.09994095 </i>
    <i name="e_fr_energy">    -67.23717770 </i>
    <i name="e_wo_entrp">    -67.23717770 </i>
    <i name="e_0_energy">    -67.23717770 </i>
   </energy>
  </scstep>
  <structure>
   <crystal>
    <varray name="basis" >
     <v>       5.17400000       0.00000000       0.00000000 </v>
     <v>       2.58700000       4.48100000       0.00000000 </v>
     <v>       0.00000000       0.00000000      20.00000000 </v>
    </varray>
    <i name="volume">    463.69388000 </i>
    <varray name="rec_basis" >
     <v>       0.19327406      -0.11158224       0.00000000 </v>
     <v>       0.00000000       0.22316447       0.00000000 </v>
     <v>       0.00000000       0.00000000       0.05000000 </v>
    </varray>
   </crystal>
   <varray name="positions" >
    <v>       0.17456544       0.17464182      -0.00000000 </v>
    <v>       0.50793300       0.50790672      -0.00000000 </v>
    <v>      -0.00016104      -0.00016596      -0.00000000 </v>
    <v>       0.52409971      -0.00016596      -0.00000000 </v>
    <v>       0.68269291       0.15838690       0.00000000 </v>
    <v>       0.99980554       0.52416164      -0.00000000 </v>
    <v>       0.15839873       0.68271449      -0.00000000 </v>
    <v>       0.68265948       0.68271449      -0.00000000 </v>
   </varray>
  </structure>
  <varray name="forces" >
   <v>      -0.00000000      -0.00261082       0.00000000 </v>
   <v>      -0.00000000       0.00261082      -0.00000000 </v>
   <v>      -0.00168693       0.00292438       0.00000000 </v>
   <v>       0.00168693       0.00292438      -0.00000000 </v>
   <v>      -0.00000000       0.00005272       0.00000000 </v>
   <v>      -0.00000000      -0.00005272       0.00000000 </v>
   <v>      -0.00168693      -0.00292438       0.00000000 </v>
   <v>       0.00168693      -0.00292438       0.00000000 </v>
  </varray>
  <varray name="stress" >
   <v>      -1.98479182       0.00000000       0.00000000 </v>
   <v>      -0.00000000      -1.99966168       0.00000000 </v>
   <v>       0.00000000       0.00000000      -2.75118417 </v>
  </varray>
  <energy>
   <i name="e_fr_energy">    -67.23717770 </i>
   <i name="e_wo_entrp">    -67.23717770 </i>
   <i name="e_0_energy">      0.00000000 </i>
  </energy>
  <time name="totalsc">    5.33    5.56</time>
 </calculation>
 <calculation>
  <scstep>
   <time name="dav">    0.85    0.86</time>
   <time name="total">    1.14    1.14</time>
   <energy>
    <i name="alphaZ">     10.93933817 </i>
    <i name="ewald">   4060.51992286 </i>
    <i name="hartreedc">  -4939.17623770 </i>
    <i name="XCdc">     96.04002503 </i>
    <i name="pawpsdc">   2923.36218102 </i>
    <i name="pawaedc">  -2925.84954842 </i>
    <i name="eentropy">      0.00000000 </i>
    <i name="bandstr">   -318.17279960 </i>
    <i name="atom">   1025.09994095 </i>
    <i name="e_fr_energy">    -67.23717770 </i>
    <i name="e_wo_entrp">    -67.23717770 </i>
    <i name="e_0_energy">    -67.23717770 </i>
   </energy>
  </scstep>
  <scstep>
   <time name="dav">    0.92    0.92</time>
   <time name="total">    1.06    1.06</time>
   <energy>
    <i name="alphaZ">     10.93933817 </i>
    <i name="ewald">   4060.51992286 </i>
    <i name="hartreedc">  -4939.17622507 </i>
    <i name="XCdc">     96.04002493 </i>
    <i name="pawpsdc">   2923.36218612 </i>
    <i name="pawaedc">  -2925.84955352 </i>
    <i name="eentropy">      0.00000000 </i>
    <i name="bandstr">   -318.17281213 </i>
    <i name="atom">   1025.09994095 </i>
    <i name="e_fr_energy">    -67.23717770 </i>
    <i name="e_wo_entrp">    -67.23717770 </i>
    <i name="e_0_energy">    -67.23717770 </i>
   </energy>
  </scstep>
  <structure>
   <crystal>
    <varray name="basis" >
     <v>       5.17400000       0.00000000       0.00000000 </v>
     <v>       2.58700000       4.48100000       0.00000000 </v>
     <v>       0.00000000       0.00000000      20.00000000 </v>
    </varray>
    <i name="volume">    463.69388000 </i>
    <varray name="rec_basis" >
     <v>       0.19327406      -0.11158224       0.00000000 </v>
     <v>       0.00000000       0.22316447       0.00000000 </v>
     <v>       0.00000000       0.00000000       0.05000000 </v>
    </varray>
   </crystal>
   <varray name="positions" >
    <v>       0.17456544       0.17464182      -0.00000000 </v>
    <v>       0.50793300       0.50790672      -0.00000000 </v>
    <v>      -0.00016104      -0.00016596      -0.00000000 </v>
    <v>       0.52409970      -0.00016596      -0.00000000 </v>
    <v>       0.68269290       0.15838690       0.00000000 </v>
    <v>       0.99980554       0.52416164      -0.00000000 </v>
    <v>       0.15839874       0.68271449      -0.00000000 </v>
    <v>       0.68265948       0.68271449      -0.00000000 </v>
   </varray>
  </structure>
  <varray name="forces" >
   <v>       0.00000000      -0.00261076       0.00000000 </v>
   <v>       0.00000000       0.00261076      -0.00000000 </v>
   <v>      -0.00168713       0.00292424      -0.00000000 </v>
   <v>       0.00168713       0.00292424       0.00000000 </v>
   <v>       0.00000000       0.00005255      -0.00000000 </v>
   <v>      -0.00000000      -0.00005255       0.00000000 </v>
   <v>      -0.00168713      -0.00292424       0.00000000 </v>
   <v>       0.00168713      -0.00292424       0.00000000 </v>
  </varray>
  <varray name="stress" >
   <v>      -1.98479564      -0.00000000       0.00000000 </v>
   <v>       0.00000000      -1.99966558       0.00000000 </v>
   <v>       0.00000000       0.00000000      -2.75117167 </v>
  </varray>
  <energy>
   <i name="e_fr_energy">    -67.23717770 </i>
   <i name="e_wo_entrp">    -67.23717770 </i>
   <i name="e_0_energy">      0.00000000 </i>
  </energy>
  <time name="totalsc">    3.50    3.55</time>
 </calculation>
 <calculation>
  <scstep>
   <time name="dav">    0.85    0.85</time>
   <time name="total">    1.13    1.13</time>
   <energy>
    <i name="alphaZ">     10.93933817 </i>
    <i name="ewald">   4060.51992091 </i>
    <i name="hartreedc">  -4939.17618345 </i>
    <i name="XCdc">     96.04002462 </i>
    <i name="pawpsdc">   2923.36218762 </i>
    <i name="pawaedc">  -2925.84955502 </i>
    <i name="eentropy">      0.00000000 </i>
    <i name="bandstr">   -318.17285149 </i>
    <i name="atom">   1025.09994095 </i>
    <i name="e_fr_energy">    -67.23717770 </i>
    <i name="e_wo_entrp">    -67.23717770 </i>
    <i name="e_0_energy">    -67.23717770 </i>
   </energy>
  </scstep>
  <scstep>
   <time name="dav">    0.77    0.77</time>
   <time name="total">    0.91    0.91</time>
   <energy>
    <i name="alphaZ">     10.93933817 </i>
    <i name="ewald">   4060.51992091 </i>
    <i name="hartreedc">  -4939.17617747 </i>
    <i name="XCdc">     96.04002461 </i>
    <i name="pawpsdc">   2923.36218439 </i>
    <i name="pawaedc">  -2925.84955180 </i>
    <i name="eentropy">      0.00000000 </i>
    <i name="bandstr">   -318.17285746 </i>
    <i name="atom">   1025.09994095 </i>
    <i name="e_fr_energy">    -67.23717770 </i>
    <i name="e_wo_entrp">    -67.23717770 </i>
    <i name="e_0_energy">    -67.23717770 </i>
   </energy>
  </scstep>
  <structure>
   <crystal>
    <varray name="basis" >
     <v>       5.17400000       0.00000000       0.00000000 </v>
     <v>       2.58700000       4.48100000       0.00000000 </v>
     <v>       0.00000000       0.00000000      20.00000000 </v>
    </varray>
    <i name="volume">    463.69388000 </i>
    <varray name="rec_basis" >
     <v>       0.19327406      -0.11158224       0.00000000 </v>
     <v>       0.00000000       0.22316447       0.00000000 </v>
     <v>       0.00000000       0.00000000       0.05000000 </v>
    </varray>
   </crystal>
   <varray name="positions" >
    <v>       0.17456544       0.17464182      -0.00000000 </v>
    <v>       0.50793300       0.50790672      -0.00000000 </v>
    <v>      -0.00016104      -0.00016595      -0.00000000 </v>
    <v>       0.52409970      -0.00016595      -0.00000000 </v>
    <v>       0.68269290       0.15838690       0.00000000 </v>
    <v>       0.99980554       0.52416164      -0.00000000 </v>
    <v>       0.15839874       0.68271449      -0.00000000 </v>
    <v>       0.68265948       0.68271449      -0.00000000 </v>
   </varray>
  </structure>
  <varray name="forces" >
   <v>       0.00000000      -0.00261073      -0.00000000 </v>
   <v>       0.00000000       0.00261073       0.00000000 </v>
   <v>      -0.00168755       0.00292397       0.00000000 </v>
   <v>       0.00168755       0.00292397       0.00000000 </v>
   <v>      -0.00000000       0.00005209       0.00000000 </v>
   <v>       0.00000000      -0.00005209       0.00000000 </v>
   <v>      -0.00168755      -0.00292397       0.00000000 </v>
   <v>       0.00168755      -0.00292397       0.00000000 </v>
  </varray>
  <varray name="stress" >
   <v>      -1.98479586       0.00000000       0.00000000 </v>
   <v>      -0.00000000      -1.99966609       0.00000000 </v>
   <v>       0.00000000       0.00000000      -2.75115866 </v>
  </varray>
  <energy>
   <i name="e_fr_energy">    -67.23717770 </i>
   <i name="e_wo_entrp">    -67.23717770 </i>
   <i name="e_0_energy">      0.00000000 </i>
  </energy>
  <time name="totalsc">    3.33    3.39</time>
 </calculation>
 <calculation>
  <scstep>
   <time name="dav">    0.90    0.90</time>
   <time name="total">    1.18    1.18</time>
   <energy>
    <i name="alphaZ">     10.93933817 </i>
    <i name="ewald">   4060.51991994 </i>
    <i name="hartreedc">  -4939.17616138 </i>
    <i name="XCdc">     96.04002453 </i>
    <i name="pawpsdc">   2923.36217685 </i>
    <i name="pawaedc">  -2925.84954427 </i>
    <i name="eentropy">      0.00000000 </i>
    <i name="bandstr">   -318.17287248 </i>
    <i name="atom">   1025.09994095 </i>
    <i name="e_fr_energy">    -67.23717770 </i>
    <i name="e_wo_entrp">    -67.23717770 </i>
    <i name="e_0_energy">    -67.23717770 </i>
   </energy>
  </scstep>
  <scstep>
   <time name="dav">    0.67    0.67</time>
   <time name="total">    0.82    0.82</time>
   <energy>
    <i name="alphaZ">     10.93933817 </i>
    <i name="ewald">   4060.51991994 </i>
    <i name="hartreedc">  -4939.17615697 </i>
    <i name="XCdc">     96.04002449 </i>
    <i name="pawpsdc">   2923.36217867 </i>
    <i name="pawaedc">  -2925.84954609 </i>
    <i name="eentropy">      0.00000000 </i>
    <i name="bandstr">   -318.17287686 </i>
    <i name="atom">   1025.09994095 </i>
    <i name="e_fr_energy">    -67.23717770 </i>
    <i name="e_wo_entrp">    -67.23717770 </i>
    <i name="e_0_energy">    -67.23717770 </i>
   </energy>
  </scstep>
  <structure>
   <crystal>
    <varray name="basis" >
     <v>       5.17400000       0.00000000       0.00000000 </v>
     <v>       2.58700000       4.48100000       0.00000000 </v>
     <v>       0.00000000       0.00000000      20.00000000 </v>
    </varray>
    <i name="volume">    463.69388000 </i>
    <varray name="rec_basis" >
     <v>       0.19327406      -0.11158224       0.00000000 </v>
     <v>       0.00000000       0.22316447       0.00000000 </v>
     <v>       0.00000000       0.00000000       0.05000000 </v>
    </varray>
   </crystal>
   <varray name="positions" >
    <v>       0.17456544       0.17464182      -0.00000000 </v>
    <v>       0.50793300       0.50790672      -0.00000000 </v>
    <v>      -0.00016104      -0.00016595      -0.00000000 </v>
    <v>       0.52409970      -0.00016595      -0.00000000 </v>
    <v>       0.68269290       0.15838690       0.00000000 </v>
    <v>       0.99980554       0.52416164      -0.00000000 </v>
    <v>       0.15839874       0.68271449      -0.00000000 </v>
    <v>       0.68265948       0.68271449      -0.00000000 </v>
   </varray>
  </structure>
  <varray name="forces" >
   <v>      -0.00000000      -0.00261072      -0.00000000 </v>
   <v>      -0.00000000       0.00261072       0.00000000 </v>
   <v>      -0.00168754       0.00292397       0.00000000 </v>
   <v>       0.00168754       0.00292397       0.00000000 </v>
   <v>      -0.00000000       0.00005211       0.00000000 </v>
   <v>      -0.00000000      -0.00005211       0.00000000 </v>
   <v>      -0.00168754      -0.00292397       0.00000000 </v>
   <v>       0.00168754      -0.00292397       0.00000000 </v>
  </varray>
  <varray name="stress" >
   <v>      -1.98479718       0.00000000       0.00000000 </v>
   <v>       0.00000000      -1.99966740       0.00000000 </v>
   <v>       0.00000000       0.00000000      -2.75115570 </v>
  </varray>
  <energy>
   <i name="e_fr_energy">    -67.23717770 </i>
   <i name="e_wo_entrp">    -67.23717770 </i>
   <i name="e_0_energy">      0.00000000 </i>
  </energy>
  <time name="totalsc">    3.28    3.33</time>
 </calculation>
 <calculation>
  <scstep>
   <time name="dav">    0.83    0.83</time>
   <time name="total">    1.11    1.11</time>
   <energy>
    <i name="alphaZ">     10.93933817 </i>
    <i name="ewald">   4060.51991945 </i>
    <i name="hartreedc">  -4939.17614352 </i>
    <i name="XCdc">     96.04002440 </i>
    <i name="pawpsdc">   2923.36218035 </i>
    <i name="pawaedc">  -2925.84954776 </i>
    <i name="eentropy">      0.00000000 </i>
    <i name="bandstr">   -318.17288972 </i>
    <i name="atom">   1025.09994095 </i>
    <i name="e_fr_energy">    -67.23717770 </i>
    <i name="e_wo_entrp">    -67.23717770 </i>
    <i name="e_0_energy">    -67.23717770 </i>
   </energy>
  </scstep>
  <scstep>
   <time name="dav">    0.67    0.67</time>
   <time name="total">    0.82    0.82</time>
   <energy>
    <i name="alphaZ">     10.93933817 </i>
    <i name="ewald">   4060.51991945 </i>
    <i name="hartreedc">  -4939.17614138 </i>
    <i name="XCdc">     96.04002439 </i>
    <i name="pawpsdc">   2923.36217943 </i>
    <i name="pawaedc">  -2925.84954685 </i>
    <i name="eentropy">      0.00000000 </i>
    <i name="bandstr">   -318.17289186 </i>
    <i name="atom">   1025.09994095 </i>
    <i name="e_fr_energy">    -67.23717770 </i>
    <i name="e_wo_entrp">    -67.23717770 </i>
    <i name="e_0_energy">    -67.23717770 </i>
   </energy>
  </scstep>
  <structure>
   <crystal>
    <varray name="basis" >
     <v>       5.17400000       0.00000000       0.00000000 </v>
     <v>       2.58700000       4.48100000       0.00000000 </v>
     <v>       0.00000000       0.00000000      20.00000000 </v>
    </varray>
    <i name="volume">    463.69388000 </i>
    <varray name="rec_basis" >
     <v>       0.19327406      -0.11158224       0.00000000 </v>
     <v>       0.00000000       0.22316447       0.00000000 </v>
     <v>       0.00000000       0.00000000       0.05000000 </v>
    </varray>
   </crystal>
   <varray name="positions" >
    <v>       0.17456544       0.17464182      -0.00000000 </v>
    <v>       0.50793300       0.50790672      -0.00000000 </v>
    <v>      -0.00016104      -0.00016595      -0.00000000 </v>
    <v>       0.52409970      -0.00016595      -0.00000000 </v>
    <v>       0.68269290       0.15838690       0.00000000 </v>
    <v>       0.99980554       0.52416163      -0.00000000 </v>
    <v>       0.15839874       0.68271449      -0.00000000 </v>
    <v>       0.68265948       0.68271449      -0.00000000 </v>
   </varray>
  </structure>
  <varray name="forces" >
   <v>       0.00000000      -0.00261071      -0.00000000 </v>
   <v>       0.00000000       0.00261071       0.00000000 </v>
   <v>      -0.00168768       0.00292388       0.00000000 </v>
   <v>       0.00168768       0.00292388      -0.00000000 </v>
   <v>       0.00000000       0.00005196       0.00000000 </v>
   <v>      -0.00000000      -0.00005196       0.00000000 </v>
   <v>      -0.00168768      -0.00292388       0.00000000 </v>
   <v>       0.00168768      -0.00292388       0.00000000 </v>
  </varray>
  <varray name="stress" >
   <v>      -1.98479705       0.00000000       0.00000000 </v>
   <v>       0.00000000      -1.99966737       0.00000000 </v>
   <v>       0.00000000       0.00000000      -2.75115141 </v>
  </varray>
  <energy>
   <i name="e_fr_energy">    -67.23717770 </i>
   <i name="e_wo_entrp">    -67.23717770 </i>
   <i name="e_0_energy">      0.00000000 </i>
  </energy>
  <time name="totalsc">    3.21    3.26</time>
 </calculation>
 <calculation>
  <scstep>
   <time name="dav">    0.68    0.69</time>
   <time name="total">    0.96    0.96</time>
   <energy>
    <i name="alphaZ">     10.93933817 </i>
    <i name="ewald">   4060.51991920 </i>
    <i name="hartreedc">  -4939.17613553 </i>
    <i name="XCdc">     96.04002437 </i>
    <i name="pawpsdc">   2923.36217715 </i>
    <i name="pawaedc">  -2925.84954457 </i>
    <i name="eentropy">      0.00000000 </i>
    <i name="bandstr">   -318.17289744 </i>
    <i name="atom">   1025.09994095 </i>
    <i name="e_fr_energy">    -67.23717770 </i>
    <i name="e_wo_entrp">    -67.23717770 </i>
    <i name="e_0_energy">    -67.23717770 </i>
   </energy>
  </scstep>
  <scstep>
   <time name="dav">    0.68    0.69</time>
   <time name="total">    0.82    0.83</time>
   <energy>
    <i name="alphaZ">     10.93933817 </i>
    <i name="ewald">   4060.51991920 </i>
    <i name="hartreedc">  -4939.17613395 </i>
    <i name="XCdc">     96.04002436 </i>
    <i name="pawpsdc">   2923.36217803 </i>
    <i name="pawaedc">  -2925.84954545 </i>
    <i name="eentropy">      0.00000000 </i>
    <i name="bandstr">   -318.17289901 </i>
    <i name="atom">   1025.09994095 </i>
    <i name="e_fr_energy">    -67.23717770 </i>
    <i name="e_wo_entrp">    -67.23717770 </i>
    <i name="e_0_energy">    -67.23717770 </i>
   </energy>
  </scstep>
  <structure>
   <crystal>
    <varray name="basis" >
     <v>       5.17400000       0.00000000       0.00000000 </v>
     <v>       2.58700000       4.48100000       0.00000000 </v>
     <v>       0.00000000       0.00000000      20.00000000 </v>
    </varray>
    <i name="volume">    463.69388000 </i>
    <varray name="rec_basis" >
     <v>       0.19327406      -0.11158224       0.00000000 </v>
     <v>       0.00000000       0.22316447       0.00000000 </v>
     <v>       0.00000000       0.00000000       0.05000000 </v>
    </varray>
   </crystal>
   <varray name="positions" >
    <v>       0.17456544       0.17464182      -0.00000000 </v>
    <v>       0.50793300       0.50790672      -0.00000000 </v>
    <v>      -0.00016104      -0.00016595      -0.00000000 </v>
    <v>       0.52409970      -0.00016595      -0.00000000 </v>
    <v>       0.68269290       0.15838690       0.00000000 </v>
    <v>       0.99980554       0.52416163      -0.00000000 </v>
    <v>       0.15839874       0.68271449      -0.00000000 </v>
    <v>       0.68265948       0.68271449      -0.00000000 </v>
   </varray>
  </structure>
  <varray name="forces" >
   <v>       0.00000000      -0.00261071       0.00000000 </v>
   <v>       0.00000000       0.00261071       0.00000000 </v>
   <v>      -0.00168767       0.00292389       0.00000000 </v>
   <v>       0.00168767       0.00292389       0.00000000 </v>
   <v>       0.00000000       0.00005198       0.00000000 </v>
   <v>       0.00000000      -0.00005198       0.00000000 </v>
   <v>      -0.00168767      -0.00292389      -0.00000000 </v>
   <v>       0.00168767      -0.00292389       0.00000000 </v>
  </varray>
  <varray name="stress" >
   <v>      -1.98479748      -0.00000000       0.00000000 </v>
   <v>       0.00000000      -1.99966780       0.00000000 </v>
   <v>       0.00000000       0.00000000      -2.75115047 </v>
  </varray>
  <energy>
   <i name="e_fr_energy">    -67.23717770 </i>
   <i name="e_wo_entrp">    -67.23717770 </i>
   <i name="e_0_energy">      0.00000000 </i>
  </energy>
  <time name="totalsc">    3.07    3.15</time>
 </calculation>
 <calculation>
  <scstep>
   <time name="dav">    0.68    0.69</time>
   <time name="total">    0.96    0.97</time>
   <energy>
    <i name="alphaZ">     10.93933817 </i>
    <i name="ewald">   4060.51991908 </i>
    <i name="hartreedc">  -4939.17612938 </i>
    <i name="XCdc">     96.04002433 </i>
    <i name="pawpsdc">   2923.36217890 </i>
    <i name="pawaedc">  -2925.84954632 </i>
    <i name="eentropy">      0.00000000 </i>
    <i name="bandstr">   -318.17290342 </i>
    <i name="atom">   1025.09994095 </i>
    <i name="e_fr_energy">    -67.23717770 </i>
    <i name="e_wo_entrp">    -67.23717770 </i>
    <i name="e_0_energy">    -67.23717770 </i>
   </energy>
  </scstep>
  <scstep>
   <time name="dav">    0.67    0.67</time>
   <time name="total">    0.82    0.82</time>
   <energy>
    <i name="alphaZ">     10.93933817 </i>
    <i name="ewald">   4060.51991908 </i>
    <i name="hartreedc">  -4939.17612858 </i>
    <i name="XCdc">     96.04002432 </i>
    <i name="pawpsdc">   2923.36217877 </i>
    <i name="pawaedc">  -2925.84954619 </i>
    <i name="eentropy">      0.00000000 </i>
    <i name="bandstr">   -318.17290422 </i>
    <i name="atom">   1025.09994095 </i>
    <i name="e_fr_energy">    -67.23717770 </i>
    <i name="e_wo_entrp">    -67.23717770 </i>
    <i name="e_0_energy">    -67.23717770 </i>
   </energy>
  </scstep>
  <structure>
   <crystal>
    <varray name="basis" >
     <v>       5.17400000       0.00000000       0.00000000 </v>
     <v>       2.58700000       4.48100000       0.00000000 </v>
     <v>       0.00000000       0.00000000      20.00000000 </v>
    </varray>
    <i name="volume">    463.69388000 </i>
    <varray name="rec_basis" >
     <v>       0.19327406      -0.11158224       0.00000000 </v>
     <v>       0.00000000       0.22316447       0.00000000 </v>
     <v>       0.00000000       0.00000000       0.05000000 </v>
    </varray>
   </crystal>
   <varray name="positions" >
    <v>       0.17456544       0.17464182      -0.00000000 </v>
    <v>       0.50793300       0.50790672      -0.00000000 </v>
    <v>      -0.00016104      -0.00016595      -0.00000000 </v>
    <v>       0.52409970      -0.00016595      -0.00000000 </v>
    <v>       0.68269290       0.15838690       0.00000000 </v>
    <v>       0.99980554       0.52416163      -0.00000000 </v>
    <v>       0.15839874       0.68271449      -0.00000000 </v>
    <v>       0.68265948       0.68271449      -0.00000000 </v>
   </varray>
  </structure>
  <varray name="forces" >
   <v>       0.00000000      -0.00261071       0.00000000 </v>
   <v>       0.00000000       0.00261071       0.00000000 </v>
   <v>      -0.00168771       0.00292386       0.00000000 </v>
   <v>       0.00168771       0.00292386      -0.00000000 </v>
   <v>      -0.00000000       0.00005193      -0.00000000 </v>
   <v>       0.00000000      -0.00005193       0.00000000 </v>
   <v>      -0.00168771      -0.00292386       0.00000000 </v>
   <v>       0.00168771      -0.00292386       0.00000000 </v>
  </varray>
  <varray name="stress" >
   <v>      -1.98479741      -0.00000000       0.00000000 </v>
   <v>       0.00000000      -1.99966774       0.00000000 </v>
   <v>       0.00000000       0.00000000      -2.75114903 </v>
  </varray>
  <energy>
   <i name="e_fr_energy">    -67.23717770 </i>
   <i name="e_wo_entrp">    -67.23717770 </i>
   <i name="e_0_energy">      0.00000000 </i>
  </energy>
  <time name="totalsc">    3.06    3.09</time>
 </calculation>
 <calculation>
  <scstep>
   <time name="dav">    0.67    0.67</time>
   <time name="total">    0.95    0.95</time>
   <energy>
    <i name="alphaZ">     10.93933817 </i>
    <i name="ewald">   4060.51991902 </i>
    <i name="hartreedc">  -4939.17612616 </i>
    <i name="XCdc">     96.04002432 </i>
    <i name="pawpsdc">   2923.36217809 </i>
    <i name="pawaedc">  -2925.84954551 </i>
    <i name="eentropy">      0.00000000 </i>
    <i name="bandstr">   -318.17290657 </i>
    <i name="atom">   1025.09994095 </i>
    <i name="e_fr_energy">    -67.23717770 </i>
    <i name="e_wo_entrp">    -67.23717770 </i>
    <i name="e_0_energy">    -67.23717770 </i>
   </energy>
  </scstep>
  <scstep>
   <time name="dav">    0.67    0.67</time>
   <time name="total">    0.82    0.82</time>
   <energy>
    <i name="alphaZ">     10.93933817 </i>
    <i name="ewald">   4060.51991902 </i>
    <i name="hartreedc">  -4939.17612561 </i>
    <i name="XCdc">     96.04002431 </i>
    <i name="pawpsdc">   2923.36217846 </i>
    <i name="pawaedc">  -2925.84954588 </i>
    <i name="eentropy">      0.00000000 </i>
    <i name="bandstr">   -318.17290712 </i>
    <i name="atom">   1025.09994095 </i>
    <i name="e_fr_energy">    -67.23717770 </i>
    <i name="e_wo_entrp">    -67.23717770 </i>
    <i name="e_0_energy">    -67.23717770 </i>
   </energy>
  </scstep>
  <structure>
   <crystal>
    <varray name="basis" >
     <v>       5.17400000       0.00000000       0.00000000 </v>
     <v>       2.58700000       4.48100000       0.00000000 </v>
     <v>       0.00000000       0.00000000      20.00000000 </v>
    </varray>
    <i name="volume">    463.69388000 </i>
    <varray name="rec_basis" >
     <v>       0.19327406      -0.11158224       0.00000000 </v>
     <v>       0.00000000       0.22316447       0.00000000 </v>
     <v>       0.00000000       0.00000000       0.05000000 </v>
    </varray>
   </crystal>
   <varray name="positions" >
    <v>       0.17456544       0.17464182      -0.00000000 </v>
    <v>       0.50793300       0.50790672      -0.00000000 </v>
    <v>      -0.00016104      -0.00016595      -0.00000000 </v>
    <v>       0.52409970      -0.00016595      -0.00000000 </v>
    <v>       0.68269290       0.15838690       0.00000000 </v>
    <v>       0.99980554       0.52416163      -0.00000000 </v>
    <v>       0.15839874       0.68271449      -0.00000000 </v>
    <v>       0.68265948       0.68271449      -0.00000000 </v>
   </varray>
  </structure>
  <varray name="forces" >
   <v>      -0.00000000      -0.00261070      -0.00000000 </v>
   <v>       0.00000000       0.00261070       0.00000000 </v>
   <v>      -0.00168770       0.00292387       0.00000000 </v>
   <v>       0.00168770       0.00292387       0.00000000 </v>
   <v>       0.00000000       0.00005195      -0.00000000 </v>
   <v>       0.00000000      -0.00005195       0.00000000 </v>
   <v>      -0.00168770      -0.00292387       0.00000000 </v>
   <v>       0.00168770      -0.00292387       0.00000000 </v>
  </varray>
  <varray name="stress" >
   <v>      -1.98479756      -0.00000000       0.00000000 </v>
   <v>       0.00000000      -1.99966789       0.00000000 </v>
   <v>       0.00000000       0.00000000      -2.75114869 </v>
  </varray>
  <energy>
   <i name="e_fr_energy">    -67.23717770 </i>
   <i name="e_wo_entrp">    -67.23717770 </i>
   <i name="e_0_energy">      0.00000000 </i>
  </energy>
  <time name="totalsc">    3.06    3.07</time>
 </calculation>
 <calculation>
  <scstep>
   <time name="dav">    0.67    0.67</time>
   <time name="total">    0.95    0.95</time>
   <energy>
    <i name="alphaZ">     10.93933817 </i>
    <i name="ewald">   4060.51991899 </i>
    <i name="hartreedc">  -4939.17612420 </i>
    <i name="XCdc">     96.04002430 </i>
    <i name="pawpsdc">   2923.36217881 </i>
    <i name="pawaedc">  -2925.84954623 </i>
    <i name="eentropy">      0.00000000 </i>
    <i name="bandstr">   -318.17290848 </i>
    <i name="atom">   1025.09994095 </i>
    <i name="e_fr_energy">    -67.23717770 </i>
    <i name="e_wo_entrp">    -67.23717770 </i>
    <i name="e_0_energy">    -67.23717770 </i>
   </energy>
  </scstep>
  <scstep>
   <time name="dav">    0.67    0.67</time>
   <time name="total">    0.81    0.82</time>
   <energy>
    <i name="alphaZ">     10.93933817 </i>
    <i name="ewald">   4060.51991899 </i>
    <i name="hartreedc">  -4939.17612391 </i>
    <i name="XCdc">     96.04002430 </i>
    <i name="pawpsdc">   2923.36217883 </i>
    <i name="pawaedc">  -2925.84954625 </i>
    <i name="eentropy">      0.00000000 </i>
    <i name="bandstr">   -318.17290877 </i>
    <i name="atom">   1025.09994095 </i>
    <i name="e_fr_energy">    -67.23717770 </i>
    <i name="e_wo_entrp">    -67.23717770 </i>
    <i name="e_0_energy">    -67.23717770 </i>
   </energy>
  </scstep>
  <structure>
   <crystal>
    <varray name="basis" >
     <v>       5.17400000       0.00000000       0.00000000 </v>
     <v>       2.58700000       4.48100000       0.00000000 </v>
     <v>       0.00000000       0.00000000      20.00000000 </v>
    </varray>
    <i name="volume">    463.69388000 </i>
    <varray name="rec_basis" >
     <v>       0.19327406      -0.11158224       0.00000000 </v>
     <v>       0.00000000       0.22316447       0.00000000 </v>
     <v>       0.00000000       0.00000000       0.05000000 </v>
    </varray>
   </crystal>
   <varray name="positions" >
    <v>       0.17456544       0.17464182      -0.00000000 </v>
    <v>       0.50793300       0.50790672      -0.00000000 </v>
    <v>      -0.00016104      -0.00016595      -0.00000000 </v>
    <v>       0.52409970      -0.00016595      -0.00000000 </v>
    <v>       0.68269290       0.15838690       0.00000000 </v>
    <v>       0.99980554       0.52416163      -0.00000000 </v>
    <v>       0.15839874       0.68271449      -0.00000000 </v>
    <v>       0.68265948       0.68271449      -0.00000000 </v>
   </varray>
  </structure>
  <varray name="forces" >
   <v>       0.00000000      -0.00261070       0.00000000 </v>
   <v>       0.00000000       0.00261070       0.00000000 </v>
   <v>      -0.00168771       0.00292386       0.00000000 </v>
   <v>       0.00168771       0.00292386       0.00000000 </v>
   <v>       0.00000000       0.00005193      -0.00000000 </v>
   <v>       0.00000000      -0.00005193       0.00000000 </v>
   <v>      -0.00168771      -0.00292386      -0.00000000 </v>
   <v>       0.00168771      -0.00292386       0.00000000 </v>
  </varray>
  <varray name="stress" >
   <v>      -1.98479752       0.00000000       0.00000000 </v>
   <v>       0.00000000      -1.99966785       0.00000000 </v>
   <v>       0.00000000       0.00000000      -2.75114820 </v>
  </varray>
  <energy>
   <i name="e_fr_energy">    -67.23717770 </i>
   <i name="e_wo_entrp">    -67.23717770 </i>
   <i name="e_0_energy">      0.00000000 </i>
  </energy>
  <time name="totalsc">    3.07    3.08</time>
 </calculation>
 <calculation>
  <scstep>
   <time name="dav">    1.00    1.01</time>
   <time name="total">    1.28    1.29</time>
   <energy>
    <i name="alphaZ">     10.93933817 </i>
    <i name="ewald">   4060.05404224 </i>
    <i name="hartreedc">  -4938.84379914 </i>
    <i name="XCdc">     96.03263734 </i>
    <i name="pawpsdc">   2923.36217865 </i>
    <i name="pawaedc">  -2925.84954607 </i>
    <i name="eentropy">      0.00000000 </i>
    <i name="bandstr">   -318.03164870 </i>
    <i name="atom">   1025.09994095 </i>
    <i name="e_fr_energy">    -67.23685656 </i>
    <i name="e_wo_entrp">    -67.23685656 </i>
    <i name="e_0_energy">    -67.23685656 </i>
   </energy>
  </scstep>
  <scstep>
   <time name="dav">    1.01    1.01</time>
   <time name="total">    1.28    1.28</time>
   <energy>
    <i name="e_fr_energy">    -67.23680755 </i>
    <i name="e_wo_entrp">    -67.23680755 </i>
    <i name="e_0_energy">    -67.23680755 </i>
   </energy>
  </scstep>
  <scstep>
   <time name="dav">    1.08    1.08</time>
   <time name="total">    1.35    1.35</time>
   <energy>
    <i name="e_fr_energy">    -67.23679911 </i>
    <i name="e_wo_entrp">    -67.23679911 </i>
    <i name="e_0_energy">    -67.23679911 </i>
   </energy>
  </scstep>
  <scstep>
   <time name="dav">    1.16    1.16</time>
   <time name="total">    1.43    1.43</time>
   <energy>
    <i name="e_fr_energy">    -67.23679979 </i>
    <i name="e_wo_entrp">    -67.23679979 </i>
    <i name="e_0_energy">    -67.23679979 </i>
   </energy>
  </scstep>
  <scstep>
   <time name="dav">    1.01    1.01</time>
   <time name="total">    1.15    1.15</time>
   <energy>
    <i name="alphaZ">     10.93933817 </i>
    <i name="ewald">   4060.05404224 </i>
    <i name="hartreedc">  -4938.71394056 </i>
    <i name="XCdc">     96.02740864 </i>
    <i name="pawpsdc">   2920.90183121 </i>
    <i name="pawaedc">  -2923.38817834 </i>
    <i name="eentropy">      0.00000000 </i>
    <i name="bandstr">   -318.15724285 </i>
    <i name="atom">   1025.09994095 </i>
    <i name="e_fr_energy">    -67.23680054 </i>
    <i name="e_wo_entrp">    -67.23680054 </i>
    <i name="e_0_energy">    -67.23680054 </i>
   </energy>
  </scstep>
  <structure>
   <crystal>
    <varray name="basis" >
     <v>       5.17400000       0.00000000       0.00000000 </v>
     <v>       2.58700000       4.48100000       0.00000000 </v>
     <v>       0.00000000       0.00000000      20.00000000 </v>
    </varray>
    <i name="volume">    463.69388000 </i>
    <varray name="rec_basis" >
     <v>       0.19327406      -0.11158224       0.00000000 </v>
     <v>       0.00000000       0.22316447       0.00000000 </v>
     <v>       0.00000000       0.00000000       0.05000000 </v>
    </varray>
   </crystal>
   <varray name="positions" >
    <v>       0.17457326       0.17462620      -0.00000000 </v>
    <v>       0.50792519       0.50792234      -0.00000000 </v>
    <v>       0.00000000       0.00000000      -0.00000000 </v>
    <v>       0.52377271       0.00000000      -0.00000000 </v>
    <v>       0.68255138       0.15866994       0.00000000 </v>
    <v>       0.99994706       0.52387860       0.00000000 </v>
    <v>       0.15872573       0.68254854      -0.00000000 </v>
    <v>       0.68249844       0.68254854      -0.00000000 </v>
   </varray>
  </structure>
  <varray name="forces" >
   <v>      -0.00000000       0.00448156       0.00000000 </v>
   <v>      -0.00000000      -0.00448156       0.00000000 </v>
   <v>      -0.08086858      -0.04763793       0.00000000 </v>
   <v>       0.08086858      -0.04763793       0.00000000 </v>
   <v>      -0.00000000      -0.08126387       0.00000000 </v>
   <v>      -0.00000000       0.08126387       0.00000000 </v>
   <v>      -0.08086858       0.04763793       0.00000000 </v>
   <v>       0.08086858       0.04763793       0.00000000 </v>
  </varray>
  <varray name="stress" >
   <v>      -2.26259433       0.00000000       0.00000000 </v>
   <v>      -0.00000000      -2.31452619       0.00000000 </v>
   <v>       0.00000000       0.00000000      -2.75065741 </v>
  </varray>
  <energy>
   <i name="e_fr_energy">    -67.23680054 </i>
   <i name="e_wo_entrp">    -67.23680054 </i>
   <i name="e_0_energy">      0.00000000 </i>
  </energy>
