BC3 bandstructure                       
           1
     5.174000    0.000000    0.000000
     2.587000    4.481000    0.000000
     0.000000    0.000000   20.000000
   B    C 
   2   6
Direct configuration=     1
   0.17457326  0.17462620  0.00000000
   0.50792519  0.50792234  0.00000000
   0.00000000  0.00000000  0.00000000
   0.52377271  0.00000000  0.00000000
   0.68255138  0.15866994  0.00000000
   0.99994706  0.52387860  0.00000000
   0.15872573  0.68254854  0.00000000
   0.68249844  0.68254854  0.00000000
Direct configuration=     2
   0.17454922  0.17467426 -0.00000000
   0.50794922  0.50787428 -0.00000000
  -0.00049540 -0.00051052 -0.00000000
   0.52477864 -0.00051052 -0.00000000
   0.68298674  0.15779923  0.00000000
   0.99951170  0.52474931 -0.00000000
   0.15771980  0.68305906 -0.00000000
   0.68299385  0.68305906 -0.00000000
Direct configuration=     3
   0.17456544  0.17464182 -0.00000000
   0.50793300  0.50790672 -0.00000000
  -0.00016104 -0.00016595 -0.00000000
   0.52409970 -0.00016595 -0.00000000
   0.68269290  0.15838690  0.00000000
   0.99980554  0.52416163 -0.00000000
   0.15839874  0.68271449 -0.00000000
   0.68265948  0.68271449 -0.00000000
Direct configuration=     4
   0.17456543  0.17464186 -0.00000000
   0.50793301  0.50790668 -0.00000000
  -0.00016141 -0.00016634 -0.00000000
   0.52410046 -0.00016634 -0.00000000
   0.68269323  0.15838625  0.00000000
   0.99980521  0.52416229 -0.00000000
   0.15839798  0.68271488 -0.00000000
   0.68265985  0.68271488 -0.00000000
Direct configuration=     5
   0.17456544  0.17464184 -0.00000000
   0.50793300  0.50790670 -0.00000000
  -0.00016119 -0.00016611 -0.00000000
   0.52410000 -0.00016611 -0.00000000
   0.68269303  0.15838664  0.00000000
   0.99980541  0.52416189 -0.00000000
   0.15839844  0.68271464 -0.00000000
   0.68265963  0.68271464 -0.00000000
Direct configuration=     6
   0.17456544  0.17464183 -0.00000000
   0.50793300  0.50790671 -0.00000000
  -0.00016112 -0.00016604 -0.00000000
   0.52409988 -0.00016604 -0.00000000
   0.68269298  0.15838675  0.00000000
   0.99980546  0.52416179 -0.00000000
   0.15839856  0.68271458 -0.00000000
   0.68265956  0.68271458 -0.00000000
Direct configuration=     7
   0.17456544  0.17464183 -0.00000000
   0.50793300  0.50790671 -0.00000000
  -0.00016108 -0.00016600 -0.00000000
   0.52409979 -0.00016600 -0.00000000
   0.68269294  0.15838683  0.00000000
   0.99980550  0.52416171 -0.00000000
   0.15839865  0.68271454 -0.00000000
   0.68265952  0.68271454 -0.00000000
Direct configuration=     8
   0.17456544  0.17464182 -0.00000000
   0.50793300  0.50790671 -0.00000000
  -0.00016106 -0.00016598 -0.00000000
   0.52409975 -0.00016598 -0.00000000
   0.68269292  0.15838687  0.00000000
   0.99980552  0.52416167 -0.00000000
   0.15839869  0.68271451 -0.00000000
   0.68265950  0.68271451 -0.00000000
Direct configuration=     9
   0.17456544  0.17464182 -0.00000000
   0.50793300  0.50790671 -0.00000000
  -0.00016105 -0.00016596 -0.00000000
   0.52409972 -0.00016596 -0.00000000
   0.68269291  0.15838688  0.00000000
   0.99980553  0.52416165 -0.00000000
   0.15839872  0.68271450 -0.00000000
   0.68265949  0.68271450 -0.00000000
Direct configuration=    10
   0.17456544  0.17464182 -0.00000000
   0.50793300  0.50790672 -0.00000000
  -0.00016104 -0.00016596 -0.00000000
   0.52409971 -0.00016596 -0.00000000
   0.68269291  0.15838689  0.00000000
   0.99980553  0.52416164 -0.00000000
   0.15839873  0.68271450 -0.00000000
   0.68265948  0.68271450 -0.00000000
Direct configuration=    11
   0.17456544  0.17464182 -0.00000000
   0.50793300  0.50790672 -0.00000000
  -0.00016104 -0.00016596 -0.00000000
   0.52409971 -0.00016596 -0.00000000
   0.68269291  0.15838690  0.00000000
   0.99980554  0.52416164 -0.00000000
   0.15839873  0.68271449 -0.00000000
   0.68265948  0.68271449 -0.00000000
Direct configuration=    12
   0.17456544  0.17464182 -0.00000000
   0.50793300  0.50790672 -0.00000000
  -0.00016104 -0.00016596 -0.00000000
   0.52409970 -0.00016596 -0.00000000
   0.68269290  0.15838690  0.00000000
   0.99980554  0.52416164 -0.00000000
   0.15839874  0.68271449 -0.00000000
   0.68265948  0.68271449 -0.00000000
Direct configuration=    13
   0.17456544  0.17464182 -0.00000000
   0.50793300  0.50790672 -0.00000000
  -0.00016104 -0.00016595 -0.00000000
   0.52409970 -0.00016595 -0.00000000
   0.68269290  0.15838690  0.00000000
   0.99980554  0.52416164 -0.00000000
   0.15839874  0.68271449 -0.00000000
   0.68265948  0.68271449 -0.00000000
Direct configuration=    14
   0.17456544  0.17464182 -0.00000000
   0.50793300  0.50790672 -0.00000000
  -0.00016104 -0.00016595 -0.00000000
   0.52409970 -0.00016595 -0.00000000
   0.68269290  0.15838690  0.00000000
   0.99980554  0.52416164 -0.00000000
   0.15839874  0.68271449 -0.00000000
   0.68265948  0.68271449 -0.00000000
Direct configuration=    15
   0.17456544  0.17464182 -0.00000000
   0.50793300  0.50790672 -0.00000000
  -0.00016104 -0.00016595 -0.00000000
   0.52409970 -0.00016595 -0.00000000
   0.68269290  0.15838690  0.00000000
   0.99980554  0.52416163 -0.00000000
   0.15839874  0.68271449 -0.00000000
   0.68265948  0.68271449 -0.00000000
Direct configuration=    16
   0.17456544  0.17464182 -0.00000000
   0.50793300  0.50790672 -0.00000000
  -0.00016104 -0.00016595 -0.00000000
   0.52409970 -0.00016595 -0.00000000
   0.68269290  0.15838690  0.00000000
   0.99980554  0.52416163 -0.00000000
   0.15839874  0.68271449 -0.00000000
   0.68265948  0.68271449 -0.00000000
Direct configuration=    17
   0.17456544  0.17464182 -0.00000000
   0.50793300  0.50790672 -0.00000000
  -0.00016104 -0.00016595 -0.00000000
   0.52409970 -0.00016595 -0.00000000
   0.68269290  0.15838690  0.00000000
   0.99980554  0.52416163 -0.00000000
   0.15839874  0.68271449 -0.00000000
   0.68265948  0.68271449 -0.00000000
Direct configuration=    18
   0.17456544  0.17464182 -0.00000000
   0.50793300  0.50790672 -0.00000000
  -0.00016104 -0.00016595 -0.00000000
   0.52409970 -0.00016595 -0.00000000
   0.68269290  0.15838690  0.00000000
   0.99980554  0.52416163 -0.00000000
   0.15839874  0.68271449 -0.00000000
   0.68265948  0.68271449 -0.00000000
Direct configuration=    19
   0.17456544  0.17464182 -0.00000000
   0.50793300  0.50790672 -0.00000000
  -0.00016104 -0.00016595 -0.00000000
   0.52409970 -0.00016595 -0.00000000
   0.68269290  0.15838690  0.00000000
   0.99980554  0.52416163 -0.00000000
   0.15839874  0.68271449 -0.00000000
   0.68265948  0.68271449 -0.00000000
