    2    2    1    1
  0.2079688E+02  0.3889087E-09  0.3889087E-09  0.3889087E-09  0.5000000E-15
  1.000000000000000E-004
  CAR 
 cd Si                                   
      8    286     12
 
  0.0000000E+00  0.0000000E+00  0.0000000E+00  0.1079797E-03
    1       -6.252796   1.000000
    2        5.459259   0.999997
    3        5.459260   0.999997
    4        5.459260   0.999997
    5        8.011064   0.000000
    6        8.011065   0.000000
    7        8.011065   0.000000
    8        8.387691   0.000000
    9       13.230787   0.000000
   10       13.230787   0.000000
   11       13.260254   0.000000
   12       16.604229   0.000000
 
  0.4761905E-01  0.0000000E+00  0.0000000E+00  0.8638376E-03
    1       -6.223919   1.000000
    2        5.128220   1.000000
    3        5.411875   1.000000
    4        5.411876   1.000000
    5        8.038619   0.000000
    6        8.082296   0.000000
    7        8.082297   0.000000
    8        8.642884   0.000000
    9       13.130803   0.000000
   10       13.130803   0.000000
   11       13.387813   0.000000
   12       16.488517   0.000000
 
  0.9523810E-01  0.0000000E+00  0.0000000E+00  0.8638376E-03
    1       -6.137773   1.000000
    2        4.397203   1.000000
    3        5.284499   1.000000
    4        5.284501   1.000000
    5        7.946563   0.000000
    6        8.270272   0.000000
    7        8.270273   0.000000
    8        9.330492   0.000000
    9       12.903094   0.000000
   10       12.903094   0.000000
   11       13.739801   0.000000
   12       16.216992   0.000000
 
  0.1428571E+00  0.0000000E+00  0.0000000E+00  0.8638376E-03
    1       -5.995302   1.000000
    2        3.540443   1.000000
    3        5.114702   1.000000
    4        5.114703   1.000000
    5        7.779812   0.000000
    6        8.516571   0.000000
    7        8.516572   0.000000
    8       10.162577   0.000000
    9       12.677126   0.000000
   10       12.677126   0.000000
   11       14.199028   0.000000
   12       15.989258   0.000000
 
  0.1904762E+00  0.0000000E+00  0.0000000E+00  0.8638376E-03
    1       -5.798185   1.000000
    2        2.662820   1.000000
    3        4.933049   1.000000
    4        4.933050   1.000000
    5        7.589825   0.000000
    6        8.752601   0.000000
    7        8.752602   0.000000
    8       11.021187   0.000000
    9       12.561176   0.000000
   10       12.561176   0.000000
   11       14.465682   0.000000
   12       16.144173   0.000000
 
  0.2380952E+00  0.0000000E+00  0.0000000E+00  0.8638376E-03
    1       -5.549512   1.000000
    2        1.803269   1.000000
    3        4.760752   1.000000
    4        4.760754   1.000000
    5        7.404614   0.000000
    6        8.916624   0.000000
    7        8.916626   0.000000
    8       11.867803   0.000000
    9       12.629423   0.000000
   10       12.629423   0.000000
   11       14.380620   0.000000
   12       16.851286   0.000000
 
  0.2857143E+00  0.0000000E+00  0.0000000E+00  0.8638376E-03
    1       -5.254848   1.000000
    2        0.985625   1.000000
    3        4.609425   1.000000
    4        4.609427   1.000000
    5        7.235397   0.000000
    6        8.982823   0.000000
    7        8.982824   0.000000
    8       12.642366   0.000000
    9       12.927890   0.000000
   10       12.927890   0.000000
   11       14.229422   0.000000
   12       17.808169   0.000000
 
  0.3333333E+00  0.0000000E+00  0.0000000E+00  0.8638376E-03
    1       -4.924245   1.000000
    2        0.228919   1.000000
    3        4.484635   1.000000
    4        4.484636   1.000000
    5        7.093183   0.000000
    6        8.969216   0.000000
    7        8.969217   0.000000
    8       13.162137   0.000000
    9       13.437435   0.000000
   10       13.437435   0.000000
   11       14.339076   0.000000
   12       18.732890   0.000000
 
  0.3809524E+00  0.0000000E+00  0.0000000E+00  0.8638376E-03
    1       -4.577859   1.000000
    2       -0.441958   1.000000
    3        4.389363   1.000000
    4        4.389365   1.000000
    5        6.983787   0.000000
    6        8.917374   0.000000
    7        8.917375   0.000000
    8       13.249404   0.000000
    9       14.103788   0.000000
   10       14.103789   0.000000
   11       14.924221   0.000000
   12       18.920819   0.000000
 
  0.4285714E+00  0.0000000E+00  0.0000000E+00  0.8638376E-03
    1       -4.257476   1.000000
    2       -0.979487   1.000000
    3        4.325423   1.000000
    4        4.325424   1.000000
    5        6.909797   0.000000
    6        8.864271   0.000000
    7        8.864272   0.000000
    8       13.189602   0.000000
    9       14.890641   0.000000
   10       14.890642   0.000000
   11       15.697858   0.000000
   12       17.872051   0.000000
 
  0.4761905E+00  0.0000000E+00  0.0000000E+00  0.8638376E-03
    1       -4.045855   1.000000
    2       -1.299523   1.000000
    3        4.293989   1.000000
    4        4.293991   1.000000
    5        6.871353   0.000000
    6        8.833459   0.000000
    7        8.833460   0.000000
    8       13.142422   0.000000
    9       15.755697   0.000000
   10       15.755697   0.000000
   11       16.379559   0.000000
   12       16.895782   0.000000
 
  0.4761905E-01  0.4761905E-01  0.0000000E+00  0.6478782E-03
    1       -6.214301   1.000000
    2        5.187458   1.000000
    3        5.307059   1.000000
    4        5.307060   1.000000
    5        7.918381   0.000000
    6        8.212170   0.000000
    7        8.212171   0.000000
    8        8.652437   0.000000
    9       12.932996   0.000000
   10       13.273753   0.000000
   11       13.429942   0.000000
   12       16.675286   0.000000
 
  0.9523810E-01  0.4761905E-01  0.0000000E+00  0.2591513E-02
    1       -6.147217   1.000000
    2        4.609328   1.000000
    3        5.140947   1.000000
    4        5.253959   1.000000
    5        7.907949   0.000000
    6        8.259604   0.000000
    7        8.444322   0.000000
    8        9.168116   0.000000
    9       12.636247   0.000000
   10       13.225513   0.000000
   11       13.708326   0.000000
   12       16.479601   0.000000
 
  0.1428571E+00  0.4761905E-01  0.0000000E+00  0.2591513E-02
    1       -6.023447   1.000000
    2        3.802793   1.000000
    3        4.950128   1.000000
    4        5.140099   1.000000
    5        7.940942   0.000000
    6        8.254770   0.000000
    7        8.722394   0.000000
    8        9.926807   0.000000
    9       12.366865   0.000000
   10       13.076855   0.000000
   11       14.150776   0.000000
   12       16.198199   0.000000
 
  0.1904762E+00  0.4761905E-01  0.0000000E+00  0.2591513E-02
    1       -5.844342   1.000000
    2        2.941247   1.000000
    3        4.760680   1.000000
    4        4.973504   1.000000
    5        7.828610   0.000000
    6        8.422816   0.000000
    7        8.984031   0.000000
    8       10.678225   0.000000
    9       12.254313   0.000000
   10       12.969494   0.000000
   11       14.545578   0.000000
   12       16.143295   0.000000
 
  0.2380952E+00  0.4761905E-01  0.0000000E+00  0.2591513E-02
    1       -5.612499   1.000000
    2        2.082579   1.000000
    3        4.590441   1.000000
    4        4.787561   1.000000
    5        7.661588   0.000000
    6        8.623177   0.000000
    7        9.170394   0.000000
    8       11.279415   0.000000
    9       12.475228   0.000000
   10       13.011262   0.000000
   11       14.586260   0.000000
   12       16.634174   0.000000
 
  0.2857143E+00  0.4761905E-01  0.0000000E+00  0.2591513E-02
    1       -5.332425   1.000000
    2        1.255138   1.000000
    3        4.447919   1.000000
    4        4.605450   1.000000
    5        7.495810   0.000000
    6        8.754207   0.000000
    7        9.246116   0.000000
    8       11.727399   0.000000
    9       13.037744   0.000000
   10       13.258833   0.000000
   11       14.420337   0.000000
   12       17.509895   0.000000
 
  0.3333333E+00  0.4761905E-01  0.0000000E+00  0.2591513E-02
    1       -5.012299   1.000000
    2        0.480036   1.000000
    3        4.338256   1.000000
    4        4.440131   1.000000
    5        7.349246   0.000000
    6        8.799011   0.000000
    7        9.225437   0.000000
    8       12.207634   0.000000
    9       13.639853   0.000000
   10       13.722481   0.000000
   11       14.384434   0.000000
   12       18.439982   0.000000
 
  0.3809524E+00  0.4761905E-01  0.0000000E+00  0.2591513E-02
    1       -4.668001   1.000000
    2       -0.220833   1.000000
    3        4.263425   1.000000
    4        4.298276   1.000000
    5        7.230762   0.000000
    6        8.791215   0.000000
    7        9.145813   0.000000
    8       12.743246   0.000000
    9       13.836596   0.000000
   10       14.358555   0.000000
   11       14.913434   0.000000
   12       18.775604   0.000000
 
  0.4285714E+00  0.4761905E-01  0.0000000E+00  0.2591513E-02
    1       -4.331854   1.000000
    2       -0.807959   1.000000
    3        4.184451   1.000000
    4        4.224595   1.000000
    5        7.145723   0.000000
    6        8.771942   0.000000
    7        9.054243   0.000000
    8       13.131568   0.000000
    9       14.098739   0.000000
   10       15.124592   0.000000
   11       15.714696   0.000000
   12       17.734121   0.000000
 
  0.4761905E+00  0.4761905E-01  0.0000000E+00  0.2591513E-02
    1       -4.071812   1.000000
    2       -1.212106   1.000000
    3        4.101276   1.000000
    4        4.220896   1.000000
    5        7.094562   0.000000
    6        8.770238   0.000000
    7        8.973793   0.000000
    8       13.225556   0.000000
    9       14.741297   0.000000
   10       15.927299   0.000000
   11       16.461668   0.000000
   12       16.771024   0.000000
 
 -0.4761905E+00  0.4761905E-01  0.0000000E+00  0.2591513E-02
    1       -3.993617   1.000000
    2       -1.326246   1.000000
    3        4.050622   1.000000
    4        4.250875   1.000000
    5        7.080928   0.000000
    6        8.799381   0.000000
    7        8.920624   0.000000
    8       13.240228   0.000000
    9       15.395823   0.000000
   10       15.597141   0.000000
   11       16.441390   0.000000
   12       17.063237   0.000000
 
 -0.4285714E+00  0.4761905E-01  0.0000000E+00  0.2591513E-02
    1       -4.144136   1.000000
    2       -1.103730   1.000000
    3        4.034376   1.000000
    4        4.313758   1.000000
    5        7.103846   0.000000
    6        8.862000   0.000000
    7        8.898601   0.000000
    8       13.253563   0.000000
    9       14.701613   0.000000
   10       15.131926   0.000000
   11       16.521626   0.000000
   12       16.896309   0.000000
 
 -0.3809524E+00  0.4761905E-01  0.0000000E+00  0.2591513E-02
    1       -4.439976   1.000000
    2       -0.627577   1.000000
    3        4.053580   1.000000
    4        4.407767   1.000000
    5        7.164668   0.000000
    6        8.902799   0.000000
    7        8.952287   0.000000
    8       13.216641   0.000000
    9       13.886381   0.000000
   10       14.520282   0.000000
   11       15.687295   0.000000
   12       17.820210   0.000000
 
 -0.3333333E+00  0.4761905E-01  0.0000000E+00  0.2591513E-02
    1       -4.784201   1.000000
    2        0.003203   1.000000
    3        4.108939   1.000000
    4        4.530214   1.000000
    5        7.259043   0.000000
    6        8.914269   0.000000
    7        9.046886   0.000000
    8       12.946515   0.000000
    9       13.186006   0.000000
   10       14.192346   0.000000
   11       14.863039   0.000000
   12       18.594129   0.000000
 
 -0.2857143E+00  0.4761905E-01  0.0000000E+00  0.2591513E-02
    1       -5.122929   1.000000
    2        0.731824   1.000000
    3        4.201388   1.000000
    4        4.677746   1.000000
    5        7.386390   0.000000
    6        8.902466   0.000000
    7        9.113726   0.000000
    8       12.433095   0.000000
    9       12.639066   0.000000
   10       13.980524   0.000000
   11       14.360375   0.000000
   12       18.117321   0.000000
 
 -0.2380952E+00  0.4761905E-01  0.0000000E+00  0.2591513E-02
    1       -5.430917   1.000000
    2        1.526170   1.000000
    3        4.329882   1.000000
    4        4.844995   1.000000
    5        7.542147   0.000000
    6        8.826499   0.000000
    7        9.104538   0.000000
    8       11.849836   0.000000
    9       12.295556   0.000000
   10       13.408878   0.000000
   11       14.494023   0.000000
   12       17.185337   0.000000
 
 -0.1904762E+00  0.4761905E-01  0.0000000E+00  0.2591513E-02
    1       -5.695586   1.000000
    2        2.364996   1.000000
    3        4.492205   1.000000
    4        5.023208   1.000000
    5        7.716447   0.000000
    6        8.666612   0.000000
    7        8.976156   0.000000
    8       11.209122   0.000000
    9       12.184438   0.000000
   10       13.034266   0.000000
   11       14.625312   0.000000
   12       16.404266   0.000000
 
 -0.1428571E+00  0.4761905E-01  0.0000000E+00  0.2591513E-02
    1       -5.910177   1.000000
    2        3.224480   1.000000
    3        4.684644   1.000000
    4        5.198139   1.000000
    5        7.899026   0.000000
    6        8.446127   0.000000
    7        8.734262   0.000000
    8       10.488329   0.000000
    9       12.282521   0.000000
   10       12.937255   0.000000
   11       14.444780   0.000000
   12       16.117663   0.000000
 
 -0.9523810E-01  0.4761905E-01  0.0000000E+00  0.2591513E-02
    1       -6.070996   1.000000
    2        4.062746   1.000000
    3        4.902117   1.000000
    4        5.343319   1.000000
    5        8.064014   0.000000
    6        8.229900   0.000000
    7        8.433579   0.000000
    8        9.727057   0.000000
    9       12.531412   0.000000
   10       13.026185   0.000000
   11       13.992190   0.000000
   12       16.284706   0.000000
 
 -0.4761905E-01  0.4761905E-01  0.0000000E+00  0.1295756E-02
    1       -6.176022   1.000000
    2        4.767936   1.000000
    3        5.153188   1.000000
    4        5.423158   1.000000
    5        8.090610   0.000000
    6        8.152908   0.000000
    7        8.164818   0.000000
    8        9.035519   0.000000
    9       12.844321   0.000000
   10       13.142314   0.000000
   11       13.590877   0.000000
   12       16.506878   0.000000
 
  0.9523810E-01  0.9523810E-01  0.0000000E+00  0.6478782E-03
    1       -6.099210   1.000000
    2        4.557513   1.000000
    3        4.948827   1.000000
    4        4.948828   1.000000
    5        7.674860   0.000000
    6        8.712379   0.000000
    7        8.712380   0.000000
    8        9.212612   0.000000
    9       12.309064   0.000000
   10       13.402620   0.000000
   11       13.902472   0.000000
   12       16.879359   0.000000
 
  0.1428571E+00  0.9523810E-01  0.0000000E+00  0.2591513E-02
    1       -5.994281   1.000000
    2        3.951804   1.000000
    3        4.742418   1.000000
    4        4.837092   1.000000
    5        7.624300   0.000000
    6        8.765783   0.000000
    7        9.022704   0.000000
    8        9.742788   0.000000
    9       12.053206   0.000000
   10       13.413644   0.000000
   11       14.287136   0.000000
   12       16.694281   0.000000
 
  0.1904762E+00  0.9523810E-01  0.0000000E+00  0.2591513E-02
    1       -5.833524   1.000000
    2        3.162831   1.000000
    3        4.544846   1.000000
    4        4.702346   1.000000
    5        7.714157   0.000000
    6        8.683093   0.000000
    7        9.319233   0.000000
    8       10.280470   0.000000
    9       12.075283   0.000000
   10       13.366888   0.000000
   11       14.747965   0.000000
   12       16.476776   0.000000
 
  0.2380952E+00  0.9523810E-01  0.0000000E+00  0.2591513E-02
    1       -5.619118   1.000000
    2        2.336504   1.000000
    3        4.371913   1.000000
    4        4.514895   1.000000
    5        7.806557   0.000000
    6        8.657238   0.000000
    7        9.543098   0.000000
    8       10.558388   0.000000
    9       12.516330   0.000000
   10       13.398327   0.000000
   11       14.993381   0.000000
   12       16.648848   0.000000
 
  0.2857143E+00  0.9523810E-01  0.0000000E+00  0.2591513E-02
    1       -5.354659   1.000000
    2        1.520698   1.000000
    3        4.231531   1.000000
    4        4.307359   1.000000
    5        7.799231   0.000000
    6        8.713110   0.000000
    7        9.651742   0.000000
    8       10.769913   0.000000
    9       13.231400   0.000000
   10       13.617036   0.000000
   11       14.894149   0.000000
   12       17.339234   0.000000
 
  0.3333333E+00  0.9523810E-01  0.0000000E+00  0.2591513E-02
    1       -5.046843   1.000000
    2        0.741981   1.000000
    3        4.104827   1.000000
    4        4.128021   1.000000
    5        7.718084   0.000000
    6        8.763185   0.000000
    7        9.642866   0.000000
    8       11.121920   0.000000
    9       13.996759   0.000000
   10       14.039309   0.000000
   11       14.730921   0.000000
   12       18.199546   0.000000
 
  0.3809524E+00  0.9523810E-01  0.0000000E+00  0.2591513E-02
    1       -4.708153   1.000000
    2        0.024013   1.000000
    3        3.919939   1.000000
    4        4.063388   1.000000
    5        7.623568   0.000000
    6        8.768013   0.000000
    7        9.555772   0.000000
    8       11.650614   0.000000
    9       14.313720   0.000000
   10       14.643111   0.000000
   11       15.069854   0.000000
   12       18.658058   0.000000
 
  0.4285714E+00  0.9523810E-01  0.0000000E+00  0.2591513E-02
    1       -4.363665   1.000000
    2       -0.599921   1.000000
    3        3.760933   1.000000
    4        4.038918   1.000000
    5        7.545440   0.000000
    6        8.753860   0.000000
    7        9.438622   0.000000
    8       12.295778   0.000000
    9       14.232878   0.000000
   10       15.380492   0.000000
   11       15.888906   0.000000
   12       17.630568   0.000000
 
  0.4761905E+00  0.9523810E-01  0.0000000E+00  0.2591513E-02
    1       -4.067055   1.000000
    2       -1.072162   1.000000
    3        3.632939   1.000000
    4        4.053221   1.000000
    5        7.494656   0.000000
    6        8.754386   0.000000
    7        9.320459   0.000000
    8       12.948102   0.000000
    9       14.237625   0.000000
   10       16.101276   0.000000
   11       16.636824   0.000000
   12       16.711418   0.000000
 
 -0.4761905E+00  0.9523810E-01  0.0000000E+00  0.2591513E-02
    1       -3.916763   1.000000
    2       -1.292673   1.000000
    3        3.539376   1.000000
    4        4.105482   1.000000
    5        7.478328   0.000000
    6        8.784618   0.000000
    7        9.223046   0.000000
    8       13.380912   0.000000
    9       14.477575   0.000000
   10       15.482913   0.000000
   11       16.427051   0.000000
   12       17.266125   0.000000
 
 -0.4285714E+00  0.9523810E-01  0.0000000E+00  0.2591513E-02
    1       -3.996024   1.000000
    2       -1.177240   1.000000
    3        3.483252   1.000000
    4        4.193191   1.000000
    5        7.497655   0.000000
    6        8.851289   0.000000
    7        9.153452   0.000000
    8       13.467632   0.000000
    9       14.559173   0.000000
   10       14.729279   0.000000
   11       16.211095   0.000000
   12       17.813583   0.000000
 
 -0.3809524E+00  0.9523810E-01  0.0000000E+00  0.2591513E-02
    1       -4.257583   1.000000
    2       -0.774122   1.000000
    3        3.467100   1.000000
    4        4.313497   1.000000
    5        7.552810   0.000000
    6        8.950973   0.000000
    7        9.108467   0.000000
    8       13.254483   0.000000
    9       13.713991   0.000000
   10       14.603421   0.000000
   11       16.773122   0.000000
   12       16.954439   0.000000
 
 -0.3333333E+00  0.9523810E-01  0.0000000E+00  0.2591513E-02
    1       -4.594114   1.000000
    2       -0.191477   1.000000
    3        3.493892   1.000000
    4        4.462303   1.000000
    5        7.639799   0.000000
    6        9.068870   0.000000
    7        9.075981   0.000000
    8       12.762062   0.000000
    9       12.985443   0.000000
   10       14.577936   0.000000
   11       16.052271   0.000000
   12       17.645488   0.000000
 
 -0.2857143E+00  0.9523810E-01  0.0000000E+00  0.2591513E-02
    1       -4.938387   1.000000
    2        0.498732   1.000000
    3        3.564744   1.000000
    4        4.633931   1.000000
    5        7.756713   0.000000
    6        9.027012   0.000000
    7        9.171821   0.000000
    8       12.170587   0.000000
    9       12.405890   0.000000
   10       14.710048   0.000000
   11       15.207636   0.000000
   12       18.088874   0.000000
 
 -0.2380952E+00  0.9523810E-01  0.0000000E+00  0.2591513E-02
    1       -5.258079   1.000000
    2        1.256338   1.000000
    3        3.682641   1.000000
    4        4.819990   1.000000
    5        7.898797   0.000000
    6        8.924097   0.000000
    7        9.199235   0.000000
    8       11.627251   0.000000
    9       12.028939   0.000000
   10       14.406901   0.000000
   11       14.918755   0.000000
   12       17.483321   0.000000
 
 -0.1904762E+00  0.9523810E-01  0.0000000E+00  0.2591513E-02
    1       -5.537609   1.000000
    2        2.051102   1.000000
    3        3.852799   1.000000
    4        5.008081   1.000000
    5        8.056091   0.000000
    6        8.747342   0.000000
    7        9.082463   0.000000
    8       11.186571   0.000000
    9       11.883250   0.000000
   10       13.742894   0.000000
   11       15.050117   0.000000
   12       16.756955   0.000000
 
 -0.1428571E+00  0.9523810E-01  0.0000000E+00  0.2591513E-02
    1       -5.768940   1.000000
    2        2.843120   1.000000
    3        4.088804   1.000000
    4        5.179104   1.000000
    5        8.210311   0.000000
    6        8.526024   0.000000
    7        8.806384   0.000000
    8       10.777932   0.000000
    9       11.952888   0.000000
   10       13.277891   0.000000
   11       14.873284   0.000000
   12       16.438258   0.000000
 
 -0.9523810E-01  0.9523810E-01  0.0000000E+00  0.1295756E-02
    1       -5.947611   1.000000
    2        3.551642   1.000000
    3        4.429929   1.000000
    4        5.300875   1.000000
    5        8.290928   0.000000
    6        8.328936   0.000000
    7        8.493488   0.000000
    8       10.277612   0.000000
    9       12.188867   0.000000
   10       13.080480   0.000000
   11       14.417680   0.000000
   12       16.451778   0.000000
 
  0.1428571E+00  0.1428571E+00  0.0000000E+00  0.6478782E-03
    1       -5.908159   1.000000
    2        3.788800   1.000000
    3        4.523149   1.000000
    4        4.523150   1.000000
    5        7.351534   0.000000
    6        9.369220   0.000000
    7        9.369221   0.000000
    8        9.617498   0.000000
    9       11.871704   0.000000
   10       13.614225   0.000000
   11       14.601627   0.000000
   12       17.211779   0.000000
 
  0.1904762E+00  0.1428571E+00  0.0000000E+00  0.2591513E-02
    1       -5.765852   1.000000
    2        3.222712   1.000000
    3        4.318094   1.000000
    4        4.356298   1.000000
    5        7.291272   0.000000
    6        9.335024   0.000000
    7        9.710968   0.000000
    8        9.930181   0.000000
    9       12.012304   0.000000
   10       13.694412   0.000000
   11       15.046232   0.000000
   12       17.078849   0.000000
 
  0.2380952E+00  0.1428571E+00  0.0000000E+00  0.2591513E-02
    1       -5.569210   1.000000
    2        2.498438   1.000000
    3        4.139394   1.000000
    4        4.168643   1.000000
    5        7.395869   0.000000
    6        9.221868   0.000000
    7        9.989767   0.000000
    8       10.048978   0.000000
    9       12.569713   0.000000
   10       13.766567   0.000000
   11       15.454343   0.000000
   12       16.983945   0.000000
 
  0.2857143E+00  0.1428571E+00  0.0000000E+00  0.2591513E-02
    1       -5.321203   1.000000
    2        1.734652   1.000000
    3        3.939578   1.000000
    4        3.995393   1.000000
    5        7.536120   0.000000
    6        9.210619   0.000000
    7       10.041953   0.000000
    8       10.148062   0.000000
    9       13.357671   0.000000
   10       13.965515   0.000000
   11       15.532156   0.000000
   12       17.367450   0.000000
 
  0.3333333E+00  0.1428571E+00  0.0000000E+00  0.2591513E-02
    1       -5.027105   1.000000
    2        0.980279   1.000000
    3        3.699716   1.000000
    4        3.890914   1.000000
    5        7.608074   0.000000
    6        9.263569   0.000000
    7       10.166243   0.000000
    8       10.173890   0.000000
    9       14.219195   0.000000
   10       14.358303   0.000000
   11       15.364641   0.000000
   12       18.095188   0.000000
 
  0.3809524E+00  0.1428571E+00  0.0000000E+00  0.2591513E-02
    1       -4.696827   1.000000
    2        0.265646   1.000000
    3        3.470908   1.000000
    4        3.828426   1.000000
    5        7.608225   0.000000
    6        9.256818   0.000000
    7       10.100052   0.000000
    8       10.567334   0.000000
    9       14.933020   0.000000
   10       14.941286   0.000000
   11       15.318108   0.000000
   12       18.588495   0.000000
 
  0.4285714E+00  0.1428571E+00  0.0000000E+00  0.2591513E-02
    1       -4.349693   1.000000
    2       -0.376953   1.000000
    3        3.267009   1.000000
    4        3.808324   1.000000
    5        7.586362   0.000000
    6        9.203179   0.000000
    7        9.971074   0.000000
    8       11.192331   0.000000
    9       14.842102   0.000000
   10       15.651246   0.000000
   11       16.089704   0.000000
   12       17.562570   0.000000
 
  0.4761905E+00  0.1428571E+00  0.0000000E+00  0.2591513E-02
    1       -4.027860   1.000000
    2       -0.898494   1.000000
    3        3.095078   1.000000
    4        3.830439   1.000000
    5        7.577586   0.000000
    6        9.152412   0.000000
    7        9.830932   0.000000
    8       11.939972   0.000000
    9       14.640703   0.000000
   10       16.247095   0.000000
   11       16.745351   0.000000
   12       16.861047   0.000000
 
 -0.4761905E+00  0.1428571E+00  0.0000000E+00  0.2591513E-02
    1       -3.815732   1.000000
    2       -1.210156   1.000000
    3        2.960774   1.000000
    4        3.893886   1.000000
    5        7.599906   0.000000
    6        9.130181   0.000000
    7        9.701171   0.000000
    8       12.744589   0.000000
    9       14.390428   0.000000
   10       15.407795   0.000000
   11       16.617637   0.000000
   12       17.488221   0.000000
 
 -0.4285714E+00  0.1428571E+00  0.0000000E+00  0.2591513E-02
    1       -3.818465   1.000000
    2       -1.205091   1.000000
    3        2.868093   1.000000
    4        3.995912   1.000000
    5        7.657529   0.000000
    6        9.144092   0.000000
    7        9.591811   0.000000
    8       13.492580   0.000000
    9       14.044053   0.000000
   10       14.458830   0.000000
   11       16.269758   0.000000
   12       18.471610   0.000000
 
 -0.3809524E+00  0.1428571E+00  0.0000000E+00  0.2591513E-02
    1       -4.034452   1.000000
    2       -0.885628   1.000000
    3        2.821305   1.000000
    4        4.133511   1.000000
    5        7.751855   0.000000
    6        9.196745   0.000000
    7        9.505728   0.000000
    8       13.302693   0.000000
    9       13.593406   0.000000
   10       14.344064   0.000000
   11       16.352593   0.000000
   12       18.278168   0.000000
 
 -0.3333333E+00  0.1428571E+00  0.0000000E+00  0.2591513E-02
    1       -4.357478   1.000000
    2       -0.360673   1.000000
    3        2.824350   1.000000
    4        4.301525   1.000000
    5        7.875524   0.000000
    6        9.277453   0.000000
    7        9.431236   0.000000
    8       12.632266   0.000000
    9       12.840861   0.000000
   10       14.828405   0.000000
   11       16.857208   0.000000
   12       17.342189   0.000000
 
 -0.2857143E+00  0.1428571E+00  0.0000000E+00  0.2591513E-02
    1       -4.704027   1.000000
    2        0.279544   1.000000
    3        2.883135   1.000000
    4        4.492285   1.000000
    5        8.020305   0.000000
    6        9.338007   0.000000
    7        9.360739   0.000000
    8       11.962242   0.000000
    9       12.241767   0.000000
   10       15.171777   0.000000
   11       16.421233   0.000000
   12       17.506026   0.000000
 
 -0.2380952E+00  0.1428571E+00  0.0000000E+00  0.2591513E-02
    1       -5.033381   1.000000
    2        0.979907   1.000000
    3        3.007333   1.000000
    4        4.695389   1.000000
    5        8.174816   0.000000
    6        9.189872   0.000000
    7        9.383125   0.000000
    8       11.405268   0.000000
    9       11.842244   0.000000
   10       15.346929   0.000000
   11       15.615148   0.000000
   12       17.516940   0.000000
 
 -0.1904762E+00  0.1428571E+00  0.0000000E+00  0.2591513E-02
    1       -5.326390   1.000000
    2        1.690079   1.000000
    3        3.219757   1.000000
    4        4.894959   1.000000
    5        8.317986   0.000000
    6        8.971645   0.000000
    7        9.246159   0.000000
    8       11.064260   0.000000
    9       11.681936   0.000000
   10       14.626479   0.000000
   11       15.601334   0.000000
   12       16.970937   0.000000
 
 -0.1428571E+00  0.1428571E+00  0.0000000E+00  0.1295756E-02
    1       -5.573440   1.000000
    2        2.336600   1.000000
    3        3.567505   1.000000
    4        5.066865   1.000000
    5        8.387115   0.000000
    6        8.724496   0.000000
    7        8.965629   0.000000
    8       10.922451   0.000000
    9       11.736412   0.000000
   10       13.857550   0.000000
   11       15.359097   0.000000