 vasp.5.4.4.18Apr17-6-g9f103f2a35 (build Mar 30 2023 15:39:25) complex          
  
 executed on             LinuxIFC date 2023.06.23  15:22:55
 running on   12 total cores
 distrk:  each k-point on   12 cores,    1 groups
 distr:  one band on NCORES_PER_BAND=   1 cores,   12 groups


--------------------------------------------------------------------------------------------------------


 INCAR:
 POTCAR:    PAW_PBE B 06Sep2000                   
 POTCAR:    PAW_PBE C 08Apr2002                   

 ----------------------------------------------------------------------------- 
|                                                                             |
|           W    W    AA    RRRRR   N    N  II  N    N   GGGG   !!!           |
|           W    W   A  A   R    R  NN   N  II  NN   N  G    G  !!!           |
|           W    W  A    A  R    R  N N  N  II  N N  N  G       !!!           |
|           W WW W  AAAAAA  RRRRR   N  N N  II  N  N N  G  GGG   !            |
|           WW  WW  A    A  R   R   N   NN  II  N   NN  G    G                |
|           W    W  A    A  R    R  N    N  II  N    N   GGGG   !!!           |
|                                                                             |
|      For optimal performance we recommend to set                            |
|        NCORE= 4 - approx SQRT( number of cores)                             |
|      NCORE specifies how many cores store one orbital (NPAR=cpu/NCORE).     |
|      This setting can  greatly improve the performance of VASP for DFT.     |
|      The default,   NCORE=1            might be grossly inefficient         |
|      on modern multi-core architectures or massively parallel machines.     |
|      Do your own testing !!!!                                               |
|      Unfortunately you need to use the default for GW and RPA calculations. |
|      (for HF NCORE is supported but not extensively tested yet)             |
|                                                                             |
 ----------------------------------------------------------------------------- 

 POTCAR:    PAW_PBE B 06Sep2000                   
   SHA256 =  a32ced30f5ae56fd4d10b4325ff17eb3e4e38ee0f4288bc219fb012fddfa6e97 B/
   COPYR  = (c) Copyright 06Sep2000 Georg Kresse                                
   COPYR  = This file is part of the software VASP. Any use, copying, and all ot
   COPYR  = If you do not have a valid VASP license, you may not use, copy or di
   VRHFIN =B: s2p1                                                              
   LEXCH  = PE                                                                  
   EATOM  =    71.1703 eV,    5.2309 Ry                                         
                                                                                
   TITEL  = PAW_PBE B 06Sep2000                                                 
   LULTRA =        F    use ultrasoft PP ?                                      
   IUNSCR =        1    unscreen: 0-lin 1-nonlin 2-no                           
   RPACOR =    1.200    partial core radius                                     
   POMASS =   10.811; ZVAL   =    3.000    mass and valenz                      
   RCORE  =    1.700    outmost cutoff radius                                   
   RWIGS  =    1.710; RWIGS  =    0.905    wigner-seitz radius (au A)           
   ENMAX  =  318.614; ENMIN  =  238.960 eV                                      
   ICORE  =        2    local potential                                         
   LCOR   =        T    correct aug charges                                     
   LPAW   =        T    paw PP                                                  
   EAUG   =  535.514                                                            
   DEXC   =    0.000                                                            
   RMAX   =    1.732    core radius for proj-oper                               
   RAUG   =    1.300    factor for augmentation sphere                          
   RDEP   =    1.757    radius for radial grids                                 
   RDEPT  =    1.436    core radius for aug-charge                              
                                                                                
   Atomic configuration                                                         
    4 entries                                                                   
     n  l   j            E        occ.                                          
     1  0  0.50      -180.5896   2.0000                                         
     2  0  0.50        -9.4431   2.0000                                         
     2  1  0.50        -3.6068   1.0000                                         
     3  2  1.50        -4.0817   0.0000                                         
   Description                                                                  
     l       E           TYP  RCUT    TYP  RCUT                                 
     0     -9.4430752     23  1.500                                             
     0      0.8675899     23  1.500                                             
     1     -3.6067955     23  1.700                                             
     1      6.1086146     23  1.700                                             
     2     -4.0817478      7  1.700                                             
  local pseudopotential read in
  partial core-charges read in
  partial kinetic energy density read in
  atomic valenz-charges read in
  non local Contribution for L=           0  read in
    real space projection operators read in
  non local Contribution for L=           0  read in
    real space projection operators read in
  non local Contribution for L=           1  read in
    real space projection operators read in
  non local Contribution for L=           1  read in
    real space projection operators read in
    PAW grid and wavefunctions read in
 
   number of l-projection  operators is LMAX  =           4
   number of lm-projection operators is LMMAX =           8
 
 POTCAR:    PAW_PBE C 08Apr2002                   
   SHA256 =  253f7b50bb8d59471dbedb8285d89021f4a42ed1a2c5d38a03a736e69125dd95 C/
   COPYR  = (c) Copyright 08Apr2002 Georg Kresse                                
   COPYR  = This file is part of the software VASP. Any use, copying, and all ot
   COPYR  = If you do not have a valid VASP license, you may not use, copy or di
   VRHFIN =C: s2p2                                                              
   LEXCH  = PE                                                                  
   EATOM  =   147.1560 eV,   10.8157 Ry                                         
                                                                                
   TITEL  = PAW_PBE C 08Apr2002                                                 
   LULTRA =        F    use ultrasoft PP ?                                      
   IUNSCR =        1    unscreen: 0-lin 1-nonlin 2-no                           
   RPACOR =    1.200    partial core radius                                     
   POMASS =   12.011; ZVAL   =    4.000    mass and valenz                      
   RCORE  =    1.500    outmost cutoff radius                                   
   RWIGS  =    1.630; RWIGS  =    0.863    wigner-seitz radius (au A)           
   ENMAX  =  400.000; ENMIN  =  300.000 eV                                      
   ICORE  =        2    local potential                                         
   LCOR   =        T    correct aug charges                                     
   LPAW   =        T    paw PP                                                  
   EAUG   =  644.873                                                            
   DEXC   =    0.000                                                            
   RMAX   =    1.529    core radius for proj-oper                               
   RAUG   =    1.300    factor for augmentation sphere                          
   RDEP   =    1.501    radius for radial grids                                 
   RDEPT  =    1.300    core radius for aug-charge                              
                                                                                
   Atomic configuration                                                         
    4 entries                                                                   
     n  l   j            E        occ.                                          
     1  0  0.50      -273.3789   2.0000                                         
     2  0  0.50       -13.7508   2.0000                                         
     2  1  0.50        -5.2854   2.0000                                         
     3  2  1.50        -5.4423   0.0000                                         
   Description                                                                  
     l       E           TYP  RCUT    TYP  RCUT                                 
     0    -13.7508458     23  1.200                                             
     0     -8.2022199     23  1.200                                             
     1     -5.2854383     23  1.500                                             
     1     34.0145650     23  1.500                                             
     2     -5.4423304      7  1.500                                             
  local pseudopotential read in
  partial core-charges read in
  partial kinetic energy density read in
  atomic valenz-charges read in
  non local Contribution for L=           0  read in
    real space projection operators read in
  non local Contribution for L=           0  read in
    real space projection operators read in
  non local Contribution for L=           1  read in
    real space projection operators read in
  non local Contribution for L=           1  read in
    real space projection operators read in
    PAW grid and wavefunctions read in
 
   number of l-projection  operators is LMAX  =           4
   number of lm-projection operators is LMMAX =           8
 
  PAW_PBE B 06Sep2000                   :
 energy of atom  1       EATOM=  -71.1703
 kinetic energy error for atom=    0.0015 (will be added to EATOM!!)
  PAW_PBE C 08Apr2002                   :
 energy of atom  2       EATOM= -147.1560
 kinetic energy error for atom=    0.0116 (will be added to EATOM!!)
 
 
 POSCAR: BC3 with lattice parameter 5.174Ang, len
  positions in direct lattice
  velocities in cartesian coordinates
 exchange correlation table for  LEXCH =        8
   RHO(1)=    0.500       N(1)  =     2000
   RHO(2)=  100.500       N(2)  =     4000
 


--------------------------------------------------------------------------------------------------------


 ion  position               nearest neighbor table
   1  0.333  0.667  0.250-   3 1.57   7 1.57   5 1.57
   2  0.667  0.333  0.250-   4 1.57   8 1.57   6 1.57
   3  0.159  0.317  0.250-   6 1.42   4 1.42   1 1.57
   4  0.317  0.159  0.250-   5 1.42   3 1.42   2 1.57
   5  0.159  0.841  0.250-   4 1.42   8 1.42   1 1.57
   6  0.841  0.159  0.250-   3 1.42   7 1.42   2 1.57
   7  0.683  0.841  0.250-   6 1.42   8 1.42   1 1.57
   8  0.841  0.683  0.250-   5 1.42   7 1.42   2 1.57
 
  LATTYP: Found a hexagonal cell.
 ALAT       =     5.1740377035
 C/A-ratio  =     1.6467258045
  
  Lattice vectors:
  
 A1 = (   4.4808484340,   2.5870188517,   0.0000000000)
 A2 = (  -4.4808484340,   2.5870188517,   0.0000000000)
 A3 = (   0.0000000000,   0.0000000000,   8.5202213998)


Analysis of symmetry for initial positions (statically):
=====================================================================
 Subroutine PRICEL returns:
 Original cell was already a primitive cell.
 

 Routine SETGRP: Setting up the symmetry group for a 
 hexagonal supercell.


 Subroutine GETGRP returns: Found 24 space group operations
 (whereof 12 operations were pure point group operations)
 out of a pool of 24 trial point group operations.


The static configuration has the point symmetry C_6v.
 The point group associated with its full space group is D_6h.


Analysis of symmetry for dynamics (positions and initial velocities):
=====================================================================
 Subroutine PRICEL returns:
 Original cell was already a primitive cell.
 

 Routine SETGRP: Setting up the symmetry group for a 
 hexagonal supercell.


 Subroutine GETGRP returns: Found 24 space group operations
 (whereof 12 operations were pure point group operations)
 out of a pool of 24 trial point group operations.


The dynamic configuration has the point symmetry C_6v.
 The point group associated with its full space group is D_6h.


 Subroutine INISYM returns: Found 24 space group operations
 (whereof 12 operations are pure point group operations),
 and found     1 'primitive' translations



 irot  :   1
 --------------------------------------------------------------------
 isymop:   1   0   0
           0   1   0
           0   0   1

 gtrans:     0.0000000     0.0000000     0.0000000

 ptrans:     0.0000000     0.0000000     0.0000000
 
 rotmap:
 (   1->   1)  (   2->   2)  (   3->   3)  (   4->   4)  (   5->   5) 
 (   6->   6)  (   7->   7)  (   8->   8) 


 irot  :   2
 --------------------------------------------------------------------
 isymop:   1  -1   0
           1   0   0
           0   0   1

 gtrans:     0.0000000     0.0000000     0.0000000

 ptrans:     0.0000000     0.0000000     0.0000000
 
 rotmap:
 (   1->   2)  (   2->   1)  (   3->   6)  (   4->   3)  (   5->   4) 
 (   6->   7)  (   7->   8)  (   8->   5) 


 irot  :   3
 --------------------------------------------------------------------
 isymop:   0  -1   0
           1  -1   0
           0   0   1

 gtrans:     0.0000000     0.0000000     0.0000000

 ptrans:     0.0000000     0.0000000     0.0000000
 
 rotmap:
 (   1->   1)  (   2->   2)  (   3->   7)  (   4->   6)  (   5->   3) 
 (   6->   8)  (   7->   5)  (   8->   4) 


 irot  :   4
 --------------------------------------------------------------------
 isymop:  -1   0   0
           0  -1   0
           0   0   1

 gtrans:     0.0000000     0.0000000     0.0000000

 ptrans:     0.0000000     0.0000000     0.0000000
 
 rotmap:
 (   1->   2)  (   2->   1)  (   3->   8)  (   4->   7)  (   5->   6) 
 (   6->   5)  (   7->   4)  (   8->   3) 


 irot  :   5
 --------------------------------------------------------------------
 isymop:  -1   1   0
          -1   0   0
           0   0   1

 gtrans:     0.0000000     0.0000000     0.0000000

 ptrans:     0.0000000     0.0000000     0.0000000
 
 rotmap:
 (   1->   1)  (   2->   2)  (   3->   5)  (   4->   8)  (   5->   7) 
 (   6->   4)  (   7->   3)  (   8->   6) 


 irot  :   6
 --------------------------------------------------------------------
 isymop:   0   1   0
          -1   1   0
           0   0   1

 gtrans:     0.0000000     0.0000000     0.0000000

 ptrans:     0.0000000     0.0000000     0.0000000
 
 rotmap:
 (   1->   2)  (   2->   1)  (   3->   4)  (   4->   5)  (   5->   8) 
 (   6->   3)  (   7->   6)  (   8->   7) 


 irot  :   7
 --------------------------------------------------------------------
 isymop:  -1   1   0
           0   1   0
           0   0   1

 gtrans:     0.0000000     0.0000000     0.0000000

 ptrans:     0.0000000     0.0000000     0.0000000
 
 rotmap:
 (   1->   1)  (   2->   2)  (   3->   3)  (   4->   6)  (   5->   7) 
 (   6->   4)  (   7->   5)  (   8->   8) 


 irot  :   8
 --------------------------------------------------------------------
 isymop:   0   1   0
           1   0   0
           0   0   1

 gtrans:     0.0000000     0.0000000     0.0000000

 ptrans:     0.0000000     0.0000000     0.0000000
 
 rotmap:
 (   1->   2)  (   2->   1)  (   3->   4)  (   4->   3)  (   5->   6) 
 (   6->   5)  (   7->   8)  (   8->   7) 


 irot  :   9
 --------------------------------------------------------------------
 isymop:   1   0   0
           1  -1   0
           0   0   1

 gtrans:     0.0000000     0.0000000     0.0000000

 ptrans:     0.0000000     0.0000000     0.0000000
 
 rotmap:
 (   1->   1)  (   2->   2)  (   3->   5)  (   4->   4)  (   5->   3) 
 (   6->   8)  (   7->   7)  (   8->   6) 


 irot  :  10
 --------------------------------------------------------------------
 isymop:   1  -1   0
           0  -1   0
           0   0   1

 gtrans:     0.0000000     0.0000000     0.0000000

 ptrans:     0.0000000     0.0000000     0.0000000
 
 rotmap:
 (   1->   2)  (   2->   1)  (   3->   8)  (   4->   5)  (   5->   4) 
 (   6->   7)  (   7->   6)  (   8->   3) 


 irot  :  11
 --------------------------------------------------------------------
 isymop:   0  -1   0
          -1   0   0
           0   0   1

 gtrans:     0.0000000     0.0000000     0.0000000

 ptrans:     0.0000000     0.0000000     0.0000000
 
 rotmap:
 (   1->   1)  (   2->   2)  (   3->   7)  (   4->   8)  (   5->   5) 
 (   6->   6)  (   7->   3)  (   8->   4) 


 irot  :  12
 --------------------------------------------------------------------
 isymop:  -1   0   0
          -1   1   0
           0   0   1

 gtrans:     0.0000000     0.0000000     0.0000000

 ptrans:     0.0000000     0.0000000     0.0000000
 
 rotmap:
 (   1->   2)  (   2->   1)  (   3->   6)  (   4->   7)  (   5->   8) 
 (   6->   3)  (   7->   4)  (   8->   5) 


 irot  :  13
 --------------------------------------------------------------------
 isymop:  -1   0   0
           0  -1   0
           0   0  -1

 gtrans:     0.0000000     0.0000000     0.5000000

 ptrans:     0.0000000     0.0000000     0.0000000
 
 rotmap:
 (   1->   2)  (   2->   1)  (   3->   8)  (   4->   7)  (   5->   6) 
 (   6->   5)  (   7->   4)  (   8->   3) 


 irot  :  14
 --------------------------------------------------------------------
 isymop:  -1   1   0
          -1   0   0
           0   0  -1

 gtrans:     0.0000000     0.0000000     0.5000000

 ptrans:     0.0000000     0.0000000     0.0000000
 
 rotmap:
 (   1->   1)  (   2->   2)  (   3->   5)  (   4->   8)  (   5->   7) 
 (   6->   4)  (   7->   3)  (   8->   6) 


 irot  :  15
 --------------------------------------------------------------------
 isymop:   0   1   0
          -1   1   0
           0   0  -1

 gtrans:     0.0000000     0.0000000     0.5000000

 ptrans:     0.0000000     0.0000000     0.0000000
 
 rotmap:
 (   1->   2)  (   2->   1)  (   3->   4)  (   4->   5)  (   5->   8) 
 (   6->   3)  (   7->   6)  (   8->   7) 


 irot  :  16
 --------------------------------------------------------------------
 isymop:   1   0   0
           0   1   0
           0   0  -1

 gtrans:     0.0000000     0.0000000     0.5000000

 ptrans:     0.0000000     0.0000000     0.0000000
 
 rotmap:
 (   1->   1)  (   2->   2)  (   3->   3)  (   4->   4)  (   5->   5) 
 (   6->   6)  (   7->   7)  (   8->   8) 


 irot  :  17
 --------------------------------------------------------------------
 isymop:   1  -1   0
           1   0   0
           0   0  -1

 gtrans:     0.0000000     0.0000000     0.5000000

 ptrans:     0.0000000     0.0000000     0.0000000
 
 rotmap:
 (   1->   2)  (   2->   1)  (   3->   6)  (   4->   3)  (   5->   4) 
 (   6->   7)  (   7->   8)  (   8->   5) 


 irot  :  18
 --------------------------------------------------------------------
 isymop:   0  -1   0
           1  -1   0
           0   0  -1

 gtrans:     0.0000000     0.0000000     0.5000000

 ptrans:     0.0000000     0.0000000     0.0000000
 
 rotmap:
 (   1->   1)  (   2->   2)  (   3->   7)  (   4->   6)  (   5->   3) 
 (   6->   8)  (   7->   5)  (   8->   4) 


 irot  :  19
 --------------------------------------------------------------------
 isymop:   1  -1   0
           0  -1   0
           0   0  -1

 gtrans:     0.0000000     0.0000000     0.5000000

 ptrans:     0.0000000     0.0000000     0.0000000
 
 rotmap:
 (   1->   2)  (   2->   1)  (   3->   8)  (   4->   5)  (   5->   4) 
 (   6->   7)  (   7->   6)  (   8->   3) 


 irot  :  20
 --------------------------------------------------------------------
 isymop:   0  -1   0
          -1   0   0
           0   0  -1

 gtrans:     0.0000000     0.0000000     0.5000000

 ptrans:     0.0000000     0.0000000     0.0000000
 
 rotmap:
 (   1->   1)  (   2->   2)  (   3->   7)  (   4->   8)  (   5->   5) 
 (   6->   6)  (   7->   3)  (   8->   4) 


 irot  :  21
 --------------------------------------------------------------------
 isymop:  -1   0   0
          -1   1   0
           0   0  -1

 gtrans:     0.0000000     0.0000000     0.5000000

 ptrans:     0.0000000     0.0000000     0.0000000
 
 rotmap:
 (   1->   2)  (   2->   1)  (   3->   6)  (   4->   7)  (   5->   8) 
 (   6->   3)  (   7->   4)  (   8->   5) 


 irot  :  22
 --------------------------------------------------------------------
 isymop:  -1   1   0
           0   1   0
           0   0  -1

 gtrans:     0.0000000     0.0000000     0.5000000

 ptrans:     0.0000000     0.0000000     0.0000000
 
 rotmap:
 (   1->   1)  (   2->   2)  (   3->   3)  (   4->   6)  (   5->   7) 
 (   6->   4)  (   7->   5)  (   8->   8) 


 irot  :  23
 --------------------------------------------------------------------
 isymop:   0   1   0
           1   0   0
           0   0  -1

 gtrans:     0.0000000     0.0000000     0.5000000

 ptrans:     0.0000000     0.0000000     0.0000000
 
 rotmap:
 (   1->   2)  (   2->   1)  (   3->   4)  (   4->   3)  (   5->   6) 
 (   6->   5)  (   7->   8)  (   8->   7) 


 irot  :  24
 --------------------------------------------------------------------
 isymop:   1   0   0
           1  -1   0
           0   0  -1

 gtrans:     0.0000000     0.0000000     0.5000000

 ptrans:     0.0000000     0.0000000     0.0000000
 
 rotmap:
 (   1->   1)  (   2->   2)  (   3->   5)  (   4->   4)  (   5->   3) 
 (   6->   8)  (   7->   7)  (   8->   6) 
 
 
 KPOINTS: K-points for BC3                        

Automatic generation of k-mesh.
Space group operators:
 irot       det(A)        alpha          n_x          n_y          n_z        tau_x        tau_y        tau_z
    1     1.000000     0.000000     1.000000     0.000000     0.000000     0.000000     0.000000     0.000000
    2     1.000000    60.000000     0.000000     0.000000    -1.000000     0.000000     0.000000     0.000000
    3     1.000000   120.000000     0.000000     0.000000    -1.000000     0.000000     0.000000     0.000000
    4     1.000000   180.000000     0.000000     0.000000     1.000000     0.000000     0.000000     0.000000
    5     1.000000   120.000000     0.000000     0.000000     1.000000     0.000000     0.000000     0.000000
    6     1.000000    60.000000     0.000000     0.000000     1.000000     0.000000     0.000000     0.000000
    7    -1.000000   180.000000     0.866025     0.500000     0.000000     0.000000     0.000000     0.000000
    8    -1.000000   180.000000     1.000000     0.000000     0.000000     0.000000     0.000000     0.000000
    9    -1.000000   180.000000     0.866025    -0.500000     0.000000     0.000000     0.000000     0.000000
   10    -1.000000   180.000000     0.500000    -0.866025     0.000000     0.000000     0.000000     0.000000
   11    -1.000000   180.000000     0.000000     1.000000     0.000000     0.000000     0.000000     0.000000
   12    -1.000000   180.000000    -0.500000    -0.866025     0.000000     0.000000     0.000000     0.000000
   13    -1.000000     0.000000     1.000000     0.000000     0.000000     0.000000     0.000000     0.500000
   14    -1.000000    60.000000     0.000000     0.000000    -1.000000     0.000000     0.000000     0.500000
   15    -1.000000   120.000000     0.000000     0.000000    -1.000000     0.000000     0.000000     0.500000
   16    -1.000000   180.000000     0.000000     0.000000     1.000000     0.000000     0.000000     0.500000
   17    -1.000000   120.000000     0.000000     0.000000     1.000000     0.000000     0.000000     0.500000
   18    -1.000000    60.000000     0.000000     0.000000     1.000000     0.000000     0.000000     0.500000
   19     1.000000   180.000000     0.866025     0.500000     0.000000     0.000000     0.000000     0.500000
   20     1.000000   180.000000     1.000000     0.000000     0.000000     0.000000     0.000000     0.500000
   21     1.000000   180.000000     0.866025    -0.500000     0.000000     0.000000     0.000000     0.500000
   22     1.000000   180.000000     0.500000    -0.866025     0.000000     0.000000     0.000000     0.500000
   23     1.000000   180.000000     0.000000     1.000000     0.000000     0.000000     0.000000     0.500000
   24     1.000000   180.000000    -0.500000    -0.866025     0.000000     0.000000     0.000000     0.500000
 
 Subroutine IBZKPT returns following result:
 ===========================================
 
 Found     19 irreducible k-points:
 
 Following reciprocal coordinates:
            Coordinates               Weight
  0.000000  0.000000  0.000000      1.000000
  0.083333  0.000000  0.000000      6.000000
  0.166667  0.000000  0.000000      6.000000
  0.250000 -0.000000  0.000000      6.000000
  0.333333 -0.000000  0.000000      6.000000
  0.416667  0.000000  0.000000      6.000000
  0.500000 -0.000000  0.000000      3.000000
  0.083333  0.083333  0.000000      6.000000
  0.166667  0.083333  0.000000     12.000000
  0.250000  0.083333  0.000000     12.000000
  0.333333  0.083333  0.000000     12.000000
  0.416667  0.083333  0.000000     12.000000
  0.166667  0.166667  0.000000      6.000000
  0.250000  0.166667  0.000000     12.000000
  0.333333  0.166667  0.000000     12.000000
  0.416667  0.166667  0.000000      6.000000
  0.250000  0.250000  0.000000      6.000000
  0.333333  0.250000  0.000000     12.000000
  0.333333  0.333333  0.000000      2.000000
 
 Following cartesian coordinates:
            Coordinates               Weight
  0.000000  0.000000  0.000000      1.000000
  0.009299  0.016106  0.000000      6.000000
  0.018598  0.032212  0.000000      6.000000
  0.027897  0.048318  0.000000      6.000000
  0.037195  0.064424  0.000000      6.000000
  0.046494  0.080530  0.000000      6.000000
  0.055793  0.096636  0.000000      3.000000
  0.000000  0.032212  0.000000      6.000000
  0.009299  0.048318  0.000000     12.000000
  0.018598  0.064424  0.000000     12.000000
  0.027897  0.080530  0.000000     12.000000
  0.037195  0.096636  0.000000     12.000000
  0.000000  0.064424  0.000000      6.000000
  0.009299  0.080530  0.000000     12.000000
  0.018598  0.096636  0.000000     12.000000
  0.027897  0.112742  0.000000      6.000000
  0.000000  0.096636  0.000000      6.000000
  0.009299  0.112742  0.000000     12.000000
  0.000000  0.128848  0.000000      2.000000
 

 ----------------------------------------------------------------------------- 
|                                                                             |
|           W    W    AA    RRRRR   N    N  II  N    N   GGGG   !!!           |
|           W    W   A  A   R    R  NN   N  II  NN   N  G    G  !!!           |
|           W    W  A    A  R    R  N N  N  II  N N  N  G       !!!           |
|           W WW W  AAAAAA  RRRRR   N  N N  II  N  N N  G  GGG   !            |
|           WW  WW  A    A  R   R   N   NN  II  N   NN  G    G                |
|           W    W  A    A  R    R  N    N  II  N    N   GGGG   !!!           |
|                                                                             |
|      The number of bands has been changed from the values supplied          |
|      in the INCAR file. This is a result of running the parallel version.   |
|      The orbitals not found in the WAVECAR file will be initialized with    |
|      random numbers, which is usually adequate. For correlated              |
|      calculations, however, you should redo the groundstate calculation.    |
|      I found NBANDS    =       32  now  NBANDS  =      36                   |
|                                                                             |
 ----------------------------------------------------------------------------- 



--------------------------------------------------------------------------------------------------------




 Dimension of arrays:
   k-points           NKPTS =     19   k-points in BZ     NKDIM =     19   number of bands    NBANDS=     36
   number of dos      NEDOS =   2400   number of ions     NIONS =      8
   non local maximal  LDIM  =      4   non local SUM 2l+1 LMDIM =      8
   total plane-waves  NPLWV =  77760
   max r-space proj   IRMAX =      1   max aug-charges    IRDMAX=   6338
   dimension x,y,z NGX =    36 NGY =   36 NGZ =   60
   dimension x,y,z NGXF=    72 NGYF=   72 NGZF=  120
   support grid    NGXF=    72 NGYF=   72 NGZF=  120
   ions per type =               2   6
   NGX,Y,Z   is equivalent  to a cutoff of  11.57, 11.57, 11.71 a.u.
   NGXF,Y,Z  is equivalent  to a cutoff of  23.13, 23.13, 23.41 a.u.

 SYSTEM =  BC3-optical                             
 POSCAR =  BC3 with lattice parameter 5.174Ang, len

 Startparameter for this run:
   NWRITE =      3    write-flag & timer
   PREC   = accura    normal or accurate (medium, high low for compatibility)
   ISTART =      1    job   : 0-new  1-cont  2-samecut
   ICHARG =      2    charge: 1-file 2-atom 10-const
   ISPIN  =      1    spin polarized calculation?
   LNONCOLLINEAR =      F non collinear calculations
   LSORBIT =      F    spin-orbit coupling
   INIWAV =      1    electr: 0-lowe 1-rand  2-diag
   LASPH  =      F    aspherical Exc in radial PAW
   METAGGA=      F    non-selfconsistent MetaGGA calc.

 Electronic Relaxation 1
   ENCUT  =  450.0 eV  33.07 Ry    5.75 a.u.   8.95  8.95 14.74*2*pi/ulx,y,z
   ENINI  =  450.0     initial cutoff
   ENAUG  =  644.9 eV  augmentation charge cutoff
   NELM   =     60;   NELMIN=  2; NELMDL=  0     # of ELM steps 
   EDIFF  = 0.1E-07   stopping-criterion for ELM
   LREAL  =      F    real-space projection
   NLSPLINE    = F    spline interpolate recip. space projectors
   LCOMPAT=      F    compatible to vasp.4.4
   GGA_COMPAT  = T    GGA compatible to vasp.4.4-vasp.4.6
   LMAXPAW     = -100 max onsite density
   LMAXMIX     =    2 max onsite mixed and CHGCAR
   VOSKOWN=      0    Vosko Wilk Nusair interpolation
   ROPT   =    0.00000   0.00000
 Ionic relaxation
   EDIFFG = 0.1E-06   stopping-criterion for IOM
   NSW    =      0    number of steps for IOM
   NBLOCK =      1;   KBLOCK =      1    inner block; outer block 
   IBRION =     -1    ionic relax: 0-MD 1-quasi-New 2-CG
   NFREE  =      0    steps in history (QN), initial steepest desc. (CG)
   ISIF   =      2    stress and relaxation
   IWAVPR =     10    prediction:  0-non 1-charg 2-wave 3-comb
   ISYM   =      2    0-nonsym 1-usesym 2-fastsym
   LCORR  =      T    Harris-Foulkes like correction to forces

   POTIM  = 0.5000    time-step for ionic-motion
   TEIN   =    0.0    initial temperature
   TEBEG  =    0.0;   TEEND  =   0.0 temperature during run
   SMASS  =  -3.00    Nose mass-parameter (am)
   estimated Nose-frequenzy (Omega)   =  0.10E-29 period in steps =****** mass=  -0.612E-27a.u.
   SCALEE = 1.0000    scale energy and forces
   NPACO  =    256;   APACO  = 16.0  distance and # of slots for P.C.
   PSTRESS=    0.0 pullay stress

  Mass of Ions in am
   POMASS =  10.81 12.01
  Ionic Valenz
   ZVAL   =   3.00  4.00
  Atomic Wigner-Seitz radii
   RWIGS  =  -1.00 -1.00
  virtual crystal weights 
   VCA    =   1.00  1.00
   NELECT =      30.0000    total number of electrons
   NUPDOWN=      -1.0000    fix difference up-down

 DOS related values:
   EMIN   =  10.00;   EMAX   =-10.00  energy-range for DOS
   EFERMI =   0.00
   ISMEAR =     0;   SIGMA  =   0.01  broadening in eV -4-tet -1-fermi 0-gaus

 Electronic relaxation 2 (details)
   IALGO  =     90    algorithm
   LDIAG  =      T    sub-space diagonalisation (order eigenvalues)
   LSUBROT=      F    optimize rotation matrix (better conditioning)
   TURBO    =      0    0=normal 1=particle mesh
   IRESTART =      0    0=no restart 2=restart with 2 vectors
   NREBOOT  =      0    no. of reboots
   NMIN     =      0    reboot dimension
   EREF     =   0.00    reference energy to select bands
   IMIX   =      4    mixing-type and parameters
     AMIX     =   0.40;   BMIX     =  1.00
     AMIX_MAG =   1.60;   BMIX_MAG =  1.00
     AMIN     =   0.10
     WC   =   100.;   INIMIX=   1;  MIXPRE=   1;  MAXMIX= -45

 Intra band minimization:
   WEIMIN = 0.0000     energy-eigenvalue tresh-hold
   EBREAK =  0.69E-10  absolut break condition
   DEPER  =   0.30     relativ break condition  

   TIME   =   0.40     timestep for ELM

  volume/ion in A,a.u.               =      24.69       166.63
  Fermi-wavevector in a.u.,A,eV,Ry     =   0.873444  1.650570 10.379942  0.762904
  Thomas-Fermi vector in A             =   1.992835
 
 Write flags
   LWAVE        =      T    write WAVECAR
   LDOWNSAMPLE  =      F    k-point downsampling of WAVECAR
   LCHARG       =      T    write CHGCAR
   LVTOT        =      F    write LOCPOT, total local potential
   LVHAR        =      F    write LOCPOT, Hartree potential only
   LELF         =      F    write electronic localiz. function (ELF)
   LORBIT       =      0    0 simple, 1 ext, 2 COOP (PROOUT), +10 PAW based schemes


 Dipole corrections
   LMONO  =      F    monopole corrections only (constant potential shift)
   LDIPOL =      F    correct potential (dipole corrections)
   IDIPOL =      0    1-x, 2-y, 3-z, 4-all directions 
   EPSILON=  1.0000000 bulk dielectric constant

 Exchange correlation treatment:
   GGA     =    --    GGA type
   LEXCH   =     8    internal setting for exchange type
   VOSKOWN=      0    Vosko Wilk Nusair interpolation
   LHFCALC =     F    Hartree Fock is set to
   LHFONE  =     F    Hartree Fock one center treatment
   AEXX    =    0.0000 exact exchange contribution

 Linear response parameters
   LEPSILON=     F    determine dielectric tensor
   LRPA    =     F    only Hartree local field effects (RPA)
   LNABLA  =     F    use nabla operator in PAW spheres
   LVEL    =     F    velocity operator in full k-point grid
   LINTERFAST=   F  fast interpolation
   KINTER  =     0    interpolate to denser k-point grid
   CSHIFT  =0.1000    complex shift for real part using Kramers Kronig
   OMEGAMAX=  -1.0    maximum frequency
   DEG_THRESHOLD= 0.2000000E-02 threshold for treating states as degnerate
   RTIME   =   -0.100 relaxation time in fs
  (WPLASMAI=    0.000 imaginary part of plasma frequency in eV, 0.658/RTIME)
   DFIELD  = 0.0000000 0.0000000 0.0000000 field for delta impulse in time
 
 Orbital magnetization related:
   ORBITALMAG=     F  switch on orbital magnetization
   LCHIMAG   =     F  perturbation theory with respect to B field
   DQ        =  0.001000  dq finite difference perturbation B field
   LLRAUG    =     F  two centre corrections for induced B field



--------------------------------------------------------------------------------------------------------


 Static calculation
 charge density and potential will be updated during run
 non-spin polarized calculation
 Exact diagonalization
 preconditioned conjugated gradient (Jacobi prec)
    charged. constant during bandupdate  
    band-by band algorithm
 perform sub-space diagonalisation
    after iterative eigenvector-optimisation
 modified Broyden-mixing scheme, WC =      100.0
 initial mixing is a Kerker type mixing with AMIX =  0.4000 and BMIX =      1.0000
 Hartree-type preconditioning will be used
 using additional bands           21
 reciprocal scheme for non local part
 use partial core corrections
 calculate Harris-corrections to forces 
   (improved forces if not selfconsistent)
 use gradient corrections 
 use of overlap-Matrix (Vanderbilt PP)
 Gauss-broadening in eV      SIGMA  =   0.01


--------------------------------------------------------------------------------------------------------


  energy-cutoff  :      450.00
  volume of cell :      197.53
      direct lattice vectors                 reciprocal lattice vectors
     4.480848434  2.587018852  0.000000000     0.111586010  0.193272654  0.000000000
    -4.480848434  2.587018852  0.000000000    -0.111586010  0.193272654  0.000000000
     0.000000000  0.000000000  8.520221400     0.000000000  0.000000000  0.117367842

  length of vectors
     5.174038000  5.174038000  8.520221400     0.223172034  0.223172034  0.117367842


 
 old parameters found on file WAVECAR:
  energy-cutoff  :      450.00
  volume of cell :      197.53
      direct lattice vectors                 reciprocal lattice vectors
     4.480848434  2.587018852  0.000000000     0.111586010  0.193272654  0.000000000
    -4.480848434  2.587018852  0.000000000    -0.111586010  0.193272654  0.000000000
     0.000000000  0.000000000  8.520221400     0.000000000  0.000000000  0.117367842

  length of vectors

 
 k-points in units of 2pi/SCALE and weight: K-points for BC3                        
   0.00000000  0.00000000  0.00000000       0.007
   0.00929883  0.01610605  0.00000000       0.042
   0.01859767  0.03221211  0.00000000       0.042
   0.02789650  0.04831816  0.00000000       0.042
   0.03719534  0.06442422  0.00000000       0.042
   0.04649417  0.08053027  0.00000000       0.042
   0.05579301  0.09663633  0.00000000       0.021
   0.00000000  0.03221211  0.00000000       0.042
   0.00929883  0.04831816  0.00000000       0.083
   0.01859767  0.06442422  0.00000000       0.083
   0.02789650  0.08053027  0.00000000       0.083
   0.03719534  0.09663633  0.00000000       0.083
   0.00000000  0.06442422  0.00000000       0.042
   0.00929883  0.08053027  0.00000000       0.083
   0.01859767  0.09663633  0.00000000       0.083
   0.02789650  0.11274238  0.00000000       0.042
   0.00000000  0.09663633  0.00000000       0.042
   0.00929883  0.11274238  0.00000000       0.083
   0.00000000  0.12884844  0.00000000       0.014
 
 k-points in reciprocal lattice and weights: K-points for BC3                        
   0.00000000  0.00000000  0.00000000       0.007
   0.08333333  0.00000000  0.00000000       0.042
   0.16666667  0.00000000  0.00000000       0.042
   0.25000000 -0.00000000  0.00000000       0.042
   0.33333333 -0.00000000  0.00000000       0.042
   0.41666667  0.00000000  0.00000000       0.042
   0.50000000 -0.00000000  0.00000000       0.021
   0.08333333  0.08333333  0.00000000       0.042
   0.16666667  0.08333333  0.00000000       0.083
   0.25000000  0.08333333  0.00000000       0.083
   0.33333333  0.08333333  0.00000000       0.083
   0.41666667  0.08333333  0.00000000       0.083
   0.16666667  0.16666667  0.00000000       0.042
   0.25000000  0.16666667  0.00000000       0.083
   0.33333333  0.16666667  0.00000000       0.083
   0.41666667  0.16666667  0.00000000       0.042
   0.25000000  0.25000000  0.00000000       0.042
   0.33333333  0.25000000  0.00000000       0.083
   0.33333333  0.33333333  0.00000000       0.014
 
 position of ions in fractional coordinates (direct lattice) 
   0.33333300  0.66666600  0.25000000
   0.66666600  0.33333300  0.25000000
   0.15869124  0.31738348  0.25000000
   0.31738348  0.15869124  0.25000000
   0.15869124  0.84130776  0.25000000
   0.84130776  0.15869124  0.25000000
   0.68261552  0.84130776  0.25000000
   0.84130776  0.68261552  0.25000000
 
 position of ions in cartesian coordinates  (Angst):
  -1.49361465  2.58701626  2.13005535
   1.49361465  2.58701626  2.13005535
  -0.71107588  1.23161429  2.13005535
   0.71107588  1.23161429  2.13005535
  -3.05870114  2.58701626  2.13005535
   3.05870114  2.58701626  2.13005535
  -0.71107588  3.94241824  2.13005535
   0.71107588  3.94241824  2.13005535
 


--------------------------------------------------------------------------------------------------------


 k-point  1 :   0.0000 0.0000 0.0000  plane waves:    4271
 k-point  2 :   0.0833 0.0000 0.0000  plane waves:    4257
 k-point  3 :   0.1667 0.0000 0.0000  plane waves:    4273
 k-point  4 :   0.2500-0.0000 0.0000  plane waves:    4286
 k-point  5 :   0.3333-0.0000 0.0000  plane waves:    4272
 k-point  6 :   0.4167 0.0000 0.0000  plane waves:    4280
 k-point  7 :   0.5000-0.0000 0.0000  plane waves:    4280
 k-point  8 :   0.0833 0.0833 0.0000  plane waves:    4273
 k-point  9 :   0.1667 0.0833 0.0000  plane waves:    4261
 k-point 10 :   0.2500 0.0833 0.0000  plane waves:    4277
 k-point 11 :   0.3333 0.0833 0.0000  plane waves:    4283
 k-point 12 :   0.4167 0.0833 0.0000  plane waves:    4292
 k-point 13 :   0.1667 0.1667 0.0000  plane waves:    4267
 k-point 14 :   0.2500 0.1667 0.0000  plane waves:    4287
 k-point 15 :   0.3333 0.1667 0.0000  plane waves:    4297
 k-point 16 :   0.4167 0.1667 0.0000  plane waves:    4305
 k-point 17 :   0.2500 0.2500 0.0000  plane waves:    4283
 k-point 18 :   0.3333 0.2500 0.0000  plane waves:    4306
 k-point 19 :   0.3333 0.3333 0.0000  plane waves:    4323

 maximum and minimum number of plane-waves per node :      4323     4257

 maximum number of plane-waves:      4323
 maximum index in each direction: 
   IXMAX=    8   IYMAX=    8   IZMAX=   14
   IXMIN=   -9   IYMIN=   -9   IZMIN=  -14


 serial   3D FFT for wavefunctions
 parallel 3D FFT for charge:
    minimum data exchange during FFTs selected (reduces bandwidth)


 total amount of memory used by VASP MPI-rank0    53287. kBytes
=======================================================================

   base      :      30000. kBytes
   nonl-proj :      11089. kBytes
   fftplans  :       2090. kBytes
   grid      :       6068. kBytes
   one-center:         24. kBytes
   wavefun   :       4016. kBytes
 
     INWAV:  cpu time    0.1356: real time    0.5657
 Broyden mixing: mesh for mixing (old mesh)
   NGX = 17   NGY = 17   NGZ = 29
  (NGX  = 72   NGY  = 72   NGZ  =120)
  gives a total of   8381 points

 initial charge density was supplied:
 charge density of overlapping atoms calculated
 number of electron      30.0000000 magnetization 
 keeping initial charge density in first step


--------------------------------------------------------------------------------------------------------


 Maximum index for augmentation-charges          403 (set IRDMAX)


--------------------------------------------------------------------------------------------------------


 First call to EWALD:  gamma=   0.304
 Maximum number of real-space cells 3x 3x 2
 Maximum number of reciprocal cells 2x 2x 4

    FEWALD:  cpu time    0.0019: real time    0.0020


--------------------------------------- Iteration      1(   1)  ---------------------------------------


    POTLOK:  cpu time    0.0364: real time    0.0378
    SETDIJ:  cpu time    0.0018: real time    0.0018

 total amount of memory used by VASP MPI-rank0   536599. kBytes
=======================================================================

   base      :      30000. kBytes
   nonl-proj :      11089. kBytes
   fftplans  :       2090. kBytes
   grid      :       6068. kBytes
   one-center:         24. kBytes
   wavefun   :     487328. kBytes
 
    EDDIAG:  cpu time  547.3186: real time  547.3176
       DOS:  cpu time    0.0090: real time    0.0090
    CHARGE:  cpu time    0.0567: real time    0.0567
    MIXING:  cpu time    0.0010: real time    0.0010
    --------------------------------------------
      LOOP:  cpu time  547.4235: real time  547.4241

 eigenvalue-minimisations  :     0
 total energy-change (2. order) :-0.7344063E+02  ( 0.0000000E+00)
 number of electron      29.9999996 magnetization 
 augmentation part        0.5836578 magnetization 

 Broyden mixing:
  rms(total) = 0.13116E+01    rms(broyden)= 0.13111E+01
  rms(prec ) = 0.18282E+01
  weight for this iteration     100.00

 Free energy of the ion-electron system (eV)
  ---------------------------------------------------
  alpha Z        PSCENC =        25.67921176
  Ewald energy   TEWEN  =       700.27145080
  -Hartree energ DENC   =     -1524.76618073
  -exchange      EXHF   =         0.00000000
  -V(xc)+E(xc)   XCENC  =        91.14273073
  PAW double counting   =       738.13200929     -739.83780425
  entropy T*S    EENTRO =        -0.00000000
  eigenvalues    EBANDS =      -389.26594481
  atomic energy  EATOM  =      1025.20389953
  Solvation  Ediel_sol  =         0.00000000
  ---------------------------------------------------
  free energy    TOTEN  =       -73.44062769 eV

  energy without entropy =      -73.44062769  energy(sigma->0) =      -73.44062769


--------------------------------------------------------------------------------------------------------




 average (electrostatic) potential at core
  the test charge radii are     0.7672  0.6991
  (the norm of the test charge is              1.0000)
       1 -38.0355       2 -38.0355       3 -61.8204       4 -61.8204       5 -61.8204
       6 -61.8204       7 -61.8204       8 -61.8204
 
 
 
 E-fermi :  -6.3986     XC(G=0):  -5.3024     alpha+bet : -4.1680


 k-point     1 :       0.0000    0.0000    0.0000
  band No.  band energies     occupation 
      1     -22.7334      2.00000
      2     -19.0608      2.00000
      3     -19.0608      2.00000
      4     -16.6384      2.00000
      5     -16.6384      2.00000
      6     -15.2938      2.00000
      7     -13.8399      2.00000
      8     -12.0412      2.00000
      9     -10.2609      2.00000
     10      -9.5172      2.00000
     11      -9.5172      2.00000
     12      -7.2387      2.00000
     13      -7.2386      2.00000
     14      -6.4428      2.00000
     15      -6.4428      2.00000
     16      -3.3504      0.00000
     17      -2.0528      0.00000
     18      -2.0527      0.00000
     19      -0.6510      0.00000
     20       1.9794      0.00000
     21       2.5313      0.00000
     22       2.5313      0.00000
     23       3.8416      0.00000
     24       3.8417      0.00000
     25       3.9800      0.00000
     26       4.5773      0.00000
     27       6.2084      0.00000
     28       6.6740      0.00000
     29       7.1884      0.00000
     30       9.0932      0.00000
     31       9.0932      0.00000
     32       9.2331      0.00000
     33       9.2331      0.00000
     34       9.2629      0.00000
     35       9.5070      0.00000
     36       9.8613      0.00000

 k-point     2 :       0.0833    0.0000    0.0000
  band No.  band energies     occupation 
      1     -22.7092      2.00000
      2     -19.1697      2.00000
      3     -19.0963      2.00000
      4     -16.6580      2.00000
      5     -16.5518      2.00000
      6     -15.1781      2.00000
      7     -13.7107      2.00000
      8     -12.0886      2.00000
      9     -10.2231      2.00000
     10      -9.6263      2.00000
     11      -9.5365      2.00000
     12      -7.3633      2.00000
     13      -7.2988      2.00000
     14      -6.5412      2.00000
     15      -6.4577      2.00000
     16      -3.5843      0.00000
     17      -2.0098      0.00000
     18      -1.7217      0.00000
     19      -0.5566      0.00000
     20       2.0338      0.00000
     21       2.5952      0.00000
     22       2.6812      0.00000
     23       3.8623      0.00000
     24       3.9962      0.00000
     25       4.0807      0.00000
     26       4.6263      0.00000
     27       6.2594      0.00000
     28       6.5500      0.00000
     29       7.1776      0.00000
     30       8.2304      0.00000
     31       8.6677      0.00000
     32       8.8758      0.00000
     33       9.6061      0.00000
     34       9.6717      0.00000
     35       9.6883      0.00000
     36       9.8412      0.00000

 k-point     3 :       0.1667    0.0000    0.0000
  band No.  band energies     occupation 
      1     -22.6393      2.00000
      2     -19.4441      2.00000
      3     -19.1850      2.00000
      4     -16.7267      2.00000
      5     -16.3133      2.00000
      6     -14.8445      2.00000
      7     -13.3545      2.00000
      8     -12.2371      2.00000
      9     -10.1114      2.00000
     10      -9.9344      2.00000
     11      -9.5723      2.00000
     12      -7.7210      2.00000
     13      -7.4666      2.00000
     14      -6.8155      2.00000
     15      -6.4979      2.00000
     16      -3.9586      0.00000
     17      -1.8924      0.00000
     18      -1.1238      0.00000
     19      -0.2355      0.00000
     20       2.1895      0.00000
     21       2.7489      0.00000
     22       3.1163      0.00000
     23       3.9296      0.00000
     24       4.3759      0.00000
     25       4.4425      0.00000
     26       4.7730      0.00000
     27       6.1897      0.00000
     28       6.3976      0.00000
     29       6.9335      0.00000
     30       7.6012      0.00000
     31       8.2514      0.00000
     32       8.5816      0.00000
     33       9.0000      0.00000
     34       9.2614      0.00000
     35       9.9841      0.00000
     36      10.0946      0.00000

 k-point     4 :       0.2500   -0.0000    0.0000
  band No.  band energies     occupation 
      1     -22.5318      2.00000
      2     -19.7858      2.00000
      3     -19.2913      2.00000
      4     -16.8282      2.00000
      5     -15.9704      2.00000
      6     -14.3505      2.00000
      7     -12.8360      2.00000
      8     -12.4904      2.00000
      9     -10.3897      2.00000
     10      -9.9315      2.00000
     11      -9.5798      2.00000
     12      -8.2670      2.00000
     13      -7.7077      2.00000
     14      -7.2083      2.00000
     15      -6.5507      2.00000
     16      -4.2615      0.00000
     17      -1.7296      0.00000
     18      -0.6396      0.00000
     19       0.3999      0.00000
     20       2.4330      0.00000
     21       2.9184      0.00000
     22       3.7970      0.00000
     23       3.9995      0.00000
     24       4.8787      0.00000
     25       5.0149      0.00000
     26       5.1373      0.00000
     27       5.6309      0.00000
     28       6.1328      0.00000
     29       6.7319      0.00000
     30       7.5057      0.00000
     31       7.9218      0.00000
     32       8.2897      0.00000
     33       8.5215      0.00000
     34       8.8136      0.00000
     35       9.5177      0.00000
     36       9.9617      0.00000

 k-point     5 :       0.3333   -0.0000    0.0000
  band No.  band energies     occupation 
      1     -22.4049      2.00000
      2     -20.1126      2.00000
      3     -19.3849      2.00000
      4     -16.9254      2.00000
      5     -15.5809      2.00000
      6     -13.7663      2.00000
      7     -12.8211      2.00000
      8     -12.2389      2.00000
      9     -10.9055      2.00000
     10      -9.6987      2.00000
     11      -9.5341      2.00000
     12      -8.9438      2.00000
     13      -7.9714      2.00000
     14      -7.6417      2.00000
     15      -6.6011      2.00000
     16      -4.4685      0.00000
     17      -1.5640      0.00000
     18      -0.3162      0.00000
     19       1.2591      0.00000
     20       2.7414      0.00000
     21       3.0734      0.00000
     22       4.0290      0.00000
     23       4.6641      0.00000
     24       4.9121      0.00000
     25       5.2043      0.00000
     26       5.3567      0.00000
     27       5.7778      0.00000
     28       6.0206      0.00000
     29       7.0408      0.00000
     30       7.4823      0.00000
     31       7.5886      0.00000
     32       7.6924      0.00000
     33       8.4237      0.00000
     34       8.6643      0.00000
     35       9.0979      0.00000
     36       9.2830      0.00000

 k-point     6 :       0.4167    0.0000    0.0000
  band No.  band energies     occupation 
      1     -22.2931      2.00000
      2     -20.3551      2.00000
      3     -19.4473      2.00000
      4     -16.9922      2.00000
      5     -15.2295      2.00000
      6     -13.1512      2.00000
      7     -13.1449      2.00000
      8     -11.9339      2.00000
      9     -11.1003      2.00000
     10      -9.6886      2.00000
     11      -9.4569      2.00000
     12      -9.4558      2.00000
     13      -8.1921      2.00000
     14      -8.0234      2.00000
     15      -6.6368      2.00000
     16      -4.5879      0.00000
     17      -1.4402      0.00000
     18      -0.1106      0.00000
     19       2.1869      0.00000
     20       3.0006      0.00000
     21       3.2952      0.00000
     22       4.0033      0.00000
     23       4.0966      0.00000
     24       4.6641      0.00000
     25       5.6228      0.00000
     26       5.7712      0.00000
     27       6.4648      0.00000
     28       6.9442      0.00000
     29       6.9735      0.00000
     30       7.2116      0.00000
     31       7.6210      0.00000
     32       7.6595      0.00000
     33       8.1580      0.00000
     34       8.3079      0.00000
     35       8.3910      0.00000
     36       8.7964      0.00000

 k-point     7 :       0.5000   -0.0000    0.0000
  band No.  band energies     occupation 
      1     -22.2463      2.00000
      2     -20.4471      2.00000
      3     -19.4691      2.00000
      4     -17.0156      2.00000
      5     -15.0716      2.00000
      6     -13.2955      2.00000
      7     -12.7075      2.00000
      8     -12.2282      2.00000
      9     -10.6462      2.00000
     10     -10.3010      2.00000
     11      -9.4150      2.00000
     12      -9.3307      2.00000
     13      -8.2833      2.00000
     14      -8.1977      2.00000
     15      -6.6497      2.00000
     16      -4.6269      0.00000
     17      -1.3945      0.00000
     18      -0.0375      0.00000
     19       2.9309      0.00000
     20       3.0696      0.00000
     21       3.3926      0.00000
     22       3.5474      0.00000
     23       3.9107      0.00000
     24       4.3791      0.00000
     25       6.1310      0.00000
     26       6.2607      0.00000
     27       6.5074      0.00000
     28       7.0657      0.00000
     29       7.0795      0.00000
     30       7.3291      0.00000
     31       7.6005      0.00000
     32       7.6601      0.00000
     33       8.0635      0.00000
     34       8.3294      0.00000
     35       8.3814      0.00000
     36       8.4855      0.00000

 k-point     8 :       0.0833    0.0833    0.0000
  band No.  band energies     occupation 
      1     -22.6622      2.00000
      2     -19.3502      2.00000
      3     -19.1703      2.00000
      4     -16.6677      2.00000
      5     -16.4273      2.00000
      6     -14.9476      2.00000
      7     -13.4695      2.00000
      8     -12.1879      2.00000
      9     -10.1484      2.00000
     10      -9.8182      2.00000
     11      -9.5799      2.00000
     12      -7.5967      2.00000
     13      -7.4206      2.00000
     14      -6.7139      2.00000
     15      -6.5020      2.00000
     16      -3.8508      0.00000
     17      -1.9703      0.00000
     18      -1.2383      0.00000
     19      -0.3622      0.00000
     20       2.1401      0.00000
     21       2.7358      0.00000
     22       2.9336      0.00000
     23       3.9348      0.00000
     24       4.2720      0.00000
     25       4.2794      0.00000
     26       4.7242      0.00000
     27       6.3075      0.00000
     28       6.3573      0.00000
     29       7.0906      0.00000
     30       7.6872      0.00000
     31       8.0754      0.00000
     32       9.2677      0.00000
     33       9.2848      0.00000
     34       9.3299      0.00000
     35       9.3508      0.00000
     36      10.0998      0.00000

 k-point     9 :       0.1667    0.0833    0.0000
  band No.  band energies     occupation 
      1     -22.5732      2.00000
      2     -19.6381      2.00000
      3     -19.2908      2.00000
      4     -16.7047      2.00000
      5     -16.1925      2.00000
      6     -14.5163      2.00000
      7     -13.0382      2.00000
      8     -12.3964      2.00000
      9     -10.1611      2.00000
     10     -10.0023      2.00000
     11      -9.6347      2.00000
     12      -8.0290      2.00000
     13      -7.6435      2.00000
     14      -7.0231      2.00000
     15      -6.5877      2.00000
     16      -4.1144      0.00000
     17      -1.9117      0.00000
     18      -0.6267      0.00000
     19       0.0676      0.00000
     20       2.3451      0.00000
     21       2.9513      0.00000
     22       3.3906      0.00000
     23       4.0699      0.00000
     24       4.7035      0.00000
     25       4.7819      0.00000
     26       4.9189      0.00000
     27       5.8501      0.00000
     28       6.4526      0.00000
     29       6.6955      0.00000
     30       7.2037      0.00000
     31       7.9941      0.00000
     32       8.6341      0.00000
     33       8.8667      0.00000
     34       9.0257      0.00000
     35       9.6177      0.00000
     36       9.8235      0.00000

 k-point    10 :       0.2500    0.0833    0.0000
  band No.  band energies     occupation 
      1     -22.4548      2.00000
      2     -19.9585      2.00000
      3     -19.4093      2.00000
      4     -16.7794      2.00000
      5     -15.8505      2.00000
      6     -13.9630      2.00000
      7     -12.7066      2.00000
      8     -12.4814      2.00000
      9     -10.6157      2.00000
     10      -9.7946      2.00000
     11      -9.6429      2.00000
     12      -8.6160      2.00000
     13      -7.9169      2.00000
     14      -7.4215      2.00000
     15      -6.6789      2.00000
     16      -4.2959      0.00000
     17      -1.8237      0.00000
     18      -0.1829      0.00000
     19       0.8020      0.00000
     20       2.6357      0.00000
     21       3.1256      0.00000
     22       3.9905      0.00000
     23       4.2545      0.00000
     24       5.1830      0.00000
     25       5.2427      0.00000
     26       5.2884      0.00000
     27       5.4721      0.00000
     28       5.8882      0.00000
     29       6.7782      0.00000
     30       7.1152      0.00000
     31       7.9410      0.00000
     32       8.1110      0.00000
     33       8.4729      0.00000
     34       8.8911      0.00000
     35       9.1408      0.00000
     36       9.5488      0.00000

 k-point    11 :       0.3333    0.0833    0.0000
  band No.  band energies     occupation 
      1     -22.3323      2.00000
      2     -20.2378      2.00000
      3     -19.4987      2.00000
      4     -16.8499      2.00000
      5     -15.4764      2.00000
      6     -13.3786      2.00000
      7     -13.0403      2.00000
      8     -11.9331      2.00000
      9     -11.0505      2.00000
     10      -9.6201      2.00000
     11      -9.5506      2.00000
     12      -9.2770      2.00000
     13      -8.1795      2.00000
     14      -7.8277      2.00000
     15      -6.7508      2.00000
     16      -4.4045      0.00000
     17      -1.7313      0.00000
     18       0.1032      0.00000
     19       1.6963      0.00000
     20       2.9811      0.00000
     21       3.2675      0.00000
     22       4.1304      0.00000
     23       4.4538      0.00000
     24       4.8817      0.00000
     25       5.1227      0.00000
     26       5.5880      0.00000
     27       6.1099      0.00000
     28       6.3984      0.00000
     29       6.8243      0.00000
     30       7.2753      0.00000
     31       7.4607      0.00000
     32       8.0806      0.00000
     33       8.1566      0.00000
     34       8.6804      0.00000
     35       8.7424      0.00000
     36       8.7644      0.00000

 k-point    12 :       0.4167    0.0833    0.0000
  band No.  band energies     occupation 
      1     -22.2488      2.00000
      2     -20.4054      2.00000
      3     -19.5461      2.00000
      4     -16.8903      2.00000
      5     -15.1969      2.00000
      6     -13.3710      2.00000
      7     -12.7408      2.00000
      8     -11.9913      2.00000
      9     -10.8506      2.00000
     10     -10.0698      2.00000
     11      -9.4790      2.00000
     12      -9.3463      2.00000
     13      -8.3531      2.00000
     14      -8.1232      2.00000
     15      -6.7898      2.00000
     16      -4.4556      0.00000
     17      -1.6723      0.00000
     18       0.2552      0.00000
     19       2.6022      0.00000
     20       3.1983      0.00000
     21       3.5224      0.00000
     22       3.6248      0.00000
     23       4.0253      0.00000
     24       4.5266      0.00000
     25       5.9075      0.00000
     26       6.0256      0.00000
     27       6.4252      0.00000
     28       6.6893      0.00000
     29       6.9407      0.00000
     30       7.4404      0.00000
     31       7.7166      0.00000
     32       7.8676      0.00000
     33       7.9779      0.00000
     34       8.0289      0.00000
     35       8.4341      0.00000
     36       8.5569      0.00000

 k-point    13 :       0.1667    0.1667    0.0000
  band No.  band energies     occupation 
      1     -22.4724      2.00000
      2     -19.8697      2.00000
      3     -19.4628      2.00000
      4     -16.6075      2.00000
      5     -16.0697      2.00000
      6     -14.0072      2.00000
      7     -12.6753      2.00000
      8     -12.5768      2.00000
      9     -10.4308      2.00000
     10      -9.8277      2.00000
     11      -9.7546      2.00000
     12      -8.4651      2.00000
     13      -7.9347      2.00000
     14      -7.2896      2.00000
     15      -6.7814      2.00000
     16      -4.1655      0.00000
     17      -2.0166      0.00000
     18       0.0711      0.00000
     19       0.4891      0.00000
     20       2.6042      0.00000
     21       3.3425      0.00000
     22       3.6276      0.00000
     23       4.3449      0.00000
     24       5.1599      0.00000
     25       5.1692      0.00000
     26       5.2778      0.00000
     27       5.3227      0.00000
     28       6.2923      0.00000
     29       6.3269      0.00000
     30       6.9961      0.00000
     31       8.2075      0.00000
     32       8.2316      0.00000
     33       8.3251      0.00000
     34       9.0965      0.00000
     35       9.4696      0.00000
     36       9.5348      0.00000

 k-point    14 :       0.2500    0.1667    0.0000
  band No.  band energies     occupation 
      1     -22.3551      2.00000
      2     -20.1079      2.00000
      3     -19.6191      2.00000
      4     -16.5699      2.00000
      5     -15.8189      2.00000
      6     -13.4512      2.00000
      7     -13.0013      2.00000
      8     -12.0365      2.00000
      9     -10.7720      2.00000
     10      -9.8351      2.00000
     11      -9.6037      2.00000
     12      -8.9939      2.00000
     13      -8.2609      2.00000
     14      -7.6157      2.00000
     15      -6.9691      2.00000
     16      -4.1360      0.00000
     17      -2.1039      0.00000
     18       0.5634      0.00000
     19       1.1896      0.00000
     20       2.9530      0.00000
     21       3.5832      0.00000
     22       4.1262      0.00000
     23       4.5918      0.00000
     24       4.6489      0.00000
     25       5.3721      0.00000
     26       5.4921      0.00000
     27       5.6350      0.00000
     28       6.1476      0.00000
     29       6.3338      0.00000
     30       7.3585      0.00000
     31       7.6343      0.00000
     32       7.9861      0.00000
     33       8.4560      0.00000
     34       8.6148      0.00000
     35       8.8001      0.00000
     36       9.2513      0.00000

 k-point    15 :       0.3333    0.1667    0.0000
  band No.  band energies     occupation 
      1     -22.2539      2.00000
      2     -20.2978      2.00000
      3     -19.7179      2.00000
      4     -16.5818      2.00000
      5     -15.5120      2.00000
      6     -13.4884      2.00000
      7     -12.7126      2.00000
      8     -11.6637      2.00000
      9     -10.9990      2.00000
     10      -9.9495      2.00000
     11      -9.4696      2.00000
     12      -9.3750      2.00000
     13      -8.5296      2.00000
     14      -7.9350      2.00000
     15      -7.0844      2.00000
     16      -4.0924      0.00000
     17      -2.1519      0.00000
     18       0.8159      0.00000
     19       2.0641      0.00000
     20       3.3720      0.00000
     21       3.6798      0.00000
     22       3.8724      0.00000
     23       4.3750      0.00000
     24       4.7715      0.00000
     25       5.2793      0.00000
     26       5.7205      0.00000
     27       5.9038      0.00000
     28       6.7088      0.00000
     29       6.8457      0.00000
     30       7.0325      0.00000
     31       7.7666      0.00000
     32       7.7859      0.00000
     33       7.9602      0.00000
     34       8.2949      0.00000
     35       8.3120      0.00000
     36       8.7240      0.00000

 k-point    16 :       0.4167    0.1667    0.0000
  band No.  band energies     occupation 
      1     -22.2122      2.00000
      2     -20.3719      2.00000
      3     -19.7509      2.00000
      4     -16.5909      2.00000
      5     -15.3592      2.00000
      6     -13.6462      2.00000
      7     -12.2957      2.00000
      8     -11.8683      2.00000
      9     -10.7225      2.00000
     10     -10.2673      2.00000
     11      -9.5782      2.00000
     12      -9.2610      2.00000
     13      -8.6398      2.00000
     14      -8.0849      2.00000
     15      -7.1222      2.00000
     16      -4.0744      0.00000
     17      -2.1659      0.00000
     18       0.9012      0.00000
     19       2.7872      0.00000
     20       3.1875      0.00000
     21       3.6338      0.00000
     22       3.8276      0.00000
     23       4.0654      0.00000
     24       4.7380      0.00000
     25       5.7142      0.00000
     26       5.7922      0.00000
     27       6.2632      0.00000
     28       6.6071      0.00000
     29       6.7170      0.00000
     30       7.3534      0.00000
     31       7.6858      0.00000
     32       7.7034      0.00000
     33       7.9428      0.00000
     34       7.9742      0.00000
     35       8.1852      0.00000
     36       8.4826      0.00000

 k-point    17 :       0.2500    0.2500    0.0000
  band No.  band energies     occupation 
      1     -22.2563      2.00000
      2     -20.2156      2.00000
      3     -19.8293      2.00000
      4     -16.3367      2.00000
      5     -15.7628      2.00000
      6     -13.5342      2.00000
      7     -12.6824      2.00000
      8     -11.5801      2.00000
      9     -10.9489      2.00000
     10     -10.0521      2.00000
     11      -9.3882      2.00000
     12      -9.3346      2.00000
     13      -8.6583      2.00000
     14      -7.7876      2.00000
     15      -7.2765      2.00000
     16      -3.8744      0.00000
     17      -2.4080      0.00000
     18       1.3057      0.00000
     19       1.5891      0.00000
     20       3.3625      0.00000
     21       3.9634      0.00000
     22       4.2375      0.00000
     23       4.2530      0.00000
     24       4.8719      0.00000
     25       5.0906      0.00000
     26       5.3814      0.00000
     27       5.8591      0.00000
     28       6.2834      0.00000
     29       6.8150      0.00000
     30       7.3481      0.00000
     31       7.5072      0.00000
     32       7.7982      0.00000
     33       7.9933      0.00000
     34       8.1682      0.00000
     35       8.3627      0.00000
     36       8.9107      0.00000

 k-point    18 :       0.3333    0.2500    0.0000
  band No.  band energies     occupation 
      1     -22.1921      2.00000
      2     -20.2726      2.00000
      3     -19.9583      2.00000
      4     -16.2236      2.00000
      5     -15.6440      2.00000
      6     -13.8200      2.00000
      7     -12.0826      2.00000
      8     -11.4911      2.00000
      9     -11.0203      2.00000
     10     -10.2042      2.00000
     11      -9.5367      2.00000
     12      -9.2216      2.00000
     13      -8.9587      2.00000
     14      -7.9238      2.00000
     15      -7.4568      2.00000
     16      -3.6481      0.00000
     17      -2.6414      0.00000
     18       1.5802      0.00000
     19       2.3214      0.00000
     20       3.2070      0.00000
     21       3.8514      0.00000
     22       4.2831      0.00000
     23       4.4650      0.00000
     24       4.9300      0.00000
     25       5.0567      0.00000
     26       5.3759      0.00000
     27       6.2823      0.00000
     28       6.5723      0.00000
     29       6.7749      0.00000
     30       6.8847      0.00000
     31       7.3264      0.00000
     32       7.6298      0.00000
     33       7.8504      0.00000
     34       7.9262      0.00000
     35       8.2884      0.00000
     36       8.6016      0.00000

 k-point    19 :       0.3333    0.3333    0.0000
  band No.  band energies     occupation 
      1     -22.1685      2.00000
      2     -20.1554      2.00000
      3     -20.1554      2.00000
      4     -15.8838      2.00000
      5     -15.8838      2.00000
      6     -13.9624      2.00000
      7     -11.5149      2.00000
      8     -11.5149      2.00000
      9     -11.3207      2.00000
     10     -10.2211      2.00000
     11      -9.3544      2.00000
     12      -9.3543      2.00000
     13      -9.1587      2.00000
     14      -7.7598      2.00000
     15      -7.7598      2.00000
     16      -3.1504      0.00000
     17      -3.1503      0.00000
     18       2.1054      0.00000
     19       2.5652      0.00000
     20       2.5652      0.00000
     21       4.3781      0.00000
     22       4.3781      0.00000
     23       4.4712      0.00000
     24       4.8735      0.00000
     25       5.1380      0.00000
     26       5.1381      0.00000
     27       6.5453      0.00000
     28       6.5454      0.00000
     29       6.5576      0.00000
     30       6.9287      0.00000
     31       6.9287      0.00000
     32       7.2170      0.00000
     33       7.7959      0.00000
     34       8.3061      0.00000
     35       8.3195      0.00000
     36       8.3195      0.00000


--------------------------------------------------------------------------------------------------------


 soft charge-density along one line, spin component           1
         0         1         2         3         4         5         6         7         8         9
 total charge-density along one line
 
 pseudopotential strength for first ion, spin component:           1
  6.909  10.558   0.000  -0.000   0.000   0.000  -0.000   0.000
 10.558  16.130   0.000  -0.000   0.000   0.000  -0.000   0.000
  0.000   0.000  -2.446   0.000  -0.000  -4.225   0.000  -0.000
 -0.000  -0.000   0.000  -2.431   0.000   0.000  -4.193   0.000
  0.000   0.000  -0.000   0.000  -2.446  -0.000   0.000  -4.225
  0.000   0.000  -4.225   0.000  -0.000  -7.100   0.000  -0.000
 -0.000  -0.000   0.000  -4.193   0.000   0.000  -7.037   0.000
  0.000   0.000  -0.000   0.000  -4.225  -0.000   0.000  -7.100
 total augmentation occupancy for first ion, spin component:           1
  3.488  -0.857   0.000  -0.000   0.000   0.000  -0.000   0.000
 -0.857   0.229   0.000   0.000  -0.000   0.000  -0.000  -0.000
  0.000   0.000   3.939   0.000   0.000  -1.027  -0.000   0.000
 -0.000   0.000   0.000   0.685   0.000   0.000  -0.153   0.000
  0.000   0.000   0.000   0.000   3.939   0.000   0.000  -1.027
  0.000   0.000  -1.027   0.000   0.000   0.278   0.000   0.000
  0.000   0.000   0.000  -0.153   0.000  -0.000   0.035   0.000
  0.000   0.000   0.000   0.000  -1.027   0.000  -0.000   0.278


--------------------------------------- Iteration      1(   2)  ---------------------------------------


    POTLOK:  cpu time    0.0341: real time    0.0341
    SETDIJ:  cpu time    0.0018: real time    0.0018

 total amount of memory used by VASP MPI-rank0   536599. kBytes
=======================================================================

   base      :      30000. kBytes
   nonl-proj :      11089. kBytes
   fftplans  :       2090. kBytes
   grid      :       6068. kBytes
   one-center:         24. kBytes
   wavefun   :     487328. kBytes
 
    EDDIAG:  cpu time  571.3279: real time  571.3252
       DOS:  cpu time    0.0094: real time    0.0094
    CHARGE:  cpu time    0.0568: real time    0.0568
    MIXING:  cpu time    0.0011: real time    0.0011
    --------------------------------------------
      LOOP:  cpu time  571.4311: real time  571.4283

 eigenvalue-minimisations  :     0
 total energy-change (2. order) : 0.4441616E+01  ( 0.0000000E+00)
 number of electron      29.9999996 magnetization 
 augmentation part        0.5352694 magnetization 

 Broyden mixing:
  rms(total) = 0.74920E+00    rms(broyden)= 0.74914E+00
  rms(prec ) = 0.10055E+01
  weight for this iteration     100.00

 eigenvalues of (default mixing * dielectric matrix)
  average eigenvalue GAMMA=   1.9333
  1.9333

 Free energy of the ion-electron system (eV)
  ---------------------------------------------------
  alpha Z        PSCENC =        25.67921176
  Ewald energy   TEWEN  =       700.27145080
  -Hartree energ DENC   =     -1568.79879002
  -exchange      EXHF   =         0.00000000
  -V(xc)+E(xc)   XCENC  =        93.15071350
  PAW double counting   =      1377.47499658    -1379.74164507
  entropy T*S    EENTRO =        -0.00000000
  eigenvalues    EBANDS =      -342.23884869
  atomic energy  EATOM  =      1025.20389953
  Solvation  Ediel_sol  =         0.00000000
  ---------------------------------------------------
  free energy    TOTEN  =       -68.99901163 eV

  energy without entropy =      -68.99901163  energy(sigma->0) =      -68.99901163


--------------------------------------------------------------------------------------------------------




 average (electrostatic) potential at core
  the test charge radii are     0.7672  0.6991
  (the norm of the test charge is              1.0000)
       1 -36.8569       2 -36.8569       3 -58.9660       4 -58.9660       5 -58.9659
       6 -58.9659       7 -58.9660       8 -58.9660
 
 
 
 E-fermi :  -5.0901     XC(G=0):  -5.4078     alpha+bet : -4.1680


 k-point     1 :       0.0000    0.0000    0.0000
  band No.  band energies     occupation 
      1     -21.0631      2.00000
      2     -17.2563      2.00000
      3     -17.2563      2.00000
      4     -14.9872      2.00000
      5     -14.9871      2.00000
      6     -13.8681      2.00000
      7     -12.6136      2.00000
      8      -9.9858      2.00000
      9      -9.1965      2.00000
     10      -7.8555      2.00000
     11      -7.8554      2.00000
     12      -5.4248      2.00000
     13      -5.4246      2.00000
     14      -5.1317      2.00000
     15      -5.1317      2.00000
     16      -2.6650      0.00000
     17      -0.8347      0.00000
     18      -0.8346      0.00000
     19      -0.0502      0.00000
     20       1.7407      0.00000
     21       3.8682      0.00000
     22       3.8682      0.00000
     23       4.3413      0.00000
     24       4.7652      0.00000
     25       5.3611      0.00000
     26       5.3614      0.00000
     27       6.0565      0.00000
     28       8.0420      0.00000
     29       8.0477      0.00000
     30       8.9306      0.00000
     31       8.9307      0.00000
     32       9.0565      0.00000
     33       9.0568      0.00000
     34       9.1493      0.00000
     35       9.7532      0.00000
     36      10.0295      0.00000

 k-point     2 :       0.0833    0.0000    0.0000
  band No.  band energies     occupation 
      1     -21.0363      2.00000
      2     -17.3861      2.00000
      3     -17.2987      2.00000
      4     -15.0222      2.00000
      5     -14.8902      2.00000
      6     -13.7376      2.00000
      7     -12.4594      2.00000
      8     -10.0393      2.00000
      9      -9.1561      2.00000
     10      -7.9707      2.00000
     11      -7.8753      2.00000
     12      -5.5604      2.00000
     13      -5.4915      2.00000
     14      -5.2482      2.00000
     15      -5.1496      2.00000
     16      -2.8495      0.00000
     17      -0.7830      0.00000
     18      -0.5491      0.00000
     19       0.0644      0.00000
     20       1.7930      0.00000
     21       3.9352      0.00000
     22       4.0264      0.00000
     23       4.3910      0.00000
     24       4.8543      0.00000
     25       5.3760      0.00000
     26       5.5211      0.00000
     27       6.1245      0.00000
     28       7.7098      0.00000
     29       7.9087      0.00000
     30       8.2215      0.00000
     31       8.4626      0.00000
     32       9.0457      0.00000
     33       9.6003      0.00000
     34       9.6779      0.00000
     35       9.8104      0.00000
     36       9.8505      0.00000

 k-point     3 :       0.1667    0.0000    0.0000
  band No.  band energies     occupation 
      1     -20.9581      2.00000
      2     -17.7056      2.00000
      3     -17.4029      2.00000
      4     -15.1292      2.00000
      5     -14.6258      2.00000
      6     -13.3681      2.00000
      7     -12.0453      2.00000
      8     -10.2098      2.00000
      9      -9.0362      2.00000
     10      -8.2953      2.00000
     11      -7.9063      2.00000
     12      -5.9489      2.00000
     13      -5.6776      2.00000
     14      -5.5706      2.00000
     15      -5.1976      2.00000
     16      -3.1741      0.00000
     17      -0.6412      0.00000
     18      -0.0708      0.00000
     19       0.5205      0.00000
     20       1.9487      0.00000
     21       4.0809      0.00000
     22       4.4825      0.00000
     23       4.5396      0.00000
     24       5.1356      0.00000
     25       5.4105      0.00000
     26       5.9825      0.00000
     27       6.2845      0.00000
     28       6.8839      0.00000
     29       7.5084      0.00000
     30       7.8747      0.00000
     31       8.0278      0.00000
     32       8.9573      0.00000
     33       9.1114      0.00000
     34       9.3762      0.00000
     35      10.0103      0.00000
     36      10.2354      0.00000

 k-point     4 :       0.2500   -0.0000    0.0000
  band No.  band energies     occupation 
      1     -20.8361      2.00000
      2     -18.0959      2.00000
      3     -17.5247      2.00000
      4     -15.2677      2.00000
      5     -14.2493      2.00000
      6     -12.8412      2.00000
      7     -11.4551      2.00000
      8     -10.5042      2.00000
      9      -8.8411      2.00000
     10      -8.7740      2.00000
     11      -7.8944      2.00000
     12      -6.5400      2.00000
     13      -6.0256      2.00000
     14      -5.9458      2.00000
     15      -5.2599      2.00000
     16      -3.4462      0.00000
     17      -0.4440      0.00000
     18       0.2771      0.00000
     19       1.3491      0.00000
     20       2.2053      0.00000
     21       4.2229      0.00000
     22       4.7858      0.00000
     23       5.1866      0.00000
     24       5.3379      0.00000
     25       5.6370      0.00000
     26       5.9047      0.00000
     27       6.6950      0.00000
     28       6.7901      0.00000
     29       6.8982      0.00000
     30       7.6371      0.00000
     31       7.6961      0.00000
     32       8.1886      0.00000
     33       8.9226      0.00000
     34       9.2063      0.00000
     35       9.5778      0.00000
     36       9.8598      0.00000

 k-point     5 :       0.3333   -0.0000    0.0000
  band No.  band energies     occupation 
      1     -20.6885      2.00000
      2     -18.4679      2.00000
      3     -17.6301      2.00000
      4     -15.3901      2.00000
      5     -13.8224      2.00000
      6     -12.2360      2.00000
      7     -10.8885      2.00000
      8     -10.7733      2.00000
      9      -9.3227      2.00000
     10      -8.5827      2.00000
     11      -7.8148      2.00000
     12      -7.2716      2.00000
     13      -6.5229      2.00000
     14      -6.2432      2.00000
     15      -5.3191      2.00000
     16      -3.6347      0.00000
     17      -0.2417      0.00000
     18       0.5660      0.00000
     19       2.3150      0.00000
     20       2.5608      0.00000
[...]
    3.042585   -1.454194   -1.454194    1.693769   -0.000000   -0.000000   -0.000000
    3.194715   -0.359432   -0.359432    1.703228   -0.000000   -0.000000   -0.000000
    3.346844   -0.016959   -0.016959    1.696500   -0.000000   -0.000000    0.000000
    3.498973    0.168041    0.168041    1.707258   -0.000000   -0.000000    0.000000
    3.651102    0.640181    0.640181    1.723192   -0.000000   -0.000000    0.000000
    3.803232    1.076007    1.076007    1.736809   -0.000000   -0.000000    0.000000
    3.955361    1.102244    1.102244    1.738736   -0.000000    0.000000    0.000000
    4.107490    1.622793    1.622792    1.736192   -0.000000    0.000000    0.000000
    4.259619    2.060943    2.060942    1.751769   -0.000000    0.000000    0.000000
    4.411749    1.840657    1.840657    1.768270   -0.000000    0.000000    0.000000
    4.563878    1.514763    1.514763    1.772422   -0.000000   -0.000000   -0.000000
    4.716007    1.074488    1.074488    1.789404   -0.000000   -0.000000   -0.000000
    4.868137    1.270081    1.270081    1.799042   -0.000000    0.000000   -0.000000
    5.020266    1.067887    1.067887    1.761611   -0.000000   -0.000000   -0.000000
    5.172395    0.043711    0.043711    1.735671   -0.000000   -0.000000   -0.000000
    5.324524    0.126028    0.126028    1.777521   -0.000000   -0.000000   -0.000000
    5.476654    0.326888    0.326888    1.790062   -0.000000    0.000000   -0.000000
    5.628783    0.443796    0.443796    1.817492   -0.000000    0.000000   -0.000000
    5.780912    0.305188    0.305189    1.850445   -0.000000   -0.000000   -0.000000
    5.933041    0.504656    0.504656    1.879545   -0.000000   -0.000000    0.000000
    6.085171    0.578065    0.578065    1.907217   -0.000000   -0.000000    0.000000
    6.237300    0.742956    0.742956    1.914893   -0.000000   -0.000000    0.000000
    6.389429    0.609512    0.609512    1.939574   -0.000000   -0.000000    0.000000
    6.541558    0.887026    0.887026    1.966967   -0.000000    0.000000    0.000000
    6.693688    0.965829    0.965829    1.988066   -0.000000   -0.000000    0.000000
    6.845817    0.866281    0.866281    2.021393   -0.000000   -0.000000    0.000000
    6.997946    0.967852    0.967852    2.025251   -0.000000   -0.000000   -0.000000
    7.150075    1.089843    1.089843    2.073900   -0.000000   -0.000000   -0.000000
    7.302205    1.218642    1.218642    2.095464   -0.000000   -0.000000    0.000000
    7.454334    1.153014    1.153014    2.151442   -0.000000   -0.000000    0.000000
    7.606463    1.195793    1.195793    2.206335   -0.000000   -0.000000    0.000000
    7.758593    1.326201    1.326201    2.223371   -0.000000    0.000000    0.000000
    7.910722    1.421378    1.421378    2.299013   -0.000000    0.000000    0.000000
    8.062851    1.460195    1.460195    2.426363   -0.000000    0.000000    0.000000
    8.214980    1.412675    1.412675    2.463223    0.000000   -0.000000    0.000000
    8.367110    1.459982    1.459982    2.490157   -0.000000   -0.000000    0.000000
    8.519239    1.573510    1.573510    2.650959   -0.000000   -0.000000    0.000000
    8.671368    1.689920    1.689920    2.910265   -0.000000   -0.000000    0.000000
    8.823497    1.739925    1.739925    3.021358   -0.000000    0.000000    0.000000
    8.975627    1.764371    1.764371    3.259305   -0.000000    0.000000    0.000000
    9.127756    1.866255    1.866255    3.600861   -0.000000   -0.000000    0.000000
    9.279885    1.953449    1.953449    3.825644   -0.000000   -0.000000    0.000000
    9.432014    2.038864    2.038864    2.479593   -0.000000    0.000000    0.000000
    9.584144    2.121379    2.121379    1.521677   -0.000000    0.000000    0.000000
    9.736273    2.215055    2.215054    1.432390   -0.000000   -0.000000    0.000000
    9.888402    2.397475    2.397475    0.887663   -0.000000   -0.000000   -0.000000
   10.040532    2.599451    2.599450    0.818604   -0.000000    0.000000    0.000000
   10.192661    2.736258    2.736258    0.810906   -0.000000    0.000000    0.000000
   10.344790    3.004133    3.004132    1.188210   -0.000000    0.000000    0.000000
   10.496919    3.390858    3.390858    1.318852   -0.000000    0.000000    0.000000
   10.649049    3.341967    3.341966    1.489693   -0.000000   -0.000000    0.000000
   10.801178    3.181475    3.181475    1.979500    0.000000   -0.000000    0.000000
   10.953307    3.090297    3.090297    2.185641    0.000000   -0.000000    0.000000
   11.105436    3.722506    3.722505    1.502075    0.000000   -0.000000    0.000000
   11.257566    2.774618    2.774618    0.467552   -0.000000    0.000000    0.000000
   11.409695    3.161400    3.161400    0.489532   -0.000000    0.000000    0.000000
   11.561824    2.788126    2.788126    0.900600   -0.000000    0.000000    0.000000
   11.713953    1.326833    1.326833    1.435869   -0.000000    0.000000   -0.000000
   11.866083    0.733383    0.733383    1.187636   -0.000000    0.000000   -0.000000
   12.018212    0.146301    0.146301    1.279462   -0.000000    0.000000   -0.000000
   12.170341    0.691573    0.691573    0.875057   -0.000000    0.000000    0.000000
   12.322471    0.463147    0.463148    0.926080   -0.000000    0.000000    0.000000
   12.474600   -0.222594   -0.222593    0.903112    0.000000   -0.000000    0.000000
   12.626729    0.033084    0.033085    0.792826    0.000000   -0.000000    0.000000
   12.778858   -0.070666   -0.070666    0.958875    0.000000    0.000000    0.000000
   12.930988    0.050333    0.050333    0.794782   -0.000000    0.000000    0.000000
   13.083117    0.091675    0.091675    0.653040   -0.000000    0.000000    0.000000
   13.235246   -0.104777   -0.104777    0.671977    0.000000   -0.000000    0.000000
   13.387375    0.087116    0.087116    0.051178    0.000000   -0.000000    0.000000
   13.539505    0.286788    0.286788   -0.108264   -0.000000   -0.000000    0.000000
   13.691634    0.272967    0.272967   -0.213054   -0.000000   -0.000000    0.000000
   13.843763   -0.088988   -0.088988   -0.526701    0.000000   -0.000000    0.000000
   13.995892   -0.161086   -0.161085   -0.450861    0.000000    0.000000    0.000000
   14.148022   -0.260882   -0.260882   -0.321340    0.000000    0.000000   -0.000000
   14.300151   -0.174778   -0.174777   -0.383738   -0.000000    0.000000   -0.000000
   14.452280   -0.301694   -0.301693   -0.384250   -0.000000   -0.000000    0.000000
   14.604410    0.008791    0.008791   -0.286359    0.000000   -0.000000   -0.000000
   14.756539   -0.114717   -0.114717   -0.211950    0.000000   -0.000000   -0.000000
   14.908668   -0.371985   -0.371985   -0.119079   -0.000000   -0.000000   -0.000000
   15.060797   -0.197293   -0.197293   -0.027605   -0.000000   -0.000000   -0.000000
   15.212927   -0.094472   -0.094472    0.014650    0.000000   -0.000000   -0.000000
   15.365056   -0.041056   -0.041056    0.083551   -0.000000   -0.000000    0.000000
   15.517185   -0.103319   -0.103318    0.149734    0.000000   -0.000000    0.000000
   15.669314   -0.046842   -0.046842    0.224795    0.000000   -0.000000    0.000000
   15.821444   -0.046862   -0.046862    0.255559    0.000000   -0.000000    0.000000
   15.973573   -0.219639   -0.219638    0.296187    0.000000   -0.000000    0.000000
   16.125702   -0.256795   -0.256794    0.281100    0.000000    0.000000    0.000000
   16.277831   -0.186479   -0.186479    0.310290    0.000000    0.000000   -0.000000
   16.429961   -0.091187   -0.091187    0.307730    0.000000    0.000000   -0.000000
   16.582090   -0.030333   -0.030333    0.368325    0.000000    0.000000   -0.000000
   16.734219   -0.023147   -0.023147    0.411738    0.000000    0.000000   -0.000000
   16.886349    0.059574    0.059574    0.466752    0.000000    0.000000    0.000000
   17.038478    0.175554    0.175554    0.519015    0.000000    0.000000    0.000000
   17.190607    0.165911    0.165911    0.494985    0.000000    0.000000    0.000000
   17.342736    0.100059    0.100059    0.492309   -0.000000    0.000000    0.000000
   17.494866    0.134820    0.134820    0.504487    0.000000    0.000000   -0.000000
   17.646995    0.120765    0.120765    0.562175   -0.000000   -0.000000   -0.000000
   17.799124    0.153108    0.153109    0.621224   -0.000000   -0.000000   -0.000000
   17.951253    0.210855    0.210855    0.692392   -0.000000   -0.000000   -0.000000
   18.103383    0.222309    0.222309    0.687375    0.000000   -0.000000   -0.000000
   18.255512    0.238481    0.238481    0.631663    0.000000   -0.000000   -0.000000
   18.407641    0.251168    0.251168    0.663242    0.000000   -0.000000   -0.000000
   18.559770    0.300054    0.300054    0.492567   -0.000000   -0.000000   -0.000000
   18.711900    0.262264    0.262264    0.378913   -0.000000   -0.000000    0.000000
   18.864029    0.281195    0.281195    0.447151   -0.000000   -0.000000    0.000000
   19.016158    0.323519    0.323519    0.493329   -0.000000   -0.000000    0.000000
   19.168288    0.348642    0.348642    0.536854   -0.000000   -0.000000    0.000000
   19.320417    0.372075    0.372075    0.568130   -0.000000   -0.000000    0.000000
   19.472546    0.408527    0.408527    0.592074   -0.000000   -0.000000    0.000000
   19.624675    0.443370    0.443370    0.610885   -0.000000   -0.000000   -0.000000
   19.776805    0.454022    0.454022    0.627137   -0.000000   -0.000000   -0.000000
   19.928934    0.458947    0.458947    0.643034   -0.000000    0.000000   -0.000000
   20.081063    0.484671    0.484671    0.658419   -0.000000    0.000000    0.000000
   20.233192    0.478142    0.478142    0.670288   -0.000000   -0.000000    0.000000
   20.385322    0.474907    0.474907    0.684629    0.000000   -0.000000    0.000000
   20.537451    0.458191    0.458191    0.691808   -0.000000   -0.000000    0.000000
   20.689580    0.445792    0.445792    0.697123   -0.000000    0.000000   -0.000000
   20.841709    0.465659    0.465659    0.701140   -0.000000    0.000000   -0.000000
   20.993839    0.486381    0.486381    0.709633   -0.000000    0.000000   -0.000000
   21.145968    0.508956    0.508956    0.721618   -0.000000   -0.000000   -0.000000
   21.298097    0.528011    0.528011    0.715564    0.000000    0.000000   -0.000000
   21.450226    0.546692    0.546692    0.728668   -0.000000    0.000000   -0.000000
   21.602356    0.560820    0.560820    0.735929   -0.000000    0.000000   -0.000000
   21.754485    0.573640    0.573640    0.744231   -0.000000    0.000000   -0.000000
   21.906614    0.577508    0.577508    0.744222   -0.000000    0.000000   -0.000000
   22.058744    0.569743    0.569743    0.751997   -0.000000   -0.000000   -0.000000
   22.210873    0.584483    0.584483    0.756811   -0.000000    0.000000   -0.000000
   22.363002    0.593151    0.593151    0.747702   -0.000000    0.000000   -0.000000
   22.515131    0.606742    0.606743    0.754182   -0.000000    0.000000   -0.000000
   22.667261    0.616893    0.616893    0.757212   -0.000000    0.000000   -0.000000
   22.819390    0.626640    0.626640    0.765973   -0.000000    0.000000   -0.000000
   22.971519    0.633007    0.633007    0.768821   -0.000000    0.000000   -0.000000
   23.123648    0.641353    0.641353    0.774105   -0.000000    0.000000   -0.000000
   23.275778    0.649853    0.649853    0.778564   -0.000000   -0.000000   -0.000000
   23.427907    0.655954    0.655954    0.783668   -0.000000   -0.000000   -0.000000
   23.580036    0.663912    0.663912    0.786399   -0.000000    0.000000   -0.000000
   23.732165    0.671922    0.671922    0.790539   -0.000000   -0.000000   -0.000000
   23.884295    0.679496    0.679496    0.792844   -0.000000   -0.000000   -0.000000
   24.036424    0.684914    0.684914    0.792034   -0.000000    0.000000   -0.000000
   24.188553    0.688691    0.688691    0.795125   -0.000000    0.000000   -0.000000
   24.340683    0.694945    0.694946    0.799540   -0.000000   -0.000000   -0.000000
   24.492812    0.701178    0.701179    0.802801   -0.000000   -0.000000   -0.000000
   24.644941    0.706686    0.706686    0.807834   -0.000000    0.000000   -0.000000
   24.797070    0.712444    0.712444    0.810216   -0.000000    0.000000   -0.000000
   24.949200    0.717844    0.717844    0.814964   -0.000000    0.000000   -0.000000
   25.101329    0.721808    0.721808    0.818278   -0.000000    0.000000   -0.000000
   25.253458    0.725989    0.725989    0.821489   -0.000000   -0.000000   -0.000000
   25.405587    0.731340    0.731340    0.825230   -0.000000    0.000000   -0.000000
   25.557717    0.736511    0.736512    0.828402   -0.000000    0.000000   -0.000000
   25.709846    0.739782    0.739782    0.831647   -0.000000    0.000000   -0.000000
   25.861975    0.742804    0.742804    0.834609   -0.000000    0.000000   -0.000000
   26.014104    0.747605    0.747605    0.837694   -0.000000   -0.000000   -0.000000
   26.166234    0.752273    0.752273    0.840217   -0.000000   -0.000000   -0.000000
   26.318363    0.755646    0.755646    0.842973   -0.000000   -0.000000   -0.000000
   26.470492    0.758694    0.758694    0.845737   -0.000000   -0.000000   -0.000000
   26.622622    0.761280    0.761280    0.848378   -0.000000   -0.000000   -0.000000
   26.774751    0.764778    0.764778    0.850853   -0.000000   -0.000000   -0.000000
   26.926880    0.768454    0.768454    0.853358   -0.000000   -0.000000   -0.000000
   27.079009    0.771644    0.771644    0.855723   -0.000000   -0.000000   -0.000000
   27.231139    0.774685    0.774685    0.857665   -0.000000    0.000000   -0.000000
   27.383268    0.778590    0.778590    0.859940   -0.000000    0.000000   -0.000000
   27.535397    0.781750    0.781750    0.860713   -0.000000    0.000000   -0.000000
   27.687526    0.785204    0.785204    0.862893   -0.000000    0.000000   -0.000000
   27.839656    0.788179    0.788179    0.864878   -0.000000    0.000000   -0.000000
   27.991785    0.791157    0.791157    0.866464   -0.000000    0.000000   -0.000000
   28.143914    0.793957    0.793958    0.868633   -0.000000    0.000000   -0.000000
   28.296043    0.797042    0.797042    0.870523   -0.000000    0.000000   -0.000000
   28.448173    0.799953    0.799953    0.872163   -0.000000    0.000000   -0.000000
   28.600302    0.802408    0.802408    0.873879   -0.000000    0.000000   -0.000000
   28.752431    0.804961    0.804961    0.875839   -0.000000    0.000000   -0.000000
   28.904561    0.807878    0.807878    0.877287   -0.000000    0.000000   -0.000000
   29.056690    0.810281    0.810281    0.878888   -0.000000    0.000000   -0.000000
   29.208819    0.812670    0.812670    0.880605   -0.000000    0.000000   -0.000000
   29.360948    0.814992    0.814992    0.882063   -0.000000    0.000000   -0.000000
   29.513078    0.817604    0.817604    0.883676   -0.000000    0.000000   -0.000000
   29.665207    0.820040    0.820041    0.885235   -0.000000    0.000000   -0.000000
   29.817336    0.822362    0.822362    0.886742   -0.000000    0.000000   -0.000000
   29.969465    0.824670    0.824670    0.888207   -0.000000    0.000000   -0.000000
   30.121595    0.826943    0.826943    0.889634   -0.000000    0.000000   -0.000000
   30.273724    0.829151    0.829151    0.891028   -0.000000    0.000000   -0.000000
   30.425853    0.831303    0.831303    0.892390   -0.000000    0.000000   -0.000000
   30.577982    0.833403    0.833403    0.893723   -0.000000    0.000000   -0.000000
   30.730112    0.835455    0.835455    0.895027   -0.000000    0.000000   -0.000000
   30.882241    0.837463    0.837463    0.896304   -0.000000    0.000000   -0.000000
   31.034370    0.839428    0.839428    0.897555   -0.000000    0.000000   -0.000000
   31.186500    0.841352    0.841352    0.898780   -0.000000    0.000000   -0.000000
   31.338629    0.843237    0.843237    0.899981   -0.000000    0.000000   -0.000000
   31.490758    0.845084    0.845084    0.901158   -0.000000    0.000000   -0.000000
   31.642887    0.846895    0.846895    0.902313   -0.000000    0.000000   -0.000000
   31.795017    0.848671    0.848671    0.903446   -0.000000    0.000000   -0.000000
   31.947146    0.850412    0.850413    0.904557   -0.000000    0.000000   -0.000000
   32.099275    0.852121    0.852121    0.905647   -0.000000    0.000000   -0.000000
   32.251404    0.853797    0.853797    0.906717   -0.000000    0.000000   -0.000000
   32.403534    0.855443    0.855443    0.907767   -0.000000    0.000000   -0.000000
   32.555663    0.857058    0.857058    0.908798   -0.000000    0.000000   -0.000000
   32.707792    0.858644    0.858644    0.909811   -0.000000    0.000000   -0.000000
   32.859921    0.860201    0.860201    0.910805   -0.000000    0.000000   -0.000000
   33.012051    0.861730    0.861730    0.911782   -0.000000    0.000000   -0.000000
   33.164180    0.863233    0.863233    0.912742   -0.000000    0.000000   -0.000000
   33.316309    0.864709    0.864709    0.913685   -0.000000    0.000000   -0.000000
   33.468439    0.866159    0.866159    0.914611   -0.000000    0.000000   -0.000000
   33.620568    0.867584    0.867584    0.915522   -0.000000    0.000000   -0.000000
   33.772697    0.868985    0.868985    0.916417   -0.000000    0.000000   -0.000000
   33.924826    0.870362    0.870363    0.917297   -0.000000    0.000000   -0.000000
   34.076956    0.871717    0.871717    0.918162   -0.000000    0.000000   -0.000000
   34.229085    0.873048    0.873048    0.919013   -0.000000    0.000000   -0.000000
   34.381214    0.874357    0.874357    0.919850   -0.000000    0.000000   -0.000000
   34.533343    0.875645    0.875645    0.920673   -0.000000    0.000000   -0.000000
   34.685473    0.876912    0.876912    0.921483   -0.000000    0.000000   -0.000000
   34.837602    0.878159    0.878159    0.922280   -0.000000    0.000000   -0.000000
   34.989731    0.879385    0.879385    0.923064   -0.000000    0.000000   -0.000000
   35.141860    0.880592    0.880592    0.923835   -0.000000    0.000000   -0.000000
   35.293990    0.881779    0.881779    0.924594   -0.000000    0.000000   -0.000000
   35.446119    0.882948    0.882948    0.925341   -0.000000    0.000000   -0.000000
   35.598248    0.884098    0.884098    0.926077   -0.000000    0.000000   -0.000000
   35.750377    0.885231    0.885231    0.926801   -0.000000    0.000000   -0.000000
   35.902507    0.886346    0.886346    0.927514   -0.000000    0.000000   -0.000000
   36.054636    0.887444    0.887444    0.928216   -0.000000    0.000000   -0.000000
   36.206765    0.888526    0.888526    0.928907   -0.000000    0.000000   -0.000000
   36.358895    0.889591    0.889591    0.929588   -0.000000    0.000000   -0.000000
 
 The outermost node in the dielectric function lies at epsilon=  16.8


--------------------------------------------------------------------------------------------------------


    OPTICS:  cpu time    1.0169: real time    1.4383
    4ORBIT:  cpu time    0.0000: real time    0.0000

 total amount of memory used by VASP MPI-rank0    53287. kBytes
=======================================================================

   base      :      30000. kBytes
   nonl-proj :      11089. kBytes
   fftplans  :       2090. kBytes
   grid      :       6068. kBytes
   one-center:         24. kBytes
   wavefun   :       4016. kBytes
 
  
  
 General timing and accounting informations for this job:
 ========================================================
  
                  Total CPU time used (sec):    12176.340
                            User time (sec):    12166.417
                          System time (sec):        9.922
                         Elapsed time (sec):    13427.744
  
                   Maximum memory used (kb):      904980.
                   Average memory used (kb):           0.
  
                          Minor page faults:      3672444
                          Major page faults:            0
                 Voluntary context switches:         2977
