   2   2   0   0
  0.2079688E+02  0.3889087E-09  0.3889087E-09  0.3889087E-09  0.5000000E-15
  1.000000000000000E-004
  CAR 
 cd Si                                   
     21.64012496     -7.58103031  301      5.77991965      1.00000000
     -7.581  0.0000E+00  0.0000E+00
     -7.484  0.0000E+00  0.0000E+00
     -7.386  0.0000E+00  0.0000E+00
     -7.289  0.0000E+00  0.0000E+00
     -7.191  0.0000E+00  0.0000E+00
     -7.094  0.0000E+00  0.0000E+00
     -6.997  0.0000E+00  0.0000E+00
     -6.899  0.0000E+00  0.0000E+00
     -6.802  0.1280E-17  0.1247E-18
     -6.704  0.3131E-13  0.3049E-14
     -6.607  0.1345E-09  0.1311E-10
     -6.510  0.1023E-06  0.9982E-08
     -6.412  0.1457E-04  0.1429E-05
     -6.315  0.4356E-03  0.4386E-04
     -6.217  0.3386E-02  0.3737E-03
     -6.120  0.9525E-02  0.1301E-02
     -6.023  0.1509E-01  0.2771E-02
     -5.925  0.1917E-01  0.4639E-02
     -5.828  0.2237E-01  0.6817E-02
     -5.730  0.2564E-01  0.9315E-02
     -5.633  0.2795E-01  0.1204E-01
     -5.536  0.3062E-01  0.1502E-01
     -5.438  0.3388E-01  0.1832E-01
     -5.341  0.3394E-01  0.2162E-01
     -5.243  0.3955E-01  0.2548E-01
     -5.146  0.3942E-01  0.2932E-01
     -5.049  0.4085E-01  0.3330E-01
     -4.951  0.4740E-01  0.3791E-01
     -4.854  0.4561E-01  0.4236E-01
     -4.756  0.4753E-01  0.4699E-01
     -4.659  0.5478E-01  0.5232E-01
     -4.562  0.5477E-01  0.5766E-01
     -4.464  0.5332E-01  0.6285E-01
     -4.367  0.6322E-01  0.6901E-01
     -4.269  0.6778E-01  0.7561E-01
     -4.172  0.6337E-01  0.8178E-01
     -4.074  0.7628E-01  0.8921E-01
     -3.977  0.9206E-01  0.9818E-01
     -3.880  0.8424E-01  0.1064E+00
     -3.782  0.8429E-01  0.1146E+00
     -3.685  0.9105E-01  0.1235E+00
     -3.587  0.7683E-01  0.1309E+00
     -3.490  0.7432E-01  0.1382E+00
     -3.393  0.7635E-01  0.1456E+00
     -3.295  0.6993E-01  0.1524E+00
     -3.198  0.6211E-01  0.1585E+00
     -3.100  0.6616E-01  0.1649E+00
     -3.003  0.5819E-01  0.1706E+00
     -2.906  0.4940E-01  0.1754E+00
     -2.808  0.5775E-01  0.1810E+00
     -2.711  0.4393E-01  0.1853E+00
     -2.613  0.3578E-01  0.1888E+00
     -2.516  0.4449E-01  0.1931E+00
     -2.419  0.2987E-01  0.1960E+00
     -2.321  0.1742E-01  0.1977E+00
     -2.224  0.1877E-01  0.1996E+00
     -2.126  0.1268E-01  0.2008E+00
     -2.029  0.9064E-02  0.2017E+00
     -1.932  0.1504E-01  0.2032E+00
     -1.834  0.3142E-01  0.2062E+00
     -1.737  0.3445E-01  0.2096E+00
     -1.639  0.3047E-01  0.2125E+00
     -1.542  0.4524E-01  0.2169E+00
     -1.445  0.6282E-01  0.2231E+00
     -1.347  0.6012E-01  0.2289E+00
     -1.250  0.1082E+00  0.2395E+00
     -1.152  0.1521E+00  0.2543E+00
     -1.055  0.1259E+00  0.2665E+00
     -0.958  0.9727E-01  0.2760E+00
     -0.860  0.8480E-01  0.2843E+00
     -0.763  0.7534E-01  0.2916E+00
     -0.665  0.6857E-01  0.2983E+00
     -0.568  0.6353E-01  0.3045E+00
     -0.471  0.5372E-01  0.3097E+00
     -0.373  0.5686E-01  0.3152E+00
     -0.276  0.5026E-01  0.3201E+00
     -0.178  0.4762E-01  0.3248E+00
     -0.081  0.4446E-01  0.3291E+00
      0.016  0.3915E-01  0.3329E+00
      0.114  0.4174E-01  0.3370E+00
      0.211  0.3849E-01  0.3407E+00
      0.309  0.3634E-01  0.3443E+00
      0.406  0.2854E-01  0.3471E+00
      0.503  0.3545E-01  0.3505E+00
      0.601  0.2850E-01  0.3533E+00
      0.698  0.2910E-01  0.3561E+00
      0.796  0.3144E-01  0.3592E+00
      0.893  0.1979E-01  0.3611E+00
      0.991  0.2348E-01  0.3634E+00
      1.088  0.2596E-01  0.3659E+00
      1.185  0.2769E-01  0.3686E+00
      1.283  0.4422E-01  0.3729E+00
      1.380  0.6728E-01  0.3795E+00
      1.478  0.1004E+00  0.3893E+00
      1.575  0.1207E+00  0.4010E+00
      1.672  0.1198E+00  0.4127E+00
      1.770  0.1207E+00  0.4244E+00
      1.867  0.1036E+00  0.4345E+00
      1.965  0.9875E-01  0.4442E+00
      2.062  0.1123E+00  0.4551E+00
      2.159  0.1040E+00  0.4652E+00
      2.257  0.1148E+00  0.4764E+00
      2.354  0.1188E+00  0.4880E+00
      2.452  0.1078E+00  0.4985E+00
      2.549  0.1238E+00  0.5105E+00
      2.646  0.1387E+00  0.5240E+00
      2.744  0.1456E+00  0.5382E+00
      2.841  0.1589E+00  0.5537E+00
      2.939  0.1625E+00  0.5695E+00
      3.036  0.1390E+00  0.5831E+00
      3.133  0.1356E+00  0.5963E+00
      3.231  0.1671E+00  0.6125E+00
      3.328  0.1422E+00  0.6264E+00
      3.426  0.1273E+00  0.6388E+00
      3.523  0.1417E+00  0.6526E+00
      3.620  0.1324E+00  0.6655E+00
      3.718  0.1355E+00  0.6787E+00
      3.815  0.1300E+00  0.6914E+00
      3.913  0.1191E+00  0.7030E+00
      4.010  0.1221E+00  0.7148E+00
      4.107  0.1282E+00  0.7273E+00
      4.205  0.1195E+00  0.7390E+00
      4.302  0.1063E+00  0.7493E+00
      4.400  0.9284E-01  0.7584E+00
      4.497  0.7642E-01  0.7658E+00
      4.594  0.6753E-01  0.7724E+00
      4.692  0.5622E-01  0.7779E+00
      4.789  0.5186E-01  0.7829E+00
      4.887  0.4197E-01  0.7870E+00
      4.984  0.3460E-01  0.7904E+00
      5.081  0.2854E-01  0.7932E+00
      5.179  0.2753E-01  0.7958E+00
      5.276  0.2139E-01  0.7979E+00
      5.374  0.1281E-01  0.7992E+00
      5.471  0.6547E-02  0.7998E+00
      5.568  0.1777E-02  0.8000E+00
      5.666  0.1431E-03  0.8000E+00
      5.763  0.2538E-05  0.8000E+00
      5.861  0.4167E-06  0.8000E+00
      5.958  0.3454E-04  0.8000E+00
      6.056  0.6543E-03  0.8001E+00
      6.153  0.4150E-02  0.8005E+00
      6.250  0.1214E-01  0.8017E+00
      6.348  0.2132E-01  0.8037E+00
      6.445  0.2950E-01  0.8066E+00
      6.543  0.3917E-01  0.8104E+00
      6.640  0.4666E-01  0.8150E+00
      6.737  0.4623E-01  0.8195E+00
      6.835  0.4899E-01  0.8242E+00
      6.932  0.6169E-01  0.8302E+00
      7.030  0.7474E-01  0.8375E+00
      7.127  0.8995E-01  0.8463E+00
      7.224  0.8875E-01  0.8549E+00
      7.322  0.1013E+00  0.8648E+00
      7.419  0.1113E+00  0.8756E+00
      7.517  0.1163E+00  0.8870E+00
      7.614  0.1390E+00  0.9005E+00
      7.711  0.1709E+00  0.9172E+00
      7.809  0.1773E+00  0.9344E+00
      7.906  0.1540E+00  0.9494E+00
      8.004  0.1425E+00  0.9633E+00
      8.101  0.1359E+00  0.9765E+00
      8.198  0.1281E+00  0.9890E+00
      8.296  0.1080E+00  0.9995E+00
      8.393  0.9390E-01  0.1009E+01
      8.491  0.1125E+00  0.1020E+01
      8.588  0.1171E+00  0.1031E+01
      8.685  0.1457E+00  0.1045E+01
      8.783  0.2131E+00  0.1066E+01
      8.880  0.2331E+00  0.1089E+01
      8.978  0.1953E+00  0.1108E+01
      9.075  0.1555E+00  0.1123E+01
      9.172  0.1612E+00  0.1139E+01
      9.270  0.1682E+00  0.1155E+01
      9.367  0.1539E+00  0.1170E+01
      9.465  0.1362E+00  0.1183E+01
      9.562  0.1328E+00  0.1196E+01
      9.659  0.1473E+00  0.1210E+01
      9.757  0.1177E+00  0.1222E+01
      9.854  0.1073E+00  0.1232E+01
      9.952  0.1277E+00  0.1245E+01
     10.049  0.1264E+00  0.1257E+01
     10.146  0.1349E+00  0.1270E+01
     10.244  0.1416E+00  0.1284E+01
     10.341  0.1525E+00  0.1299E+01
     10.439  0.1237E+00  0.1311E+01
     10.536  0.1087E+00  0.1322E+01
     10.633  0.1224E+00  0.1334E+01
     10.731  0.1185E+00  0.1345E+01
     10.828  0.1149E+00  0.1356E+01
     10.926  0.1177E+00  0.1368E+01
     11.023  0.1172E+00  0.1379E+01
     11.121  0.1269E+00  0.1392E+01
     11.218  0.1271E+00  0.1404E+01
     11.315  0.1012E+00  0.1414E+01
     11.413  0.8188E-01  0.1422E+01
     11.510  0.8780E-01  0.1430E+01
     11.608  0.9212E-01  0.1439E+01
     11.705  0.1074E+00  0.1450E+01
     11.802  0.1147E+00  0.1461E+01
     11.900  0.1225E+00  0.1473E+01
     11.997  0.1496E+00  0.1487E+01
     12.095  0.1419E+00  0.1501E+01
     12.192  0.1072E+00  0.1512E+01
     12.289  0.9782E-01  0.1521E+01
     12.387  0.8564E-01  0.1530E+01
     12.484  0.9298E-01  0.1539E+01
     12.582  0.1262E+00  0.1551E+01
     12.679  0.1415E+00  0.1565E+01
     12.776  0.1408E+00  0.1578E+01
     12.874  0.1447E+00  0.1592E+01
     12.971  0.1344E+00  0.1606E+01
     13.069  0.1061E+00  0.1616E+01
     13.166  0.1132E+00  0.1627E+01
     13.263  0.1144E+00  0.1638E+01
     13.361  0.1021E+00  0.1648E+01
     13.458  0.1155E+00  0.1659E+01
     13.556  0.1378E+00  0.1673E+01
     13.653  0.1456E+00  0.1687E+01
     13.750  0.1568E+00  0.1702E+01
     13.848  0.1443E+00  0.1716E+01
     13.945  0.1092E+00  0.1727E+01
     14.043  0.9303E-01  0.1736E+01
     14.140  0.9749E-01  0.1745E+01
     14.237  0.1037E+00  0.1755E+01
     14.335  0.1118E+00  0.1766E+01
     14.432  0.1466E+00  0.1781E+01
     14.530  0.1689E+00  0.1797E+01
     14.627  0.1743E+00  0.1814E+01
     14.724  0.1609E+00  0.1830E+01
     14.822  0.1356E+00  0.1843E+01
     14.919  0.1254E+00  0.1855E+01
     15.017  0.1304E+00  0.1868E+01
     15.114  0.1181E+00  0.1879E+01
     15.211  0.1016E+00  0.1889E+01
     15.309  0.1140E+00  0.1900E+01
     15.406  0.1575E+00  0.1916E+01
     15.504  0.1621E+00  0.1932E+01
     15.601  0.1512E+00  0.1946E+01
     15.698  0.1337E+00  0.1959E+01
     15.796  0.1075E+00  0.1970E+01
     15.893  0.1165E+00  0.1981E+01
     15.991  0.1177E+00  0.1993E+01
     16.088  0.9859E-01  0.2002E+01
     16.186  0.1040E+00  0.2012E+01
     16.283  0.1143E+00  0.2023E+01
     16.380  0.1383E+00  0.2037E+01
     16.478  0.1710E+00  0.2054E+01
     16.575  0.1742E+00  0.2070E+01
     16.673  0.1417E+00  0.2084E+01
     16.770  0.1113E+00  0.2095E+01
     16.867  0.9980E-01  0.2105E+01
     16.965  0.1023E+00  0.2115E+01
     17.062  0.9286E-01  0.2124E+01
     17.160  0.1033E+00  0.2134E+01
     17.257  0.1320E+00  0.2147E+01
     17.354  0.1426E+00  0.2161E+01
     17.452  0.1469E+00  0.2175E+01
     17.549  0.1605E+00  0.2191E+01
     17.647  0.1657E+00  0.2207E+01
     17.744  0.1773E+00  0.2224E+01
     17.841  0.1501E+00  0.2239E+01
     17.939  0.1137E+00  0.2250E+01
     18.036  0.9520E-01  0.2259E+01
     18.134  0.1058E+00  0.2269E+01
     18.231  0.1133E+00  0.2280E+01
     18.328  0.9595E-01  0.2290E+01
     18.426  0.1053E+00  0.2300E+01
     18.523  0.1137E+00  0.2311E+01
     18.621  0.1103E+00  0.2322E+01
     18.718  0.9808E-01  0.2331E+01
     18.815  0.8448E-01  0.2340E+01
     18.913  0.7203E-01  0.2347E+01
     19.010  0.6141E-01  0.2353E+01
     19.108  0.4792E-01  0.2357E+01
     19.205  0.4206E-01  0.2361E+01
     19.302  0.5773E-01  0.2367E+01
     19.400  0.6118E-01  0.2373E+01
     19.497  0.5543E-01  0.2378E+01
     19.595  0.5955E-01  0.2384E+01
     19.692  0.5010E-01  0.2389E+01
     19.789  0.3238E-01  0.2392E+01
     19.887  0.2804E-01  0.2395E+01
     19.984  0.1680E-01  0.2396E+01
     20.082  0.1395E-01  0.2398E+01
     20.179  0.1191E-01  0.2399E+01
     20.276  0.5932E-02  0.2400E+01
     20.374  0.3149E-02  0.2400E+01
     20.471  0.9598E-03  0.2400E+01
     20.569  0.6366E-04  0.2400E+01
     20.666  0.7480E-06  0.2400E+01
     20.763  0.1455E-08  0.2400E+01
     20.861  0.4513E-12  0.2400E+01
     20.958  0.2186E-16  0.2400E+01
     21.056  0.0000E+00  0.2400E+01
     21.153  0.0000E+00  0.2400E+01
     21.251  0.0000E+00  0.2400E+01
     21.348  0.0000E+00  0.2400E+01
     21.445  0.0000E+00  0.2400E+01
     21.543  0.0000E+00  0.2400E+01
     21.640  0.0000E+00  0.2400E+01
