   8   8   0   0
  0.2469169E+02  0.5174038E-09  0.5174038E-09  0.8520222E-09  0.5000000E-15
  1.000000000000000E-004
  CAR 
 BC3-optical                             
     41.90085783    -21.41848163 2400     -2.41146232      1.00000000
    -21.418  0.0000E+00  0.0000E+00
    -21.392  0.0000E+00  0.0000E+00
    -21.366  0.0000E+00  0.0000E+00
    -21.339  0.0000E+00  0.0000E+00
    -21.313  0.0000E+00  0.0000E+00
    -21.287  0.0000E+00  0.0000E+00
    -21.260  0.0000E+00  0.0000E+00
    -21.234  0.0000E+00  0.0000E+00
    -21.207  0.0000E+00  0.0000E+00
    -21.181  0.0000E+00  0.0000E+00
    -21.155  0.0000E+00  0.0000E+00
    -21.128  0.0000E+00  0.0000E+00
    -21.102  0.0000E+00  0.0000E+00
    -21.075  0.0000E+00  0.0000E+00
    -21.049  0.0000E+00  0.0000E+00
    -21.023  0.0000E+00  0.0000E+00
    -20.996  0.0000E+00  0.0000E+00
    -20.970  0.0000E+00  0.0000E+00
    -20.943  0.0000E+00  0.0000E+00
    -20.917  0.0000E+00  0.0000E+00
    -20.891  0.0000E+00  0.0000E+00
    -20.864  0.0000E+00  0.0000E+00
    -20.838  0.0000E+00  0.0000E+00
    -20.811  0.0000E+00  0.0000E+00
    -20.785  0.0000E+00  0.0000E+00
    -20.759  0.0000E+00  0.0000E+00
    -20.732  0.0000E+00  0.0000E+00
    -20.706  0.0000E+00  0.0000E+00
    -20.679  0.0000E+00  0.0000E+00
    -20.653  0.0000E+00  0.0000E+00
    -20.627  0.0000E+00  0.0000E+00
    -20.600  0.0000E+00  0.0000E+00
    -20.574  0.0000E+00  0.0000E+00
    -20.547  0.0000E+00  0.0000E+00
    -20.521  0.0000E+00  0.0000E+00
    -20.495  0.0000E+00  0.0000E+00
    -20.468  0.0000E+00  0.0000E+00
    -20.442  0.0000E+00  0.0000E+00
    -20.416  0.0000E+00  0.0000E+00
    -20.389  0.0000E+00  0.0000E+00
    -20.363  0.0000E+00  0.0000E+00
    -20.336  0.0000E+00  0.0000E+00
    -20.310  0.0000E+00  0.0000E+00
    -20.284  0.0000E+00  0.0000E+00
    -20.257  0.0000E+00  0.0000E+00
    -20.231  0.0000E+00  0.0000E+00
    -20.204  0.0000E+00  0.0000E+00
    -20.178  0.0000E+00  0.0000E+00
    -20.152  0.0000E+00  0.0000E+00
    -20.125  0.0000E+00  0.0000E+00
    -20.099  0.0000E+00  0.0000E+00
    -20.072  0.0000E+00  0.0000E+00
    -20.046  0.0000E+00  0.0000E+00
    -20.020  0.0000E+00  0.0000E+00
    -19.993  0.0000E+00  0.0000E+00
    -19.967  0.0000E+00  0.0000E+00
    -19.940  0.0000E+00  0.0000E+00
    -19.914  0.0000E+00  0.0000E+00
    -19.888  0.0000E+00  0.0000E+00
    -19.861  0.0000E+00  0.0000E+00
    -19.835  0.0000E+00  0.0000E+00
    -19.808  0.0000E+00  0.0000E+00
    -19.782  0.0000E+00  0.0000E+00
    -19.756  0.0000E+00  0.0000E+00
    -19.729  0.0000E+00  0.0000E+00
    -19.703  0.0000E+00  0.0000E+00
    -19.676  0.0000E+00  0.0000E+00
    -19.650  0.0000E+00  0.0000E+00
    -19.624  0.0000E+00  0.0000E+00
    -19.597  0.0000E+00  0.0000E+00
    -19.571  0.0000E+00  0.0000E+00
    -19.545  0.0000E+00  0.0000E+00
    -19.518  0.0000E+00  0.0000E+00
    -19.492  0.0000E+00  0.0000E+00
    -19.465  0.0000E+00  0.0000E+00
    -19.439  0.0000E+00  0.0000E+00
    -19.413  0.0000E+00  0.0000E+00
    -19.386  0.0000E+00  0.0000E+00
    -19.360  0.0000E+00  0.0000E+00
    -19.333  0.0000E+00  0.0000E+00
    -19.307  0.0000E+00  0.0000E+00
    -19.281  0.0000E+00  0.0000E+00
    -19.254  0.0000E+00  0.0000E+00
    -19.228  0.0000E+00  0.0000E+00
    -19.201  0.0000E+00  0.0000E+00
    -19.175  0.0000E+00  0.0000E+00
    -19.149  0.0000E+00  0.0000E+00
    -19.122  0.0000E+00  0.0000E+00
    -19.096  0.0000E+00  0.0000E+00
    -19.069  0.0000E+00  0.0000E+00
    -19.043  0.0000E+00  0.0000E+00
    -19.017  0.0000E+00  0.0000E+00
    -18.990  0.0000E+00  0.0000E+00
    -18.964  0.0000E+00  0.0000E+00
    -18.937  0.0000E+00  0.0000E+00
    -18.911  0.0000E+00  0.0000E+00
    -18.885  0.0000E+00  0.0000E+00
    -18.858  0.0000E+00  0.0000E+00
    -18.832  0.0000E+00  0.0000E+00
    -18.805  0.0000E+00  0.0000E+00
    -18.779  0.0000E+00  0.0000E+00
    -18.753  0.0000E+00  0.0000E+00
    -18.726  0.0000E+00  0.0000E+00
    -18.700  0.0000E+00  0.0000E+00
    -18.673  0.0000E+00  0.0000E+00
    -18.647  0.0000E+00  0.0000E+00
    -18.621  0.0000E+00  0.0000E+00
    -18.594  0.5930E-14  0.1565E-15
    -18.568  0.2506E-04  0.6615E-06
    -18.542  0.2277E+00  0.6011E-02
    -18.515  0.1540E+01  0.4665E-01
    -18.489  0.1915E+01  0.9720E-01
    -18.462  0.1185E+01  0.1285E+00
    -18.436  0.3232E+01  0.2138E+00
    -18.410  0.1897E+01  0.2639E+00
    -18.383  0.2522E-02  0.2639E+00
    -18.357  0.3840E+01  0.3653E+00
    -18.330  0.2483E+01  0.4308E+00
    -18.304  0.2652E+01  0.5008E+00
    -18.278  0.4955E+00  0.5139E+00
    -18.251  0.3292E+00  0.5226E+00
    -18.225  0.4847E+01  0.6505E+00
    -18.198  0.4292E+01  0.7638E+00
    -18.172  0.2879E+00  0.7714E+00
    -18.146  0.2846E+01  0.8465E+00
    -18.119  0.1148E+00  0.8496E+00
    -18.093  0.5880E+01  0.1005E+01
    -18.066  0.6050E+01  0.1164E+01
    -18.040  0.7200E+00  0.1183E+01
    -18.014  0.2961E+01  0.1262E+01
    -17.987  0.2168E+01  0.1319E+01
    -17.961  0.1474E+02  0.1708E+01
    -17.934  0.1082E+01  0.1736E+01
    -17.908  0.4262E+01  0.1849E+01
    -17.882  0.4813E+01  0.1976E+01
    -17.855  0.9089E+00  0.2000E+01
    -17.829  0.4306E-02  0.2000E+01
    -17.802  0.9494E-10  0.2000E+01
    -17.776  0.0000E+00  0.2000E+01
    -17.750  0.0000E+00  0.2000E+01
    -17.723  0.0000E+00  0.2000E+01
    -17.697  0.0000E+00  0.2000E+01
    -17.671  0.0000E+00  0.2000E+01
    -17.644  0.0000E+00  0.2000E+01
    -17.618  0.0000E+00  0.2000E+01
    -17.591  0.0000E+00  0.2000E+01
    -17.565  0.0000E+00  0.2000E+01
    -17.539  0.0000E+00  0.2000E+01
    -17.512  0.0000E+00  0.2000E+01
    -17.486  0.0000E+00  0.2000E+01
    -17.459  0.0000E+00  0.2000E+01
    -17.433  0.0000E+00  0.2000E+01
    -17.407  0.0000E+00  0.2000E+01
    -17.380  0.0000E+00  0.2000E+01
    -17.354  0.0000E+00  0.2000E+01
    -17.327  0.0000E+00  0.2000E+01
    -17.301  0.0000E+00  0.2000E+01
    -17.275  0.0000E+00  0.2000E+01
    -17.248  0.0000E+00  0.2000E+01
    -17.222  0.0000E+00  0.2000E+01
    -17.195  0.0000E+00  0.2000E+01
    -17.169  0.0000E+00  0.2000E+01
    -17.143  0.0000E+00  0.2000E+01
    -17.116  0.0000E+00  0.2000E+01
    -17.090  0.0000E+00  0.2000E+01
    -17.063  0.0000E+00  0.2000E+01
    -17.037  0.0000E+00  0.2000E+01
    -17.011  0.0000E+00  0.2000E+01
    -16.984  0.0000E+00  0.2000E+01
    -16.958  0.0000E+00  0.2000E+01
    -16.931  0.0000E+00  0.2000E+01
    -16.905  0.0000E+00  0.2000E+01
    -16.879  0.0000E+00  0.2000E+01
    -16.852  0.0000E+00  0.2000E+01
    -16.826  0.0000E+00  0.2000E+01
    -16.800  0.0000E+00  0.2000E+01
    -16.773  0.0000E+00  0.2000E+01
    -16.747  0.0000E+00  0.2000E+01
    -16.720  0.0000E+00  0.2000E+01
    -16.694  0.0000E+00  0.2000E+01
    -16.668  0.0000E+00  0.2000E+01
    -16.641  0.0000E+00  0.2000E+01
    -16.615  0.0000E+00  0.2000E+01
    -16.588  0.0000E+00  0.2000E+01
    -16.562  0.0000E+00  0.2000E+01
    -16.536  0.0000E+00  0.2000E+01
    -16.509  0.0000E+00  0.2000E+01
    -16.483  0.0000E+00  0.2000E+01
    -16.456  0.0000E+00  0.2000E+01
    -16.430  0.0000E+00  0.2000E+01
    -16.404  0.0000E+00  0.2000E+01
    -16.377  0.0000E+00  0.2000E+01
    -16.351  0.0000E+00  0.2000E+01
    -16.324  0.1197E-12  0.2000E+01
    -16.298  0.2046E-03  0.2000E+01
    -16.272  0.8392E+00  0.2022E+01
    -16.245  0.7463E+00  0.2042E+01
    -16.219  0.4742E+01  0.2167E+01
    -16.192  0.2327E+01  0.2228E+01
    -16.166  0.3425E+01  0.2319E+01
    -16.140  0.2127E+01  0.2375E+01
    -16.113  0.8628E-01  0.2377E+01
    -16.087  0.6003E+01  0.2536E+01
    -16.060  0.6329E+01  0.2703E+01
    -16.034  0.8746E+00  0.2726E+01
    -16.008  0.6041E+01  0.2885E+01
    -15.981  0.2755E+01  0.2958E+01
    -15.955  0.7951E-01  0.2960E+01
    -15.929  0.1974E+01  0.3012E+01
    -15.902  0.6674E-01  0.3014E+01
    -15.876  0.4062E+01  0.3121E+01
    -15.849  0.5403E+01  0.3264E+01
    -15.823  0.4852E-02  0.3264E+01
    -15.797  0.1619E-10  0.3264E+01
    -15.770  0.6310E-14  0.3264E+01
    -15.744  0.8135E-04  0.3264E+01
    -15.717  0.2055E+01  0.3318E+01
    -15.691  0.9995E+01  0.3582E+01
    -15.665  0.5785E+00  0.3597E+01
    -15.638  0.1277E-05  0.3597E+01
    -15.612  0.2424E-01  0.3598E+01
    -15.585  0.2842E+01  0.3673E+01
    -15.559  0.2941E+01  0.3750E+01
    -15.533  0.5077E+00  0.3764E+01
    -15.506  0.9445E+00  0.3789E+01
    -15.480  0.2321E+01  0.3850E+01
    -15.453  0.2965E+01  0.3928E+01
    -15.427  0.4195E+01  0.4039E+01
    -15.401  0.2204E+01  0.4097E+01
    -15.374  0.1193E-03  0.4097E+01
    -15.348  0.3189E-01  0.4098E+01
    -15.321  0.7203E+01  0.4288E+01
    -15.295  0.5388E+01  0.4430E+01
    -15.269  0.5783E-02  0.4431E+01
    -15.242  0.9448E-03  0.4431E+01
    -15.216  0.3450E+01  0.4522E+01
    -15.189  0.2864E+01  0.4597E+01
    -15.163  0.3252E+01  0.4683E+01
    -15.137  0.4085E+01  0.4791E+01
    -15.110  0.4383E+01  0.4907E+01
    -15.084  0.5400E+01  0.5049E+01
    -15.058  0.4796E+01  0.5176E+01
    -15.031  0.2247E+01  0.5235E+01
    -15.005  0.2886E+01  0.5311E+01
    -14.978  0.2908E+01  0.5388E+01
    -14.952  0.3785E-01  0.5389E+01
    -14.926  0.3173E+01  0.5473E+01
    -14.899  0.6284E+01  0.5639E+01
    -14.873  0.1449E-01  0.5639E+01
    -14.846  0.3086E-09  0.5639E+01
    -14.820  0.8162E-03  0.5639E+01
    -14.794  0.2134E+01  0.5695E+01
    -14.767  0.7172E+01  0.5885E+01
    -14.741  0.1652E+00  0.5889E+01
    -14.714  0.1626E-02  0.5889E+01
    -14.688  0.2126E+01  0.5945E+01
    -14.662  0.1067E+01  0.5973E+01
    -14.635  0.9868E+00  0.5999E+01
    -14.609  0.2870E-01  0.6000E+01
    -14.582  0.8192E-08  0.6000E+01
    -14.556  0.0000E+00  0.6000E+01
    -14.530  0.0000E+00  0.6000E+01
    -14.503  0.0000E+00  0.6000E+01
    -14.477  0.0000E+00  0.6000E+01
    -14.450  0.0000E+00  0.6000E+01
    -14.424  0.0000E+00  0.6000E+01
    -14.398  0.0000E+00  0.6000E+01
    -14.371  0.0000E+00  0.6000E+01
    -14.345  0.0000E+00  0.6000E+01
    -14.318  0.0000E+00  0.6000E+01
    -14.292  0.0000E+00  0.6000E+01
    -14.266  0.0000E+00  0.6000E+01
    -14.239  0.0000E+00  0.6000E+01
    -14.213  0.0000E+00  0.6000E+01
    -14.187  0.0000E+00  0.6000E+01
    -14.160  0.0000E+00  0.6000E+01
    -14.134  0.0000E+00  0.6000E+01
    -14.107  0.0000E+00  0.6000E+01
    -14.081  0.0000E+00  0.6000E+01
    -14.055  0.0000E+00  0.6000E+01
    -14.028  0.0000E+00  0.6000E+01
    -14.002  0.0000E+00  0.6000E+01
    -13.975  0.0000E+00  0.6000E+01
    -13.949  0.0000E+00  0.6000E+01
    -13.923  0.0000E+00  0.6000E+01
    -13.896  0.0000E+00  0.6000E+01
    -13.870  0.0000E+00  0.6000E+01
    -13.843  0.0000E+00  0.6000E+01
    -13.817  0.0000E+00  0.6000E+01
    -13.791  0.0000E+00  0.6000E+01
    -13.764  0.0000E+00  0.6000E+01
    -13.738  0.0000E+00  0.6000E+01
    -13.711  0.0000E+00  0.6000E+01
    -13.685  0.0000E+00  0.6000E+01
    -13.659  0.0000E+00  0.6000E+01
    -13.632  0.0000E+00  0.6000E+01
    -13.606  0.0000E+00  0.6000E+01
    -13.579  0.0000E+00  0.6000E+01
    -13.553  0.0000E+00  0.6000E+01
    -13.527  0.0000E+00  0.6000E+01
    -13.500  0.0000E+00  0.6000E+01
    -13.474  0.0000E+00  0.6000E+01
    -13.447  0.0000E+00  0.6000E+01
    -13.421  0.0000E+00  0.6000E+01
    -13.395  0.0000E+00  0.6000E+01
    -13.368  0.0000E+00  0.6000E+01
    -13.342  0.0000E+00  0.6000E+01
    -13.316  0.0000E+00  0.6000E+01
    -13.289  0.0000E+00  0.6000E+01
    -13.263  0.0000E+00  0.6000E+01
    -13.236  0.0000E+00  0.6000E+01
    -13.210  0.0000E+00  0.6000E+01
    -13.184  0.0000E+00  0.6000E+01
    -13.157  0.0000E+00  0.6000E+01
    -13.131  0.0000E+00  0.6000E+01
    -13.104  0.0000E+00  0.6000E+01
    -13.078  0.0000E+00  0.6000E+01
    -13.052  0.0000E+00  0.6000E+01
    -13.025  0.0000E+00  0.6000E+01
    -12.999  0.0000E+00  0.6000E+01
    -12.972  0.0000E+00  0.6000E+01
    -12.946  0.0000E+00  0.6000E+01
    -12.920  0.0000E+00  0.6000E+01
    -12.893  0.8857E-11  0.6000E+01
    -12.867  0.1763E-02  0.6000E+01
    -12.840  0.1184E+01  0.6031E+01
    -12.814  0.2328E+01  0.6093E+01
    -12.788  0.1222E+01  0.6125E+01
    -12.761  0.1355E-03  0.6125E+01
    -12.735  0.1018E+01  0.6152E+01
    -12.708  0.2195E+01  0.6210E+01
    -12.682  0.5722E+01  0.6361E+01
    -12.656  0.6337E+00  0.6378E+01
    -12.629  0.5852E+01  0.6532E+01
    -12.603  0.1898E+01  0.6582E+01
    -12.576  0.1624E+01  0.6625E+01
    -12.550  0.2065E+01  0.6679E+01
    -12.524  0.4247E+01  0.6792E+01
    -12.497  0.3226E-02  0.6792E+01
    -12.471  0.3742E-01  0.6793E+01
    -12.445  0.3901E+01  0.6896E+01
    -12.418  0.5514E+01  0.7041E+01
    -12.392  0.2048E-01  0.7042E+01
    -12.365  0.1869E+01  0.7091E+01
    -12.339  0.3875E+01  0.7193E+01
    -12.313  0.1257E+02  0.7525E+01
    -12.286  0.7548E+01  0.7724E+01
    -12.260  0.4468E+00  0.7736E+01
    -12.233  0.6932E-05  0.7736E+01
    -12.207  0.6022E+00  0.7752E+01
    -12.181  0.2548E+01  0.7819E+01
    -12.154  0.6740E-02  0.7819E+01
    -12.128  0.6940E-10  0.7819E+01
    -12.101  0.2115E-03  0.7819E+01
    -12.075  0.1470E+01  0.7858E+01
    -12.049  0.1689E+01  0.7903E+01
    -12.022  0.2162E+01  0.7960E+01
    -11.996  0.9940E+00  0.7986E+01
    -11.969  0.3961E-04  0.7986E+01
    -11.943  0.1706E+00  0.7991E+01
    -11.917  0.3124E+01  0.8073E+01
    -11.890  0.5976E+01  0.8231E+01
    -11.864  0.2013E+00  0.8236E+01
    -11.837  0.9438E-01  0.8239E+01
    -11.811  0.5846E+01  0.8393E+01
    -11.785  0.3741E+00  0.8403E+01
    -11.758  0.4018E-06  0.8403E+01
    -11.732  0.8488E-01  0.8405E+01
    -11.705  0.2960E+01  0.8483E+01
    -11.679  0.1124E+00  0.8486E+01
    -11.653  0.4866E-07  0.8486E+01
    -11.626  0.0000E+00  0.8486E+01
    -11.600  0.1327E-12  0.8486E+01
    -11.573  0.3009E-03  0.8486E+01
    -11.547  0.1580E+01  0.8528E+01
    -11.521  0.1728E+01  0.8573E+01
    -11.494  0.1929E+01  0.8624E+01
    -11.468  0.2450E-01  0.8625E+01
    -11.442  0.3957E+01  0.8729E+01
    -11.415  0.8664E+01  0.8958E+01
    -11.389  0.1165E+01  0.8989E+01
    -11.362  0.1998E+01  0.9042E+01
    -11.336  0.1094E-02  0.9042E+01
    -11.310  0.1643E-11  0.9042E+01
    -11.283  0.5711E-10  0.9042E+01
    -11.257  0.8924E-02  0.9042E+01
    -11.230  0.5137E+01  0.9178E+01
    -11.204  0.1694E+01  0.9222E+01
    -11.178  0.6502E-04  0.9222E+01
    -11.151  0.4463E-08  0.9222E+01
    -11.125  0.4302E-01  0.9223E+01
    -11.098  0.4102E+01  0.9332E+01
    -11.072  0.7004E+01  0.9516E+01
    -11.046  0.1480E+01  0.9556E+01
    -11.019  0.8825E+00  0.9579E+01
    -10.993  0.5407E+01  0.9722E+01
    -10.966  0.2532E-01  0.9722E+01
    -10.940  0.5541E-09  0.9722E+01
    -10.914  0.2560E-02  0.9722E+01
    -10.887  0.2268E+01  0.9782E+01
    -10.861  0.8863E+00  0.9806E+01
    -10.834  0.3261E+00  0.9814E+01
    -10.808  0.2810E+01  0.9888E+01
    -10.782  0.2135E-01  0.9889E+01
    -10.755  0.1894E-07  0.9889E+01
    -10.729  0.8100E-01  0.9891E+01
    -10.702  0.5446E+01  0.1003E+02
    -10.676  0.6285E+01  0.1020E+02
    -10.650  0.8169E+00  0.1022E+02
    -10.623  0.3668E-05  0.1022E+02
    -10.597  0.0000E+00  0.1022E+02
    -10.571  0.1835E-10  0.1022E+02
    -10.544  0.2497E-02  0.1022E+02
    -10.518  0.1233E+01  0.1025E+02
    -10.491  0.3430E+00  0.1026E+02
    -10.465  0.5021E-05  0.1026E+02
    -10.439  0.0000E+00  0.1026E+02
    -10.412  0.0000E+00  0.1026E+02
    -10.386  0.4981E-12  0.1026E+02
    -10.359  0.8351E-03  0.1026E+02
    -10.333  0.3370E+01  0.1035E+02
    -10.307  0.2943E+01  0.1043E+02
    -10.280  0.4255E-03  0.1043E+02
    -10.254  0.1374E-12  0.1043E+02
    -10.227  0.1122E-13  0.1043E+02
    -10.201  0.8066E-04  0.1043E+02
    -10.175  0.1185E+01  0.1046E+02
    -10.148  0.1971E+01  0.1051E+02
    -10.122  0.1008E-02  0.1051E+02
    -10.095  0.1395E-11  0.1051E+02
    -10.069  0.0000E+00  0.1051E+02
    -10.043  0.0000E+00  0.1051E+02
    -10.016  0.0000E+00  0.1051E+02
     -9.990  0.0000E+00  0.1051E+02
     -9.963  0.4413E-12  0.1051E+02
     -9.937  0.2316E-03  0.1051E+02
     -9.911  0.3459E+00  0.1052E+02
     -9.884  0.1801E+00  0.1053E+02
     -9.858  0.9175E-05  0.1053E+02
     -9.831  0.0000E+00  0.1053E+02
     -9.805  0.3696E-12  0.1053E+02
     -9.779  0.6562E-03  0.1053E+02
     -9.752  0.3154E+01  0.1061E+02
     -9.726  0.7556E+01  0.1081E+02
     -9.700  0.1919E+01  0.1086E+02
     -9.673  0.6864E-04  0.1086E+02
     -9.647  0.0000E+00  0.1086E+02
     -9.620  0.0000E+00  0.1086E+02
     -9.594  0.4754E-09  0.1086E+02
     -9.568  0.1905E-01  0.1086E+02
     -9.541  0.3640E+01  0.1096E+02
     -9.515  0.5508E+00  0.1097E+02
     -9.488  0.2443E-03  0.1097E+02
     -9.462  0.1511E+01  0.1101E+02
     -9.436  0.1645E+01  0.1106E+02
     -9.409  0.3696E-03  0.1106E+02
     -9.383  0.4584E+00  0.1107E+02
     -9.356  0.5784E+01  0.1122E+02
     -9.330  0.6626E+00  0.1124E+02
     -9.304  0.2560E+01  0.1131E+02
     -9.277  0.7038E-02  0.1131E+02
     -9.251  0.7607E-10  0.1131E+02
     -9.224  0.0000E+00  0.1131E+02
     -9.198  0.8636E-08  0.1131E+02
     -9.172  0.5647E-01  0.1131E+02
     -9.145  0.2941E+01  0.1138E+02
     -9.119  0.3893E+01  0.1149E+02
     -9.092  0.6985E+01  0.1167E+02
     -9.066  0.1911E+01  0.1172E+02
     -9.040  0.2456E+00  0.1173E+02
     -9.013  0.2879E+01  0.1180E+02
     -8.987  0.1627E+00  0.1181E+02
     -8.960  0.6965E+01  0.1199E+02
     -8.934  0.5517E+01  0.1214E+02
     -8.908  0.9983E+00  0.1216E+02
     -8.881  0.2175E+01  0.1222E+02
     -8.855  0.1895E-02  0.1222E+02
     -8.829  0.1432E-02  0.1222E+02
     -8.802  0.3720E+01  0.1232E+02
     -8.776  0.2593E+01  0.1239E+02
     -8.749  0.2389E-03  0.1239E+02
     -8.723  0.3210E+00  0.1240E+02
     -8.697  0.2814E+01  0.1247E+02
     -8.670  0.5726E+00  0.1249E+02
     -8.644  0.1027E+01  0.1251E+02
     -8.617  0.6510E-03  0.1251E+02
     -8.591  0.1163E-11  0.1251E+02
     -8.565  0.0000E+00  0.1251E+02
     -8.538  0.1753E-14  0.1251E+02
     -8.512  0.3013E-04  0.1251E+02
     -8.485  0.9275E+00  0.1254E+02
     -8.459  0.3146E+01  0.1262E+02
     -8.433  0.6206E+01  0.1279E+02
     -8.406  0.4327E+01  0.1290E+02
     -8.380  0.7712E+01  0.1310E+02
     -8.353  0.4526E+01  0.1322E+02
     -8.327  0.5035E+01  0.1336E+02
     -8.301  0.6497E+01  0.1353E+02
     -8.274  0.1645E+01  0.1357E+02
     -8.248  0.2594E+01  0.1364E+02
     -8.221  0.8043E-02  0.1364E+02
     -8.195  0.1013E-09  0.1364E+02
     -8.169  0.0000E+00  0.1364E+02
     -8.142  0.1052E-14  0.1364E+02
     -8.116  0.2257E-04  0.1364E+02
     -8.089  0.8590E+00  0.1366E+02
     -8.063  0.2295E+01  0.1372E+02
     -8.037  0.3199E-02  0.1372E+02
     -8.010  0.1674E+01  0.1377E+02
     -7.984  0.1483E+01  0.1381E+02
     -7.958  0.3638E+01  0.1390E+02
     -7.931  0.7157E+01  0.1409E+02
     -7.905  0.1834E+01  0.1414E+02
     -7.878  0.1109E-02  0.1414E+02
     -7.852  0.9692E+00  0.1416E+02
     -7.826  0.6090E+00  0.1418E+02
     -7.799  0.1844E+01  0.1423E+02
     -7.773  0.4466E+01  0.1435E+02
     -7.746  0.4569E-02  0.1435E+02
     -7.720  0.5590E-08  0.1435E+02
     -7.694  0.4712E-01  0.1435E+02
     -7.667  0.3112E+01  0.1443E+02
     -7.641  0.6590E+01  0.1460E+02
     -7.614  0.5969E+01  0.1476E+02
     -7.588  0.2146E+00  0.1477E+02
     -7.562  0.1350E+02  0.1512E+02
     -7.535  0.2138E+01  0.1518E+02
     -7.509  0.2481E-04  0.1518E+02
     -7.482  0.0000E+00  0.1518E+02
     -7.456  0.0000E+00  0.1518E+02
     -7.430  0.0000E+00  0.1518E+02
     -7.403  0.6910E-07  0.1518E+02
     -7.377  0.1323E+00  0.1518E+02
     -7.350  0.5452E+01  0.1533E+02
     -7.324  0.1271E+01  0.1536E+02
     -7.298  0.5185E+01  0.1550E+02
     -7.271  0.1674E+01  0.1554E+02
     -7.245  0.8695E+01  0.1577E+02
     -7.218  0.2429E+01  0.1584E+02
     -7.192  0.1421E+01  0.1587E+02
     -7.166  0.5771E+01  0.1603E+02
     -7.139  0.8038E-01  0.1603E+02
     -7.113  0.4916E+00  0.1604E+02
     -7.087  0.2470E-01  0.1604E+02
     -7.060  0.3644E+01  0.1614E+02
     -7.034  0.4743E+01  0.1626E+02
     -7.007  0.4833E+00  0.1628E+02
     -6.981  0.7606E+01  0.1648E+02
     -6.955  0.1413E+01  0.1651E+02
     -6.928  0.1379E-03  0.1651E+02
     -6.902  0.5431E-06  0.1651E+02
     -6.875  0.2720E+00  0.1652E+02
     -6.849  0.2867E+01  0.1660E+02
     -6.823  0.4960E+01  0.1673E+02
     -6.796  0.2387E+01  0.1679E+02
     -6.770  0.2141E+01  0.1685E+02
     -6.743  0.2150E-02  0.1685E+02
     -6.717  0.1707E+01  0.1689E+02
     -6.691  0.1832E+01  0.1694E+02
     -6.664  0.5273E+01  0.1708E+02
     -6.638  0.1711E+01  0.1713E+02
     -6.611  0.2004E+01  0.1718E+02
     -6.585  0.4408E+01  0.1729E+02
     -6.559  0.5963E+01  0.1745E+02
     -6.532  0.6670E+01  0.1763E+02
     -6.506  0.3165E+01  0.1771E+02
     -6.479  0.1050E+02  0.1799E+02
     -6.453  0.2018E+01  0.1804E+02
     -6.427  0.1332E+01  0.1808E+02
     -6.400  0.1830E+01  0.1813E+02
     -6.374  0.2482E+01  0.1819E+02
     -6.347  0.2310E+01  0.1825E+02
     -6.321  0.6815E+01  0.1843E+02
     -6.295  0.1383E+01  0.1847E+02
     -6.268  0.7788E+01  0.1867E+02
     -6.242  0.7014E+01  0.1886E+02
     -6.216  0.3719E+01  0.1896E+02
     -6.189  0.1041E+00  0.1896E+02
     -6.163  0.7971E+01  0.1917E+02
     -6.136  0.2061E+01  0.1922E+02
     -6.110  0.5659E+01  0.1937E+02
     -6.084  0.4767E-01  0.1937E+02
     -6.057  0.7583E-02  0.1938E+02
     -6.031  0.9404E+00  0.1940E+02
     -6.004  0.1045E+00  0.1940E+02
     -5.978  0.5480E+00  0.1942E+02
     -5.952  0.2171E+01  0.1947E+02
     -5.925  0.6102E+01  0.1964E+02
     -5.899  0.3181E+01  0.1972E+02
     -5.872  0.1012E+00  0.1972E+02
     -5.846  0.1374E+01  0.1976E+02
     -5.820  0.4931E+01  0.1989E+02
     -5.793  0.9965E-02  0.1989E+02
     -5.767  0.7301E-10  0.1989E+02
     -5.740  0.0000E+00  0.1989E+02
     -5.714  0.7506E-07  0.1989E+02
     -5.688  0.2079E+00  0.1989E+02
     -5.661  0.1039E+02  0.2017E+02
     -5.635  0.2034E+01  0.2022E+02
     -5.608  0.3855E-01  0.2022E+02
     -5.582  0.2900E+01  0.2030E+02
     -5.556  0.2185E+00  0.2031E+02
     -5.529  0.2912E-06  0.2031E+02
     -5.503  0.1166E-10  0.2031E+02
     -5.476  0.4108E-02  0.2031E+02
     -5.450  0.4668E+01  0.2043E+02
     -5.424  0.4771E+01  0.2055E+02
     -5.397  0.2881E-01  0.2056E+02
     -5.371  0.1739E-08  0.2056E+02
     -5.345  0.7909E-03  0.2056E+02
     -5.318  0.3429E+01  0.2065E+02
     -5.292  0.7333E+01  0.2084E+02
     -5.265  0.2995E+00  0.2085E+02
     -5.239  0.3500E+01  0.2094E+02
     -5.213  0.4082E+01  0.2105E+02
     -5.186  0.5313E+01  0.2119E+02
     -5.160  0.2854E+01  0.2126E+02
     -5.133  0.2579E-01  0.2126E+02
     -5.107  0.1885E+01  0.2131E+02
     -5.081  0.1720E+02  0.2177E+02
     -5.054  0.6647E+01  0.2194E+02
     -5.028  0.1377E+02  0.2231E+02
     -5.001  0.5236E+01  0.2244E+02
     -4.975  0.1564E+02  0.2286E+02
     -4.949  0.7491E+01  0.2306E+02
     -4.922  0.2632E+01  0.2312E+02
     -4.896  0.1026E+01  0.2315E+02
     -4.869  0.3600E+01  0.2325E+02
     -4.843  0.7596E+01  0.2345E+02
     -4.817  0.9388E+01  0.2370E+02
     -4.790  0.2467E+01  0.2376E+02
     -4.764  0.6830E+01  0.2394E+02
     -4.737  0.3305E+01  0.2403E+02
     -4.711  0.4259E-03  0.2403E+02
     -4.685  0.1698E-12  0.2403E+02
     -4.658  0.1815E-10  0.2403E+02
     -4.632  0.3568E-02  0.2403E+02
     -4.605  0.2369E+01  0.2409E+02
     -4.579  0.1694E+01  0.2414E+02
     -4.553  0.5382E+01  0.2428E+02
     -4.526  0.2395E-01  0.2428E+02
     -4.500  0.3058E-05  0.2428E+02
     -4.473  0.1140E+01  0.2431E+02
     -4.447  0.1506E+02  0.2471E+02
     -4.421  0.2745E+01  0.2478E+02
     -4.394  0.1776E+01  0.2482E+02
     -4.368  0.1384E+01  0.2486E+02
     -4.342  0.4206E+01  0.2497E+02
     -4.315  0.2106E+01  0.2503E+02
     -4.289  0.1176E-03  0.2503E+02
     -4.262  0.8126E+00  0.2505E+02
     -4.236  0.2341E+01  0.2511E+02
     -4.210  0.3258E-02  0.2511E+02
     -4.183  0.4972E+00  0.2512E+02
     -4.157  0.2650E+01  0.2519E+02
     -4.130  0.1007E-01  0.2519E+02
     -4.104  0.7268E+00  0.2521E+02
     -4.078  0.8577E+01  0.2544E+02
     -4.051  0.2119E+01  0.2550E+02
     -4.025  0.5910E+01  0.2565E+02
     -3.998  0.7608E+01  0.2585E+02
     -3.972  0.3793E+00  0.2586E+02
     -3.946  0.5742E+01  0.2601E+02
     -3.919  0.5105E+00  0.2603E+02
     -3.893  0.2031E-01  0.2603E+02
     -3.866  0.8133E+01  0.2624E+02
     -3.840  0.7624E+01  0.2644E+02
     -3.814  0.8329E-02  0.2644E+02
     -3.787  0.2016E-03  0.2644E+02
     -3.761  0.2496E+01  0.2651E+02
     -3.734  0.3817E+01  0.2661E+02
     -3.708  0.1740E-02  0.2661E+02
     -3.682  0.6911E+00  0.2663E+02
     -3.655  0.9723E+00  0.2666E+02
     -3.629  0.1202E+02  0.2697E+02
     -3.602  0.9894E+01  0.2723E+02
     -3.576  0.3033E+01  0.2731E+02
     -3.550  0.9622E+01  0.2757E+02
     -3.523  0.3235E+01  0.2765E+02
     -3.497  0.2788E+00  0.2766E+02
     -3.471  0.8618E+01  0.2789E+02
     -3.444  0.5779E+00  0.2790E+02
     -3.418  0.1366E+01  0.2794E+02
     -3.391  0.3315E+01  0.2803E+02
     -3.365  0.4919E+01  0.2816E+02
     -3.339  0.1088E+02  0.2844E+02
     -3.312  0.8236E+00  0.2847E+02
     -3.286  0.5296E+01  0.2860E+02
     -3.259  0.5739E+01  0.2876E+02
     -3.233  0.8770E+01  0.2899E+02
     -3.207  0.4648E+01  0.2911E+02
     -3.180  0.2397E+00  0.2912E+02
     -3.154  0.3175E+01  0.2920E+02
     -3.127  0.8157E+00  0.2922E+02
     -3.101  0.1048E-02  0.2922E+02
     -3.075  0.4651E-11  0.2922E+02
     -3.048  0.1123E-04  0.2922E+02
     -3.022  0.7197E+00  0.2924E+02
     -2.995  0.5124E+01  0.2938E+02
     -2.969  0.4713E+00  0.2939E+02
     -2.943  0.2302E+00  0.2939E+02
     -2.916  0.5919E+01  0.2955E+02
     -2.890  0.2226E+00  0.2956E+02
     -2.863  0.2940E+01  0.2963E+02
     -2.837  0.1606E+00  0.2964E+02
     -2.811  0.1249E-06  0.2964E+02
     -2.784  0.1052E-14  0.2964E+02
     -2.758  0.2199E-04  0.2964E+02
     -2.731  0.8530E+00  0.2966E+02
     -2.705  0.2301E+01  0.2972E+02
     -2.679  0.9263E+00  0.2975E+02
     -2.652  0.2231E+01  0.2981E+02
     -2.626  0.3120E-01  0.2981E+02
     -2.600  0.2861E+01  0.2988E+02
     -2.573  0.2677E+00  0.2989E+02
     -2.547  0.1717E+00  0.2989E+02
     -2.520  0.2933E+01  0.2997E+02
     -2.494  0.5257E-01  0.2997E+02
     -2.468  0.4715E+00  0.2998E+02
     -2.441  0.5807E+00  0.3000E+02
     -2.415  0.1661E-03  0.3000E+02
     -2.388  0.1170E-12  0.3000E+02
     -2.362  0.0000E+00  0.3000E+02
     -2.336  0.0000E+00  0.3000E+02
     -2.309  0.0000E+00  0.3000E+02
     -2.283  0.0000E+00  0.3000E+02
     -2.256  0.0000E+00  0.3000E+02
     -2.230  0.0000E+00  0.3000E+02
     -2.204  0.0000E+00  0.3000E+02
     -2.177  0.0000E+00  0.3000E+02
     -2.151  0.0000E+00  0.3000E+02
     -2.124  0.0000E+00  0.3000E+02
     -2.098  0.0000E+00  0.3000E+02
     -2.072  0.0000E+00  0.3000E+02
     -2.045  0.0000E+00  0.3000E+02
     -2.019  0.0000E+00  0.3000E+02
     -1.992  0.0000E+00  0.3000E+02
     -1.966  0.0000E+00  0.3000E+02
     -1.940  0.0000E+00  0.3000E+02
     -1.913  0.0000E+00  0.3000E+02
     -1.887  0.0000E+00  0.3000E+02
     -1.860  0.8081E-07  0.3000E+02
     -1.834  0.8832E-01  0.3000E+02
     -1.808  0.1467E+01  0.3004E+02
     -1.781  0.2190E+01  0.3010E+02
     -1.755  0.9912E+00  0.3012E+02
     -1.729  0.3903E-04  0.3012E+02
     -1.702  0.4228E-05  0.3013E+02
     -1.676  0.5310E+00  0.3014E+02
     -1.649  0.2617E+01  0.3021E+02
     -1.623  0.8817E-02  0.3021E+02
     -1.597  0.7189E+00  0.3023E+02
     -1.570  0.5560E+01  0.3037E+02
     -1.544  0.3273E+01  0.3046E+02
     -1.517  0.3077E+01  0.3054E+02
     -1.491  0.7114E-02  0.3054E+02
     -1.465  0.2890E+01  0.3062E+02
     -1.438  0.6472E+01  0.3079E+02
     -1.412  0.1034E+00  0.3079E+02
     -1.385  0.1394E-07  0.3079E+02
     -1.359  0.1297E-13  0.3079E+02
     -1.333  0.1194E-03  0.3079E+02
     -1.306  0.2207E+01  0.3085E+02
     -1.280  0.6375E+01  0.3102E+02
     -1.253  0.8892E+00  0.3104E+02
     -1.227  0.3503E-03  0.3104E+02
     -1.201  0.2807E+01  0.3112E+02
     -1.174  0.6394E+01  0.3128E+02
     -1.148  0.3177E+00  0.3129E+02
     -1.121  0.5705E+01  0.3144E+02
     -1.095  0.3553E+01  0.3154E+02
     -1.069  0.2898E+01  0.3161E+02
     -1.042  0.4249E+00  0.3162E+02
     -1.016  0.2074E-05  0.3162E+02
     -0.989  0.0000E+00  0.3162E+02
     -0.963  0.0000E+00  0.3162E+02
     -0.937  0.0000E+00  0.3162E+02
     -0.910  0.5752E-09  0.3163E+02
     -0.884  0.1771E-01  0.3163E+02
     -0.858  0.2778E+01  0.3170E+02
     -0.831  0.2764E+01  0.3177E+02
     -0.805  0.7541E+00  0.3179E+02
     -0.778  0.1403E-04  0.3179E+02
     -0.752  0.0000E+00  0.3179E+02
     -0.726  0.0000E+00  0.3179E+02
     -0.699  0.0000E+00  0.3179E+02
     -0.673  0.1380E-08  0.3179E+02
     -0.646  0.9250E-02  0.3179E+02
     -0.620  0.5615E+00  0.3181E+02
     -0.594  0.5811E+01  0.3196E+02
     -0.567  0.4594E+00  0.3197E+02
     -0.541  0.6701E-06  0.3197E+02
     -0.514  0.0000E+00  0.3197E+02
     -0.488  0.0000E+00  0.3197E+02
     -0.462  0.0000E+00  0.3197E+02
     -0.435  0.0000E+00  0.3197E+02
     -0.409  0.0000E+00  0.3197E+02
     -0.382  0.0000E+00  0.3197E+02
     -0.356  0.0000E+00  0.3197E+02
     -0.330  0.0000E+00  0.3197E+02
     -0.303  0.0000E+00  0.3197E+02
     -0.277  0.0000E+00  0.3197E+02
     -0.250  0.0000E+00  0.3197E+02
     -0.224  0.0000E+00  0.3197E+02
     -0.198  0.0000E+00  0.3197E+02
     -0.171  0.0000E+00  0.3197E+02
     -0.145  0.0000E+00  0.3197E+02
     -0.118  0.0000E+00  0.3197E+02
     -0.092  0.8981E-11  0.3197E+02
     -0.066  0.2060E-02  0.3197E+02
     -0.039  0.1551E+01  0.3201E+02
     -0.013  0.5522E+00  0.3203E+02
      0.013  0.1315E-04  0.3203E+02
      0.040  0.0000E+00  0.3203E+02
      0.066  0.0000E+00  0.3203E+02
      0.093  0.0000E+00  0.3203E+02
      0.119  0.0000E+00  0.3203E+02
      0.145  0.0000E+00  0.3203E+02
      0.172  0.0000E+00  0.3203E+02
      0.198  0.0000E+00  0.3203E+02
      0.225  0.0000E+00  0.3203E+02
      0.251  0.0000E+00  0.3203E+02
      0.277  0.0000E+00  0.3203E+02
      0.304  0.0000E+00  0.3203E+02
      0.330  0.0000E+00  0.3203E+02
      0.357  0.0000E+00  0.3203E+02