    8    8    1    1
  0.2469169E+02  0.5174038E-09  0.5174038E-09  0.8520221E-09  0.5000000E-15
  1.000000000000000E-004
  CAR 
 BC3                                     
     30     19     24
 
  0.0000000E+00  0.0000000E+00  0.0000000E+00  0.6944444E-02
    1      -18.543790   1.000000
    2      -14.652428   1.000000
    3      -14.652375   1.000000
    4      -12.302574   1.000000
    5      -12.302512   1.000000
    6      -11.233908   1.000000
    7       -9.916234   1.000000
    8       -7.347273   1.000000
    9       -7.128883   1.000000
   10       -4.974411   1.000000
   11       -4.974392   1.000000
   12       -3.151704   0.999949
   13       -3.151668   0.999949
   14       -2.470287   0.955592
   15       -2.470183   0.955548
   16       -0.633197   0.000000
   17        1.098992   0.000000
   18        1.099032   0.000000
   19        1.788927   0.000000
   20        1.920947   0.000000
   21        4.520834   0.000000
   22        5.910241   0.000000
   23        6.312251   0.000000
   24        6.312271   0.000000
 
  0.8333333E-01  0.6938894E-17  0.0000000E+00  0.4166667E-01
    1      -18.516684   1.000000
    2      -14.784493   1.000000
    3      -14.694770   1.000000
    4      -12.341726   1.000000
    5      -12.204129   1.000000
    6      -11.099347   1.000000
    7       -9.755874   1.000000
    8       -7.306076   1.000000
    9       -7.186181   1.000000
   10       -5.097824   1.000000
   11       -4.996875   1.000000
   12       -3.276144   0.999985
   13       -3.172114   0.999958
   14       -2.612824   0.988951
   15       -2.538990   0.977156
   16       -0.837896   0.000002
   17        1.158308   0.000000
   18        1.409443   0.000000
   19        1.913615   0.000000
   20        1.972682   0.000000
   21        4.572944   0.000000
   22        5.966447   0.000000
   23        6.383771   0.000000
   24        6.475247   0.000000
 
  0.1666667E+00  0.0000000E+00  0.0000000E+00  0.4166667E-01
    1      -18.437625   1.000000
    2      -15.109429   1.000000
    3      -14.798981   1.000000
    4      -12.458153   1.000000
    5      -11.935052   1.000000
    6      -10.718176   1.000000
    7       -9.326549   1.000000
    8       -7.368465   1.000000
    9       -7.183687   1.000000
   10       -5.443788   1.000000
   11       -5.033043   1.000000
   12       -3.618030   1.000000
   13       -3.226385   0.999976
   14       -3.020012   0.999810
   15       -2.730734   0.996576
   16       -1.185719   0.000057
   17        1.321597   0.000000
   18        1.886118   0.000000
   19        2.127419   0.000000
   20        2.433878   0.000000
   21        4.729574   0.000000
   22        6.121232   0.000000
   23        6.552321   0.000000
   24        6.959059   0.000000
 
  0.2500000E+00 -0.1387779E-16  0.0000000E+00  0.4166667E-01
    1      -18.314611   1.000000
    2      -15.505912   1.000000
    3      -14.921307   1.000000
    4      -12.605807   1.000000
    5      -11.550561   1.000000
    6      -10.175653   1.000000
    7       -8.716893   1.000000
    8       -7.682090   1.000000
    9       -6.984387   1.000000
   10       -5.950701   1.000000
   11       -5.024224   1.000000
   12       -4.095238   1.000000
   13       -3.637494   1.000000
   14       -3.296498   0.999988
   15       -3.006360   0.999782
   16       -1.472528   0.000998
   17        1.549921   0.000000
   18        2.242600   0.000000
   19        2.384219   0.000000
   20        3.316956   0.000000
   21        4.992776   0.000000
   22        6.020306   0.000000
   23        6.355683   0.000000
   24        6.748423   0.000000
 
  0.3333333E+00 -0.8326673E-16  0.0000000E+00  0.4166667E-01
    1      -18.166084   1.000000
    2      -15.883077   1.000000
    3      -15.027401   1.000000
    4      -12.734744   1.000000
    5      -11.112677   1.000000
    6       -9.552430   1.000000
    7       -8.088992   1.000000
    8       -8.013918   1.000000
    9       -6.719859   1.000000
   10       -6.528058   1.000000
   11       -4.945214   1.000000
   12       -4.612409   1.000000
   13       -4.398825   1.000000
   14       -3.362512   0.999994
   15       -3.310714   0.999990
   16       -1.670763   0.007201
   17        1.786468   0.000000
   18        2.566530   0.000000
   19        2.742243   0.000000
   20        4.288367   0.000000
   21        5.173142   0.000000
   22        5.372221   0.000000
   23        6.627102   0.000000
   24        6.919510   0.000000
 
  0.4166667E+00  0.0000000E+00  0.0000000E+00  0.4166667E-01
    1      -18.030784   1.000000
    2      -16.166181   1.000000
    3      -15.097426   1.000000
    4      -12.819192   1.000000
    5      -10.711515   1.000000
    6       -8.907503   1.000000
    7       -8.485285   1.000000
    8       -7.577823   1.000000
    9       -6.796099   1.000000
   10       -6.427471   1.000000
   11       -5.237578   1.000000
   12       -5.075326   1.000000
   13       -4.829104   1.000000
   14       -3.571958   0.999999
   15       -3.408643   0.999996
   16       -1.786573   0.022572
   17        1.966737   0.000000
   18        2.810021   0.000000
   19        3.200910   0.000000
   20        4.417691   0.000000
   21        5.199232   0.000000
   22        5.893215   0.000000
   23        6.743862   0.000000
   24        6.794781   0.000000
 
  0.5000000E+00 -0.2775558E-16  0.0000000E+00  0.2083333E-01
    1      -17.972311   1.000000
    2      -16.275458   1.000000
    3      -15.121714   1.000000
    4      -12.848330   1.000000
    5      -10.526826   1.000000
    6       -8.671102   1.000000
    7       -8.463533   1.000000
    8       -7.857390   1.000000
    9       -6.260126   1.000000
   10       -6.231795   1.000000
   11       -5.978285   1.000000
   12       -5.302344   1.000000
   13       -4.766580   1.000000
   14       -3.683960   1.000000
   15       -3.425091   0.999997
   16       -1.824695   0.032704
   17        2.034431   0.000000
   18        2.902196   0.000000
   19        3.757978   0.000000
   20        3.761368   0.000000
   21        5.828522   0.000000
   22        6.017768   0.000000
   23        6.681116   0.000000
   24        6.829857   0.000000
 
  0.8333333E-01  0.8333333E-01  0.0000000E+00  0.4166667E-01
    1      -18.463571   1.000000
    2      -14.997841   1.000000
    3      -14.784441   1.000000
    4      -12.370256   1.000000
    5      -12.077739   1.000000
    6      -10.828788   1.000000
    7       -9.464398   1.000000
    8       -7.308415   1.000000
    9       -7.224275   1.000000
   10       -5.307882   1.000000
   11       -5.048809   1.000000
   12       -3.488832   0.999998
   13       -3.236352   0.999978
   14       -2.878591   0.999217
   15       -2.678422   0.994236
   16       -1.078267   0.000019
   17        1.190687   0.000000
   18        1.917983   0.000000
   19        2.075922   0.000000
   20        2.170357   0.000000
   21        4.677217   0.000000
   22        6.074875   0.000000
   23        6.535126   0.000000
   24        6.748758   0.000000
 
  0.1666667E+00  0.8333333E-01  0.0000000E+00  0.8333333E-01
    1      -18.362213   1.000000
    2      -15.333117   1.000000
    3      -14.927906   1.000000
    4      -12.440689   1.000000
    5      -11.825470   1.000000
    6      -10.336886   1.000000
    7       -8.956609   1.000000
    8       -7.570793   1.000000
    9       -7.063230   1.000000
   10       -5.677969   1.000000
   11       -5.106164   1.000000
   12       -3.865900   1.000000
   13       -3.369000   0.999994
   14       -3.358801   0.999994
   15       -2.933509   0.999548
   16       -1.305311   0.000188
   17        1.257847   0.000000
   18        2.281732   0.000000
   19        2.425889   0.000000
   20        2.849025   0.000000
   21        4.886225   0.000000
   22        6.277983   0.000000
   23        6.507078   0.000000
   24        6.769861   0.000000
 
  0.2500000E+00  0.8333333E-01  0.0000000E+00  0.8333333E-01
    1      -18.225084   1.000000
    2      -15.703795   1.000000
    3      -15.065145   1.000000
    4      -12.550120   1.000000
    5      -11.441666   1.000000
    6       -9.732883   1.000000
    7       -8.310319   1.000000
    8       -7.959749   1.000000
    9       -6.830218   1.000000
   10       -6.172241   1.000000
   11       -5.092166   1.000000
   12       -4.346761   1.000000
   13       -4.032483   1.000000
   14       -3.482520   0.999998
   15       -3.247018   0.999980
   16       -1.455167   0.000839
   17        1.388754   0.000000
   18        2.589205   0.000000
   19        2.804662   0.000000
   20        3.792998   0.000000
   21        5.202971   0.000000
   22        5.624363   0.000000
   23        6.554265   0.000000
   24        6.766597   0.000000
 
  0.3333333E+00  0.8333333E-01  0.0000000E+00  0.8333333E-01
    1      -18.079205   1.000000
    2      -16.028541   1.000000
    3      -15.166837   1.000000
    4      -12.643572   1.000000
    5      -11.015058   1.000000
    6       -9.099460   1.000000
    7       -8.399302   1.000000
    8       -7.633836   1.000000
    9       -6.671866   1.000000
   10       -6.545645   1.000000
   11       -5.043448   1.000000
   12       -4.836044   1.000000
   13       -4.769250   1.000000
   14       -3.576450   0.999999
   15       -3.552972   0.999999
   16       -1.545897   0.002077
   17        1.535258   0.000000
   18        2.997632   0.000000
   19        3.122214   0.000000
   20        4.753495   0.000000
   21        4.821965   0.000000
   22        5.641977   0.000000
   23        6.579258   0.000000
   24        6.918079   0.000000
 
  0.4166667E+00  0.8333333E-01  0.0000000E+00  0.8333333E-01
    1      -17.976149   1.000000
    2      -16.226932   1.000000
    3      -15.220176   1.000000
    4      -12.694932   1.000000
    5      -10.687613   1.000000
    6       -8.807322   1.000000
    7       -8.442654   1.000000
    8       -7.574333   1.000000
    9       -6.494277   1.000000
   10       -6.285828   1.000000
   11       -5.668337   1.000000
   12       -5.208655   1.000000
   13       -4.866668   1.000000
   14       -3.762372   1.000000
   15       -3.626326   1.000000
   16       -1.589942   0.003222
   17        1.631367   0.000000
   18        3.309871   0.000000
   19        3.506444   0.000000
   20        4.114983   0.000000
   21        5.587438   0.000000
   22        6.133237   0.000000
   23        6.494010   0.000000
   24        6.530850   0.000000
 
  0.1666667E+00  0.1666667E+00  0.0000000E+00  0.4166667E-01
    1      -18.245825   1.000000
    2      -15.598066   1.000000
    3      -15.136888   1.000000
    4      -12.329956   1.000000
    5      -11.721591   1.000000
    6       -9.754810   1.000000
    7       -8.426496   1.000000
    8       -7.933487   1.000000
    9       -6.867827   1.000000
   10       -5.924962   1.000000
   11       -5.249897   1.000000
   12       -4.178298   1.000000
   13       -3.864082   1.000000
   14       -3.634362   1.000000
   15       -3.267410   0.999984
   16       -1.285856   0.000154
   17        1.128996   0.000000
   18        2.538271   0.000000
   19        3.231559   0.000000
   20        3.338360   0.000000
   21        5.145952   0.000000
   22        6.155826   0.000000
   23        6.183728   0.000000
   24        6.548615   0.000000
 
  0.2500000E+00  0.1666667E+00  0.0000000E+00  0.8333333E-01
    1      -18.107250   1.000000
    2      -15.875103   1.000000
    3      -15.320524   1.000000
    4      -12.300088   1.000000
    5      -11.441336   1.000000
    6       -9.123888   1.000000
    7       -8.379731   1.000000
    8       -7.798358   1.000000
    9       -6.610217   1.000000
   10       -6.267872   1.000000
   11       -5.322082   1.000000
   12       -4.573720   1.000000
   13       -4.468358   1.000000
   14       -3.875722   1.000000
   15       -3.642902   1.000000
   16       -1.201568   0.000066
   17        1.061731   0.000000
   18        2.896258   0.000000
   19        3.660106   0.000000
   20        4.248437   0.000000
   21        5.326087   0.000000
   22        5.508883   0.000000
   23        5.925388   0.000000
   24        6.896065   0.000000
 
  0.3333333E+00  0.1666667E+00  0.0000000E+00  0.8333333E-01
    1      -17.983672   1.000000
    2      -16.100914   1.000000
    3      -15.433183   1.000000
    4      -12.324621   1.000000
    5      -11.080583   1.000000
    6       -8.975991   1.000000
    7       -8.336333   1.000000
    8       -7.264629   1.000000
    9       -6.573231   1.000000
   10       -6.330313   1.000000
   11       -5.457148   1.000000
   12       -4.980338   1.000000
   13       -4.976167   1.000000
   14       -4.012176   1.000000
   15       -3.958906   1.000000
   16       -1.132671   0.000033
   17        1.046633   0.000000
   18        3.354972   0.000000
   19        3.949125   0.000000
   20        4.571506   0.000000
   21        5.169811   0.000000
   22        5.777209   0.000000
   23        5.978758   0.000000
   24        6.755699   0.000000
 
  0.4166667E+00  0.1666667E+00  0.0000000E+00  0.4166667E-01
    1      -17.931341   1.000000
    2      -16.190754   1.000000
    3      -15.470395   1.000000
    4      -12.338343   1.000000
    5      -10.894835   1.000000
    6       -9.160323   1.000000
    7       -7.957733   1.000000
    8       -7.358887   1.000000
    9       -6.241584   1.000000
   10       -6.175297   1.000000
   11       -5.945037   1.000000
   12       -5.178705   1.000000
   13       -5.038371   1.000000
   14       -4.093753   1.000000
   15       -4.055435   1.000000
   16       -1.108279   0.000026
   17        1.047972   0.000000
   18        3.909734   0.000000
   19        3.917725   0.000000
   20        4.057195   0.000000
   21        5.727698   0.000000
   22        5.878285   0.000000
   23        6.077173   0.000000
   24        6.507676   0.000000
 
  0.2500000E+00  0.2500000E+00  0.0000000E+00  0.4166667E-01
    1      -17.987354   1.000000
    2      -16.003263   1.000000
    3      -15.569381   1.000000
    4      -12.028915   1.000000
    5      -11.389721   1.000000
    6       -9.033165   1.000000
    7       -8.271166   1.000000
    8       -7.259731   1.000000
    9       -6.383116   1.000000
   10       -6.349929   1.000000
   11       -5.595931   1.000000
   12       -4.871339   1.000000
   13       -4.788413   1.000000
   14       -4.259826   1.000000
   15       -4.099826   1.000000
   16       -0.868051   0.000002
   17        0.745408   0.000000
   18        3.304580   0.000000
   19        4.479468   0.000000
   20        4.713112   0.000000
   21        5.116236   0.000000
   22        5.138290   0.000000
   23        5.898004   0.000000
   24        6.975086   0.000000
 
  0.3333333E+00  0.2500000E+00  0.0000000E+00  0.8333333E-01
    1      -17.907186   1.000000
    2      -16.076709   1.000000
    3      -15.717350   1.000000
    4      -11.906657   1.000000
    5      -11.239055   1.000000
    6       -9.375979   1.000000
    7       -7.657374   1.000000
    8       -7.000477   1.000000
    9       -6.487341   1.000000
   10       -6.129412   1.000000
   11       -5.843641   1.000000
   12       -5.085412   1.000000
   13       -4.989003   1.000000
   14       -4.464866   1.000000
   15       -4.451951   1.000000
   16       -0.605975   0.000000
   17        0.511496   0.000000
   18        3.813250   0.000000
   19        4.421401   0.000000
   20        4.795177   0.000000
   21        5.027788   0.000000
   22        5.496901   0.000000
   23        6.275687   0.000000
   24        6.356011   0.000000
 
  0.3333333E+00  0.3333333E+00  0.0000000E+00  0.1388889E-01
    1      -17.877633   1.000000
    2      -15.945084   1.000000
    3      -15.945048   1.000000
    4      -11.513786   1.000000
    5      -11.513720   1.000000
    6       -9.552435   1.000000
    7       -7.052692   1.000000
    8       -7.052654   1.000000
    9       -6.691726   1.000000
   10       -6.042178   1.000000
   11       -5.911090   1.000000
   12       -4.898836   1.000000
   13       -4.898785   1.000000
   14       -4.817594   1.000000
   15       -4.817576   1.000000
   16       -0.045984   0.000000
   17       -0.045939   0.000000
   18        4.355778   0.000000
   19        4.379319   0.000000
   20        4.379323   0.000000
   21        5.567787   0.000000
   22        5.567807   0.000000
   23        5.698053   0.000000
   24        6.567327   0.000000
