 vasp.5.4.4.18Apr17-6-g9f103f2a35 (build Mar 30 2023 15:39:25) complex          
  
 executed on             LinuxIFC date 2023.06.16  02:13:51
 running on   12 total cores
 distrk:  each k-point on   12 cores,    1 groups
 distr:  one band on NCORES_PER_BAND=   1 cores,   12 groups


--------------------------------------------------------------------------------------------------------


 INCAR:
 POTCAR:    PAW_PBE B 06Sep2000                   
 POTCAR:    PAW_PBE C 08Apr2002                   

 ----------------------------------------------------------------------------- 
|                                                                             |
|           W    W    AA    RRRRR   N    N  II  N    N   GGGG   !!!           |
|           W    W   A  A   R    R  NN   N  II  NN   N  G    G  !!!           |
|           W    W  A    A  R    R  N N  N  II  N N  N  G       !!!           |
|           W WW W  AAAAAA  RRRRR   N  N N  II  N  N N  G  GGG   !            |
|           WW  WW  A    A  R   R   N   NN  II  N   NN  G    G                |
|           W    W  A    A  R    R  N    N  II  N    N   GGGG   !!!           |
|                                                                             |
|      For optimal performance we recommend to set                            |
|        NCORE= 4 - approx SQRT( number of cores)                             |
|      NCORE specifies how many cores store one orbital (NPAR=cpu/NCORE).     |
|      This setting can  greatly improve the performance of VASP for DFT.     |
|      The default,   NCORE=1            might be grossly inefficient         |
|      on modern multi-core architectures or massively parallel machines.     |
|      Do your own testing !!!!                                               |
|      Unfortunately you need to use the default for GW and RPA calculations. |
|      (for HF NCORE is supported but not extensively tested yet)             |
|                                                                             |
 ----------------------------------------------------------------------------- 

 POTCAR:    PAW_PBE B 06Sep2000                   
   SHA256 =  a32ced30f5ae56fd4d10b4325ff17eb3e4e38ee0f4288bc219fb012fddfa6e97 B/
   COPYR  = (c) Copyright 06Sep2000 Georg Kresse                                
   COPYR  = This file is part of the software VASP. Any use, copying, and all ot
   COPYR  = If you do not have a valid VASP license, you may not use, copy or di
   VRHFIN =B: s2p1                                                              
   LEXCH  = PE                                                                  
   EATOM  =    71.1703 eV,    5.2309 Ry                                         
                                                                                
   TITEL  = PAW_PBE B 06Sep2000                                                 
   LULTRA =        F    use ultrasoft PP ?                                      
   IUNSCR =        1    unscreen: 0-lin 1-nonlin 2-no                           
   RPACOR =    1.200    partial core radius                                     
   POMASS =   10.811; ZVAL   =    3.000    mass and valenz                      
   RCORE  =    1.700    outmost cutoff radius                                   
   RWIGS  =    1.710; RWIGS  =    0.905    wigner-seitz radius (au A)           
   ENMAX  =  318.614; ENMIN  =  238.960 eV                                      
   ICORE  =        2    local potential                                         
   LCOR   =        T    correct aug charges                                     
   LPAW   =        T    paw PP                                                  
   EAUG   =  535.514                                                            
   DEXC   =    0.000                                                            
   RMAX   =    1.732    core radius for proj-oper                               
   RAUG   =    1.300    factor for augmentation sphere                          
   RDEP   =    1.757    radius for radial grids                                 
   RDEPT  =    1.436    core radius for aug-charge                              
                                                                                
   Atomic configuration                                                         
    4 entries                                                                   
     n  l   j            E        occ.                                          
     1  0  0.50      -180.5896   2.0000                                         
     2  0  0.50        -9.4431   2.0000                                         
     2  1  0.50        -3.6068   1.0000                                         
     3  2  1.50        -4.0817   0.0000                                         
   Description                                                                  
     l       E           TYP  RCUT    TYP  RCUT                                 
     0     -9.4430752     23  1.500                                             
     0      0.8675899     23  1.500                                             
     1     -3.6067955     23  1.700                                             
     1      6.1086146     23  1.700                                             
     2     -4.0817478      7  1.700                                             
  local pseudopotential read in
  partial core-charges read in
  partial kinetic energy density read in
  atomic valenz-charges read in
  non local Contribution for L=           0  read in
    real space projection operators read in
  non local Contribution for L=           0  read in
    real space projection operators read in
  non local Contribution for L=           1  read in
    real space projection operators read in
  non local Contribution for L=           1  read in
    real space projection operators read in
    PAW grid and wavefunctions read in
 
   number of l-projection  operators is LMAX  =           4
   number of lm-projection operators is LMMAX =           8
 
 POTCAR:    PAW_PBE C 08Apr2002                   
   SHA256 =  253f7b50bb8d59471dbedb8285d89021f4a42ed1a2c5d38a03a736e69125dd95 C/
   COPYR  = (c) Copyright 08Apr2002 Georg Kresse                                
   COPYR  = This file is part of the software VASP. Any use, copying, and all ot
   COPYR  = If you do not have a valid VASP license, you may not use, copy or di
   VRHFIN =C: s2p2                                                              
   LEXCH  = PE                                                                  
   EATOM  =   147.1560 eV,   10.8157 Ry                                         
                                                                                
   TITEL  = PAW_PBE C 08Apr2002                                                 
   LULTRA =        F    use ultrasoft PP ?                                      
   IUNSCR =        1    unscreen: 0-lin 1-nonlin 2-no                           
   RPACOR =    1.200    partial core radius                                     
   POMASS =   12.011; ZVAL   =    4.000    mass and valenz                      
   RCORE  =    1.500    outmost cutoff radius                                   
   RWIGS  =    1.630; RWIGS  =    0.863    wigner-seitz radius (au A)           
   ENMAX  =  400.000; ENMIN  =  300.000 eV                                      
   ICORE  =        2    local potential                                         
   LCOR   =        T    correct aug charges                                     
   LPAW   =        T    paw PP                                                  
   EAUG   =  644.873                                                            
   DEXC   =    0.000                                                            
   RMAX   =    1.529    core radius for proj-oper                               
   RAUG   =    1.300    factor for augmentation sphere                          
   RDEP   =    1.501    radius for radial grids                                 
   RDEPT  =    1.300    core radius for aug-charge                              
                                                                                
   Atomic configuration                                                         
    4 entries                                                                   
     n  l   j            E        occ.                                          
     1  0  0.50      -273.3789   2.0000                                         
     2  0  0.50       -13.7508   2.0000                                         
     2  1  0.50        -5.2854   2.0000                                         
     3  2  1.50        -5.4423   0.0000                                         
   Description                                                                  
     l       E           TYP  RCUT    TYP  RCUT                                 
     0    -13.7508458     23  1.200                                             
     0     -8.2022199     23  1.200                                             
     1     -5.2854383     23  1.500                                             
     1     34.0145650     23  1.500                                             
     2     -5.4423304      7  1.500                                             
  local pseudopotential read in
  partial core-charges read in
  partial kinetic energy density read in
  atomic valenz-charges read in
  non local Contribution for L=           0  read in
    real space projection operators read in
  non local Contribution for L=           0  read in
    real space projection operators read in
  non local Contribution for L=           1  read in
    real space projection operators read in
  non local Contribution for L=           1  read in
    real space projection operators read in
    PAW grid and wavefunctions read in
 
   number of l-projection  operators is LMAX  =           4
   number of lm-projection operators is LMMAX =           8
 
  PAW_PBE B 06Sep2000                   :
 energy of atom  1       EATOM=  -71.1703
 kinetic energy error for atom=    0.0015 (will be added to EATOM!!)
  PAW_PBE C 08Apr2002                   :
 energy of atom  2       EATOM= -147.1560
 kinetic energy error for atom=    0.0116 (will be added to EATOM!!)
 
 
 POSCAR: BC3 with lattice parameter 5.174Ang, len
  positions in direct lattice
  velocities in cartesian coordinates
 exchange correlation table for  LEXCH =        8
   RHO(1)=    0.500       N(1)  =     2000
   RHO(2)=  100.500       N(2)  =     4000
 


--------------------------------------------------------------------------------------------------------


 ion  position               nearest neighbor table
   1  0.333  0.667  0.250-   3 1.57   7 1.57   5 1.57
   2  0.667  0.333  0.250-   4 1.57   8 1.57   6 1.57
   3  0.159  0.317  0.250-   6 1.42   4 1.42   1 1.57
   4  0.317  0.159  0.250-   5 1.42   3 1.42   2 1.57
   5  0.159  0.841  0.250-   4 1.42   8 1.42   1 1.57
   6  0.841  0.159  0.250-   3 1.42   7 1.42   2 1.57
   7  0.683  0.841  0.250-   6 1.42   8 1.42   1 1.57
   8  0.841  0.683  0.250-   5 1.42   7 1.42   2 1.57
 
  LATTYP: Found a hexagonal cell.
 ALAT       =     5.1740377035
 C/A-ratio  =     1.6467258045
  
  Lattice vectors:
  
 A1 = (   4.4808484340,   2.5870188517,   0.0000000000)
 A2 = (  -4.4808484340,   2.5870188517,   0.0000000000)
 A3 = (   0.0000000000,   0.0000000000,   8.5202213998)


Analysis of symmetry for initial positions (statically):
=====================================================================
 Subroutine PRICEL returns:
 Original cell was already a primitive cell.
 

 Routine SETGRP: Setting up the symmetry group for a 
 hexagonal supercell.


 Subroutine GETGRP returns: Found 24 space group operations
 (whereof 12 operations were pure point group operations)
 out of a pool of 24 trial point group operations.


The static configuration has the point symmetry C_6v.
 The point group associated with its full space group is D_6h.


Analysis of symmetry for dynamics (positions and initial velocities):
=====================================================================
 Subroutine PRICEL returns:
 Original cell was already a primitive cell.
 

 Routine SETGRP: Setting up the symmetry group for a 
 hexagonal supercell.


 Subroutine GETGRP returns: Found 24 space group operations
 (whereof 12 operations were pure point group operations)
 out of a pool of 24 trial point group operations.


The dynamic configuration has the point symmetry C_6v.
 The point group associated with its full space group is D_6h.


 Subroutine INISYM returns: Found 24 space group operations
 (whereof 12 operations are pure point group operations),
 and found     1 'primitive' translations

 
 
 KPOINTS: K-points for BC3                        

Automatic generation of k-mesh.
Space group operators:
 irot       det(A)        alpha          n_x          n_y          n_z        tau_x        tau_y        tau_z
    1     1.000000     0.000000     1.000000     0.000000     0.000000     0.000000     0.000000     0.000000
    2     1.000000    60.000000     0.000000     0.000000    -1.000000     0.000000     0.000000     0.000000
    3     1.000000   120.000000     0.000000     0.000000    -1.000000     0.000000     0.000000     0.000000
    4     1.000000   180.000000     0.000000     0.000000     1.000000     0.000000     0.000000     0.000000
    5     1.000000   120.000000     0.000000     0.000000     1.000000     0.000000     0.000000     0.000000
    6     1.000000    60.000000     0.000000     0.000000     1.000000     0.000000     0.000000     0.000000
    7    -1.000000   180.000000     0.866025     0.500000     0.000000     0.000000     0.000000     0.000000
    8    -1.000000   180.000000     1.000000     0.000000     0.000000     0.000000     0.000000     0.000000
    9    -1.000000   180.000000     0.866025    -0.500000     0.000000     0.000000     0.000000     0.000000
   10    -1.000000   180.000000     0.500000    -0.866025     0.000000     0.000000     0.000000     0.000000
   11    -1.000000   180.000000     0.000000     1.000000     0.000000     0.000000     0.000000     0.000000
   12    -1.000000   180.000000    -0.500000    -0.866025     0.000000     0.000000     0.000000     0.000000
   13    -1.000000     0.000000     1.000000     0.000000     0.000000     0.000000     0.000000     0.500000
   14    -1.000000    60.000000     0.000000     0.000000    -1.000000     0.000000     0.000000     0.500000
   15    -1.000000   120.000000     0.000000     0.000000    -1.000000     0.000000     0.000000     0.500000
   16    -1.000000   180.000000     0.000000     0.000000     1.000000     0.000000     0.000000     0.500000
   17    -1.000000   120.000000     0.000000     0.000000     1.000000     0.000000     0.000000     0.500000
   18    -1.000000    60.000000     0.000000     0.000000     1.000000     0.000000     0.000000     0.500000
   19     1.000000   180.000000     0.866025     0.500000     0.000000     0.000000     0.000000     0.500000
   20     1.000000   180.000000     1.000000     0.000000     0.000000     0.000000     0.000000     0.500000
   21     1.000000   180.000000     0.866025    -0.500000     0.000000     0.000000     0.000000     0.500000
   22     1.000000   180.000000     0.500000    -0.866025     0.000000     0.000000     0.000000     0.500000
   23     1.000000   180.000000     0.000000     1.000000     0.000000     0.000000     0.000000     0.500000
   24     1.000000   180.000000    -0.500000    -0.866025     0.000000     0.000000     0.000000     0.500000
 
 Subroutine IBZKPT returns following result:
 ===========================================
 
 Found     19 irreducible k-points:
 
 Following reciprocal coordinates:
            Coordinates               Weight
  0.000000  0.000000  0.000000      1.000000
  0.083333  0.000000  0.000000      6.000000
  0.166667  0.000000  0.000000      6.000000
  0.250000 -0.000000  0.000000      6.000000
  0.333333 -0.000000  0.000000      6.000000
  0.416667  0.000000  0.000000      6.000000
  0.500000 -0.000000  0.000000      3.000000
  0.083333  0.083333  0.000000      6.000000
  0.166667  0.083333  0.000000     12.000000
  0.250000  0.083333  0.000000     12.000000
  0.333333  0.083333  0.000000     12.000000
  0.416667  0.083333  0.000000     12.000000
  0.166667  0.166667  0.000000      6.000000
  0.250000  0.166667  0.000000     12.000000
  0.333333  0.166667  0.000000     12.000000
  0.416667  0.166667  0.000000      6.000000
  0.250000  0.250000  0.000000      6.000000
  0.333333  0.250000  0.000000     12.000000
  0.333333  0.333333  0.000000      2.000000
 
 Following cartesian coordinates:
            Coordinates               Weight
  0.000000  0.000000  0.000000      1.000000
  0.009299  0.016106  0.000000      6.000000
  0.018598  0.032212  0.000000      6.000000
  0.027897  0.048318  0.000000      6.000000
  0.037195  0.064424  0.000000      6.000000
  0.046494  0.080530  0.000000      6.000000
  0.055793  0.096636  0.000000      3.000000
  0.000000  0.032212  0.000000      6.000000
  0.009299  0.048318  0.000000     12.000000
  0.018598  0.064424  0.000000     12.000000
  0.027897  0.080530  0.000000     12.000000
  0.037195  0.096636  0.000000     12.000000
  0.000000  0.064424  0.000000      6.000000
  0.009299  0.080530  0.000000     12.000000
  0.018598  0.096636  0.000000     12.000000
  0.027897  0.112742  0.000000      6.000000
  0.000000  0.096636  0.000000      6.000000
  0.009299  0.112742  0.000000     12.000000
  0.000000  0.128848  0.000000      2.000000
 


--------------------------------------------------------------------------------------------------------




 Dimension of arrays:
   k-points           NKPTS =     19   k-points in BZ     NKDIM =     19   number of bands    NBANDS=     24
   number of dos      NEDOS =    301   number of ions     NIONS =      8
   non local maximal  LDIM  =      4   non local SUM 2l+1 LMDIM =      8
   total plane-waves  NPLWV =  77760
   max r-space proj   IRMAX =      1   max aug-charges    IRDMAX=   6338
   dimension x,y,z NGX =    36 NGY =   36 NGZ =   60
   dimension x,y,z NGXF=    72 NGYF=   72 NGZF=  120
   support grid    NGXF=    72 NGYF=   72 NGZF=  120
   ions per type =               2   6
   NGX,Y,Z   is equivalent  to a cutoff of  11.57, 11.57, 11.71 a.u.
   NGXF,Y,Z  is equivalent  to a cutoff of  23.13, 23.13, 23.41 a.u.

 SYSTEM =  BC3                                     
 POSCAR =  BC3 with lattice parameter 5.174Ang, len

 Startparameter for this run:
   NWRITE =      2    write-flag & timer
   PREC   = accura    normal or accurate (medium, high low for compatibility)
   ISTART =      0    job   : 0-new  1-cont  2-samecut
   ICHARG =      2    charge: 1-file 2-atom 10-const
   ISPIN  =      1    spin polarized calculation?
   LNONCOLLINEAR =      F non collinear calculations
   LSORBIT =      F    spin-orbit coupling
   INIWAV =      1    electr: 0-lowe 1-rand  2-diag
   LASPH  =      F    aspherical Exc in radial PAW
   METAGGA=      F    non-selfconsistent MetaGGA calc.

 Electronic Relaxation 1
   ENCUT  =  450.0 eV  33.07 Ry    5.75 a.u.   8.95  8.95 14.74*2*pi/ulx,y,z
   ENINI  =  450.0     initial cutoff
   ENAUG  =  644.9 eV  augmentation charge cutoff
   NELM   =     60;   NELMIN=  2; NELMDL=  0     # of ELM steps 
   EDIFF  = 0.1E-05   stopping-criterion for ELM
   LREAL  =      F    real-space projection
   NLSPLINE    = F    spline interpolate recip. space projectors
   LCOMPAT=      F    compatible to vasp.4.4
   GGA_COMPAT  = T    GGA compatible to vasp.4.4-vasp.4.6
   LMAXPAW     = -100 max onsite density
   LMAXMIX     =    2 max onsite mixed and CHGCAR
   VOSKOWN=      0    Vosko Wilk Nusair interpolation
   ROPT   =    0.00000   0.00000
 Ionic relaxation
   EDIFFG = -.1E-02   stopping-criterion for IOM
   NSW    =      0    number of steps for IOM
   NBLOCK =      1;   KBLOCK =      1    inner block; outer block 
   IBRION =     -1    ionic relax: 0-MD 1-quasi-New 2-CG
   NFREE  =      0    steps in history (QN), initial steepest desc. (CG)
   ISIF   =      2    stress and relaxation
   IWAVPR =     10    prediction:  0-non 1-charg 2-wave 3-comb
   ISYM   =      2    0-nonsym 1-usesym 2-fastsym
   LCORR  =      T    Harris-Foulkes like correction to forces

   POTIM  = 0.5000    time-step for ionic-motion
   TEIN   =    0.0    initial temperature
   TEBEG  =    0.0;   TEEND  =   0.0 temperature during run
   SMASS  =  -3.00    Nose mass-parameter (am)
   estimated Nose-frequenzy (Omega)   =  0.10E-29 period in steps =****** mass=  -0.612E-27a.u.
   SCALEE = 1.0000    scale energy and forces
   NPACO  =    256;   APACO  = 16.0  distance and # of slots for P.C.
   PSTRESS=    0.0 pullay stress

  Mass of Ions in am
   POMASS =  10.81 12.01
  Ionic Valenz
   ZVAL   =   3.00  4.00
  Atomic Wigner-Seitz radii
   RWIGS  =  -1.00 -1.00
  virtual crystal weights 
   VCA    =   1.00  1.00
   NELECT =      30.0000    total number of electrons
   NUPDOWN=      -1.0000    fix difference up-down

 DOS related values:
   EMIN   =  10.00;   EMAX   =-10.00  energy-range for DOS
   EFERMI =   0.00
   ISMEAR =    -1;   SIGMA  =   0.10  broadening in eV -4-tet -1-fermi 0-gaus

 Electronic relaxation 2 (details)
   IALGO  =     38    algorithm
   LDIAG  =      T    sub-space diagonalisation (order eigenvalues)
   LSUBROT=      F    optimize rotation matrix (better conditioning)
   TURBO    =      0    0=normal 1=particle mesh
   IRESTART =      0    0=no restart 2=restart with 2 vectors
   NREBOOT  =      0    no. of reboots
   NMIN     =      0    reboot dimension
   EREF     =   0.00    reference energy to select bands
   IMIX   =      4    mixing-type and parameters
     AMIX     =   0.40;   BMIX     =  1.00
     AMIX_MAG =   1.60;   BMIX_MAG =  1.00
     AMIN     =   0.10
     WC   =   100.;   INIMIX=   1;  MIXPRE=   1;  MAXMIX= -45

 Intra band minimization:
   WEIMIN = 0.0000     energy-eigenvalue tresh-hold
   EBREAK =  0.10E-07  absolut break condition
   DEPER  =   0.30     relativ break condition  

   TIME   =   0.40     timestep for ELM

  volume/ion in A,a.u.               =      24.69       166.63
  Fermi-wavevector in a.u.,A,eV,Ry     =   0.873444  1.650570 10.379942  0.762904
  Thomas-Fermi vector in A             =   1.992835
 
 Write flags
   LWAVE        =      T    write WAVECAR
   LDOWNSAMPLE  =      F    k-point downsampling of WAVECAR
   LCHARG       =      T    write CHGCAR
   LVTOT        =      F    write LOCPOT, total local potential
   LVHAR        =      F    write LOCPOT, Hartree potential only
   LELF         =      F    write electronic localiz. function (ELF)
   LORBIT       =     11    0 simple, 1 ext, 2 COOP (PROOUT), +10 PAW based schemes


 Dipole corrections
   LMONO  =      F    monopole corrections only (constant potential shift)
   LDIPOL =      F    correct potential (dipole corrections)
   IDIPOL =      0    1-x, 2-y, 3-z, 4-all directions 
   EPSILON=  1.0000000 bulk dielectric constant

 Exchange correlation treatment:
   GGA     =    --    GGA type
   LEXCH   =     8    internal setting for exchange type
   VOSKOWN=      0    Vosko Wilk Nusair interpolation
   LHFCALC =     F    Hartree Fock is set to
   LHFONE  =     F    Hartree Fock one center treatment
   AEXX    =    0.0000 exact exchange contribution

 Linear response parameters
   LEPSILON=     F    determine dielectric tensor
   LRPA    =     F    only Hartree local field effects (RPA)
   LNABLA  =     F    use nabla operator in PAW spheres
   LVEL    =     F    velocity operator in full k-point grid
   LINTERFAST=   F  fast interpolation
   KINTER  =     0    interpolate to denser k-point grid
   CSHIFT  =0.1000    complex shift for real part using Kramers Kronig
   OMEGAMAX=  -1.0    maximum frequency
   DEG_THRESHOLD= 0.2000000E-02 threshold for treating states as degnerate
   RTIME   =   -0.100 relaxation time in fs
  (WPLASMAI=    0.000 imaginary part of plasma frequency in eV, 0.658/RTIME)
   DFIELD  = 0.0000000 0.0000000 0.0000000 field for delta impulse in time
 
 Orbital magnetization related:
   ORBITALMAG=     F  switch on orbital magnetization
   LCHIMAG   =     F  perturbation theory with respect to B field
   DQ        =  0.001000  dq finite difference perturbation B field
   LLRAUG    =     F  two centre corrections for induced B field



--------------------------------------------------------------------------------------------------------


 Static calculation
 charge density and potential will be updated during run
 non-spin polarized calculation
 Variant of blocked Davidson
 Davidson routine will perform the subspace rotation
 perform sub-space diagonalisation
    after iterative eigenvector-optimisation
 modified Broyden-mixing scheme, WC =      100.0
 initial mixing is a Kerker type mixing with AMIX =  0.4000 and BMIX =      1.0000
 Hartree-type preconditioning will be used
 using additional bands            9
 reciprocal scheme for non local part
 use partial core corrections
 calculate Harris-corrections to forces 
   (improved forces if not selfconsistent)
 use gradient corrections 
 use of overlap-Matrix (Vanderbilt PP)
 Fermi-smearing in eV        SIGMA  =   0.10


--------------------------------------------------------------------------------------------------------


  energy-cutoff  :      450.00
  volume of cell :      197.53
      direct lattice vectors                 reciprocal lattice vectors
     4.480848434  2.587018852  0.000000000     0.111586010  0.193272654  0.000000000
    -4.480848434  2.587018852  0.000000000    -0.111586010  0.193272654  0.000000000
     0.000000000  0.000000000  8.520221400     0.000000000  0.000000000  0.117367842

  length of vectors
     5.174038000  5.174038000  8.520221400     0.223172034  0.223172034  0.117367842


 
 k-points in units of 2pi/SCALE and weight: K-points for BC3                        
   0.00000000  0.00000000  0.00000000       0.007
   0.00929883  0.01610605  0.00000000       0.042
   0.01859767  0.03221211  0.00000000       0.042
   0.02789650  0.04831816  0.00000000       0.042
   0.03719534  0.06442422  0.00000000       0.042
   0.04649417  0.08053027  0.00000000       0.042
   0.05579301  0.09663633  0.00000000       0.021
   0.00000000  0.03221211  0.00000000       0.042
   0.00929883  0.04831816  0.00000000       0.083
   0.01859767  0.06442422  0.00000000       0.083
   0.02789650  0.08053027  0.00000000       0.083
   0.03719534  0.09663633  0.00000000       0.083
   0.00000000  0.06442422  0.00000000       0.042
   0.00929883  0.08053027  0.00000000       0.083
   0.01859767  0.09663633  0.00000000       0.083
   0.02789650  0.11274238  0.00000000       0.042
   0.00000000  0.09663633  0.00000000       0.042
   0.00929883  0.11274238  0.00000000       0.083
   0.00000000  0.12884844  0.00000000       0.014
 
 k-points in reciprocal lattice and weights: K-points for BC3                        
   0.00000000  0.00000000  0.00000000       0.007
   0.08333333  0.00000000  0.00000000       0.042
   0.16666667  0.00000000  0.00000000       0.042
   0.25000000 -0.00000000  0.00000000       0.042
   0.33333333 -0.00000000  0.00000000       0.042
   0.41666667  0.00000000  0.00000000       0.042
   0.50000000 -0.00000000  0.00000000       0.021
   0.08333333  0.08333333  0.00000000       0.042
   0.16666667  0.08333333  0.00000000       0.083
   0.25000000  0.08333333  0.00000000       0.083
   0.33333333  0.08333333  0.00000000       0.083
   0.41666667  0.08333333  0.00000000       0.083
   0.16666667  0.16666667  0.00000000       0.042
   0.25000000  0.16666667  0.00000000       0.083
   0.33333333  0.16666667  0.00000000       0.083
   0.41666667  0.16666667  0.00000000       0.042
   0.25000000  0.25000000  0.00000000       0.042
   0.33333333  0.25000000  0.00000000       0.083
   0.33333333  0.33333333  0.00000000       0.014
 
 position of ions in fractional coordinates (direct lattice) 
   0.33333300  0.66666600  0.25000000
   0.66666600  0.33333300  0.25000000
   0.15869124  0.31738348  0.25000000
   0.31738348  0.15869124  0.25000000
   0.15869124  0.84130776  0.25000000
   0.84130776  0.15869124  0.25000000
   0.68261552  0.84130776  0.25000000
   0.84130776  0.68261552  0.25000000
 
 position of ions in cartesian coordinates  (Angst):
  -1.49361465  2.58701626  2.13005535
   1.49361465  2.58701626  2.13005535
  -0.71107588  1.23161429  2.13005535
   0.71107588  1.23161429  2.13005535
  -3.05870114  2.58701626  2.13005535
   3.05870114  2.58701626  2.13005535
  -0.71107588  3.94241824  2.13005535
   0.71107588  3.94241824  2.13005535
 


--------------------------------------------------------------------------------------------------------


 k-point  1 :   0.0000 0.0000 0.0000  plane waves:    4271
 k-point  2 :   0.0833 0.0000 0.0000  plane waves:    4257
 k-point  3 :   0.1667 0.0000 0.0000  plane waves:    4273
 k-point  4 :   0.2500-0.0000 0.0000  plane waves:    4286
 k-point  5 :   0.3333-0.0000 0.0000  plane waves:    4272
 k-point  6 :   0.4167 0.0000 0.0000  plane waves:    4280
 k-point  7 :   0.5000-0.0000 0.0000  plane waves:    4280
 k-point  8 :   0.0833 0.0833 0.0000  plane waves:    4273
 k-point  9 :   0.1667 0.0833 0.0000  plane waves:    4261
 k-point 10 :   0.2500 0.0833 0.0000  plane waves:    4277
 k-point 11 :   0.3333 0.0833 0.0000  plane waves:    4283
 k-point 12 :   0.4167 0.0833 0.0000  plane waves:    4292
 k-point 13 :   0.1667 0.1667 0.0000  plane waves:    4267
 k-point 14 :   0.2500 0.1667 0.0000  plane waves:    4287
 k-point 15 :   0.3333 0.1667 0.0000  plane waves:    4297
 k-point 16 :   0.4167 0.1667 0.0000  plane waves:    4305
 k-point 17 :   0.2500 0.2500 0.0000  plane waves:    4283
 k-point 18 :   0.3333 0.2500 0.0000  plane waves:    4306
 k-point 19 :   0.3333 0.3333 0.0000  plane waves:    4323

 maximum and minimum number of plane-waves per node :      4323     4257

 maximum number of plane-waves:      4323
 maximum index in each direction: 
   IXMAX=    8   IYMAX=    8   IZMAX=   14
   IXMIN=   -9   IYMIN=   -9   IZMIN=  -14


 serial   3D FFT for wavefunctions
 parallel 3D FFT for charge:
    minimum data exchange during FFTs selected (reduces bandwidth)


 total amount of memory used by VASP MPI-rank0    51948. kBytes
=======================================================================

   base      :      30000. kBytes
   nonl-proj :      11089. kBytes
   fftplans  :       2090. kBytes
   grid      :       6068. kBytes
   one-center:         24. kBytes
   wavefun   :       2677. kBytes
 
     INWAV:  cpu time    0.0000: real time    0.0000
 Broyden mixing: mesh for mixing (old mesh)
   NGX = 17   NGY = 17   NGZ = 29
  (NGX  = 72   NGY  = 72   NGZ  =120)
  gives a total of   8381 points

 initial charge density was supplied:
 charge density of overlapping atoms calculated
 number of electron      30.0000000 magnetization 
 keeping initial charge density in first step


--------------------------------------------------------------------------------------------------------


 Maximum index for augmentation-charges          403 (set IRDMAX)


--------------------------------------------------------------------------------------------------------


 First call to EWALD:  gamma=   0.304
 Maximum number of real-space cells 3x 3x 2
 Maximum number of reciprocal cells 2x 2x 4

    FEWALD:  cpu time    0.0017: real time    0.0017


--------------------------------------- Iteration      1(   1)  ---------------------------------------


    POTLOK:  cpu time    0.0358: real time    0.0365
    SETDIJ:  cpu time    0.0019: real time    0.0019
     EDDAV:  cpu time    0.5749: real time    0.5750
       DOS:  cpu time    0.0003: real time    0.0003
    --------------------------------------------
      LOOP:  cpu time    0.6129: real time    0.6137

 eigenvalue-minimisations  :   912
 total energy-change (2. order) : 0.1594349E+03  (-0.1195589E+04)
 number of electron      30.0000000 magnetization 
 augmentation part       30.0000000 magnetization 

 Free energy of the ion-electron system (eV)
  ---------------------------------------------------
  alpha Z        PSCENC =        25.67921176
  Ewald energy   TEWEN  =       700.27145080
  -Hartree energ DENC   =     -1524.76618073
  -exchange      EXHF   =         0.00000000
  -V(xc)+E(xc)   XCENC  =        91.14273073
  PAW double counting   =       738.13200929     -739.83780425
  entropy T*S    EENTRO =        -0.06158604
  eigenvalues    EBANDS =      -156.32887544
  atomic energy  EATOM  =      1025.20389953
  Solvation  Ediel_sol  =         0.00000000
  ---------------------------------------------------
  free energy    TOTEN  =       159.43485565 eV

  energy without entropy =      159.49644168  energy(sigma->0) =      159.46564867


--------------------------------------------------------------------------------------------------------




--------------------------------------- Iteration      1(   2)  ---------------------------------------


     EDDAV:  cpu time    0.6918: real time    0.6919
       DOS:  cpu time    0.0002: real time    0.0002
    --------------------------------------------
      LOOP:  cpu time    0.6920: real time    0.6921

 eigenvalue-minimisations  :  1200
 total energy-change (2. order) :-0.2142959E+03  (-0.2053777E+03)
 number of electron      30.0000000 magnetization 
 augmentation part       30.0000000 magnetization 

 Free energy of the ion-electron system (eV)
  ---------------------------------------------------
  alpha Z        PSCENC =        25.67921176
  Ewald energy   TEWEN  =       700.27145080
  -Hartree energ DENC   =     -1524.76618073
  -exchange      EXHF   =         0.00000000
  -V(xc)+E(xc)   XCENC  =        91.14273073
  PAW double counting   =       738.13200929     -739.83780425
  entropy T*S    EENTRO =        -0.00403694
  eigenvalues    EBANDS =      -370.68234934
  atomic energy  EATOM  =      1025.20389953
  Solvation  Ediel_sol  =         0.00000000
  ---------------------------------------------------
  free energy    TOTEN  =       -54.86106916 eV

  energy without entropy =      -54.85703221  energy(sigma->0) =      -54.85905069


--------------------------------------------------------------------------------------------------------




--------------------------------------- Iteration      1(   3)  ---------------------------------------


     EDDAV:  cpu time    0.7312: real time    0.7312
       DOS:  cpu time    0.0002: real time    0.0002
    --------------------------------------------
      LOOP:  cpu time    0.7314: real time    0.7314

 eigenvalue-minimisations  :  1284
 total energy-change (2. order) :-0.1825983E+02  (-0.1816056E+02)
 number of electron      30.0000000 magnetization 
 augmentation part       30.0000000 magnetization 

 Free energy of the ion-electron system (eV)
  ---------------------------------------------------
  alpha Z        PSCENC =        25.67921176
  Ewald energy   TEWEN  =       700.27145080
  -Hartree energ DENC   =     -1524.76618073
  -exchange      EXHF   =         0.00000000
  -V(xc)+E(xc)   XCENC  =        91.14273073
  PAW double counting   =       738.13200929     -739.83780425
  entropy T*S    EENTRO =        -0.00006429
  eigenvalues    EBANDS =      -388.94615472
  atomic energy  EATOM  =      1025.20389953
  Solvation  Ediel_sol  =         0.00000000
  ---------------------------------------------------
  free energy    TOTEN  =       -73.12090189 eV

  energy without entropy =      -73.12083760  energy(sigma->0) =      -73.12086974


--------------------------------------------------------------------------------------------------------




--------------------------------------- Iteration      1(   4)  ---------------------------------------


     EDDAV:  cpu time    0.7241: real time    0.7241
       DOS:  cpu time    0.0002: real time    0.0002
    --------------------------------------------
      LOOP:  cpu time    0.7243: real time    0.7243

 eigenvalue-minimisations  :  1272
 total energy-change (2. order) :-0.3088794E+00  (-0.3084091E+00)
 number of electron      30.0000000 magnetization 
 augmentation part       30.0000000 magnetization 

 Free energy of the ion-electron system (eV)
  ---------------------------------------------------
  alpha Z        PSCENC =        25.67921176
  Ewald energy   TEWEN  =       700.27145080
  -Hartree energ DENC   =     -1524.76618073
  -exchange      EXHF   =         0.00000000
  -V(xc)+E(xc)   XCENC  =        91.14273073
  PAW double counting   =       738.13200929     -739.83780425
  entropy T*S    EENTRO =        -0.00006444
  eigenvalues    EBANDS =      -389.25503396
  atomic energy  EATOM  =      1025.20389953
  Solvation  Ediel_sol  =         0.00000000
  ---------------------------------------------------
  free energy    TOTEN  =       -73.42978127 eV

  energy without entropy =      -73.42971684  energy(sigma->0) =      -73.42974906


--------------------------------------------------------------------------------------------------------




--------------------------------------- Iteration      1(   5)  ---------------------------------------


     EDDAV:  cpu time    0.7273: real time    0.7274
       DOS:  cpu time    0.0002: real time    0.0002
    CHARGE:  cpu time    0.0565: real time    0.0565
    MIXING:  cpu time    0.0010: real time    0.0011
    --------------------------------------------
      LOOP:  cpu time    0.7851: real time    0.7852

 eigenvalue-minimisations  :  1260
 total energy-change (2. order) :-0.1038994E-01  (-0.1038586E-01)
 number of electron      29.9999996 magnetization 
 augmentation part        0.5827728 magnetization 

 Broyden mixing:
  rms(total) = 0.13128E+01    rms(broyden)= 0.13123E+01
  rms(prec ) = 0.18288E+01
  weight for this iteration     100.00

 Free energy of the ion-electron system (eV)
  ---------------------------------------------------
  alpha Z        PSCENC =        25.67921176
  Ewald energy   TEWEN  =       700.27145080
  -Hartree energ DENC   =     -1524.76618073
  -exchange      EXHF   =         0.00000000
  -V(xc)+E(xc)   XCENC  =        91.14273073
  PAW double counting   =       738.13200929     -739.83780425
  entropy T*S    EENTRO =        -0.00006444
  eigenvalues    EBANDS =      -389.26542389
  atomic energy  EATOM  =      1025.20389953
  Solvation  Ediel_sol  =         0.00000000
  ---------------------------------------------------
  free energy    TOTEN  =       -73.44017121 eV

  energy without entropy =      -73.44010677  energy(sigma->0) =      -73.44013899


--------------------------------------------------------------------------------------------------------




--------------------------------------- Iteration      1(   6)  ---------------------------------------


    POTLOK:  cpu time    0.0319: real time    0.0320
    SETDIJ:  cpu time    0.0018: real time    0.0018
     EDDAV:  cpu time    0.6888: real time    0.6888
       DOS:  cpu time    0.0002: real time    0.0002
    CHARGE:  cpu time    0.0552: real time    0.0552
    MIXING:  cpu time    0.0010: real time    0.0010
    --------------------------------------------
      LOOP:  cpu time    0.7790: real time    0.7791

 eigenvalue-minimisations  :  1200
 total energy-change (2. order) : 0.4455002E+01  (-0.5261644E+00)
 number of electron      29.9999996 magnetization 
 augmentation part        0.5389140 magnetization 

 Broyden mixing:
  rms(total) = 0.74002E+00    rms(broyden)= 0.73996E+00
  rms(prec ) = 0.99932E+00
  weight for this iteration     100.00

 eigenvalues of (default mixing * dielectric matrix)
  average eigenvalue GAMMA=   1.9728
  1.9728

 Free energy of the ion-electron system (eV)
  ---------------------------------------------------
  alpha Z        PSCENC =        25.67921176
  Ewald energy   TEWEN  =       700.27145080
  -Hartree energ DENC   =     -1568.78979171
  -exchange      EXHF   =         0.00000000
  -V(xc)+E(xc)   XCENC  =        93.15011027
  PAW double counting   =      1379.52534302    -1381.79103464
  entropy T*S    EENTRO =        -0.00045098
  eigenvalues    EBANDS =      -342.23390753
  atomic energy  EATOM  =      1025.20389953
  Solvation  Ediel_sol  =         0.00000000
  ---------------------------------------------------
  free energy    TOTEN  =       -68.98516950 eV

  energy without entropy =      -68.98471852  energy(sigma->0) =      -68.98494401


--------------------------------------------------------------------------------------------------------




--------------------------------------- Iteration      1(   7)  ---------------------------------------


    POTLOK:  cpu time    0.0310: real time    0.0310
    SETDIJ:  cpu time    0.0017: real time    0.0017
     EDDAV:  cpu time    0.7082: real time    0.7082
       DOS:  cpu time    0.0002: real time    0.0002
    CHARGE:  cpu time    0.0550: real time    0.0550
    MIXING:  cpu time    0.0010: real time    0.0010
    --------------------------------------------
      LOOP:  cpu time    0.7972: real time    0.7972

 eigenvalue-minimisations  :  1236
 total energy-change (2. order) : 0.1642729E+01  (-0.3704466E+00)
 number of electron      29.9999997 magnetization 
 augmentation part        0.5043845 magnetization 

 Broyden mixing:
  rms(total) = 0.22284E+00    rms(broyden)= 0.22275E+00
  rms(prec ) = 0.29235E+00
  weight for this iteration     100.00

 eigenvalues of (default mixing * dielectric matrix)
  average eigenvalue GAMMA=   1.9161
  1.4462  2.3861

 Free energy of the ion-electron system (eV)
  ---------------------------------------------------
  alpha Z        PSCENC =        25.67921176
  Ewald energy   TEWEN  =       700.27145080
  -Hartree energ DENC   =     -1616.30483403
  -exchange      EXHF   =         0.00000000
  -V(xc)+E(xc)   XCENC  =        95.31525437
  PAW double counting   =      2434.47063177    -2437.14134927
  entropy T*S    EENTRO =        -0.00278988
  eigenvalues    EBANDS =      -294.83391577
  atomic energy  EATOM  =      1025.20389953
  Solvation  Ediel_sol  =         0.00000000
  ---------------------------------------------------
  free energy    TOTEN  =       -67.34244072 eV

  energy without entropy =      -67.33965084  energy(sigma->0) =      -67.34104578


--------------------------------------------------------------------------------------------------------




--------------------------------------- Iteration      1(   8)  ---------------------------------------


    POTLOK:  cpu time    0.0309: real time    0.0309
    SETDIJ:  cpu time    0.0017: real time    0.0017
     EDDAV:  cpu time    0.6666: real time    0.6666
       DOS:  cpu time    0.0002: real time    0.0002
    CHARGE:  cpu time    0.0551: real time    0.0551
    MIXING:  cpu time    0.0010: real time    0.0010
    --------------------------------------------
      LOOP:  cpu time    0.7555: real time    0.7556

 eigenvalue-minimisations  :  1152
 total energy-change (2. order) : 0.9502234E-01  (-0.2239940E-01)
 number of electron      29.9999997 magnetization 
 augmentation part        0.4972587 magnetization 

 Broyden mixing:
  rms(total) = 0.65700E-01    rms(broyden)= 0.65681E-01
  rms(prec ) = 0.12638E+00
  weight for this iteration     100.00

 eigenvalues of (default mixing * dielectric matrix)
  average eigenvalue GAMMA=   1.8314
  1.1435  2.1754  2.1754

 Free energy of the ion-electron system (eV)
  ---------------------------------------------------
  alpha Z        PSCENC =        25.67921176
  Ewald energy   TEWEN  =       700.27145080
  -Hartree energ DENC   =     -1629.53059088
  -exchange      EXHF   =         0.00000000
  -V(xc)+E(xc)   XCENC  =        95.76908967
  PAW double counting   =      2843.83317177    -2846.45639012
  entropy T*S    EENTRO =        -0.00436681
  eigenvalues    EBANDS =      -282.01289409
  atomic energy  EATOM  =      1025.20389953
  Solvation  Ediel_sol  =         0.00000000
  ---------------------------------------------------
  free energy    TOTEN  =       -67.24741838 eV

  energy without entropy =      -67.24305157  energy(sigma->0) =      -67.24523498


--------------------------------------------------------------------------------------------------------




--------------------------------------- Iteration      1(   9)  ---------------------------------------


    POTLOK:  cpu time    0.0310: real time    0.0310
    SETDIJ:  cpu time    0.0017: real time    0.0017
     EDDAV:  cpu time    0.6965: real time    0.6965
       DOS:  cpu time    0.0002: real time    0.0002
    CHARGE:  cpu time    0.0552: real time    0.0552
    MIXING:  cpu time    0.0010: real time    0.0010
    --------------------------------------------
      LOOP:  cpu time    0.7857: real time    0.7857

 eigenvalue-minimisations  :  1200
 total energy-change (2. order) : 0.2367578E-01  (-0.2075522E-02)
 number of electron      29.9999997 magnetization 
 augmentation part        0.4975638 magnetization 

 Broyden mixing:
  rms(total) = 0.20237E-01    rms(broyden)= 0.20232E-01
  rms(prec ) = 0.69916E-01
  weight for this iteration     100.00

 eigenvalues of (default mixing * dielectric matrix)
  average eigenvalue GAMMA=   1.8520
  1.1013  2.3819  2.3819  1.5429

 Free energy of the ion-electron system (eV)
  ---------------------------------------------------
  alpha Z        PSCENC =        25.67921176
  Ewald energy   TEWEN  =       700.27145080
  -Hartree energ DENC   =     -1635.50217800
  -exchange      EXHF   =         0.00000000
  -V(xc)+E(xc)   XCENC  =        95.85347281
  PAW double counting   =      2932.01775267    -2934.55285752
  entropy T*S    EENTRO =        -0.00447485
  eigenvalues    EBANDS =      -276.19001979
  atomic energy  EATOM  =      1025.20389953
  Solvation  Ediel_sol  =         0.00000000
  ---------------------------------------------------
  free energy    TOTEN  =       -67.22374260 eV

  energy without entropy =      -67.21926775  energy(sigma->0) =      -67.22150518


--------------------------------------------------------------------------------------------------------




--------------------------------------- Iteration      1(  10)  ---------------------------------------


    POTLOK:  cpu time    0.0309: real time    0.0309
    SETDIJ:  cpu time    0.0018: real time    0.0018
     EDDAV:  cpu time    0.7176: real time    0.7176
       DOS:  cpu time    0.0002: real time    0.0002
    CHARGE:  cpu time    0.0563: real time    0.0563
    MIXING:  cpu time    0.0011: real time    0.0011
    --------------------------------------------
      LOOP:  cpu time    0.8079: real time    0.8079

 eigenvalue-minimisations  :  1248
 total energy-change (2. order) : 0.4835752E-02  (-0.1559245E-02)
 number of electron      29.9999997 magnetization 
 augmentation part        0.4959256 magnetization 

 Broyden mixing:
  rms(total) = 0.15417E-01    rms(broyden)= 0.15412E-01
  rms(prec ) = 0.32469E-01
  weight for this iteration     100.00

 eigenvalues of (default mixing * dielectric matrix)
  average eigenvalue GAMMA=   2.0542
  3.2749  2.6984  1.0036  1.9530  1.3413

 Free energy of the ion-electron system (eV)
  ---------------------------------------------------
  alpha Z        PSCENC =        25.67921176
  Ewald energy   TEWEN  =       700.27145080
  -Hartree energ DENC   =     -1643.27436452
  -exchange      EXHF   =         0.00000000
  -V(xc)+E(xc)   XCENC  =        96.00038871
  PAW double counting   =      2923.93699024    -2926.45691285
  entropy T*S    EENTRO =        -0.00522215
  eigenvalues    EBANDS =      -268.57434837
  atomic energy  EATOM  =      1025.20389953
  Solvation  Ediel_sol  =         0.00000000
  ---------------------------------------------------
  free energy    TOTEN  =       -67.21890685 eV

  energy without entropy =      -67.21368470  energy(sigma->0) =      -67.21629577


--------------------------------------------------------------------------------------------------------




--------------------------------------- Iteration      1(  11)  ---------------------------------------


    POTLOK:  cpu time    0.0317: real time    0.0318
    SETDIJ:  cpu time    0.0018: real time    0.0018
     EDDAV:  cpu time    0.5805: real time    0.5805
       DOS:  cpu time    0.0002: real time    0.0002
    CHARGE:  cpu time    0.0549: real time    0.0549
    MIXING:  cpu time    0.0011: real time    0.0011
    --------------------------------------------
      LOOP:  cpu time    0.6702: real time    0.6703

 eigenvalue-minimisations  :   960
 total energy-change (2. order) :-0.5610383E-02  (-0.5150290E-03)
 number of electron      29.9999997 magnetization 
 augmentation part        0.4957123 magnetization 

 Broyden mixing:
  rms(total) = 0.58950E-02    rms(broyden)= 0.58913E-02
  rms(prec ) = 0.10774E-01
  weight for this iteration     100.00

 eigenvalues of (default mixing * dielectric matrix)
  average eigenvalue GAMMA=   2.2928
  5.2473  0.9615  2.4091  2.1671  1.2574  1.7145

 Free energy of the ion-electron system (eV)
  ---------------------------------------------------
  alpha Z        PSCENC =        25.67921176
  Ewald energy   TEWEN  =       700.27145080
  -Hartree energ DENC   =     -1646.05352717
  -exchange      EXHF   =         0.00000000
  -V(xc)+E(xc)   XCENC  =        96.02396430
  PAW double counting   =      2888.36178365    -2890.88833052
  entropy T*S    EENTRO =        -0.00523803
  eigenvalues    EBANDS =      -265.81773155
  atomic energy  EATOM  =      1025.20389953
  Solvation  Ediel_sol  =         0.00000000
  ---------------------------------------------------
  free energy    TOTEN  =       -67.22451723 eV

  energy without entropy =      -67.21927920  energy(sigma->0) =      -67.22189822


--------------------------------------------------------------------------------------------------------




--------------------------------------- Iteration      1(  12)  ---------------------------------------


    POTLOK:  cpu time    0.0309: real time    0.0309
    SETDIJ:  cpu time    0.0018: real time    0.0018
     EDDAV:  cpu time    0.5848: real time    0.5848
       DOS:  cpu time    0.0002: real time    0.0002
    CHARGE:  cpu time    0.0550: real time    0.0550
    MIXING:  cpu time    0.0011: real time    0.0011
    --------------------------------------------
      LOOP:  cpu time    0.6737: real time    0.6737

 eigenvalue-minimisations  :   972
 total energy-change (2. order) :-0.3201572E-02  (-0.5650390E-04)
 number of electron      29.9999997 magnetization 
 augmentation part        0.4955720 magnetization 

 Broyden mixing:
  rms(total) = 0.19990E-02    rms(broyden)= 0.19973E-02
  rms(prec ) = 0.39796E-02
  weight for this iteration     100.00

 eigenvalues of (default mixing * dielectric matrix)
  average eigenvalue GAMMA=   2.3403
  5.9038  2.7797  2.3227  1.9116  0.9801  1.2251  1.2595

 Free energy of the ion-electron system (eV)
  ---------------------------------------------------
  alpha Z        PSCENC =        25.67921176
  Ewald energy   TEWEN  =       700.27145080
  -Hartree energ DENC   =     -1646.92214465
  -exchange      EXHF   =         0.00000000
  -V(xc)+E(xc)   XCENC  =        96.03209753
  PAW double counting   =      2893.65749930    -2896.18405035
  entropy T*S    EENTRO =        -0.00533742
  eigenvalues    EBANDS =      -264.96034529
  atomic energy  EATOM  =      1025.20389953
  Solvation  Ediel_sol  =         0.00000000
  ---------------------------------------------------
  free energy    TOTEN  =       -67.22771880 eV

  energy without entropy =      -67.22238138  energy(sigma->0) =      -67.22505009


--------------------------------------------------------------------------------------------------------




--------------------------------------- Iteration      1(  13)  ---------------------------------------


    POTLOK:  cpu time    0.0315: real time    0.0315
    SETDIJ:  cpu time    0.0019: real time    0.0019
