 running on   12 total cores
 distrk:  each k-point on   12 cores,    1 groups
 distr:  one band on    1 cores,   12 groups
 using from now: INCAR     
 vasp.5.4.4.18Apr17-6-g9f103f2a35 (build Mar 30 2023 15:39:25) complex          
  
 POSCAR found type information on POSCAR  B  C 
 POSCAR found :  2 types and       8 ions
 scaLAPACK will be used

 ----------------------------------------------------------------------------- 
|                                                                             |
|           W    W    AA    RRRRR   N    N  II  N    N   GGGG   !!!           |
|           W    W   A  A   R    R  NN   N  II  NN   N  G    G  !!!           |
|           W    W  A    A  R    R  N N  N  II  N N  N  G       !!!           |
|           W WW W  AAAAAA  RRRRR   N  N N  II  N  N N  G  GGG   !            |
|           WW  WW  A    A  R   R   N   NN  II  N   NN  G    G                |
|           W    W  A    A  R    R  N    N  II  N    N   GGGG   !!!           |
|                                                                             |
|      For optimal performance we recommend to set                            |
|        NCORE= 4 - approx SQRT( number of cores)                             |
|      NCORE specifies how many cores store one orbital (NPAR=cpu/NCORE).     |
|      This setting can  greatly improve the performance of VASP for DFT.     |
|      The default,   NCORE=1            might be grossly inefficient         |
|      on modern multi-core architectures or massively parallel machines.     |
|      Do your own testing !!!!                                               |
|      Unfortunately you need to use the default for GW and RPA calculations. |
|      (for HF NCORE is supported but not extensively tested yet)             |
|                                                                             |
 ----------------------------------------------------------------------------- 

 LDA part: xc-table for Pade appr. of Perdew
 POSCAR, INCAR and KPOINTS ok, starting setup
 FFT: planning ...
 WAVECAR not read
 WARNING: random wavefunctions but no delay for mixing, default for NELMDL
 entering main loop
       N       E                     dE             d eps       ncg     rms          rms(c)
DAV:   1     0.159434855646E+03    0.15943E+03   -0.11956E+04   912   0.895E+02
DAV:   2    -0.548610691578E+02   -0.21430E+03   -0.20538E+03  1200   0.212E+02
DAV:   3    -0.731209018881E+02   -0.18260E+02   -0.18161E+02  1284   0.708E+01
DAV:   4    -0.734297812747E+02   -0.30888E+00   -0.30841E+00  1272   0.108E+01
DAV:   5    -0.734401712120E+02   -0.10390E-01   -0.10386E-01  1260   0.176E+00    0.131E+01
DAV:   6    -0.689851695013E+02    0.44550E+01   -0.52616E+00  1200   0.105E+01    0.740E+00
DAV:   7    -0.673424407193E+02    0.16427E+01   -0.37045E+00  1236   0.883E+00    0.223E+00
DAV:   8    -0.672474183809E+02    0.95022E-01   -0.22399E-01  1152   0.218E+00    0.657E-01
DAV:   9    -0.672237426005E+02    0.23676E-01   -0.20755E-02  1200   0.808E-01    0.202E-01
DAV:  10    -0.672189068485E+02    0.48358E-02   -0.15592E-02  1248   0.513E-01    0.154E-01
DAV:  11    -0.672245172311E+02   -0.56104E-02   -0.51503E-03   960   0.368E-01    0.590E-02
DAV:  12    -0.672277188033E+02   -0.32016E-02   -0.56504E-04   972   0.135E-01    0.200E-02
