   8   8   1   0
  0.2469169E+02  0.5174038E-09  0.5174038E-09  0.8520222E-09  0.5000000E-15
  1.000000000000000E-004
  CAR 
 BC3                                     
      8.25205737    -19.81616138  301     -2.14851482      1.00000000
    -19.816  0.0000E+00  0.0000E+00
    -19.723  0.0000E+00  0.0000E+00
    -19.629  0.0000E+00  0.0000E+00
    -19.535  0.0000E+00  0.0000E+00
    -19.442  0.0000E+00  0.0000E+00
    -19.348  0.0000E+00  0.0000E+00
    -19.255  0.0000E+00  0.0000E+00
    -19.161  0.0000E+00  0.0000E+00
    -19.068  0.8512E-14  0.7964E-15
    -18.974  0.9526E-10  0.8914E-11
    -18.881  0.2037E-06  0.1907E-07
    -18.787  0.8596E-04  0.8062E-05
    -18.693  0.7528E-02  0.7124E-03
    -18.600  0.1507E+00  0.1482E-01
    -18.506  0.8244E+00  0.9195E-01
    -18.413  0.1676E+01  0.2488E+00
    -18.319  0.2051E+01  0.4407E+00
    -18.226  0.2279E+01  0.6539E+00
    -18.132  0.2653E+01  0.9021E+00
    -18.039  0.3517E+01  0.1231E+01
    -17.945  0.4367E+01  0.1640E+01
    -17.851  0.3009E+01  0.1921E+01
    -17.758  0.7790E+00  0.1994E+01
    -17.664  0.6093E-01  0.2000E+01
    -17.571  0.1191E-02  0.2000E+01
    -17.477  0.5118E-05  0.2000E+01
    -17.384  0.4509E-08  0.2000E+01
    -17.290  0.7798E-12  0.2000E+01
    -17.196  0.0000E+00  0.2000E+01
    -17.103  0.0000E+00  0.2000E+01
    -17.009  0.0000E+00  0.2000E+01
    -16.916  0.0000E+00  0.2000E+01
    -16.822  0.1632E-14  0.2000E+01
    -16.729  0.2490E-10  0.2000E+01
    -16.635  0.6921E-07  0.2000E+01
    -16.542  0.3749E-04  0.2000E+01
    -16.448  0.4317E-02  0.2000E+01
    -16.354  0.1191E+00  0.2012E+01
    -16.261  0.8952E+00  0.2095E+01
    -16.167  0.2269E+01  0.2308E+01
    -16.074  0.3159E+01  0.2603E+01
    -15.980  0.3079E+01  0.2891E+01
    -15.887  0.2253E+01  0.3102E+01
    -15.793  0.1790E+01  0.3269E+01
    -15.699  0.1949E+01  0.3452E+01
    -15.606  0.2021E+01  0.3641E+01
    -15.512  0.1853E+01  0.3814E+01
    -15.419  0.2217E+01  0.4022E+01
    -15.325  0.2537E+01  0.4259E+01
    -15.232  0.2687E+01  0.4510E+01
    -15.138  0.3252E+01  0.4815E+01
    -15.045  0.3660E+01  0.5157E+01
    -14.951  0.2895E+01  0.5428E+01
    -14.857  0.2164E+01  0.5630E+01
    -14.764  0.1866E+01  0.5805E+01
    -14.670  0.1419E+01  0.5938E+01
    -14.577  0.5685E+00  0.5991E+01
    -14.483  0.9282E-01  0.6000E+01
    -14.390  0.4284E-02  0.6000E+01
    -14.296  0.4554E-04  0.6000E+01
    -14.203  0.1006E-06  0.6000E+01
    -14.109  0.4317E-10  0.6000E+01
    -14.015  0.3461E-14  0.6000E+01
    -13.922  0.0000E+00  0.6000E+01
    -13.828  0.0000E+00  0.6000E+01
    -13.735  0.0000E+00  0.6000E+01
    -13.641  0.0000E+00  0.6000E+01
    -13.548  0.0000E+00  0.6000E+01
    -13.454  0.0000E+00  0.6000E+01
    -13.360  0.7659E-13  0.6000E+01
    -13.267  0.6289E-09  0.6000E+01
    -13.173  0.9659E-06  0.6000E+01
    -13.080  0.2869E-03  0.6000E+01
    -12.986  0.1731E-01  0.6002E+01
    -12.893  0.2327E+00  0.6023E+01
    -12.799  0.9011E+00  0.6108E+01
    -12.706  0.1853E+01  0.6281E+01
    -12.612  0.2640E+01  0.6528E+01
    -12.518  0.2434E+01  0.6756E+01
    -12.425  0.2558E+01  0.6995E+01
    -12.331  0.3800E+01  0.7351E+01
    -12.238  0.3499E+01  0.7678E+01
    -12.144  0.1457E+01  0.7814E+01
    -12.051  0.9991E+00  0.7908E+01
    -11.957  0.1415E+01  0.8040E+01
    -11.863  0.1938E+01  0.8222E+01
    -11.770  0.1672E+01  0.8378E+01
    -11.676  0.9102E+00  0.8463E+01
    -11.583  0.6596E+00  0.8525E+01
    -11.489  0.1560E+01  0.8671E+01
    -11.396  0.2471E+01  0.8902E+01
    -11.302  0.1628E+01  0.9054E+01
    -11.209  0.1288E+01  0.9175E+01
    -11.115  0.1844E+01  0.9347E+01
    -11.021  0.2437E+01  0.9575E+01
    -10.928  0.1653E+01  0.9730E+01
    -10.834  0.1113E+01  0.9834E+01
    -10.741  0.1448E+01  0.9970E+01
    -10.647  0.1850E+01  0.1014E+02
    -10.554  0.9175E+00  0.1023E+02
    -10.460  0.3572E+00  0.1026E+02
    -10.367  0.5868E+00  0.1032E+02
    -10.273  0.9338E+00  0.1040E+02
    -10.179  0.6637E+00  0.1047E+02
    -10.086  0.4089E+00  0.1050E+02
     -9.992  0.1134E+00  0.1052E+02
     -9.899  0.1199E+00  0.1053E+02
     -9.805  0.6625E+00  0.1059E+02
     -9.712  0.1710E+01  0.1075E+02
     -9.618  0.1257E+01  0.1087E+02
     -9.524  0.8931E+00  0.1095E+02
     -9.431  0.1200E+01  0.1106E+02
     -9.337  0.1508E+01  0.1120E+02
     -9.244  0.1121E+01  0.1131E+02
     -9.150  0.1495E+01  0.1145E+02
     -9.057  0.2686E+01  0.1170E+02
     -8.963  0.2886E+01  0.1197E+02
     -8.870  0.2403E+01  0.1219E+02
     -8.776  0.1614E+01  0.1235E+02
     -8.682  0.1178E+01  0.1246E+02
     -8.589  0.6515E+00  0.1252E+02
     -8.495  0.1255E+01  0.1263E+02
     -8.402  0.3603E+01  0.1297E+02
     -8.308  0.4348E+01  0.1338E+02
     -8.215  0.2338E+01  0.1360E+02
     -8.121  0.7823E+00  0.1367E+02
     -8.028  0.1231E+01  0.1378E+02
     -7.934  0.2267E+01  0.1400E+02
     -7.840  0.2025E+01  0.1419E+02
     -7.747  0.1678E+01  0.1434E+02
     -7.653  0.2668E+01  0.1459E+02
     -7.560  0.3832E+01  0.1495E+02
     -7.466  0.2258E+01  0.1516E+02
     -7.373  0.1463E+01  0.1530E+02
     -7.279  0.2938E+01  0.1557E+02
     -7.185  0.3286E+01  0.1588E+02
     -7.092  0.2393E+01  0.1611E+02
     -6.998  0.2488E+01  0.1634E+02
     -6.905  0.2108E+01  0.1654E+02
     -6.811  0.1998E+01  0.1672E+02
     -6.718  0.2220E+01  0.1693E+02
     -6.624  0.2982E+01  0.1721E+02
     -6.531  0.4338E+01  0.1762E+02
     -6.437  0.4249E+01  0.1801E+02
     -6.343  0.3574E+01  0.1835E+02
     -6.250  0.4313E+01  0.1875E+02
     -6.156  0.3985E+01  0.1912E+02
     -6.063  0.2447E+01  0.1935E+02
     -5.969  0.1691E+01  0.1951E+02
     -5.876  0.2162E+01  0.1971E+02
     -5.782  0.1669E+01  0.1987E+02
     -5.688  0.1673E+01  0.2003E+02
     -5.595  0.2071E+01  0.2022E+02
     -5.501  0.1434E+01  0.2035E+02
     -5.408  0.1707E+01  0.2051E+02
     -5.314  0.2304E+01  0.2073E+02
     -5.221  0.3288E+01  0.2104E+02
     -5.127  0.4653E+01  0.2147E+02
     -5.034  0.7666E+01  0.2219E+02
     -4.940  0.7864E+01  0.2292E+02
     -4.846  0.5663E+01  0.2345E+02
     -4.753  0.4269E+01  0.2385E+02
     -4.659  0.2063E+01  0.2405E+02
     -4.566  0.1754E+01  0.2421E+02
     -4.472  0.3008E+01  0.2449E+02
     -4.379  0.3480E+01  0.2482E+02
     -4.285  0.2168E+01  0.2502E+02
     -4.192  0.1419E+01  0.2515E+02
     -4.098  0.2330E+01  0.2537E+02
     -4.004  0.3798E+01  0.2573E+02
     -3.911  0.3707E+01  0.2607E+02
     -3.817  0.3234E+01  0.2638E+02
     -3.724  0.2620E+01  0.2662E+02
     -3.630  0.4100E+01  0.2701E+02
     -3.537  0.5410E+01  0.2751E+02
     -3.443  0.4221E+01  0.2791E+02
     -3.349  0.4336E+01  0.2831E+02
     -3.256  0.4929E+01  0.2877E+02
     -3.162  0.3541E+01  0.2910E+02
     -3.069  0.1521E+01  0.2925E+02
     -2.975  0.1489E+01  0.2939E+02
     -2.882  0.1733E+01  0.2955E+02
     -2.788  0.1056E+01  0.2965E+02
     -2.695  0.9701E+00  0.2974E+02
     -2.601  0.1211E+01  0.2985E+02
     -2.507  0.9935E+00  0.2994E+02
     -2.414  0.4887E+00  0.2999E+02
     -2.320  0.1017E+00  0.3000E+02
     -2.227  0.6676E-02  0.3000E+02
     -2.133  0.1111E-03  0.3000E+02
     -2.040  0.6204E-03  0.3000E+02
     -1.946  0.2758E-01  0.3000E+02
     -1.853  0.2769E+00  0.3003E+02
     -1.759  0.7373E+00  0.3010E+02
     -1.665  0.1036E+01  0.3019E+02
     -1.572  0.1893E+01  0.3037E+02
     -1.478  0.2460E+01  0.3060E+02
     -1.385  0.1911E+01  0.3078E+02
     -1.291  0.1774E+01  0.3095E+02
     -1.198  0.2518E+01  0.3118E+02
     -1.104  0.2808E+01  0.3144E+02
     -1.010  0.1622E+01  0.3160E+02
     -0.917  0.6088E+00  0.3165E+02
     -0.823  0.8522E+00  0.3173E+02
     -0.730  0.6186E+00  0.3179E+02
     -0.636  0.6483E+00  0.3185E+02
     -0.543  0.9257E+00  0.3194E+02
     -0.449  0.3337E+00  0.3197E+02
     -0.356  0.2582E-01  0.3197E+02
     -0.262  0.1002E-02  0.3197E+02
     -0.168  0.2256E-01  0.3197E+02
     -0.075  0.1730E+00  0.3199E+02
      0.019  0.2858E+00  0.3202E+02
      0.112  0.1037E+00  0.3203E+02
      0.206  0.7995E-02  0.3203E+02
      0.299  0.2284E-02  0.3203E+02
      0.393  0.7595E-01  0.3204E+02
      0.487  0.5460E+00  0.3209E+02
      0.580  0.8553E+00  0.3217E+02
      0.674  0.4124E+00  0.3220E+02
      0.767  0.4319E+00  0.3225E+02
      0.861  0.3136E+00  0.3227E+02
      0.954  0.3935E+00  0.3231E+02
      1.048  0.1930E+01  0.3249E+02
      1.141  0.3021E+01  0.3277E+02
      1.235  0.2408E+01  0.3300E+02
      1.329  0.2071E+01  0.3319E+02
      1.422  0.2028E+01  0.3338E+02
      1.516  0.1844E+01  0.3356E+02
      1.609  0.1966E+01  0.3374E+02
      1.703  0.1391E+01  0.3387E+02
      1.796  0.9268E+00  0.3396E+02
      1.890  0.1593E+01  0.3411E+02
      1.983  0.2340E+01  0.3432E+02
      2.077  0.1907E+01  0.3450E+02
      2.171  0.1636E+01  0.3466E+02
      2.264  0.1765E+01  0.3482E+02
      2.358  0.1886E+01  0.3500E+02
      2.451  0.2130E+01  0.3520E+02
      2.545  0.2138E+01  0.3540E+02
      2.638  0.1870E+01  0.3557E+02
      2.732  0.1385E+01  0.3570E+02
      2.826  0.2548E+01  0.3594E+02
      2.919  0.3128E+01  0.3623E+02
      3.013  0.2078E+01  0.3643E+02
      3.106  0.1494E+01  0.3657E+02
      3.200  0.1777E+01  0.3673E+02
      3.293  0.2772E+01  0.3699E+02
      3.387  0.3268E+01  0.3730E+02
      3.480  0.1787E+01  0.3747E+02
      3.574  0.1149E+01  0.3757E+02
      3.668  0.1220E+01  0.3769E+02
      3.761  0.1985E+01  0.3787E+02
      3.855  0.2714E+01  0.3813E+02
      3.948  0.2496E+01  0.3836E+02
      4.042  0.1878E+01  0.3854E+02
      4.135  0.1567E+01  0.3868E+02
      4.229  0.1496E+01  0.3882E+02
      4.323  0.1783E+01  0.3899E+02
      4.416  0.2192E+01  0.3919E+02
      4.510  0.2347E+01  0.3941E+02
      4.603  0.2148E+01  0.3961E+02
      4.697  0.2352E+01  0.3984E+02
      4.790  0.3455E+01  0.4016E+02
      4.884  0.3249E+01  0.4046E+02
      4.977  0.2072E+01  0.4066E+02
      5.071  0.2230E+01  0.4086E+02
      5.165  0.3574E+01  0.4120E+02
      5.258  0.3615E+01  0.4154E+02
      5.352  0.2116E+01  0.4174E+02
      5.445  0.1780E+01  0.4190E+02
      5.539  0.2819E+01  0.4217E+02
      5.632  0.3747E+01  0.4252E+02
      5.726  0.3052E+01  0.4280E+02
      5.819  0.2453E+01  0.4303E+02
      5.913  0.3277E+01  0.4334E+02
      6.007  0.3980E+01  0.4371E+02
      6.100  0.3655E+01  0.4405E+02
      6.194  0.3393E+01  0.4437E+02
      6.287  0.3248E+01  0.4467E+02
      6.381  0.3540E+01  0.4500E+02
      6.474  0.4329E+01  0.4541E+02
      6.568  0.6601E+01  0.4603E+02
      6.662  0.5007E+01  0.4650E+02
      6.755  0.4532E+01  0.4692E+02
      6.849  0.4993E+01  0.4739E+02
      6.942  0.3841E+01  0.4775E+02
      7.036  0.2224E+01  0.4795E+02
      7.129  0.4610E+00  0.4800E+02
      7.223  0.2556E-01  0.4800E+02
      7.316  0.3312E-03  0.4800E+02
      7.410  0.8960E-06  0.4800E+02
      7.504  0.4695E-09  0.4800E+02
      7.597  0.4559E-13  0.4800E+02
      7.691  0.0000E+00  0.4800E+02
      7.784  0.0000E+00  0.4800E+02
      7.878  0.0000E+00  0.4800E+02
      7.971  0.0000E+00  0.4800E+02
      8.065  0.0000E+00  0.4800E+02
      8.158  0.0000E+00  0.4800E+02
      8.252  0.0000E+00  0.4800E+02
      8.25205737    -19.81616138  301     -2.14851482      1.00000000
    -19.816  0.0000E+00  0.0000E+00  0.0000E+00  0.0000E+00  0.0000E+00  0.0000E+00  0.0000E+00  0.0000E+00  0.0000E+00
    -19.723  0.0000E+00  0.0000E+00  0.0000E+00  0.0000E+00  0.0000E+00  0.0000E+00  0.0000E+00  0.0000E+00  0.0000E+00
    -19.629  0.0000E+00  0.0000E+00  0.0000E+00  0.0000E+00  0.0000E+00  0.0000E+00  0.0000E+00  0.0000E+00  0.0000E+00
    -19.535  0.0000E+00  0.0000E+00  0.0000E+00  0.0000E+00  0.0000E+00  0.0000E+00  0.0000E+00  0.0000E+00  0.0000E+00
    -19.442  0.0000E+00  0.0000E+00  0.0000E+00  0.0000E+00  0.0000E+00  0.0000E+00  0.0000E+00  0.0000E+00  0.0000E+00
    -19.348  0.0000E+00  0.0000E+00  0.0000E+00  0.0000E+00  0.0000E+00  0.0000E+00  0.0000E+00  0.0000E+00  0.0000E+00
    -19.255  0.0000E+00  0.0000E+00  0.0000E+00  0.0000E+00  0.0000E+00  0.0000E+00  0.0000E+00  0.0000E+00  0.0000E+00
    -19.161  0.0000E+00  0.0000E+00  0.0000E+00  0.0000E+00  0.0000E+00  0.0000E+00  0.0000E+00  0.0000E+00  0.0000E+00
    -19.068  0.2357E-15  0.4677E-18  0.6306E-31  0.1559E-18  0.0000E+00  0.0000E+00  0.0000E+00  0.0000E+00  0.0000E+00
    -18.974  0.2630E-11  0.7664E-14  0.7137E-27  0.2506E-14  0.0000E+00  0.0000E+00  0.0000E+00  0.0000E+00  0.0000E+00
    -18.881  0.5604E-08  0.2283E-10  0.1769E-23  0.7242E-11  0.0000E+00  0.0000E+00  0.0000E+00  0.0000E+00  0.0000E+00
    -18.787  0.2354E-05  0.1319E-07  0.1216E-20  0.3889E-08  0.0000E+00  0.0000E+00  0.0000E+00  0.0000E+00  0.0000E+00
    -18.693  0.2048E-03  0.1636E-05  0.2315E-18  0.4150E-06  0.0000E+00  0.0000E+00  0.0000E+00  0.0000E+00  0.0000E+00
    -18.600  0.4053E-02  0.5083E-04  0.1029E-16  0.1030E-04  0.0000E+00  0.0000E+00  0.0000E+00  0.0000E+00  0.0000E+00
    -18.506  0.2162E-01  0.4776E-03  0.9876E-16  0.7865E-04  0.0000E+00  0.0000E+00  0.0000E+00  0.0000E+00  0.0000E+00
    -18.413  0.4161E-01  0.1814E-02  0.2076E-15  0.2588E-03  0.0000E+00  0.0000E+00  0.0000E+00  0.0000E+00  0.0000E+00
    -18.319  0.4580E-01  0.3965E-02  0.1029E-15  0.5581E-03  0.0000E+00  0.0000E+00  0.0000E+00  0.0000E+00  0.0000E+00
    -18.226  0.4319E-01  0.6832E-02  0.2919E-16  0.1034E-02  0.0000E+00  0.0000E+00  0.0000E+00  0.0000E+00  0.0000E+00
    -18.132  0.3969E-01  0.1087E-01  0.2351E-16  0.1973E-02  0.0000E+00  0.0000E+00  0.0000E+00  0.0000E+00  0.0000E+00
    -18.039  0.3601E-01  0.1820E-01  0.2355E-16  0.4272E-02  0.0000E+00  0.0000E+00  0.0000E+00  0.0000E+00  0.0000E+00
    -17.945  0.2785E-01  0.2531E-01  0.1170E-16  0.7866E-02  0.0000E+00  0.0000E+00  0.0000E+00  0.0000E+00  0.0000E+00
    -17.851  0.1235E-01  0.1787E-01  0.1795E-17  0.7039E-02  0.0000E+00  0.0000E+00  0.0000E+00  0.0000E+00  0.0000E+00
    -17.758  0.2073E-02  0.4562E-02  0.1112E-18  0.2210E-02  0.0000E+00  0.0000E+00  0.0000E+00  0.0000E+00  0.0000E+00
    -17.664  0.1079E-03  0.3477E-03  0.2867E-20  0.1973E-03  0.0000E+00  0.0000E+00  0.0000E+00  0.0000E+00  0.0000E+00
    -17.571  0.1494E-05  0.6588E-05  0.2116E-22  0.4238E-05  0.0000E+00  0.0000E+00  0.0000E+00  0.0000E+00  0.0000E+00
    -17.477  0.4608E-08  0.2735E-07  0.3651E-25  0.1967E-07  0.0000E+00  0.0000E+00  0.0000E+00  0.0000E+00  0.0000E+00
    -17.384  0.2810E-11  0.2329E-10  0.1336E-28  0.1848E-10  0.0000E+00  0.0000E+00  0.0000E+00  0.0000E+00  0.0000E+00
    -17.290  0.3192E-15  0.3913E-14  0.9185E-33  0.3357E-14  0.0000E+00  0.0000E+00  0.0000E+00  0.0000E+00  0.0000E+00
    -17.196  0.0000E+00  0.0000E+00  0.0000E+00  0.0000E+00  0.0000E+00  0.0000E+00  0.0000E+00  0.0000E+00  0.0000E+00
    -17.103  0.0000E+00  0.0000E+00  0.0000E+00  0.0000E+00  0.0000E+00  0.0000E+00  0.0000E+00  0.0000E+00  0.0000E+00
    -17.009  0.0000E+00  0.0000E+00  0.0000E+00  0.0000E+00  0.0000E+00  0.0000E+00  0.0000E+00  0.0000E+00  0.0000E+00
    -16.916  0.0000E+00  0.0000E+00  0.0000E+00  0.0000E+00  0.0000E+00  0.0000E+00  0.0000E+00  0.0000E+00  0.0000E+00
    -16.822  0.8231E-16  0.5117E-17  0.2104E-32  0.1706E-17  0.0000E+00  0.0000E+00  0.0000E+00  0.0000E+00  0.0000E+00
    -16.729  0.1254E-11  0.7786E-13  0.3212E-28  0.2685E-13  0.0000E+00  0.0000E+00  0.0000E+00  0.0000E+00  0.0000E+00
    -16.635  0.3481E-08  0.2156E-09  0.8929E-25  0.7772E-10  0.0000E+00  0.0000E+00  0.0000E+00  0.0000E+00  0.0000E+00
    -16.542  0.1878E-05  0.1160E-06  0.4832E-22  0.4560E-07  0.0000E+00  0.0000E+00  0.0000E+00  0.0000E+00  0.0000E+00
    -16.448  0.2148E-03  0.1323E-04  0.5536E-20  0.5964E-05  0.0000E+00  0.0000E+00  0.0000E+00  0.0000E+00  0.0000E+00
    -16.354  0.5862E-02  0.3638E-03  0.1504E-18  0.1909E-03  0.0000E+00  0.0000E+00  0.0000E+00  0.0000E+00  0.0000E+00
    -16.261  0.4341E-01  0.2766E-02  0.1085E-17  0.1669E-02  0.0000E+00  0.0000E+00  0.0000E+00  0.0000E+00  0.0000E+00
    -16.167  0.1067E+00  0.6850E-02  0.2307E-17  0.5677E-02  0.0000E+00  0.0000E+00  0.0000E+00  0.0000E+00  0.0000E+00
    -16.074  0.1400E+00  0.8165E-02  0.1955E-17  0.1250E-01  0.0000E+00  0.0000E+00  0.0000E+00  0.0000E+00  0.0000E+00
    -15.980  0.1286E+00  0.7414E-02  0.1617E-17  0.1519E-01  0.0000E+00  0.0000E+00  0.0000E+00  0.0000E+00  0.0000E+00
    -15.887  0.8645E-01  0.6388E-02  0.1614E-17  0.1203E-01  0.0000E+00  0.0000E+00  0.0000E+00  0.0000E+00  0.0000E+00
    -15.793  0.6254E-01  0.6316E-02  0.1321E-17  0.1016E-01  0.0000E+00  0.0000E+00  0.0000E+00  0.0000E+00  0.0000E+00
    -15.699  0.6112E-01  0.9819E-02  0.4555E-18  0.1188E-01  0.0000E+00  0.0000E+00  0.0000E+00  0.0000E+00  0.0000E+00
    -15.606  0.5909E-01  0.1110E-01  0.5480E-18  0.1272E-01  0.0000E+00  0.0000E+00  0.0000E+00  0.0000E+00  0.0000E+00
    -15.512  0.4672E-01  0.1196E-01  0.7354E-18  0.1302E-01  0.0000E+00  0.0000E+00  0.0000E+00  0.0000E+00  0.0000E+00
    -15.419  0.4714E-01  0.1582E-01  0.1312E-17  0.1879E-01  0.0000E+00  0.0000E+00  0.0000E+00  0.0000E+00  0.0000E+00
    -15.325  0.4667E-01  0.1926E-01  0.5160E-17  0.2172E-01  0.0000E+00  0.0000E+00  0.0000E+00  0.0000E+00  0.0000E+00
    -15.232  0.3678E-01  0.2070E-01  0.5940E-17  0.2771E-01  0.0000E+00  0.0000E+00  0.0000E+00  0.0000E+00  0.0000E+00
    -15.138  0.2570E-01  0.2519E-01  0.2295E-17  0.4158E-01  0.0000E+00  0.0000E+00  0.0000E+00  0.0000E+00  0.0000E+00
    -15.045  0.2216E-01  0.2885E-01  0.2535E-17  0.4555E-01  0.0000E+00  0.0000E+00  0.0000E+00  0.0000E+00  0.0000E+00
    -14.951  0.1372E-01  0.2200E-01  0.4236E-17  0.3451E-01  0.0000E+00  0.0000E+00  0.0000E+00  0.0000E+00  0.0000E+00
    -14.857  0.6681E-02  0.1531E-01  0.2320E-17  0.2532E-01  0.0000E+00  0.0000E+00  0.0000E+00  0.0000E+00  0.0000E+00
    -14.764  0.3564E-02  0.1207E-01  0.1193E-17  0.1968E-01  0.0000E+00  0.0000E+00  0.0000E+00  0.0000E+00  0.0000E+00
    -14.670  0.1836E-02  0.8297E-02  0.1008E-17  0.1400E-01  0.0000E+00  0.0000E+00  0.0000E+00  0.0000E+00  0.0000E+00
    -14.577  0.2909E-03  0.2980E-02  0.4419E-18  0.5513E-02  0.0000E+00  0.0000E+00  0.0000E+00  0.0000E+00  0.0000E+00
    -14.483  0.9829E-05  0.4954E-03  0.8128E-19  0.8462E-03  0.0000E+00  0.0000E+00  0.0000E+00  0.0000E+00  0.0000E+00
    -14.390  0.6480E-07  0.2488E-04  0.4219E-20  0.3576E-04  0.0000E+00  0.0000E+00  0.0000E+00  0.0000E+00  0.0000E+00
    -14.296  0.7986E-10  0.2845E-06  0.4890E-22  0.3508E-06  0.0000E+00  0.0000E+00  0.0000E+00  0.0000E+00  0.0000E+00
    -14.203  0.1794E-13  0.6580E-09  0.1139E-24  0.7327E-09  0.0000E+00  0.0000E+00  0.0000E+00  0.0000E+00  0.0000E+00
    -14.109  0.1131E-17  0.2894E-12  0.5026E-28  0.3042E-12  0.0000E+00  0.0000E+00  0.0000E+00  0.0000E+00  0.0000E+00
    -14.015  0.3491E-25  0.2337E-16  0.4065E-32  0.2412E-16  0.0000E+00  0.0000E+00  0.0000E+00  0.0000E+00  0.0000E+00
    -13.922  0.0000E+00  0.0000E+00  0.0000E+00  0.0000E+00  0.0000E+00  0.0000E+00  0.0000E+00  0.0000E+00  0.0000E+00
    -13.828  0.0000E+00  0.0000E+00  0.0000E+00  0.0000E+00  0.0000E+00  0.0000E+00  0.0000E+00  0.0000E+00  0.0000E+00
    -13.735  0.0000E+00  0.0000E+00  0.0000E+00  0.0000E+00  0.0000E+00  0.0000E+00  0.0000E+00  0.0000E+00  0.0000E+00
    -13.641  0.0000E+00  0.0000E+00  0.0000E+00  0.0000E+00  0.0000E+00  0.0000E+00  0.0000E+00  0.0000E+00  0.0000E+00
    -13.548  0.0000E+00  0.0000E+00  0.0000E+00  0.0000E+00  0.0000E+00  0.0000E+00  0.0000E+00  0.0000E+00  0.0000E+00
    -13.454  0.0000E+00  0.0000E+00  0.0000E+00  0.0000E+00  0.0000E+00  0.0000E+00  0.0000E+00  0.0000E+00  0.0000E+00
    -13.360  0.6988E-14  0.6390E-16  0.1932E-32  0.2129E-16  0.0000E+00  0.0000E+00  0.0000E+00  0.0000E+00  0.0000E+00
    -13.267  0.5730E-10  0.5625E-12  0.1663E-28  0.1874E-12  0.0000E+00  0.0000E+00  0.0000E+00  0.0000E+00  0.0000E+00
    -13.173  0.8783E-07  0.9495E-09  0.2744E-25  0.3164E-09  0.0000E+00  0.0000E+00  0.0000E+00  0.0000E+00  0.0000E+00
    -13.080  0.2601E-04  0.3173E-06  0.9291E-23  0.1058E-06  0.0000E+00  0.0000E+00  0.0000E+00  0.0000E+00  0.0000E+00
    -12.986  0.1563E-02  0.2211E-04  0.7849E-21  0.7438E-05  0.0000E+00  0.0000E+00  0.0000E+00  0.0000E+00  0.0000E+00
    -12.893  0.2084E-01  0.3641E-03  0.2343E-19  0.1319E-03  0.0000E+00  0.0000E+00  0.0000E+00  0.0000E+00  0.0000E+00
    -12.799  0.7871E-01  0.1899E-02  0.2524E-18  0.9764E-03  0.0000E+00  0.0000E+00  0.0000E+00  0.0000E+00  0.0000E+00
    -12.706  0.1539E+00  0.4884E-02  0.7729E-18  0.4307E-02  0.0000E+00  0.0000E+00  0.0000E+00  0.0000E+00  0.0000E+00
    -12.612  0.2063E+00  0.9984E-02  0.6759E-18  0.9422E-02  0.0000E+00  0.0000E+00  0.0000E+00  0.0000E+00  0.0000E+00
    -12.518  0.1682E+00  0.1874E-01  0.2757E-18  0.1170E-01  0.0000E+00  0.0000E+00  0.0000E+00  0.0000E+00  0.0000E+00
    -12.425  0.1404E+00  0.3679E-01  0.5240E-18  0.1454E-01  0.0000E+00  0.0000E+00  0.0000E+00  0.0000E+00  0.0000E+00
    -12.331  0.1980E+00  0.5093E-01  0.2484E-17  0.2460E-01  0.0000E+00  0.0000E+00  0.0000E+00  0.0000E+00  0.0000E+00
    -12.238  0.1816E+00  0.3426E-01  0.3977E-17  0.3220E-01  0.0000E+00  0.0000E+00  0.0000E+00  0.0000E+00  0.0000E+00
    -12.144  0.5252E-01  0.1183E-01  0.1517E-17  0.2985E-01  0.0000E+00  0.0000E+00  0.0000E+00  0.0000E+00  0.0000E+00
    -12.051  0.2560E-01  0.3293E-02  0.1906E-18  0.3028E-01  0.0000E+00  0.0000E+00  0.0000E+00  0.0000E+00  0.0000E+00
    -11.957  0.5192E-01  0.4253E-02  0.5033E-19  0.3072E-01  0.0000E+00  0.0000E+00  0.0000E+00  0.0000E+00  0.0000E+00
    -11.863  0.6831E-01  0.7433E-02  0.1329E-19  0.4165E-01  0.0000E+00  0.0000E+00  0.0000E+00  0.0000E+00  0.0000E+00
    -11.770  0.4231E-01  0.4870E-02  0.2752E-19  0.4967E-01  0.0000E+00  0.0000E+00  0.0000E+00  0.0000E+00  0.0000E+00
    -11.676  0.1705E-01  0.1690E-02  0.5254E-19  0.3299E-01  0.0000E+00  0.0000E+00  0.0000E+00  0.0000E+00  0.0000E+00
    -11.583  0.1117E-01  0.3310E-02  0.2922E-19  0.2039E-01  0.0000E+00  0.0000E+00  0.0000E+00  0.0000E+00  0.0000E+00
    -11.489  0.3123E-01  0.7595E-02  0.3374E-19  0.4288E-01  0.0000E+00  0.0000E+00  0.0000E+00  0.0000E+00  0.0000E+00
    -11.396  0.5502E-01  0.6417E-02  0.6901E-19  0.7258E-01  0.0000E+00  0.0000E+00  0.0000E+00  0.0000E+00  0.0000E+00
    -11.302  0.4574E-01  0.2824E-02  0.4260E-19  0.4374E-01  0.0000E+00  0.0000E+00  0.0000E+00  0.0000E+00  0.0000E+00
    -11.209  0.5511E-01  0.2961E-02  0.6784E-19  0.2149E-01  0.0000E+00  0.0000E+00  0.0000E+00  0.0000E+00  0.0000E+00
    -11.115  0.7721E-01  0.5975E-02  0.2512E-18  0.3317E-01  0.0000E+00  0.0000E+00  0.0000E+00  0.0000E+00  0.0000E+00
    -11.021  0.8262E-01  0.7765E-02  0.3157E-18  0.5314E-01  0.0000E+00  0.0000E+00  0.0000E+00  0.0000E+00  0.0000E+00
    -10.928  0.4495E-01  0.5890E-02  0.1783E-18  0.3784E-01  0.0000E+00  0.0000E+00  0.0000E+00  0.0000E+00  0.0000E+00
    -10.834  0.5518E-01  0.6096E-02  0.3043E-18  0.1496E-01  0.0000E+00  0.0000E+00  0.0000E+00  0.0000E+00  0.0000E+00
    -10.741  0.7810E-01  0.8607E-02  0.3866E-18  0.1822E-01  0.0000E+00  0.0000E+00  0.0000E+00  0.0000E+00  0.0000E+00
    -10.647  0.6354E-01  0.1077E-01  0.2197E-18  0.3280E-01  0.0000E+00  0.0000E+00  0.0000E+00  0.0000E+00  0.0000E+00
    -10.554  0.2015E-01  0.5450E-02  0.7145E-19  0.1866E-01  0.0000E+00  0.0000E+00  0.0000E+00  0.0000E+00  0.0000E+00
    -10.460  0.7442E-02  0.2803E-02  0.7564E-20  0.6757E-02  0.0000E+00  0.0000E+00  0.0000E+00  0.0000E+00  0.0000E+00
    -10.367  0.4651E-01  0.6243E-02  0.2852E-20  0.2605E-02  0.0000E+00  0.0000E+00  0.0000E+00  0.0000E+00  0.0000E+00
    -10.273  0.8526E-01  0.1021E-01  0.5464E-20  0.1648E-02  0.0000E+00  0.0000E+00  0.0000E+00  0.0000E+00  0.0000E+00
    -10.179  0.6288E-01  0.6658E-02  0.6549E-20  0.1519E-02  0.0000E+00  0.0000E+00  0.0000E+00  0.0000E+00  0.0000E+00
    -10.086  0.3998E-01  0.3732E-02  0.5579E-20  0.1188E-02  0.0000E+00  0.0000E+00  0.0000E+00  0.0000E+00  0.0000E+00
     -9.992  0.1304E-01  0.8591E-03  0.1423E-20  0.2835E-03  0.0000E+00  0.0000E+00  0.0000E+00  0.0000E+00  0.0000E+00
     -9.899  0.1958E-01  0.6791E-03  0.3259E-20  0.9074E-04  0.0000E+00  0.0000E+00  0.0000E+00  0.0000E+00  0.0000E+00
     -9.805  0.7938E-01  0.8363E-02  0.3457E-19  0.9188E-03  0.0000E+00  0.0000E+00  0.0000E+00  0.0000E+00  0.0000E+00
     -9.712  0.1853E+00  0.2431E-01  0.8271E-19  0.2542E-02  0.0000E+00  0.0000E+00  0.0000E+00  0.0000E+00  0.0000E+00
     -9.618  0.1250E+00  0.1913E-01  0.4451E-19  0.3442E-02  0.0000E+00  0.0000E+00  0.0000E+00  0.0000E+00  0.0000E+00
     -9.524  0.8061E-01  0.1577E-01  0.1076E-19  0.6972E-02  0.0000E+00  0.0000E+00  0.0000E+00  0.0000E+00  0.0000E+00
     -9.431  0.1071E+00  0.2704E-01  0.1385E-19  0.1184E-01  0.0000E+00  0.0000E+00  0.0000E+00  0.0000E+00  0.0000E+00
     -9.337  0.9779E-01  0.4187E-01  0.1134E-19  0.2140E-01  0.0000E+00  0.0000E+00  0.0000E+00  0.0000E+00  0.0000E+00
     -9.244  0.7520E-01  0.3012E-01  0.1012E-19  0.1522E-01  0.0000E+00  0.0000E+00  0.0000E+00  0.0000E+00  0.0000E+00
     -9.150  0.7769E-01  0.4097E-01  0.4286E-19  0.1198E-01  0.0000E+00  0.0000E+00  0.0000E+00  0.0000E+00  0.0000E+00
     -9.057  0.1391E+00  0.7934E-01  0.9118E-19  0.1409E-01  0.0000E+00  0.0000E+00  0.0000E+00  0.0000E+00  0.0000E+00
     -8.963  0.1643E+00  0.9293E-01  0.7359E-19  0.1704E-01  0.0000E+00  0.0000E+00  0.0000E+00  0.0000E+00  0.0000E+00
     -8.870  0.1592E+00  0.7042E-01  0.4447E-19  0.1743E-01  0.0000E+00  0.0000E+00  0.0000E+00  0.0000E+00  0.0000E+00
     -8.776  0.7466E-01  0.3876E-01  0.2145E-19  0.1889E-01  0.0000E+00  0.0000E+00  0.0000E+00  0.0000E+00  0.0000E+00
     -8.682  0.6029E-01  0.2628E-01  0.3006E-19  0.1605E-01  0.0000E+00  0.0000E+00  0.0000E+00  0.0000E+00  0.0000E+00
     -8.589  0.3890E-01  0.1126E-01  0.6034E-19  0.8434E-02  0.0000E+00  0.0000E+00  0.0000E+00  0.0000E+00  0.0000E+00
     -8.495  0.7634E-01  0.1550E-01  0.5158E-18  0.9368E-02  0.0000E+00  0.0000E+00  0.0000E+00  0.0000E+00  0.0000E+00
     -8.402  0.2225E+00  0.5266E-01  0.1316E-17  0.2168E-01  0.0000E+00  0.0000E+00  0.0000E+00  0.0000E+00  0.0000E+00
     -8.308  0.2763E+00  0.7436E-01  0.7689E-18  0.2540E-01  0.0000E+00  0.0000E+00  0.0000E+00  0.0000E+00  0.0000E+00
     -8.215  0.1738E+00  0.4495E-01  0.1121E-18  0.1287E-01  0.0000E+00  0.0000E+00  0.0000E+00  0.0000E+00  0.0000E+00
     -8.121  0.4371E-01  0.1172E-01  0.1137E-19  0.5926E-02  0.0000E+00  0.0000E+00  0.0000E+00  0.0000E+00  0.0000E+00
     -8.028  0.4626E-01  0.1677E-01  0.3243E-19  0.1186E-01  0.0000E+00  0.0000E+00  0.0000E+00  0.0000E+00  0.0000E+00
     -7.934  0.9001E-01  0.3282E-01  0.3143E-18  0.1858E-01  0.0000E+00  0.0000E+00  0.0000E+00  0.0000E+00  0.0000E+00
     -7.840  0.8728E-01  0.4552E-01  0.6452E-14  0.1675E-01  0.0000E+00  0.0000E+00  0.0000E+00  0.0000E+00  0.0000E+00
     -7.747  0.1116E+00  0.5615E-01  0.3756E-10  0.1377E-01  0.0000E+00  0.0000E+00  0.0000E+00  0.0000E+00  0.0000E+00
     -7.653  0.1521E+00  0.6372E-01  0.4261E-07  0.2281E-01  0.0000E+00  0.0000E+00  0.0000E+00  0.0000E+00  0.0000E+00
     -7.560  0.1635E+00  0.9397E-01  0.9989E-05  0.4160E-01  0.0000E+00  0.0000E+00  0.0000E+00  0.0000E+00  0.0000E+00
     -7.466  0.6394E-01  0.5683E-01  0.5161E-03  0.2679E-01  0.0000E+00  0.0000E+00  0.0000E+00  0.0000E+00  0.0000E+00
     -7.373  0.2120E-01  0.2411E-01  0.6401E-02  0.1113E-01  0.0000E+00  0.0000E+00  0.0000E+00  0.0000E+00  0.0000E+00
     -7.279  0.7035E-01  0.4176E-01  0.2326E-01  0.2143E-01  0.0000E+00  0.0000E+00  0.0000E+00  0.0000E+00  0.0000E+00
     -7.185  0.9265E-01  0.4051E-01  0.3597E-01  0.2281E-01  0.0000E+00  0.0000E+00  0.0000E+00  0.0000E+00  0.0000E+00
     -7.092  0.4831E-01  0.1354E-01  0.3698E-01  0.1009E-01  0.0000E+00  0.0000E+00  0.0000E+00  0.0000E+00  0.0000E+00
     -6.998  0.6780E-01  0.1007E-01  0.3859E-01  0.1564E-01  0.0000E+00  0.0000E+00  0.0000E+00  0.0000E+00  0.0000E+00
     -6.905  0.5595E-01  0.1154E-01  0.3305E-01  0.1560E-01  0.0000E+00  0.0000E+00  0.0000E+00  0.0000E+00  0.0000E+00
     -6.811  0.3029E-01  0.2274E-01  0.3881E-01  0.1030E-01  0.0000E+00  0.0000E+00  0.0000E+00  0.0000E+00  0.0000E+00
     -6.718  0.4065E-01  0.5338E-01  0.3250E-01  0.1898E-01  0.0000E+00  0.0000E+00  0.0000E+00  0.0000E+00  0.0000E+00
     -6.624  0.5963E-01  0.9449E-01  0.3007E-01  0.3136E-01  0.0000E+00  0.0000E+00  0.0000E+00  0.0000E+00  0.0000E+00
     -6.531  0.1105E+00  0.1376E+00  0.3717E-01  0.4126E-01  0.0000E+00  0.0000E+00  0.0000E+00  0.0000E+00  0.0000E+00
     -6.437  0.1353E+00  0.1312E+00  0.2676E-01  0.4113E-01  0.0000E+00  0.0000E+00  0.0000E+00  0.0000E+00  0.0000E+00
     -6.343  0.7277E-01  0.6937E-01  0.2742E-01  0.2148E-01  0.0000E+00  0.0000E+00  0.0000E+00  0.0000E+00  0.0000E+00
     -6.250  0.8109E-01  0.7962E-01  0.3003E-01  0.2180E-01  0.0000E+00  0.0000E+00  0.0000E+00  0.0000E+00  0.0000E+00
     -6.156  0.9384E-01  0.1035E+00  0.1602E-01  0.2935E-01  0.0000E+00  0.0000E+00  0.0000E+00  0.0000E+00  0.0000E+00
     -6.063  0.3601E-01  0.6952E-01  0.7244E-02  0.2092E-01  0.0000E+00  0.0000E+00  0.0000E+00  0.0000E+00  0.0000E+00
     -5.969  0.1443E-01  0.1077E+00  0.1839E-02  0.3424E-01  0.0000E+00  0.0000E+00  0.0000E+00  0.0000E+00  0.0000E+00
     -5.876  0.2028E-01  0.2012E+00  0.1231E-03  0.5414E-01  0.0000E+00  0.0000E+00  0.0000E+00  0.0000E+00  0.0000E+00
     -5.782  0.1497E-01  0.1741E+00  0.1748E-05  0.3167E-01  0.0000E+00  0.0000E+00  0.0000E+00  0.0000E+00  0.0000E+00
     -5.688  0.2926E-01  0.1578E+00  0.5317E-08  0.2751E-01  0.0000E+00  0.0000E+00  0.0000E+00  0.0000E+00  0.0000E+00
     -5.595  0.3927E-01  0.1833E+00  0.3636E-06  0.3599E-01  0.0000E+00  0.0000E+00  0.0000E+00  0.0000E+00  0.0000E+00
     -5.501  0.2058E-01  0.1294E+00  0.5330E-04  0.2125E-01  0.0000E+00  0.0000E+00  0.0000E+00  0.0000E+00  0.0000E+00
     -5.408  0.2037E-01  0.1470E+00  0.1666E-02  0.2790E-01  0.0000E+00  0.0000E+00  0.0000E+00  0.0000E+00  0.0000E+00
     -5.314  0.1666E-01  0.1458E+00  0.1491E-01  0.7474E-01  0.0000E+00  0.0000E+00  0.0000E+00  0.0000E+00  0.0000E+00
     -5.221  0.1875E-01  0.1287E+00  0.5337E-01  0.1211E+00  0.0000E+00  0.0000E+00  0.0000E+00  0.0000E+00  0.0000E+00