    8    8    1    1
  0.2469169E+02  0.5174038E-09  0.5174038E-09  0.8520221E-09  0.5000000E-15
  1.000000000000000E-004
  CAR 
 BC3                                     
     30     19     24
 
  0.0000000E+00  0.0000000E+00  0.0000000E+00  0.6944444E-02
    1      -18.540333   1.000000
    2      -14.648833   1.000000
    3      -14.648780   1.000000
    4      -12.299231   1.000000
    5      -12.299169   1.000000
    6      -11.230719   1.000000
    7       -9.913549   1.000000
    8       -7.345205   1.000000
    9       -7.124898   1.000000
   10       -4.970978   1.000000
   11       -4.970959   1.000000
   12       -3.149281   1.000000
   13       -3.149245   1.000000
   14       -2.466681   0.999997
   15       -2.466577   0.999997
   16       -0.631465   0.000000
   17        1.101128   0.000000
   18        1.101168   0.000000
   19        1.790597   0.000000
   20        1.921237   0.000000
   21        4.520659   0.000000
   22        5.911941   0.000000
   23        6.315093   0.000000
   24        6.315112   0.000000
 
  0.8333333E-01  0.6938894E-17  0.0000000E+00  0.4166667E-01
    1      -18.513223   1.000000
    2      -14.780929   1.000000
    3      -14.691186   1.000000
    4      -12.338413   1.000000
    5      -12.200770   1.000000
    6      -11.096138   1.000000
    7       -9.753144   1.000000
    8       -7.304004   1.000000
    9       -7.182207   1.000000
   10       -5.094399   1.000000
   11       -4.993442   1.000000
   12       -3.273749   1.000000
   13       -3.169698   1.000000
   14       -2.609236   1.000000
   15       -2.535394   1.000000
   16       -0.836139   0.000000
   17        1.160461   0.000000
   18        1.411558   0.000000
   19        1.915317   0.000000
   20        1.972971   0.000000
   21        4.572775   0.000000
   22        5.968144   0.000000
   23        6.386608   0.000000
   24        6.478097   0.000000
 
  0.1666667E+00  0.0000000E+00  0.0000000E+00  0.4166667E-01
    1      -18.434149   1.000000
    2      -15.105933   1.000000
    3      -14.795421   1.000000
    4      -12.454904   1.000000
    5      -11.931656   1.000000
    6      -10.714924   1.000000
    7       -9.323720   1.000000
    8       -7.364527   1.000000
    9       -7.181604   1.000000
   10       -5.440384   1.000000
   11       -5.029600   1.000000
   12       -3.615708   1.000000
   13       -3.223986   1.000000
   14       -3.016470   1.000000
   15       -2.727163   1.000000
   16       -1.183930   0.000000
   17        1.323800   0.000000
   18        1.888074   0.000000
   19        2.127708   0.000000
   20        2.435798   0.000000
   21        4.729422   0.000000
   22        6.122967   0.000000
   23        6.555053   0.000000
   24        6.959446   0.000000
 
  0.2500000E+00 -0.1387779E-16  0.0000000E+00  0.4166667E-01
    1      -18.311108   1.000000
    2      -15.502491   1.000000
    3      -14.917771   1.000000
    4      -12.602612   1.000000
    5      -11.547118   1.000000
    6      -10.172370   1.000000
    7       -8.713948   1.000000
    8       -7.678216   1.000000
    9       -6.982283   1.000000
   10       -5.947326   1.000000
   11       -5.020746   1.000000
   12       -4.093007   1.000000
   13       -3.634021   1.000000
   14       -3.294120   1.000000
   15       -3.002829   1.000000
   16       -1.470713   0.000000
   17        1.552196   0.000000
   18        2.244516   0.000000
   19        2.384507   0.000000
   20        3.318989   0.000000
   21        4.992669   0.000000
   22        6.020639   0.000000
   23        6.357511   0.000000
   24        6.750956   0.000000
 
  0.3333333E+00 -0.8326673E-16  0.0000000E+00  0.4166667E-01
    1      -18.162542   1.000000
    2      -15.879729   1.000000
    3      -15.023884   1.000000
    4      -12.731582   1.000000
    5      -11.109185   1.000000
    6       -9.549135   1.000000
    7       -8.085197   1.000000
    8       -8.010839   1.000000
    9       -6.717718   1.000000
   10       -6.524723   1.000000
   11       -4.941680   1.000000
   12       -4.610271   1.000000
   13       -4.395434   1.000000
   14       -3.360152   1.000000
   15       -3.307233   1.000000
   16       -1.668931   0.000000
   17        1.788821   0.000000
   18        2.568489   0.000000
   19        2.742528   0.000000
   20        4.290333   0.000000
   21        5.173432   0.000000
   22        5.372260   0.000000
   23        6.629352   0.000000
   24        6.921464   0.000000
 
  0.4166667E+00  0.0000000E+00  0.0000000E+00  0.4166667E-01
    1      -18.027196   1.000000
    2      -16.162899   1.000000
    3      -15.093919   1.000000
    4      -12.816048   1.000000
    5      -10.707976   1.000000
    6       -8.904210   1.000000
    7       -8.481560   1.000000
    8       -7.574505   1.000000
    9       -6.792899   1.000000
   10       -6.425265   1.000000
   11       -5.234282   1.000000
   12       -5.073285   1.000000
   13       -4.825504   1.000000
   14       -3.568536   1.000000
   15       -3.406294   1.000000
   16       -1.784732   0.000000
   17        1.969154   0.000000
   18        2.812034   0.000000
   19        3.201195   0.000000
   20        4.417975   0.000000
   21        5.200691   0.000000
   22        5.893713   0.000000
   23        6.744271   0.000000
   24        6.797289   0.000000
 
  0.5000000E+00 -0.2775558E-16  0.0000000E+00  0.2083333E-01
    1      -17.968699   1.000000
    2      -16.272207   1.000000
    3      -15.118211   1.000000
    4      -12.845192   1.000000
    5      -10.523264   1.000000
    6       -8.667409   1.000000
    7       -8.460268   1.000000
    8       -7.853993   1.000000
    9       -6.257855   1.000000
   10       -6.228451   1.000000
   11       -5.975182   1.000000
   12       -5.300378   1.000000
   13       -4.762942   1.000000
   14       -3.680572   1.000000
   15       -3.422747   1.000000
   16       -1.822852   0.000002
   17        2.036874   0.000000
   18        2.904233   0.000000
   19        3.758446   0.000000
   20        3.761469   0.000000
   21        5.829498   0.000000
   22        6.017762   0.000000
   23        6.683265   0.000000
   24        6.832290   0.000000
 
  0.8333333E-01  0.8333333E-01  0.0000000E+00  0.4166667E-01
    1      -18.460099   1.000000
    2      -14.994320   1.000000
    3      -14.780883   1.000000
    4      -12.366971   1.000000
    5      -12.074378   1.000000
    6      -10.825538   1.000000
    7       -9.461600   1.000000
    8       -7.304465   1.000000
    9       -7.222195   1.000000
   10       -5.304461   1.000000
   11       -5.045379   1.000000
   12       -3.486478   1.000000
   13       -3.233963   1.000000
   14       -2.875035   1.000000
   15       -2.674843   1.000000
   16       -1.076479   0.000000
   17        1.192829   0.000000
   18        1.920128   0.000000
   19        2.076211   0.000000
   20        2.172113   0.000000
   21        4.677059   0.000000
   22        6.076574   0.000000
   23        6.537949   0.000000
   24        6.751593   0.000000
 
  0.1666667E+00  0.8333333E-01  0.0000000E+00  0.8333333E-01
    1      -18.358720   1.000000
    2      -15.329659   1.000000
    3      -14.924385   1.000000
    4      -12.437444   1.000000
    5      -11.822087   1.000000
    6      -10.333582   1.000000
    7       -8.953714   1.000000
    8       -7.566904   1.000000
    9       -7.061134   1.000000
   10       -5.674550   1.000000
   11       -5.102722   1.000000
   12       -3.863618   1.000000
   13       -3.365502   1.000000
   14       -3.356460   1.000000
   15       -2.929964   1.000000
   16       -1.303471   0.000000
   17        1.260003   0.000000
   18        2.282019   0.000000
   19        2.427893   0.000000
   20        2.851034   0.000000
   21        4.886094   0.000000
   22        6.279739   0.000000
   23        6.507457   0.000000
   24        6.772293   0.000000
 
  0.2500000E+00  0.8333333E-01  0.0000000E+00  0.8333333E-01
    1      -18.221559   1.000000
    2      -15.700409   1.000000
    3      -15.061650   1.000000
    4      -12.546912   1.000000
    5      -11.438238   1.000000
    6       -9.729550   1.000000
    7       -8.307310   1.000000
    8       -7.955950   1.000000
    9       -6.828094   1.000000
   10       -6.168836   1.000000
   11       -5.088678   1.000000
   12       -4.344571   1.000000
   13       -4.029062   1.000000
   14       -3.480220   1.000000
   15       -3.243519   1.000000
   16       -1.453280   0.000000
   17        1.390965   0.000000
   18        2.589491   0.000000
   19        2.806691   0.000000
   20        3.795053   0.000000
   21        5.202910   0.000000
   22        5.624661   0.000000
   23        6.556113   0.000000
   24        6.767235   0.000000
 
  0.3333333E+00  0.8333333E-01  0.0000000E+00  0.8333333E-01
    1      -18.075635   1.000000
    2      -16.025226   1.000000
    3      -15.163360   1.000000
    4      -12.640386   1.000000
    5      -11.011579   1.000000
    6       -9.096115   1.000000
    7       -8.395604   1.000000
    8       -7.630655   1.000000
    9       -6.668520   1.000000
   10       -6.543471   1.000000
   11       -5.039919   1.000000
   12       -4.833949   1.000000
   13       -4.765894   1.000000
   14       -3.574174   1.000000
   15       -3.549528   1.000000
   16       -1.543984   0.000000
   17        1.537533   0.000000
   18        2.997917   0.000000
   19        3.124306   0.000000
   20        4.755359   0.000000
   21        4.822250   0.000000
   22        5.642154   0.000000
   23        6.579892   0.000000
   24        6.919740   0.000000
 
  0.4166667E+00  0.8333333E-01  0.0000000E+00  0.8333333E-01
    1      -17.972540   1.000000
    2      -16.223670   1.000000
    3      -15.216707   1.000000
    4      -12.691756   1.000000
    5      -10.684089   1.000000
    6       -8.803723   1.000000
    7       -8.439305   1.000000
    8       -7.570885   1.000000
    9       -6.491043   1.000000
   10       -6.283575   1.000000
   11       -5.665098   1.000000
   12       -5.206661   1.000000
   13       -4.863078   1.000000
   14       -3.758984   1.000000
   15       -3.624063   1.000000
   16       -1.588017   0.000000
   17        1.633686   0.000000
   18        3.312011   0.000000
   19        3.506729   0.000000
   20        4.115265   0.000000
   21        5.588607   0.000000
   22        6.133593   0.000000
   23        6.494463   0.000000
   24        6.532036   0.000000
 
  0.1666667E+00  0.1666667E+00  0.0000000E+00  0.4166667E-01
    1      -18.242305   1.000000
    2      -15.594653   1.000000
    3      -15.133425   1.000000
    4      -12.326692   1.000000
    5      -11.718228   1.000000
    6       -9.751439   1.000000
    7       -8.423523   1.000000
    8       -7.929694   1.000000
    9       -6.865707   1.000000
   10       -5.921482   1.000000
   11       -5.246465   1.000000
   12       -4.176060   1.000000
   13       -3.860653   1.000000
   14       -3.632129   1.000000
   15       -3.263905   1.000000
   16       -1.283922   0.000000
   17        1.131150   0.000000
   18        2.538557   0.000000
   19        3.233445   0.000000
   20        3.340607   0.000000
   21        5.145859   0.000000
   22        6.156358   0.000000
   23        6.183856   0.000000
   24        6.550192   0.000000
 
  0.2500000E+00  0.1666667E+00  0.0000000E+00  0.8333333E-01
    1      -18.103691   1.000000
    2      -15.871749   1.000000
    3      -15.317100   1.000000
    4      -12.296827   1.000000
    5      -11.437944   1.000000
    6       -9.120473   1.000000
    7       -8.376056   1.000000
    8       -7.795279   1.000000
    9       -6.608058   1.000000
   10       -6.264369   1.000000
   11       -5.318612   1.000000
   12       -4.571561   1.000000
   13       -4.465018   1.000000
   14       -3.873548   1.000000
   15       -3.639448   1.000000
   16       -1.199569   0.000000
   17        1.063921   0.000000
   18        2.896543   0.000000
   19        3.662165   0.000000
   20        4.250566   0.000000
   21        5.326376   0.000000
   22        5.508872   0.000000
   23        5.925674   0.000000
   24        6.897714   0.000000
 
  0.3333333E+00  0.1666667E+00  0.0000000E+00  0.8333333E-01
    1      -17.980069   1.000000
    2      -16.097622   1.000000
    3      -15.429777   1.000000
    4      -12.321370   1.000000
    5      -11.077141   1.000000
    6       -8.972446   1.000000
    7       -8.332879   1.000000
    8       -7.261297   1.000000
    9       -6.569847   1.000000
   10       -6.328085   1.000000
   11       -5.453736   1.000000
   12       -4.976978   1.000000
   13       -4.974113   1.000000
   14       -4.010021   1.000000
   15       -3.955514   1.000000
   16       -1.130643   0.000000
   17        1.048866   0.000000
   18        3.355256   0.000000
   19        3.951276   0.000000
   20        4.571788   0.000000
   21        5.171674   0.000000
   22        5.777489   0.000000
   23        5.978986   0.000000
   24        6.756425   0.000000
 
  0.4166667E+00  0.1666667E+00  0.0000000E+00  0.4166667E-01
    1      -17.927715   1.000000
    2      -16.187491   1.000000
    3      -15.466993   1.000000
    4      -12.335096   1.000000
    5      -10.891362   1.000000
    6       -9.156797   1.000000
    7       -7.954358   1.000000
    8       -7.355310   1.000000
    9       -6.238147   1.000000
   10       -6.173005   1.000000
   11       -5.941954   1.000000
   12       -5.176729   1.000000
   13       -5.034876   1.000000
   14       -4.090401   1.000000
   15       -4.053283   1.000000
   16       -1.106244   0.000000
   17        1.050225   0.000000
   18        3.910202   0.000000
   19        3.917821   0.000000
   20        4.059387   0.000000
   21        5.727975   0.000000
   22        5.879691   0.000000
   23        6.077717   0.000000
   24        6.509149   0.000000
 
  0.2500000E+00  0.2500000E+00  0.0000000E+00  0.4166667E-01
    1      -17.983754   1.000000
    2      -15.999945   1.000000
    3      -15.566013   1.000000
    4      -12.025609   1.000000
    5      -11.386337   1.000000
    6       -9.029630   1.000000
    7       -8.267657   1.000000
    8       -7.256550   1.000000
    9       -6.379516   1.000000
   10       -6.347712   1.000000
   11       -5.592528   1.000000
   12       -4.868081   1.000000
   13       -4.786303   1.000000
   14       -4.257740   1.000000
   15       -4.096424   1.000000
   16       -0.865976   0.000000
   17        0.747603   0.000000
   18        3.304864   0.000000
   19        4.481352   0.000000
   20        4.715493   0.000000
   21        5.116695   0.000000
   22        5.138382   0.000000
   23        5.898033   0.000000
   24        6.976229   0.000000
 
  0.3333333E+00  0.2500000E+00  0.0000000E+00  0.8333333E-01
    1      -17.903553   1.000000
    2      -16.073425   1.000000
    3      -15.714007   1.000000
    4      -11.903339   1.000000
    5      -11.235644   1.000000
    6       -9.372495   1.000000
    7       -7.653881   1.000000
    8       -6.996975   1.000000
    9       -6.483803   1.000000
   10       -6.127114   1.000000
   11       -5.840472   1.000000
   12       -5.082098   1.000000
   13       -4.986989   1.000000
   14       -4.462800   1.000000
   15       -4.448610   1.000000
   16       -0.603865   0.000000
   17        0.513700   0.000000
   18        3.813535   0.000000
   19        4.421680   0.000000
   20        4.797302   0.000000
   21        5.028055   0.000000
   22        5.498960   0.000000
   23        6.276838   0.000000
   24        6.356582   0.000000
 
  0.3333333E+00  0.3333333E+00  0.0000000E+00  0.1388889E-01
    1      -17.873987   1.000000
    2      -15.941783   1.000000
    3      -15.941748   1.000000
    4      -11.510412   1.000000
    5      -11.510346   1.000000
    6       -9.548982   1.000000
    7       -7.049170   1.000000
    8       -7.049131   1.000000
    9       -6.688027   1.000000
   10       -6.039841   1.000000
   11       -5.908082   1.000000
   12       -4.895528   1.000000
   13       -4.895478   1.000000
   14       -4.815583   1.000000
   15       -4.815566   1.000000
   16       -0.043817   0.000000
   17       -0.043773   0.000000
   18        4.356424   0.000000
   19        4.379410   0.000000
   20        4.379414   0.000000
   21        5.569680   0.000000
   22        5.569700   0.000000
   23        5.700557   0.000000
   24        6.554671   0.000000
