 vasp.5.4.4.18Apr17-6-g9f103f2a35 (build Mar 30 2023 15:39:25) complex          
  
 executed on             LinuxIFC date 2023.06.16  04:22:23
 running on   12 total cores
 distrk:  each k-point on   12 cores,    1 groups
 distr:  one band on NCORES_PER_BAND=   1 cores,   12 groups


--------------------------------------------------------------------------------------------------------


 INCAR:
 POTCAR:    PAW_PBE B 06Sep2000                   
 POTCAR:    PAW_PBE C 08Apr2002                   

 ----------------------------------------------------------------------------- 
|                                                                             |
|           W    W    AA    RRRRR   N    N  II  N    N   GGGG   !!!           |
|           W    W   A  A   R    R  NN   N  II  NN   N  G    G  !!!           |
|           W    W  A    A  R    R  N N  N  II  N N  N  G       !!!           |
|           W WW W  AAAAAA  RRRRR   N  N N  II  N  N N  G  GGG   !            |
|           WW  WW  A    A  R   R   N   NN  II  N   NN  G    G                |
|           W    W  A    A  R    R  N    N  II  N    N   GGGG   !!!           |
|                                                                             |
|      For optimal performance we recommend to set                            |
|        NCORE= 4 - approx SQRT( number of cores)                             |
|      NCORE specifies how many cores store one orbital (NPAR=cpu/NCORE).     |
|      This setting can  greatly improve the performance of VASP for DFT.     |
|      The default,   NCORE=1            might be grossly inefficient         |
|      on modern multi-core architectures or massively parallel machines.     |
|      Do your own testing !!!!                                               |
|      Unfortunately you need to use the default for GW and RPA calculations. |
|      (for HF NCORE is supported but not extensively tested yet)             |
|                                                                             |
 ----------------------------------------------------------------------------- 

 POTCAR:    PAW_PBE B 06Sep2000                   
   SHA256 =  a32ced30f5ae56fd4d10b4325ff17eb3e4e38ee0f4288bc219fb012fddfa6e97 B/
   COPYR  = (c) Copyright 06Sep2000 Georg Kresse                                
   COPYR  = This file is part of the software VASP. Any use, copying, and all ot
   COPYR  = If you do not have a valid VASP license, you may not use, copy or di
   VRHFIN =B: s2p1                                                              
   LEXCH  = PE                                                                  
   EATOM  =    71.1703 eV,    5.2309 Ry                                         
                                                                                
   TITEL  = PAW_PBE B 06Sep2000                                                 
   LULTRA =        F    use ultrasoft PP ?                                      
   IUNSCR =        1    unscreen: 0-lin 1-nonlin 2-no                           
   RPACOR =    1.200    partial core radius                                     
   POMASS =   10.811; ZVAL   =    3.000    mass and valenz                      
   RCORE  =    1.700    outmost cutoff radius                                   
   RWIGS  =    1.710; RWIGS  =    0.905    wigner-seitz radius (au A)           
   ENMAX  =  318.614; ENMIN  =  238.960 eV                                      
   ICORE  =        2    local potential                                         
   LCOR   =        T    correct aug charges                                     
   LPAW   =        T    paw PP                                                  
   EAUG   =  535.514                                                            
   DEXC   =    0.000                                                            
   RMAX   =    1.732    core radius for proj-oper                               
   RAUG   =    1.300    factor for augmentation sphere                          
   RDEP   =    1.757    radius for radial grids                                 
   RDEPT  =    1.436    core radius for aug-charge                              
                                                                                
   Atomic configuration                                                         
    4 entries                                                                   
     n  l   j            E        occ.                                          
     1  0  0.50      -180.5896   2.0000                                         
     2  0  0.50        -9.4431   2.0000                                         
     2  1  0.50        -3.6068   1.0000                                         
     3  2  1.50        -4.0817   0.0000                                         
   Description                                                                  
     l       E           TYP  RCUT    TYP  RCUT                                 
     0     -9.4430752     23  1.500                                             
     0      0.8675899     23  1.500                                             
     1     -3.6067955     23  1.700                                             
     1      6.1086146     23  1.700                                             
     2     -4.0817478      7  1.700                                             
  local pseudopotential read in
  partial core-charges read in
  partial kinetic energy density read in
  atomic valenz-charges read in
  non local Contribution for L=           0  read in
    real space projection operators read in
  non local Contribution for L=           0  read in
    real space projection operators read in
  non local Contribution for L=           1  read in
    real space projection operators read in
  non local Contribution for L=           1  read in
    real space projection operators read in
    PAW grid and wavefunctions read in
 
   number of l-projection  operators is LMAX  =           4
   number of lm-projection operators is LMMAX =           8
 
 POTCAR:    PAW_PBE C 08Apr2002                   
   SHA256 =  253f7b50bb8d59471dbedb8285d89021f4a42ed1a2c5d38a03a736e69125dd95 C/
   COPYR  = (c) Copyright 08Apr2002 Georg Kresse                                
   COPYR  = This file is part of the software VASP. Any use, copying, and all ot
   COPYR  = If you do not have a valid VASP license, you may not use, copy or di
   VRHFIN =C: s2p2                                                              
   LEXCH  = PE                                                                  
   EATOM  =   147.1560 eV,   10.8157 Ry                                         
                                                                                
   TITEL  = PAW_PBE C 08Apr2002                                                 
   LULTRA =        F    use ultrasoft PP ?                                      
   IUNSCR =        1    unscreen: 0-lin 1-nonlin 2-no                           
   RPACOR =    1.200    partial core radius                                     
   POMASS =   12.011; ZVAL   =    4.000    mass and valenz                      
   RCORE  =    1.500    outmost cutoff radius                                   
   RWIGS  =    1.630; RWIGS  =    0.863    wigner-seitz radius (au A)           
   ENMAX  =  400.000; ENMIN  =  300.000 eV                                      
   ICORE  =        2    local potential                                         
   LCOR   =        T    correct aug charges                                     
   LPAW   =        T    paw PP                                                  
   EAUG   =  644.873                                                            
   DEXC   =    0.000                                                            
   RMAX   =    1.529    core radius for proj-oper                               
   RAUG   =    1.300    factor for augmentation sphere                          
   RDEP   =    1.501    radius for radial grids                                 
   RDEPT  =    1.300    core radius for aug-charge                              
                                                                                
   Atomic configuration                                                         
    4 entries                                                                   
     n  l   j            E        occ.                                          
     1  0  0.50      -273.3789   2.0000                                         
     2  0  0.50       -13.7508   2.0000                                         
     2  1  0.50        -5.2854   2.0000                                         
     3  2  1.50        -5.4423   0.0000                                         
   Description                                                                  
     l       E           TYP  RCUT    TYP  RCUT                                 
     0    -13.7508458     23  1.200                                             
     0     -8.2022199     23  1.200                                             
     1     -5.2854383     23  1.500                                             
     1     34.0145650     23  1.500                                             
     2     -5.4423304      7  1.500                                             
  local pseudopotential read in
  partial core-charges read in
  partial kinetic energy density read in
  atomic valenz-charges read in
  non local Contribution for L=           0  read in
    real space projection operators read in
  non local Contribution for L=           0  read in
    real space projection operators read in
  non local Contribution for L=           1  read in
    real space projection operators read in
  non local Contribution for L=           1  read in
    real space projection operators read in
    PAW grid and wavefunctions read in
 
   number of l-projection  operators is LMAX  =           4
   number of lm-projection operators is LMMAX =           8
 
  PAW_PBE B 06Sep2000                   :
 energy of atom  1       EATOM=  -71.1703
 kinetic energy error for atom=    0.0015 (will be added to EATOM!!)
  PAW_PBE C 08Apr2002                   :
 energy of atom  2       EATOM= -147.1560
 kinetic energy error for atom=    0.0116 (will be added to EATOM!!)
 
 
 POSCAR: BC3 with lattice parameter 5.174Ang, len
  positions in direct lattice
  velocities in cartesian coordinates
 exchange correlation table for  LEXCH =        8
   RHO(1)=    0.500       N(1)  =     2000
   RHO(2)=  100.500       N(2)  =     4000
 


--------------------------------------------------------------------------------------------------------


 ion  position               nearest neighbor table
   1  0.333  0.667  0.250-   3 1.57   7 1.57   5 1.57
   2  0.667  0.333  0.250-   4 1.57   8 1.57   6 1.57
   3  0.159  0.317  0.250-   6 1.42   4 1.42   1 1.57
   4  0.317  0.159  0.250-   5 1.42   3 1.42   2 1.57
   5  0.159  0.841  0.250-   4 1.42   8 1.42   1 1.57
   6  0.841  0.159  0.250-   3 1.42   7 1.42   2 1.57
   7  0.683  0.841  0.250-   6 1.42   8 1.42   1 1.57
   8  0.841  0.683  0.250-   5 1.42   7 1.42   2 1.57
 
  LATTYP: Found a hexagonal cell.
 ALAT       =     5.1740377035
 C/A-ratio  =     1.6467258045
  
  Lattice vectors:
  
 A1 = (   4.4808484340,   2.5870188517,   0.0000000000)
 A2 = (  -4.4808484340,   2.5870188517,   0.0000000000)
 A3 = (   0.0000000000,   0.0000000000,   8.5202213998)


Analysis of symmetry for initial positions (statically):
=====================================================================
 Subroutine PRICEL returns:
 Original cell was already a primitive cell.
 

 Routine SETGRP: Setting up the symmetry group for a 
 hexagonal supercell.


 Subroutine GETGRP returns: Found 24 space group operations
 (whereof 12 operations were pure point group operations)
 out of a pool of 24 trial point group operations.


The static configuration has the point symmetry C_6v.
 The point group associated with its full space group is D_6h.


Analysis of symmetry for dynamics (positions and initial velocities):
=====================================================================
 Subroutine PRICEL returns:
 Original cell was already a primitive cell.
 

 Routine SETGRP: Setting up the symmetry group for a 
 hexagonal supercell.


 Subroutine GETGRP returns: Found 24 space group operations
 (whereof 12 operations were pure point group operations)
 out of a pool of 24 trial point group operations.


The dynamic configuration has the point symmetry C_6v.
 The point group associated with its full space group is D_6h.


 Subroutine INISYM returns: Found 24 space group operations
 (whereof 12 operations are pure point group operations),
 and found     1 'primitive' translations



 irot  :   1
 --------------------------------------------------------------------
 isymop:   1   0   0
           0   1   0
           0   0   1

 gtrans:     0.0000000     0.0000000     0.0000000

 ptrans:     0.0000000     0.0000000     0.0000000
 
 rotmap:
 (   1->   1)  (   2->   2)  (   3->   3)  (   4->   4)  (   5->   5) 
 (   6->   6)  (   7->   7)  (   8->   8) 


 irot  :   2
 --------------------------------------------------------------------
 isymop:   1  -1   0
           1   0   0
           0   0   1

 gtrans:     0.0000000     0.0000000     0.0000000

 ptrans:     0.0000000     0.0000000     0.0000000
 
 rotmap:
 (   1->   2)  (   2->   1)  (   3->   6)  (   4->   3)  (   5->   4) 
 (   6->   7)  (   7->   8)  (   8->   5) 


 irot  :   3
 --------------------------------------------------------------------
 isymop:   0  -1   0
           1  -1   0
           0   0   1

 gtrans:     0.0000000     0.0000000     0.0000000

 ptrans:     0.0000000     0.0000000     0.0000000
 
 rotmap:
 (   1->   1)  (   2->   2)  (   3->   7)  (   4->   6)  (   5->   3) 
 (   6->   8)  (   7->   5)  (   8->   4) 


 irot  :   4
 --------------------------------------------------------------------
 isymop:  -1   0   0
           0  -1   0
           0   0   1

 gtrans:     0.0000000     0.0000000     0.0000000

 ptrans:     0.0000000     0.0000000     0.0000000
 
 rotmap:
 (   1->   2)  (   2->   1)  (   3->   8)  (   4->   7)  (   5->   6) 
 (   6->   5)  (   7->   4)  (   8->   3) 


 irot  :   5
 --------------------------------------------------------------------
 isymop:  -1   1   0
          -1   0   0
           0   0   1

 gtrans:     0.0000000     0.0000000     0.0000000

 ptrans:     0.0000000     0.0000000     0.0000000
 
 rotmap:
 (   1->   1)  (   2->   2)  (   3->   5)  (   4->   8)  (   5->   7) 
 (   6->   4)  (   7->   3)  (   8->   6) 


 irot  :   6
 --------------------------------------------------------------------
 isymop:   0   1   0
          -1   1   0
           0   0   1

 gtrans:     0.0000000     0.0000000     0.0000000

 ptrans:     0.0000000     0.0000000     0.0000000
 
 rotmap:
 (   1->   2)  (   2->   1)  (   3->   4)  (   4->   5)  (   5->   8) 
 (   6->   3)  (   7->   6)  (   8->   7) 


 irot  :   7
 --------------------------------------------------------------------
 isymop:  -1   1   0
           0   1   0
           0   0   1

 gtrans:     0.0000000     0.0000000     0.0000000

 ptrans:     0.0000000     0.0000000     0.0000000
 
 rotmap:
 (   1->   1)  (   2->   2)  (   3->   3)  (   4->   6)  (   5->   7) 
 (   6->   4)  (   7->   5)  (   8->   8) 


 irot  :   8
 --------------------------------------------------------------------
 isymop:   0   1   0
           1   0   0
           0   0   1

 gtrans:     0.0000000     0.0000000     0.0000000

 ptrans:     0.0000000     0.0000000     0.0000000
 
 rotmap:
 (   1->   2)  (   2->   1)  (   3->   4)  (   4->   3)  (   5->   6) 
 (   6->   5)  (   7->   8)  (   8->   7) 


 irot  :   9
 --------------------------------------------------------------------
 isymop:   1   0   0
           1  -1   0
           0   0   1

 gtrans:     0.0000000     0.0000000     0.0000000

 ptrans:     0.0000000     0.0000000     0.0000000
 
 rotmap:
 (   1->   1)  (   2->   2)  (   3->   5)  (   4->   4)  (   5->   3) 
 (   6->   8)  (   7->   7)  (   8->   6) 


 irot  :  10
 --------------------------------------------------------------------
 isymop:   1  -1   0
           0  -1   0
           0   0   1

 gtrans:     0.0000000     0.0000000     0.0000000

 ptrans:     0.0000000     0.0000000     0.0000000
 
 rotmap:
 (   1->   2)  (   2->   1)  (   3->   8)  (   4->   5)  (   5->   4) 
 (   6->   7)  (   7->   6)  (   8->   3) 


 irot  :  11
 --------------------------------------------------------------------
 isymop:   0  -1   0
          -1   0   0
           0   0   1

 gtrans:     0.0000000     0.0000000     0.0000000

 ptrans:     0.0000000     0.0000000     0.0000000
 
 rotmap:
 (   1->   1)  (   2->   2)  (   3->   7)  (   4->   8)  (   5->   5) 
 (   6->   6)  (   7->   3)  (   8->   4) 


 irot  :  12
 --------------------------------------------------------------------
 isymop:  -1   0   0
          -1   1   0
           0   0   1

 gtrans:     0.0000000     0.0000000     0.0000000

 ptrans:     0.0000000     0.0000000     0.0000000
 
 rotmap:
 (   1->   2)  (   2->   1)  (   3->   6)  (   4->   7)  (   5->   8) 
 (   6->   3)  (   7->   4)  (   8->   5) 


 irot  :  13
 --------------------------------------------------------------------
 isymop:  -1   0   0
           0  -1   0
           0   0  -1

 gtrans:     0.0000000     0.0000000     0.5000000

 ptrans:     0.0000000     0.0000000     0.0000000
 
 rotmap:
 (   1->   2)  (   2->   1)  (   3->   8)  (   4->   7)  (   5->   6) 
 (   6->   5)  (   7->   4)  (   8->   3) 


 irot  :  14
 --------------------------------------------------------------------
 isymop:  -1   1   0
          -1   0   0
           0   0  -1

 gtrans:     0.0000000     0.0000000     0.5000000

 ptrans:     0.0000000     0.0000000     0.0000000
 
 rotmap:
 (   1->   1)  (   2->   2)  (   3->   5)  (   4->   8)  (   5->   7) 
 (   6->   4)  (   7->   3)  (   8->   6) 


 irot  :  15
 --------------------------------------------------------------------
 isymop:   0   1   0
          -1   1   0
           0   0  -1

 gtrans:     0.0000000     0.0000000     0.5000000

 ptrans:     0.0000000     0.0000000     0.0000000
 
 rotmap:
 (   1->   2)  (   2->   1)  (   3->   4)  (   4->   5)  (   5->   8) 
 (   6->   3)  (   7->   6)  (   8->   7) 


 irot  :  16
 --------------------------------------------------------------------
 isymop:   1   0   0
           0   1   0
           0   0  -1

 gtrans:     0.0000000     0.0000000     0.5000000

 ptrans:     0.0000000     0.0000000     0.0000000
 
 rotmap:
 (   1->   1)  (   2->   2)  (   3->   3)  (   4->   4)  (   5->   5) 
 (   6->   6)  (   7->   7)  (   8->   8) 


 irot  :  17
 --------------------------------------------------------------------
 isymop:   1  -1   0
           1   0   0
           0   0  -1

 gtrans:     0.0000000     0.0000000     0.5000000

 ptrans:     0.0000000     0.0000000     0.0000000
 
 rotmap:
 (   1->   2)  (   2->   1)  (   3->   6)  (   4->   3)  (   5->   4) 
 (   6->   7)  (   7->   8)  (   8->   5) 


 irot  :  18
 --------------------------------------------------------------------
 isymop:   0  -1   0
           1  -1   0
           0   0  -1

 gtrans:     0.0000000     0.0000000     0.5000000

 ptrans:     0.0000000     0.0000000     0.0000000
 
 rotmap:
 (   1->   1)  (   2->   2)  (   3->   7)  (   4->   6)  (   5->   3) 
 (   6->   8)  (   7->   5)  (   8->   4) 


 irot  :  19
 --------------------------------------------------------------------
 isymop:   1  -1   0
           0  -1   0
           0   0  -1

 gtrans:     0.0000000     0.0000000     0.5000000

 ptrans:     0.0000000     0.0000000     0.0000000
 
 rotmap:
 (   1->   2)  (   2->   1)  (   3->   8)  (   4->   5)  (   5->   4) 
 (   6->   7)  (   7->   6)  (   8->   3) 


 irot  :  20
 --------------------------------------------------------------------
 isymop:   0  -1   0
          -1   0   0
           0   0  -1

 gtrans:     0.0000000     0.0000000     0.5000000

 ptrans:     0.0000000     0.0000000     0.0000000
 
 rotmap:
 (   1->   1)  (   2->   2)  (   3->   7)  (   4->   8)  (   5->   5) 
 (   6->   6)  (   7->   3)  (   8->   4) 


 irot  :  21
 --------------------------------------------------------------------
 isymop:  -1   0   0
          -1   1   0
           0   0  -1

 gtrans:     0.0000000     0.0000000     0.5000000

 ptrans:     0.0000000     0.0000000     0.0000000
 
 rotmap:
 (   1->   2)  (   2->   1)  (   3->   6)  (   4->   7)  (   5->   8) 
 (   6->   3)  (   7->   4)  (   8->   5) 


 irot  :  22
 --------------------------------------------------------------------
 isymop:  -1   1   0
           0   1   0
           0   0  -1

 gtrans:     0.0000000     0.0000000     0.5000000

 ptrans:     0.0000000     0.0000000     0.0000000
 
 rotmap:
 (   1->   1)  (   2->   2)  (   3->   3)  (   4->   6)  (   5->   7) 
 (   6->   4)  (   7->   5)  (   8->   8) 


 irot  :  23
 --------------------------------------------------------------------
 isymop:   0   1   0
           1   0   0
           0   0  -1

 gtrans:     0.0000000     0.0000000     0.5000000

 ptrans:     0.0000000     0.0000000     0.0000000
 
 rotmap:
 (   1->   2)  (   2->   1)  (   3->   4)  (   4->   3)  (   5->   6) 
 (   6->   5)  (   7->   8)  (   8->   7) 


 irot  :  24
 --------------------------------------------------------------------
 isymop:   1   0   0
           1  -1   0
           0   0  -1

 gtrans:     0.0000000     0.0000000     0.5000000

 ptrans:     0.0000000     0.0000000     0.0000000
 
 rotmap:
 (   1->   1)  (   2->   2)  (   3->   5)  (   4->   4)  (   5->   3) 
 (   6->   8)  (   7->   7)  (   8->   6) 
 
 
 KPOINTS: K-points for BC3                        

Automatic generation of k-mesh.
Space group operators:
 irot       det(A)        alpha          n_x          n_y          n_z        tau_x        tau_y        tau_z
    1     1.000000     0.000000     1.000000     0.000000     0.000000     0.000000     0.000000     0.000000
    2     1.000000    60.000000     0.000000     0.000000    -1.000000     0.000000     0.000000     0.000000
    3     1.000000   120.000000     0.000000     0.000000    -1.000000     0.000000     0.000000     0.000000
    4     1.000000   180.000000     0.000000     0.000000     1.000000     0.000000     0.000000     0.000000
    5     1.000000   120.000000     0.000000     0.000000     1.000000     0.000000     0.000000     0.000000
    6     1.000000    60.000000     0.000000     0.000000     1.000000     0.000000     0.000000     0.000000
    7    -1.000000   180.000000     0.866025     0.500000     0.000000     0.000000     0.000000     0.000000
    8    -1.000000   180.000000     1.000000     0.000000     0.000000     0.000000     0.000000     0.000000
    9    -1.000000   180.000000     0.866025    -0.500000     0.000000     0.000000     0.000000     0.000000
   10    -1.000000   180.000000     0.500000    -0.866025     0.000000     0.000000     0.000000     0.000000
   11    -1.000000   180.000000     0.000000     1.000000     0.000000     0.000000     0.000000     0.000000
   12    -1.000000   180.000000    -0.500000    -0.866025     0.000000     0.000000     0.000000     0.000000
   13    -1.000000     0.000000     1.000000     0.000000     0.000000     0.000000     0.000000     0.500000
   14    -1.000000    60.000000     0.000000     0.000000    -1.000000     0.000000     0.000000     0.500000
   15    -1.000000   120.000000     0.000000     0.000000    -1.000000     0.000000     0.000000     0.500000
   16    -1.000000   180.000000     0.000000     0.000000     1.000000     0.000000     0.000000     0.500000
   17    -1.000000   120.000000     0.000000     0.000000     1.000000     0.000000     0.000000     0.500000
   18    -1.000000    60.000000     0.000000     0.000000     1.000000     0.000000     0.000000     0.500000
   19     1.000000   180.000000     0.866025     0.500000     0.000000     0.000000     0.000000     0.500000
   20     1.000000   180.000000     1.000000     0.000000     0.000000     0.000000     0.000000     0.500000
   21     1.000000   180.000000     0.866025    -0.500000     0.000000     0.000000     0.000000     0.500000
   22     1.000000   180.000000     0.500000    -0.866025     0.000000     0.000000     0.000000     0.500000
   23     1.000000   180.000000     0.000000     1.000000     0.000000     0.000000     0.000000     0.500000
   24     1.000000   180.000000    -0.500000    -0.866025     0.000000     0.000000     0.000000     0.500000
 
 Subroutine IBZKPT returns following result:
 ===========================================
 
 Found     19 irreducible k-points:
 
 Following reciprocal coordinates:
            Coordinates               Weight
  0.000000  0.000000  0.000000      1.000000
  0.083333  0.000000  0.000000      6.000000
  0.166667  0.000000  0.000000      6.000000
  0.250000 -0.000000  0.000000      6.000000
  0.333333 -0.000000  0.000000      6.000000
  0.416667  0.000000  0.000000      6.000000
  0.500000 -0.000000  0.000000      3.000000
  0.083333  0.083333  0.000000      6.000000
  0.166667  0.083333  0.000000     12.000000
  0.250000  0.083333  0.000000     12.000000
  0.333333  0.083333  0.000000     12.000000
  0.416667  0.083333  0.000000     12.000000
  0.166667  0.166667  0.000000      6.000000
  0.250000  0.166667  0.000000     12.000000
  0.333333  0.166667  0.000000     12.000000
  0.416667  0.166667  0.000000      6.000000
  0.250000  0.250000  0.000000      6.000000
  0.333333  0.250000  0.000000     12.000000
  0.333333  0.333333  0.000000      2.000000
 
 Following cartesian coordinates:
            Coordinates               Weight
  0.000000  0.000000  0.000000      1.000000
  0.009299  0.016106  0.000000      6.000000
  0.018598  0.032212  0.000000      6.000000
  0.027897  0.048318  0.000000      6.000000
  0.037195  0.064424  0.000000      6.000000
  0.046494  0.080530  0.000000      6.000000
  0.055793  0.096636  0.000000      3.000000
  0.000000  0.032212  0.000000      6.000000
  0.009299  0.048318  0.000000     12.000000
  0.018598  0.064424  0.000000     12.000000
  0.027897  0.080530  0.000000     12.000000
  0.037195  0.096636  0.000000     12.000000
  0.000000  0.064424  0.000000      6.000000
  0.009299  0.080530  0.000000     12.000000
  0.018598  0.096636  0.000000     12.000000
  0.027897  0.112742  0.000000      6.000000
  0.000000  0.096636  0.000000      6.000000
  0.009299  0.112742  0.000000     12.000000
  0.000000  0.128848  0.000000      2.000000
 
 
 Subroutine IBZKPT_HF returns following result:
 ==============================================
 
 Found    144 k-points in 1st BZ
 the following    144 k-points will be used (e.g. in the exchange kernel)
 Following reciprocal coordinates:   # in IRBZ
  0.000000  0.000000  0.000000    0.00694444   1 t-inv F
  0.083333  0.000000  0.000000    0.00694444   2 t-inv F
  0.166667  0.000000  0.000000    0.00694444   3 t-inv F
  0.250000 -0.000000  0.000000    0.00694444   4 t-inv F
  0.333333 -0.000000  0.000000    0.00694444   5 t-inv F
  0.416667  0.000000  0.000000    0.00694444   6 t-inv F
  0.500000 -0.000000  0.000000    0.00694444   7 t-inv F
  0.083333  0.083333  0.000000    0.00694444   8 t-inv F
  0.166667  0.083333  0.000000    0.00694444   9 t-inv F
  0.250000  0.083333  0.000000    0.00694444  10 t-inv F
  0.333333  0.083333  0.000000    0.00694444  11 t-inv F
  0.416667  0.083333  0.000000    0.00694444  12 t-inv F
  0.166667  0.166667  0.000000    0.00694444  13 t-inv F
  0.250000  0.166667  0.000000    0.00694444  14 t-inv F
  0.333333  0.166667  0.000000    0.00694444  15 t-inv F
  0.416667  0.166667  0.000000    0.00694444  16 t-inv F
  0.250000  0.250000  0.000000    0.00694444  17 t-inv F
  0.333333  0.250000  0.000000    0.00694444  18 t-inv F
  0.333333  0.333333  0.000000    0.00694444  19 t-inv F
 -0.000000  0.083333  0.000000    0.00694444   2 t-inv F
 -0.083333  0.083333  0.000000    0.00694444   2 t-inv F
 -0.083333 -0.000000  0.000000    0.00694444   2 t-inv F
  0.000000 -0.083333  0.000000    0.00694444   2 t-inv F
  0.083333 -0.083333  0.000000    0.00694444   2 t-inv F
  0.000000  0.166667  0.000000    0.00694444   3 t-inv F
 -0.166667  0.166667  0.000000    0.00694444   3 t-inv F
 -0.166667  0.000000  0.000000    0.00694444   3 t-inv F
  0.000000 -0.166667  0.000000    0.00694444   3 t-inv F
  0.166667 -0.166667  0.000000    0.00694444   3 t-inv F
  0.000000  0.250000  0.000000    0.00694444   4 t-inv F
 -0.250000  0.250000  0.000000    0.00694444   4 t-inv F
 -0.250000  0.000000  0.000000    0.00694444   4 t-inv F
 -0.000000 -0.250000  0.000000    0.00694444   4 t-inv F
  0.250000 -0.250000  0.000000    0.00694444   4 t-inv F
  0.000000  0.333333  0.000000    0.00694444   5 t-inv F
 -0.333333  0.333333  0.000000    0.00694444   5 t-inv F
 -0.333333  0.000000  0.000000    0.00694444   5 t-inv F
 -0.000000 -0.333333  0.000000    0.00694444   5 t-inv F
  0.333333 -0.333333  0.000000    0.00694444   5 t-inv F
  0.000000  0.416667  0.000000    0.00694444   6 t-inv F
 -0.416667  0.416667  0.000000    0.00694444   6 t-inv F
 -0.416667  0.000000  0.000000    0.00694444   6 t-inv F
  0.000000 -0.416667  0.000000    0.00694444   6 t-inv F
  0.416667 -0.416667  0.000000    0.00694444   6 t-inv F
  0.000000  0.500000  0.000000    0.00694444   7 t-inv F
 -0.500000  0.500000  0.000000    0.00694444   7 t-inv F
 -0.083333  0.166667  0.000000    0.00694444   8 t-inv F
 -0.166667  0.083333  0.000000    0.00694444   8 t-inv F
 -0.083333 -0.083333  0.000000    0.00694444   8 t-inv F
  0.083333 -0.166667  0.000000    0.00694444   8 t-inv F
  0.166667 -0.083333  0.000000    0.00694444   8 t-inv F
 -0.083333  0.250000  0.000000    0.00694444   9 t-inv F
 -0.250000  0.166667  0.000000    0.00694444   9 t-inv F
 -0.166667 -0.083333  0.000000    0.00694444   9 t-inv F
  0.083333 -0.250000  0.000000    0.00694444   9 t-inv F
  0.250000 -0.166667  0.000000    0.00694444   9 t-inv F
 -0.166667  0.250000  0.000000    0.00694444   9 t-inv F
  0.083333  0.166667  0.000000    0.00694444   9 t-inv F
  0.250000 -0.083333  0.000000    0.00694444   9 t-inv F
  0.166667 -0.250000  0.000000    0.00694444   9 t-inv F
 -0.083333 -0.166667  0.000000    0.00694444   9 t-inv F
 -0.250000  0.083333  0.000000    0.00694444   9 t-inv F
 -0.083333  0.333333  0.000000    0.00694444  10 t-inv F
 -0.333333  0.250000  0.000000    0.00694444  10 t-inv F
 -0.250000 -0.083333  0.000000    0.00694444  10 t-inv F
  0.083333 -0.333333  0.000000    0.00694444  10 t-inv F
  0.333333 -0.250000  0.000000    0.00694444  10 t-inv F
 -0.250000  0.333333  0.000000    0.00694444  10 t-inv F
  0.083333  0.250000  0.000000    0.00694444  10 t-inv F
  0.333333 -0.083333  0.000000    0.00694444  10 t-inv F
  0.250000 -0.333333  0.000000    0.00694444  10 t-inv F
 -0.083333 -0.250000  0.000000    0.00694444  10 t-inv F
 -0.333333  0.083333  0.000000    0.00694444  10 t-inv F
 -0.083333  0.416667  0.000000    0.00694444  11 t-inv F
 -0.416667  0.333333  0.000000    0.00694444  11 t-inv F
 -0.333333 -0.083333  0.000000    0.00694444  11 t-inv F
  0.083333 -0.416667  0.000000    0.00694444  11 t-inv F
  0.416667 -0.333333  0.000000    0.00694444  11 t-inv F
 -0.333333  0.416667  0.000000    0.00694444  11 t-inv F
  0.083333  0.333333  0.000000    0.00694444  11 t-inv F
  0.416667 -0.083333  0.000000    0.00694444  11 t-inv F
  0.333333 -0.416667  0.000000    0.00694444  11 t-inv F
 -0.083333 -0.333333  0.000000    0.00694444  11 t-inv F
 -0.416667  0.083333  0.000000    0.00694444  11 t-inv F
 -0.083333  0.500000  0.000000    0.00694444  12 t-inv F
 -0.500000  0.416667  0.000000    0.00694444  12 t-inv F
 -0.416667 -0.083333  0.000000    0.00694444  12 t-inv F
  0.083333 -0.500000  0.000000    0.00694444  12 t-inv F
  0.500000 -0.416667  0.000000    0.00694444  12 t-inv F
 -0.416667  0.500000  0.000000    0.00694444  12 t-inv F
  0.083333  0.416667  0.000000    0.00694444  12 t-inv F
  0.500000 -0.083333  0.000000    0.00694444  12 t-inv F
  0.416667 -0.500000  0.000000    0.00694444  12 t-inv F
 -0.083333 -0.416667  0.000000    0.00694444  12 t-inv F
 -0.500000  0.083333  0.000000    0.00694444  12 t-inv F
 -0.166667  0.333333  0.000000    0.00694444  13 t-inv F
 -0.333333  0.166667  0.000000    0.00694444  13 t-inv F
 -0.166667 -0.166667  0.000000    0.00694444  13 t-inv F
  0.166667 -0.333333  0.000000    0.00694444  13 t-inv F
  0.333333 -0.166667  0.000000    0.00694444  13 t-inv F
 -0.166667  0.416667  0.000000    0.00694444  14 t-inv F
 -0.416667  0.250000  0.000000    0.00694444  14 t-inv F
 -0.250000 -0.166667  0.000000    0.00694444  14 t-inv F
  0.166667 -0.416667  0.000000    0.00694444  14 t-inv F
  0.416667 -0.250000  0.000000    0.00694444  14 t-inv F
 -0.250000  0.416667  0.000000    0.00694444  14 t-inv F
  0.166667  0.250000  0.000000    0.00694444  14 t-inv F
  0.416667 -0.166667  0.000000    0.00694444  14 t-inv F
  0.250000 -0.416667  0.000000    0.00694444  14 t-inv F
 -0.166667 -0.250000  0.000000    0.00694444  14 t-inv F
 -0.416667  0.166667  0.000000    0.00694444  14 t-inv F
 -0.166667  0.500000  0.000000    0.00694444  15 t-inv F
 -0.500000  0.333333  0.000000    0.00694444  15 t-inv F
 -0.333333 -0.166667  0.000000    0.00694444  15 t-inv F
  0.166667 -0.500000  0.000000    0.00694444  15 t-inv F
  0.500000 -0.333333  0.000000    0.00694444  15 t-inv F
 -0.333333  0.500000  0.000000    0.00694444  15 t-inv F
  0.166667  0.333333  0.000000    0.00694444  15 t-inv F
  0.500000 -0.166667  0.000000    0.00694444  15 t-inv F
  0.333333 -0.500000  0.000000    0.00694444  15 t-inv F
 -0.166667 -0.333333  0.000000    0.00694444  15 t-inv F
 -0.500000  0.166667  0.000000    0.00694444  15 t-inv F
 -0.166667  0.583333  0.000000    0.00694444  16 t-inv F
 -0.583333  0.416667  0.000000    0.00694444  16 t-inv F
 -0.416667 -0.166667  0.000000    0.00694444  16 t-inv F
  0.166667 -0.583333  0.000000    0.00694444  16 t-inv F
  0.583333 -0.416667  0.000000    0.00694444  16 t-inv F
 -0.250000  0.500000  0.000000    0.00694444  17 t-inv F
 -0.500000  0.250000  0.000000    0.00694444  17 t-inv F
 -0.250000 -0.250000  0.000000    0.00694444  17 t-inv F
  0.250000 -0.500000  0.000000    0.00694444  17 t-inv F
  0.500000 -0.250000  0.000000    0.00694444  17 t-inv F
 -0.250000  0.583333  0.000000    0.00694444  18 t-inv F
 -0.583333  0.333333  0.000000    0.00694444  18 t-inv F
 -0.333333 -0.250000  0.000000    0.00694444  18 t-inv F
  0.250000 -0.583333  0.000000    0.00694444  18 t-inv F
  0.583333 -0.333333  0.000000    0.00694444  18 t-inv F
 -0.333333  0.583333  0.000000    0.00694444  18 t-inv F
  0.250000  0.333333  0.000000    0.00694444  18 t-inv F
  0.583333 -0.250000  0.000000    0.00694444  18 t-inv F
  0.333333 -0.583333  0.000000    0.00694444  18 t-inv F
 -0.250000 -0.333333  0.000000    0.00694444  18 t-inv F
 -0.583333  0.250000  0.000000    0.00694444  18 t-inv F
 -0.333333  0.666667  0.000000    0.00694444  19 t-inv F


--------------------------------------------------------------------------------------------------------




 Dimension of arrays:
   k-points           NKPTS =     19   k-points in BZ     NKDIM =     19   number of bands    NBANDS=     24
   number of dos      NEDOS =    301   number of ions     NIONS =      8
   non local maximal  LDIM  =      4   non local SUM 2l+1 LMDIM =      8
   total plane-waves  NPLWV =  77760
   max r-space proj   IRMAX =      1   max aug-charges    IRDMAX=   6338
   dimension x,y,z NGX =    36 NGY =   36 NGZ =   60
   dimension x,y,z NGXF=    72 NGYF=   72 NGZF=  120
   support grid    NGXF=    72 NGYF=   72 NGZF=  120
   ions per type =               2   6
   NGX,Y,Z   is equivalent  to a cutoff of  11.57, 11.57, 11.71 a.u.
   NGXF,Y,Z  is equivalent  to a cutoff of  23.13, 23.13, 23.41 a.u.

 SYSTEM =  BC3                                     
 POSCAR =  BC3 with lattice parameter 5.174Ang, len

 Startparameter for this run:
   NWRITE =      3    write-flag & timer
   PREC   = accura    normal or accurate (medium, high low for compatibility)
   ISTART =      0    job   : 0-new  1-cont  2-samecut
   ICHARG =      2    charge: 1-file 2-atom 10-const
   ISPIN  =      1    spin polarized calculation?
   LNONCOLLINEAR =      F non collinear calculations
   LSORBIT =      F    spin-orbit coupling
   INIWAV =      1    electr: 0-lowe 1-rand  2-diag
   LASPH  =      F    aspherical Exc in radial PAW
   METAGGA=      F    non-selfconsistent MetaGGA calc.

 Electronic Relaxation 1
   ENCUT  =  450.0 eV  33.07 Ry    5.75 a.u.   8.95  8.95 14.74*2*pi/ulx,y,z
   ENINI  =  450.0     initial cutoff
   ENAUG  =  644.9 eV  augmentation charge cutoff
   NELM   =     60;   NELMIN=  2; NELMDL=  0     # of ELM steps 
   EDIFF  = 0.1E-05   stopping-criterion for ELM
   LREAL  =      F    real-space projection
   NLSPLINE    = F    spline interpolate recip. space projectors
   LCOMPAT=      F    compatible to vasp.4.4
   GGA_COMPAT  = T    GGA compatible to vasp.4.4-vasp.4.6
   LMAXPAW     = -100 max onsite density
   LMAXMIX     =    2 max onsite mixed and CHGCAR
   VOSKOWN=      0    Vosko Wilk Nusair interpolation
   ROPT   =    0.00000   0.00000
 Ionic relaxation
   EDIFFG = -.1E-02   stopping-criterion for IOM
   NSW    =      1    number of steps for IOM
   NBLOCK =      1;   KBLOCK =      1    inner block; outer block 
   IBRION =      8    ionic relax: 0-MD 1-quasi-New 2-CG
   NFREE  =      0    steps in history (QN), initial steepest desc. (CG)
   ISIF   =      2    stress and relaxation
   IWAVPR =     11    prediction:  0-non 1-charg 2-wave 3-comb
   ISYM   =      2    0-nonsym 1-usesym 2-fastsym
   LCORR  =      T    Harris-Foulkes like correction to forces

   POTIM  = 0.5000    time-step for ionic-motion
   TEIN   =    0.0    initial temperature
   TEBEG  =    0.0;   TEEND  =   0.0 temperature during run
   SMASS  =  -3.00    Nose mass-parameter (am)
   estimated Nose-frequenzy (Omega)   =  0.10E-29 period in steps =****** mass=  -0.612E-27a.u.
   SCALEE = 1.0000    scale energy and forces
   NPACO  =    256;   APACO  = 16.0  distance and # of slots for P.C.
   PSTRESS=    0.0 pullay stress

  Mass of Ions in am
   POMASS =  10.81 12.01
  Ionic Valenz
   ZVAL   =   3.00  4.00
  Atomic Wigner-Seitz radii
   RWIGS  =  -1.00 -1.00
  virtual crystal weights 
   VCA    =   1.00  1.00
   NELECT =      30.0000    total number of electrons
   NUPDOWN=      -1.0000    fix difference up-down

 DOS related values:
   EMIN   =  10.00;   EMAX   =-10.00  energy-range for DOS
   EFERMI =   0.00
   ISMEAR =     0;   SIGMA  =   0.10  broadening in eV -4-tet -1-fermi 0-gaus

 Electronic relaxation 2 (details)
   IALGO  =     38    algorithm
   LDIAG  =      T    sub-space diagonalisation (order eigenvalues)
   LSUBROT=      F    optimize rotation matrix (better conditioning)
   TURBO    =      0    0=normal 1=particle mesh
   IRESTART =      0    0=no restart 2=restart with 2 vectors
   NREBOOT  =      0    no. of reboots
   NMIN     =      0    reboot dimension
   EREF     =   0.00    reference energy to select bands
   IMIX   =      4    mixing-type and parameters
     AMIX     =   0.40;   BMIX     =  1.00
     AMIX_MAG =   1.60;   BMIX_MAG =  1.00
     AMIN     =   0.10
     WC   =   100.;   INIMIX=   1;  MIXPRE=   1;  MAXMIX= -45

 Intra band minimization:
   WEIMIN = 0.0010     energy-eigenvalue tresh-hold
   EBREAK =  0.10E-07  absolut break condition
   DEPER  =   0.30     relativ break condition  

   TIME   =   0.40     timestep for ELM

  volume/ion in A,a.u.               =      24.69       166.63
  Fermi-wavevector in a.u.,A,eV,Ry     =   0.873444  1.650570 10.379942  0.762904
  Thomas-Fermi vector in A             =   1.992835
 
 Write flags
   LWAVE        =      T    write WAVECAR
   LDOWNSAMPLE  =      F    k-point downsampling of WAVECAR
   LCHARG       =      T    write CHGCAR
   LVTOT        =      F    write LOCPOT, total local potential
   LVHAR        =      F    write LOCPOT, Hartree potential only
   LELF         =      F    write electronic localiz. function (ELF)
   LORBIT       =     11    0 simple, 1 ext, 2 COOP (PROOUT), +10 PAW based schemes


 Dipole corrections
   LMONO  =      F    monopole corrections only (constant potential shift)
   LDIPOL =      F    correct potential (dipole corrections)
   IDIPOL =      0    1-x, 2-y, 3-z, 4-all directions 
   EPSILON=  1.0000000 bulk dielectric constant

 Exchange correlation treatment:
   GGA     =    --    GGA type
   LEXCH   =     8    internal setting for exchange type
   VOSKOWN=      0    Vosko Wilk Nusair interpolation
   LHFCALC =     F    Hartree Fock is set to
   LHFONE  =     F    Hartree Fock one center treatment
   AEXX    =    0.0000 exact exchange contribution

 Linear response parameters
   LEPSILON=     F    determine dielectric tensor
   LRPA    =     F    only Hartree local field effects (RPA)
   LNABLA  =     F    use nabla operator in PAW spheres
   LVEL    =     F    velocity operator in full k-point grid
   LINTERFAST=   F  fast interpolation
   KINTER  =     0    interpolate to denser k-point grid
   CSHIFT  =0.1000    complex shift for real part using Kramers Kronig
   OMEGAMAX=  -1.0    maximum frequency
   DEG_THRESHOLD= 0.2000000E-02 threshold for treating states as degnerate
   RTIME   =   -0.100 relaxation time in fs
  (WPLASMAI=    0.000 imaginary part of plasma frequency in eV, 0.658/RTIME)
   DFIELD  = 0.0000000 0.0000000 0.0000000 field for delta impulse in time
 
 Orbital magnetization related:
   ORBITALMAG=     F  switch on orbital magnetization
   LCHIMAG   =     F  perturbation theory with respect to B field
   DQ        =  0.001000  dq finite difference perturbation B field
   LLRAUG    =     F  two centre corrections for induced B field



--------------------------------------------------------------------------------------------------------


 linear response using symmetry
 charge density and potential will be updated during run
 non-spin polarized calculation
 Variant of blocked Davidson
 Davidson routine will perform the subspace rotation
 perform sub-space diagonalisation
    after iterative eigenvector-optimisation
 modified Broyden-mixing scheme, WC =      100.0
 initial mixing is a Kerker type mixing with AMIX =  0.4000 and BMIX =      1.0000
 Hartree-type preconditioning will be used
 using additional bands            9
 reciprocal scheme for non local part
 use partial core corrections
 calculate Harris-corrections to forces 
   (improved forces if not selfconsistent)
 use gradient corrections 
 use of overlap-Matrix (Vanderbilt PP)
 Gauss-broadening in eV      SIGMA  =   0.10


--------------------------------------------------------------------------------------------------------


  energy-cutoff  :      450.00
  volume of cell :      197.53
      direct lattice vectors                 reciprocal lattice vectors
     4.480848434  2.587018852  0.000000000     0.111586010  0.193272654  0.000000000
    -4.480848434  2.587018852  0.000000000    -0.111586010  0.193272654  0.000000000
     0.000000000  0.000000000  8.520221400     0.000000000  0.000000000  0.117367842

  length of vectors
     5.174038000  5.174038000  8.520221400     0.223172034  0.223172034  0.117367842


 
 k-points in units of 2pi/SCALE and weight: K-points for BC3                        
   0.00000000  0.00000000  0.00000000       0.007
   0.00929883  0.01610605  0.00000000       0.042
   0.01859767  0.03221211  0.00000000       0.042
   0.02789650  0.04831816  0.00000000       0.042
   0.03719534  0.06442422  0.00000000       0.042
   0.04649417  0.08053027  0.00000000       0.042
   0.05579301  0.09663633  0.00000000       0.021
   0.00000000  0.03221211  0.00000000       0.042
   0.00929883  0.04831816  0.00000000       0.083
   0.01859767  0.06442422  0.00000000       0.083
   0.02789650  0.08053027  0.00000000       0.083
   0.03719534  0.09663633  0.00000000       0.083
   0.00000000  0.06442422  0.00000000       0.042
   0.00929883  0.08053027  0.00000000       0.083
   0.01859767  0.09663633  0.00000000       0.083
   0.02789650  0.11274238  0.00000000       0.042
   0.00000000  0.09663633  0.00000000       0.042
   0.00929883  0.11274238  0.00000000       0.083
   0.00000000  0.12884844  0.00000000       0.014
 
 k-points in reciprocal lattice and weights: K-points for BC3                        
   0.00000000  0.00000000  0.00000000       0.007
   0.08333333  0.00000000  0.00000000       0.042
   0.16666667  0.00000000  0.00000000       0.042
   0.25000000 -0.00000000  0.00000000       0.042
   0.33333333 -0.00000000  0.00000000       0.042
   0.41666667  0.00000000  0.00000000       0.042
   0.50000000 -0.00000000  0.00000000       0.021
   0.08333333  0.08333333  0.00000000       0.042
   0.16666667  0.08333333  0.00000000       0.083
   0.25000000  0.08333333  0.00000000       0.083
   0.33333333  0.08333333  0.00000000       0.083
   0.41666667  0.08333333  0.00000000       0.083
   0.16666667  0.16666667  0.00000000       0.042
   0.25000000  0.16666667  0.00000000       0.083
   0.33333333  0.16666667  0.00000000       0.083
   0.41666667  0.16666667  0.00000000       0.042
   0.25000000  0.25000000  0.00000000       0.042
   0.33333333  0.25000000  0.00000000       0.083
   0.33333333  0.33333333  0.00000000       0.014
 
 position of ions in fractional coordinates (direct lattice) 
   0.33333300  0.66666600  0.25000000
   0.66666600  0.33333300  0.25000000
   0.15869124  0.31738348  0.25000000
   0.31738348  0.15869124  0.25000000
   0.15869124  0.84130776  0.25000000
   0.84130776  0.15869124  0.25000000
   0.68261552  0.84130776  0.25000000
   0.84130776  0.68261552  0.25000000
 
 position of ions in cartesian coordinates  (Angst):
  -1.49361465  2.58701626  2.13005535
   1.49361465  2.58701626  2.13005535
  -0.71107588  1.23161429  2.13005535
   0.71107588  1.23161429  2.13005535
  -3.05870114  2.58701626  2.13005535
   3.05870114  2.58701626  2.13005535
  -0.71107588  3.94241824  2.13005535
   0.71107588  3.94241824  2.13005535
 


--------------------------------------------------------------------------------------------------------


 k-point  1 :   0.0000 0.0000 0.0000  plane waves:    4271
 k-point  2 :   0.0833 0.0000 0.0000  plane waves:    4257
 k-point  3 :   0.1667 0.0000 0.0000  plane waves:    4273
 k-point  4 :   0.2500-0.0000 0.0000  plane waves:    4286
 k-point  5 :   0.3333-0.0000 0.0000  plane waves:    4272
 k-point  6 :   0.4167 0.0000 0.0000  plane waves:    4280
 k-point  7 :   0.5000-0.0000 0.0000  plane waves:    4280
 k-point  8 :   0.0833 0.0833 0.0000  plane waves:    4273
 k-point  9 :   0.1667 0.0833 0.0000  plane waves:    4261
 k-point 10 :   0.2500 0.0833 0.0000  plane waves:    4277
 k-point 11 :   0.3333 0.0833 0.0000  plane waves:    4283
 k-point 12 :   0.4167 0.0833 0.0000  plane waves:    4292
 k-point 13 :   0.1667 0.1667 0.0000  plane waves:    4267
 k-point 14 :   0.2500 0.1667 0.0000  plane waves:    4287
 k-point 15 :   0.3333 0.1667 0.0000  plane waves:    4297
 k-point 16 :   0.4167 0.1667 0.0000  plane waves:    4305
 k-point 17 :   0.2500 0.2500 0.0000  plane waves:    4283
 k-point 18 :   0.3333 0.2500 0.0000  plane waves:    4306
 k-point 19 :   0.3333 0.3333 0.0000  plane waves:    4323

 maximum and minimum number of plane-waves per node :      4323     4257

 maximum number of plane-waves:      4323
 maximum index in each direction: 
   IXMAX=    8   IYMAX=    8   IZMAX=   14
   IXMIN=   -9   IYMIN=   -9   IZMIN=  -14


 serial   3D FFT for wavefunctions
 parallel 3D FFT for charge:
    minimum data exchange during FFTs selected (reduces bandwidth)


 total amount of memory used by VASP MPI-rank0    51948. kBytes
=======================================================================

   base      :      30000. kBytes
   nonl-proj :      11089. kBytes
   fftplans  :       2090. kBytes
   grid      :       6068. kBytes
   one-center:         24. kBytes
   wavefun   :       2677. kBytes
 
     INWAV:  cpu time    0.0000: real time    0.0000
 Broyden mixing: mesh for mixing (old mesh)
   NGX = 17   NGY = 17   NGZ = 29
  (NGX  = 72   NGY  = 72   NGZ  =120)
  gives a total of   8381 points

 initial charge density was supplied:
 charge density of overlapping atoms calculated
 number of electron      30.0000000 magnetization 
 keeping initial charge density in first step


--------------------------------------------------------------------------------------------------------


 Maximum index for augmentation-charges          403 (set IRDMAX)


--------------------------------------------------------------------------------------------------------


 First call to EWALD:  gamma=   0.304
 Maximum number of real-space cells 3x 3x 2
 Maximum number of reciprocal cells 2x 2x 4

    FEWALD:  cpu time    0.0017: real time    0.0017


--------------------------------------- Iteration      1(   1)  ---------------------------------------


    POTLOK:  cpu time    0.0364: real time    0.0367
    SETDIJ:  cpu time    0.0018: real time    0.0018
     EDDAV:  cpu time    0.5802: real time    0.5803
       DOS:  cpu time    0.0004: real time    0.0004
    --------------------------------------------
      LOOP:  cpu time    0.6189: real time    0.6192

 eigenvalue-minimisations  :   912
 total energy-change (2. order) : 0.1594620E+03  (-0.1195589E+04)
 number of electron      30.0000000 magnetization 
 augmentation part       30.0000000 magnetization 

 Free energy of the ion-electron system (eV)
  ---------------------------------------------------
  alpha Z        PSCENC =        25.67921176
  Ewald energy   TEWEN  =       700.27145080
  -Hartree energ DENC   =     -1524.76618073
  -exchange      EXHF   =         0.00000000
  -V(xc)+E(xc)   XCENC  =        91.14273073
  PAW double counting   =       738.13200929     -739.83780425
  entropy T*S    EENTRO =        -0.01112055
  eigenvalues    EBANDS =      -156.35223398
  atomic energy  EATOM  =      1025.20389953
  Solvation  Ediel_sol  =         0.00000000
  ---------------------------------------------------
  free energy    TOTEN  =       159.46196259 eV

  energy without entropy =      159.47308314  energy(sigma->0) =      159.46752287


--------------------------------------------------------------------------------------------------------




 average (electrostatic) potential at core
  the test charge radii are     0.7672  0.6991
  (the norm of the test charge is              1.0000)
       1 -38.0355       2 -38.0355       3 -61.8204       4 -61.8204       5 -61.8204
       6 -61.8204       7 -61.8204       8 -61.8204
 
 
 
 E-fermi :   6.8661     XC(G=0):  -5.3024     alpha+bet : -4.1680


 k-point     1 :       0.0000    0.0000    0.0000
  band No.  band energies     occupation 
      1     -20.5905      2.00000
      2     -15.7786      2.00000
      3     -13.6959      2.00000
      4     -12.6913      2.00000
      5     -11.9452      2.00000
      6     -11.3243      2.00000
      7      -8.7030      2.00000
      8      -6.7753      2.00000
      9      -0.9286      2.00000
     10       0.9386      2.00000
     11       1.4115      2.00000
     12       2.7342      2.00000
     13       5.1236      2.00000
     14       5.7827      2.00000
     15       6.8037      1.62246
     16       7.2962      0.00000
     17       8.5275      0.00000
     18       9.6577      0.00000
     19      10.5498      0.00000
     20      11.3851      0.00000
     21      13.0548      0.00000
     22      13.9082      0.00000
     23      14.5467      0.00000
     24      16.0798      0.00000

 k-point     2 :       0.0833    0.0000    0.0000
  band No.  band energies     occupation 
      1     -20.6283      2.00000
      2     -15.5139      2.00000
      3     -14.1551      2.00000
      4     -12.5985      2.00000
      5     -10.5335      2.00000
      6      -9.1673      2.00000
      7      -7.3406      2.00000
      8      -5.7651      2.00000
      9      -1.1445      2.00000
     10       0.9262      2.00000
     11       2.7233      2.00000
     12       2.8592      2.00000
     13       4.8181      2.00000
     14       5.3921      2.00000
     15       7.3616      0.00000
     16       7.8950      0.00000
     17       9.3113      0.00000
     18       9.8120      0.00000
     19      10.5112      0.00000
     20      11.5367      0.00000
     21      13.1525      0.00000
     22      13.8796      0.00000
     23      14.6273      0.00000
     24      16.4218      0.00000

 k-point     3 :       0.1667    0.0000    0.0000
  band No.  band energies     occupation 
      1     -20.4285      2.00000
      2     -15.8597      2.00000
      3     -13.2676      2.00000
      4     -12.8313      2.00000
      5     -10.9509      2.00000
      6      -7.4592      2.00000
      7      -6.4713      2.00000
      8      -4.8241      2.00000
      9      -0.4516      2.00000
     10       0.7093      2.00000
     11       1.4418      2.00000
     12       2.4936      2.00000
     13       3.0842      2.00000
     14       5.3047      2.00000
     15       7.4110      0.00000
     16       7.8168      0.00000
     17       8.3092      0.00000
     18       9.3915      0.00000
     19       9.9344      0.00000
     20      11.6715      0.00000
     21      12.1694      0.00000
     22      13.4010      0.00000
     23      14.1047      0.00000
     24      16.0103      0.00000

 k-point     4 :       0.2500   -0.0000    0.0000
  band No.  band energies     occupation 
      1     -20.1535      2.00000
      2     -16.2542      2.00000
      3     -15.2082      2.00000
      4     -12.6864      2.00000
      5     -10.0776      2.00000
      6      -7.9461      2.00000
      7      -6.6129      2.00000
      8      -5.8699      2.00000
      9      -1.5067      2.00000
     10      -0.2396      2.00000
     11       0.9470      2.00000
     12       2.8207      2.00000
     13       3.9712      2.00000
     14       5.8670      2.00000
     15       7.8250      0.00000
     16       8.5180      0.00000
     17       9.4563      0.00000
     18      10.0204      0.00000
     19      11.1163      0.00000
     20      11.4147      0.00000
     21      13.0883      0.00000
     22      13.9554      0.00000
     23      15.4371      0.00000
     24      17.3394      0.00000

 k-point     5 :       0.3333   -0.0000    0.0000
  band No.  band energies     occupation 
      1     -19.9462      2.00000
      2     -17.5632      2.00000
      3     -15.8169      2.00000
      4     -13.6433      2.00000
      5      -8.9505      2.00000
      6      -8.0192      2.00000
      7      -6.4916      2.00000
      8      -3.8390      2.00000
      9      -3.2947      2.00000
     10      -1.3297      2.00000
     11       0.8941      2.00000
     12       1.4949      2.00000
     13       4.0000      2.00000
     14       5.2354      2.00000
     15       5.8611      2.00000
     16       7.5094      0.00000
     17       9.0812      0.00000
     18       9.4404      0.00000
     19      10.5059      0.00000
     20      11.1651      0.00000
     21      11.8779      0.00000
     22      12.8230      0.00000
     23      13.7921      0.00000
     24      15.8127      0.00000

 k-point     6 :       0.4167    0.0000    0.0000
  band No.  band energies     occupation 
      1     -19.2843      2.00000
      2     -17.6300      2.00000
      3     -15.2649      2.00000
      4     -12.8429      2.00000
      5      -9.4404      2.00000
      6      -7.5067      2.00000
      7      -5.1549      2.00000
      8      -4.4849      2.00000
      9      -2.6974      2.00000
     10      -1.4390      2.00000
     11       0.7745      2.00000
     12       1.8563      2.00000
     13       3.7615      2.00000
     14       4.4174      2.00000
     15       5.8136      2.00000
     16       7.0222      0.02733
     17       7.7642      0.00000
     18       9.1150      0.00000
     19      10.0614      0.00000
     20      10.9666      0.00000
     21      12.0450      0.00000
     22      13.1516      0.00000
     23      14.8705      0.00000
     24      17.5524      0.00000

 k-point     7 :       0.5000   -0.0000    0.0000
  band No.  band energies     occupation 
      1     -19.8321      2.00000
      2     -18.0706      2.00000
      3     -14.9254      2.00000
      4     -13.4166      2.00000
      5      -8.7306      2.00000
      6      -7.5433      2.00000
      7      -5.5914      2.00000
      8      -4.3782      2.00000
      9      -3.8079      2.00000
     10      -1.1614      2.00000
     11       0.0445      2.00000
     12       1.9041      2.00000
     13       2.8873      2.00000
     14       5.3138      2.00000
     15       6.3652      2.00000
     16       6.9472      0.25177
     17       8.0956      0.00000
     18       9.0218      0.00000
     19      10.6005      0.00000
     20      11.1671      0.00000
     21      11.7906      0.00000
     22      13.0185      0.00000
     23      14.2092      0.00000
     24      15.3596      0.00000

 k-point     8 :       0.0833    0.0833    0.0000
  band No.  band energies     occupation 
      1     -20.4223      2.00000
      2     -15.5262      2.00000
      3     -14.1957      2.00000
      4     -11.4235      2.00000
      5     -10.9360      2.00000
      6      -8.6856      2.00000
      7      -7.2001      2.00000
      8      -5.1960      2.00000
      9      -1.1887      2.00000
     10      -0.3567      2.00000
     11       1.9203      2.00000
     12       2.4890      2.00000
     13       3.0474      2.00000
     14       4.7311      2.00000
     15       5.7528      2.00000
     16       7.2570      0.00000
     17       8.4059      0.00000
     18       9.7471      0.00000
     19      10.7597      0.00000
     20      11.5166      0.00000
     21      12.3191      0.00000
     22      13.6835      0.00000
     23      14.7032      0.00000
     24      16.2171      0.00000

 k-point     9 :       0.1667    0.0833    0.0000
  band No.  band energies     occupation 
      1     -20.0759      2.00000
      2     -16.1753      2.00000
      3     -14.5670      2.00000
      4     -12.4237      2.00000
      5     -10.7332      2.00000
      6      -8.0655      2.00000
      7      -6.3227      2.00000
      8      -4.8247      2.00000
      9      -1.9909      2.00000
     10      -0.5466      2.00000
     11       3.2368      2.00000
     12       4.0049      2.00000
     13       5.0787      2.00000
     14       6.6651      1.99552
     15       7.5871      0.00000
     16       8.8687      0.00000
     17       9.5721      0.00000
     18      10.9159      0.00000
     19      11.8486      0.00000
     20      12.2534      0.00000
     21      13.1300      0.00000
     22      14.2789      0.00000
     23      15.8826      0.00000
     24      17.0981      0.00000

 k-point    10 :       0.2500    0.0833    0.0000
  band No.  band energies     occupation 
      1     -20.5954      2.00000
      2     -16.8632      2.00000
      3     -15.2562      2.00000
      4     -12.9922      2.00000
      5     -10.4929      2.00000
      6      -7.8441      2.00000
      7      -6.4361      2.00000
      8      -4.4317      2.00000
      9      -1.8569      2.00000
     10      -1.1402      2.00000
     11       0.5769      2.00000
     12       3.1587      2.00000
     13       4.1352      2.00000
     14       4.6752      2.00000
     15       5.7638      2.00000
     16       6.8420      1.26726
     17       7.9071      0.00000
     18       8.2593      0.00000
     19       9.5061      0.00000
     20      10.2648      0.00000
     21      12.2311      0.00000
     22      14.2539      0.00000
     23      14.8158      0.00000
     24      15.9426      0.00000

 k-point    11 :       0.3333    0.0833    0.0000
  band No.  band energies     occupation 
      1     -20.2647      2.00000
      2     -16.8761      2.00000
      3     -15.9148      2.00000
      4     -12.6822      2.00000
      5      -8.8081      2.00000
      6      -6.2772      2.00000
      7      -5.3634      2.00000
      8      -4.3908      2.00000
      9      -3.4052      2.00000
     10      -0.2356      2.00000
     11       1.0505      2.00000
     12       2.1963      2.00000
     13       3.2073      2.00000
     14       4.2414      2.00000
     15       6.3836      2.00000
     16       6.8876      0.76101
     17       8.4258      0.00000
     18       8.5316      0.00000
     19      10.0834      0.00000
     20      11.2219      0.00000
     21      12.6054      0.00000
     22      13.4970      0.00000
     23      14.6880      0.00000
     24      16.2004      0.00000

 k-point    12 :       0.4167    0.0833    0.0000
  band No.  band energies     occupation 
      1     -19.3535      2.00000
      2     -17.9820      2.00000
      3     -15.5296      2.00000
      4     -13.8299      2.00000
      5      -7.9402      2.00000
      6      -6.7126      2.00000
      7      -5.3657      2.00000
      8      -4.2011      2.00000
      9      -3.6293      2.00000
     10      -2.1453      2.00000
     11       0.2046      2.00000
     12       2.0104      2.00000
     13       3.6427      2.00000
     14       4.6943      2.00000
     15       5.6645      2.00000
     16       6.7396      1.92652
     17       7.6154      0.00000
     18       9.2126      0.00000
     19      10.7332      0.00000
     20      11.3085      0.00000
     21      12.6717      0.00000
     22      13.8832      0.00000
     23      16.3784      0.00000
     24      16.6734      0.00000

 k-point    13 :       0.1667    0.1667    0.0000
  band No.  band energies     occupation 
      1     -20.4505      2.00000
      2     -16.7529      2.00000
      3     -15.9863      2.00000
      4     -12.1908      2.00000
      5     -11.1743      2.00000
      6      -7.7124      2.00000
      7      -5.8140      2.00000
      8      -4.5080      2.00000
      9      -2.8898      2.00000
     10      -1.1359      2.00000
     11       0.8397      2.00000
     12       3.1829      2.00000
     13       4.0814      2.00000
     14       5.1336      2.00000
     15       6.3178      2.00000
     16       7.1479      0.00007
     17       7.7494      0.00000
     18       9.3273      0.00000
     19      10.7322      0.00000
     20      11.4587      0.00000
     21      11.8720      0.00000
     22      13.3736      0.00000
     23      14.3227      0.00000
     24      16.5275      0.00000

 k-point    14 :       0.2500    0.1667    0.0000
  band No.  band energies     occupation 
      1     -19.5416      2.00000
      2     -16.9831      2.00000
      3     -16.2424      2.00000
      4     -12.7073      2.00000
      5      -9.9095      2.00000
      6      -6.5574      2.00000
      7      -6.1808      2.00000
      8      -5.2226      2.00000
      9      -2.8905      2.00000
     10      -1.5193      2.00000
     11       0.2356      2.00000
     12       1.6491      2.00000
     13       3.4602      2.00000
     14       4.6991      2.00000
     15       5.2626      2.00000
     16       7.1923      0.00000
     17       8.3271      0.00000
     18       8.6829      0.00000
     19      10.2727      0.00000
     20      11.4138      0.00000
     21      12.6924      0.00000
     22      13.7672      0.00000
     23      15.6326      0.00000
     24      16.7436      0.00000

 k-point    15 :       0.3333    0.1667    0.0000
  band No.  band energies     occupation 
      1     -19.6838      2.00000
      2     -16.6807      2.00000
      3     -16.0472      2.00000
      4     -11.4781      2.00000
      5      -9.9685      2.00000
      6      -6.6202      2.00000
      7      -5.5978      2.00000
      8      -5.2110      2.00000
      9      -3.3708      2.00000
     10      -1.6859      2.00000
     11       0.4899      2.00000
     12       1.5921      2.00000
     13       4.4942      2.00000
     14       5.0125      2.00000
     15       5.7569      2.00000
     16       7.4717      0.00000
     17       8.5260      0.00000
     18       9.0683      0.00000
     19       9.8857      0.00000
     20      10.7015      0.00000
     21      11.9242      0.00000
     22      13.3390      0.00000
     23      14.4324      0.00000
     24      17.2661      0.00000

 k-point    16 :       0.4167    0.1667    0.0000
  band No.  band energies     occupation 
      1     -19.6194      2.00000
      2     -16.5940      2.00000
      3     -16.2530      2.00000
      4     -12.2392      2.00000
      5      -8.4393      2.00000
      6      -6.4000      2.00000
      7      -5.1886      2.00000
      8      -4.5367      2.00000
      9      -2.8893      2.00000
     10      -0.9868      2.00000
     11       0.2222      2.00000
     12       1.6594      2.00000
     13       3.9070      2.00000
     14       5.5030      2.00000
     15       6.6122      1.99967
     16       7.7167      0.00000
     17       8.4096      0.00000
     18       9.8117      0.00000
     19      10.7577      0.00000
     20      11.2252      0.00000
     21      12.0496      0.00000
     22      13.2113      0.00000
     23      14.6491      0.00000
     24      16.4339      0.00000

 k-point    17 :       0.2500    0.2500    0.0000
  band No.  band energies     occupation 
      1     -20.1090      2.00000
      2     -17.4497      2.00000
      3     -16.8233      2.00000
      4     -11.8631      2.00000
      5     -10.9466      2.00000
      6      -7.0229      2.00000
      7      -5.8682      2.00000
      8      -4.3903      2.00000
      9      -2.9067      2.00000
     10      -2.6594      2.00000
     11       1.4672      2.00000
     12       3.9521      2.00000
     13       4.8269      2.00000
     14       5.3869      2.00000
     15       7.0499      0.00933
     16       7.6707      0.00000
     17       8.2381      0.00000
     18       9.4336      0.00000
     19      10.3290      0.00000
     20      10.7794      0.00000
     21      11.7909      0.00000
     22      14.1644      0.00000
     23      15.2741      0.00000
     24      17.1195      0.00000

 k-point    18 :       0.3333    0.2500    0.0000
  band No.  band energies     occupation 
      1     -19.0963      2.00000
      2     -17.9242      2.00000
      3     -16.4713      2.00000
      4     -12.1635      2.00000
      5      -9.4562      2.00000
      6      -7.4032      2.00000
      7      -5.9255      2.00000
      8      -4.4628      2.00000
      9      -2.2639      2.00000
     10      -1.6845      2.00000
     11      -1.0225      2.00000
     12       0.0020      2.00000
     13       3.4915      2.00000
     14       5.2194      2.00000
     15       6.2946      2.00000
     16       6.5441      1.99999
     17       8.0427      0.00000
     18       8.8664      0.00000
     19      10.1319      0.00000
     20      11.0140      0.00000
     21      12.3932      0.00000
     22      13.3709      0.00000
     23      14.2412      0.00000
     24      16.4127      0.00000

 k-point    19 :       0.3333    0.3333    0.0000
  band No.  band energies     occupation 
      1     -20.0069      2.00000
      2     -17.7123      2.00000
      3     -17.0706      2.00000
      4     -12.0707      2.00000
      5      -9.9897      2.00000
      6      -7.7355      2.00000
      7      -5.3355      2.00000
      8      -4.6125      2.00000
      9      -3.4507      2.00000
     10      -2.3069      2.00000
     11      -0.8347      2.00000
     12       2.5701      2.00000
     13       4.5668      2.00000
     14       5.7607      2.00000
     15       6.4948      2.00000
     16       7.2754      0.00000
     17       8.1701      0.00000
     18       9.5437      0.00000
     19      10.5174      0.00000
     20      11.2900      0.00000
     21      11.8685      0.00000
     22      14.0456      0.00000
     23      15.2626      0.00000
     24      16.4964      0.00000


--------------------------------------------------------------------------------------------------------


 soft charge-density along one line, spin component           1
         0         1         2         3         4         5         6         7         8         9
 total charge-density along one line
 
 pseudopotential strength for first ion, spin component:           1
  6.909  10.558   0.000  -0.000   0.000   0.000  -0.000   0.000
 10.558  16.130   0.000  -0.000   0.000   0.000  -0.000   0.000
  0.000   0.000  -2.446   0.000  -0.000  -4.225   0.000  -0.000
 -0.000  -0.000   0.000  -2.431   0.000   0.000  -4.193   0.000
  0.000   0.000  -0.000   0.000  -2.446  -0.000   0.000  -4.225
  0.000   0.000  -4.225   0.000  -0.000  -7.100   0.000  -0.000
 -0.000  -0.000   0.000  -4.193   0.000   0.000  -7.037   0.000
  0.000   0.000  -0.000   0.000  -4.225  -0.000   0.000  -7.100
 total augmentation occupancy for first ion, spin component:           1
  2.000   0.000   0.000   0.000   0.000   0.000   0.000   0.000
  0.000   0.000   0.000   0.000   0.000   0.000   0.000   0.000
  0.000   0.000   0.333   0.000   0.000   0.000   0.000   0.000
  0.000   0.000   0.000   0.333   0.000   0.000   0.000   0.000
  0.000   0.000   0.000   0.000   0.333   0.000   0.000   0.000
  0.000   0.000   0.000   0.000   0.000   0.000   0.000   0.000
  0.000   0.000   0.000   0.000   0.000   0.000   0.000   0.000
  0.000   0.000   0.000   0.000   0.000   0.000   0.000   0.000


--------------------------------------- Iteration      1(   2)  ---------------------------------------


     EDDAV:  cpu time    0.7004: real time    0.7004
       DOS:  cpu time    0.0002: real time    0.0002
    --------------------------------------------
      LOOP:  cpu time    0.7006: real time    0.7006

 eigenvalue-minimisations  :  1200
 total energy-change (2. order) :-0.2143222E+03  (-0.2053962E+03)
 number of electron      30.0000000 magnetization 
 augmentation part       30.0000000 magnetization 

 Free energy of the ion-electron system (eV)
  ---------------------------------------------------
  alpha Z        PSCENC =        25.67921176
  Ewald energy   TEWEN  =       700.27145080
  -Hartree energ DENC   =     -1524.76618073
  -exchange      EXHF   =         0.00000000
  -V(xc)+E(xc)   XCENC  =        91.14273073
  PAW double counting   =       738.13200929     -739.83780425
  entropy T*S    EENTRO =        -0.00000004
  eigenvalues    EBANDS =      -370.68554026
  atomic energy  EATOM  =      1025.20389953
  Solvation  Ediel_sol  =         0.00000000
  ---------------------------------------------------
  free energy    TOTEN  =       -54.86022317 eV

  energy without entropy =      -54.86022313  energy(sigma->0) =      -54.86022315


--------------------------------------------------------------------------------------------------------




 average (electrostatic) potential at core
  the test charge radii are     0.7672  0.6991
  (the norm of the test charge is              1.0000)
       1 -38.0355       2 -38.0355       3 -61.8204       4 -61.8204       5 -61.8204
       6 -61.8204       7 -61.8204       8 -61.8204
 
 
 
 E-fermi :  -4.1578     XC(G=0):  -5.3024     alpha+bet : -4.1680


 k-point     1 :       0.0000    0.0000    0.0000
  band No.  band energies     occupation 
      1     -22.5889      2.00000
      2     -18.9270      2.00000
      3     -18.8152      2.00000
      4     -16.4601      2.00000
      5     -16.3818      2.00000
      6     -15.0600      2.00000
      7     -13.6370      2.00000
      8     -10.7416      2.00000
      9      -9.9827      2.00000
     10      -8.7021      2.00000
     11      -8.5132      2.00000
     12      -6.3829      2.00000
     13      -6.1452      2.00000
     14      -5.6644      2.00000
     15      -5.6247      2.00000
     16      -2.8144      0.00000
     17      -1.2530      0.00000
     18      -0.8445      0.00000
     19      -0.2845      0.00000
     20       2.1811      0.00000
     21       3.1346      0.00000
     22       3.7941      0.00000
     23       4.7048      0.00000
     24       5.1946      0.00000

 k-point     2 :       0.0833    0.0000    0.0000
  band No.  band energies     occupation 
      1     -22.5487      2.00000
      2     -18.9985      2.00000
      3     -18.8707      2.00000
      4     -16.4379      2.00000
      5     -16.1582      2.00000
      6     -14.8494      2.00000
      7     -13.4789      2.00000
      8     -10.7375      2.00000
      9      -9.8712      2.00000
     10      -8.5802      2.00000
     11      -8.1662      2.00000
     12      -6.2824      2.00000
     13      -5.7455      2.00000
     14      -5.3783      2.00000
     15      -4.5008      2.00000
     16      -2.7525      0.00000
     17      -0.9472      0.00000
     18      -0.0762      0.00000
     19       0.3268      0.00000
     20       2.5424      0.00000
     21       4.0587      0.00000
     22       4.9773      0.00000
     23       6.3741      0.00000
     24       6.7300      0.00000

 k-point     3 :       0.1667    0.0000    0.0000
  band No.  band energies     occupation 
      1     -22.4704      2.00000
      2     -19.1941      2.00000
      3     -18.8639      2.00000
      4     -16.5153      2.00000
      5     -15.9116      2.00000
      6     -14.3237      2.00000
      7     -13.0580      2.00000
      8     -11.0756      2.00000
      9      -9.7591      2.00000
     10      -8.8758      2.00000
     11      -8.3003      2.00000
     12      -6.5197      2.00000
     13      -5.9409      2.00000
     14      -5.8763      2.00000
     15      -5.5788      2.00000
     16      -3.3210      0.00000
     17      -0.1252      0.00000
     18       0.1710      0.00000
     19       0.7269      0.00000
     20       2.4504      0.00000
     21       4.4454      0.00000
     22       5.1460      0.00000
     23       5.9171      0.00000
     24       6.9434      0.00000

 k-point     4 :       0.2500   -0.0000    0.0000
  band No.  band energies     occupation 
      1     -22.4025      2.00000
      2     -19.5798      2.00000
      3     -19.1401      2.00000
      4     -16.6074      2.00000
      5     -15.6398      2.00000
      6     -13.8583      2.00000
      7     -12.6212      2.00000
      8     -11.2276      2.00000
      9      -9.8063      2.00000
     10      -9.6781      2.00000
     11      -8.5215      2.00000
     12      -7.2011      2.00000
     13      -6.6581      2.00000
     14      -6.5058      2.00000
     15      -5.8088      2.00000
     16      -3.5351      0.00000
     17      -0.3321      0.00000
     18       0.2632      0.00000
     19       1.1735      0.00000
     20       2.8372      0.00000
     21       4.7594      0.00000
     22       5.1248      0.00000
     23       5.3524      0.00000
     24       6.0620      0.00000

 k-point     5 :       0.3333   -0.0000    0.0000
  band No.  band energies     occupation 
      1     -22.2614      2.00000
      2     -19.9548      2.00000
      3     -19.2170      2.00000
      4     -16.7352      2.00000
      5     -15.1656      2.00000
      6     -13.2980      2.00000
      7     -11.8937      2.00000
      8     -11.6329      2.00000
      9     -10.1377      2.00000
     10      -9.4242      2.00000
     11      -8.4688      2.00000
     12      -7.6664      2.00000
     13      -6.9553      2.00000
     14      -6.6580      2.00000
     15      -5.9333      2.00000
     16      -3.6913      0.00000
     17      -0.1604      0.00000
     18       1.2756      0.00000
     19       2.9651      0.00000
     20       3.4494      0.00000
     21       5.0209      0.00000
     22       5.6198      0.00000
     23       6.0376      0.00000
     24       6.9783      0.00000

 k-point     6 :       0.4167    0.0000    0.0000
  band No.  band energies     occupation 
      1     -22.1177      2.00000
      2     -20.2277      2.00000
      3     -19.2512      2.00000
      4     -16.7003      2.00000
      5     -14.7858      2.00000
      6     -12.7145      2.00000
      7     -12.1370      2.00000
      8     -11.4075      2.00000
      9     -10.2469      2.00000
     10      -9.1436      2.00000
     11      -8.7686      2.00000
     12      -8.2838      2.00000
     13      -7.4430      2.00000
     14      -6.8260      2.00000
     15      -5.9087      2.00000
     16      -3.8116      0.00000
     17       0.0391      0.00000
     18       1.5887      0.00000
     19       3.3978      0.00000
     20       4.6474      0.00000
     21       5.7532      0.00000
     22       6.2384      0.00000
     23       7.2163      0.00000
     24       7.4113      0.00000

 k-point     7 :       0.5000   -0.0000    0.0000
  band No.  band energies     occupation 
      1     -22.1376      2.00000
      2     -20.3177      2.00000
      3     -19.2490      2.00000
      4     -16.7844      2.00000
      5     -14.5363      2.00000
      6     -12.6097      2.00000
      7     -12.2956      2.00000
      8     -11.5072      2.00000
      9      -9.8402      2.00000
     10      -9.6592      2.00000
     11      -8.8950      2.00000
     12      -8.1659      2.00000
     13      -7.7989      2.00000
     14      -7.0289      2.00000
     15      -5.9367      2.00000
     16      -3.8021      0.00000
     17       0.5392      0.00000
     18       1.0315      0.00000
     19       3.9942      0.00000
     20       4.0203      0.00000
     21       4.7566      0.00000
     22       6.0986      0.00000
     23       6.6109      0.00000
     24       7.4004      0.00000

 k-point     8 :       0.0833    0.0833    0.0000
  band No.  band energies     occupation 
      1     -22.5053      2.00000
      2     -19.1459      2.00000
      3     -18.9874      2.00000
      4     -16.3326      2.00000
      5     -16.0772      2.00000
      6     -14.6125      2.00000
      7     -13.1661      2.00000
      8     -11.2575      2.00000
      9      -9.7834      2.00000
     10      -8.9620      2.00000
     11      -8.6592      2.00000
     12      -6.8185      2.00000
     13      -6.4203      2.00000
     14      -6.0746      2.00000
     15      -5.6995      2.00000
     16      -3.2191      0.00000
     17      -0.9551      0.00000
     18      -0.3650      0.00000
     19       0.3235      0.00000
     20       2.4333      0.00000
     21       3.8058      0.00000
     22       4.1275      0.00000
     23       4.9281      0.00000
     24       5.8510      0.00000

 k-point     9 :       0.1667    0.0833    0.0000
  band No.  band energies     occupation 
      1     -22.3957      2.00000
      2     -19.3939      2.00000
      3     -19.0310      2.00000
      4     -16.3894      2.00000
      5     -15.9090      2.00000
      6     -14.1108      2.00000
      7     -12.7695      2.00000
      8     -11.2724      2.00000
      9      -9.5683      2.00000
     10      -8.9825      2.00000
     11      -8.4138      2.00000
     12      -6.9991      2.00000
     13      -6.5877      2.00000
     14      -6.1203      2.00000
     15      -5.7432      2.00000
     16      -3.2006      0.00000
     17      -0.7628      0.00000
     18       0.4934      0.00000
     19       0.8207      0.00000
     20       4.0600      0.00000
     21       4.6100      0.00000
     22       5.1466      0.00000
     23       5.4945      0.00000
     24       6.3697      0.00000

 k-point    10 :       0.2500    0.0833    0.0000
  band No.  band energies     occupation 
      1     -22.3402      2.00000
      2     -19.8143      2.00000
      3     -19.2121      2.00000
      4     -16.5616      2.00000
      5     -15.5005      2.00000
      6     -13.5605      2.00000
      7     -12.1800      2.00000
      8     -11.5019      2.00000
      9      -9.6477      2.00000
[...]
     16      -0.8660      0.00000
     17       0.7476      0.00000
     18       3.3042      0.00000
     19       4.4814      0.00000
     20       4.7155      0.00000
     21       5.1159      0.00000
     22       5.1380      0.00000
     23       5.8980      0.00000
     24       6.9762      0.00000

 k-point    18 :       0.3333    0.2500    0.0000
  band No.  band energies     occupation 
      1     -17.9036      2.00000
      2     -16.0734      2.00000
      3     -15.7140      2.00000
      4     -11.9033      2.00000
      5     -11.2356      2.00000
      6      -9.3725      2.00000
      7      -7.6539      2.00000
      8      -6.9970      2.00000
      9      -6.4838      2.00000
     10      -6.1271      2.00000
     11      -5.8405      2.00000
     12      -5.0821      2.00000
     13      -4.9870      2.00000
     14      -4.4628      2.00000
     15      -4.4486      2.00000
     16      -0.6039      0.00000
     17       0.5137      0.00000
     18       3.8129      0.00000
     19       4.4211      0.00000
     20       4.7973      0.00000
     21       5.0275      0.00000
     22       5.4990      0.00000
     23       6.2768      0.00000
     24       6.3566      0.00000

 k-point    19 :       0.3333    0.3333    0.0000
  band No.  band energies     occupation 
      1     -17.8740      2.00000
      2     -15.9418      2.00000
      3     -15.9417      2.00000
      4     -11.5104      2.00000
      5     -11.5103      2.00000
      6      -9.5490      2.00000
      7      -7.0492      2.00000
      8      -7.0491      2.00000
      9      -6.6880      2.00000
     10      -6.0398      2.00000
     11      -5.9081      2.00000
     12      -4.8955      2.00000
     13      -4.8955      2.00000
     14      -4.8156      2.00000
     15      -4.8156      2.00000
     16      -0.0438      0.00000
     17      -0.0438      0.00000
     18       4.3554      0.00000
     19       4.3790      0.00000
     20       4.3790      0.00000
     21       5.5697      0.00000
     22       5.5697      0.00000
     23       5.7006      0.00000
     24       6.5705      0.00000


--------------------------------------------------------------------------------------------------------


 soft charge-density along one line, spin component           1
         0         1         2         3         4         5         6         7         8         9
 total charge-density along one line
 
 pseudopotential strength for first ion, spin component:           1
  6.649  10.140   0.000  -0.000   0.000   0.000  -0.000   0.000
 10.140  15.459   0.000  -0.000   0.000   0.000  -0.000   0.000
  0.000   0.000  -2.275  -0.000  -0.000  -3.895  -0.000  -0.000
 -0.000  -0.000  -0.000  -2.281   0.000  -0.000  -3.903   0.000
  0.000   0.000  -0.000   0.000  -2.275  -0.000   0.000  -3.895
  0.000   0.000  -3.895  -0.000  -0.000  -6.471  -0.000  -0.000
 -0.000  -0.000  -0.000  -3.903   0.000  -0.000  -6.480   0.000
  0.000   0.000  -0.000   0.000  -3.895  -0.000   0.000  -6.471
 total augmentation occupancy for first ion, spin component:           1
  3.705  -0.948   0.000   0.000  -0.000   0.000  -0.000  -0.000
 -0.948   0.262   0.000   0.000  -0.000   0.000   0.000  -0.000
 -0.000   0.000   4.123  -0.000   0.000  -1.098  -0.000   0.000
 -0.000   0.000   0.000   0.887   0.000  -0.000  -0.221   0.000
 -0.000  -0.000   0.000  -0.000   4.123   0.000   0.000  -1.098
  0.000  -0.000  -1.098   0.000   0.000   0.304  -0.000   0.000
  0.000  -0.000   0.000  -0.221   0.000   0.000   0.056  -0.000
 -0.000   0.000   0.000   0.000  -1.098   0.000   0.000   0.304


------------------------ aborting loop because EDIFF is reached ----------------------------------------


 


 total charge     
 
# of ion       s       p       d       tot
------------------------------------------
    1        0.755   1.302   0.000   2.057
    2        0.755   1.302   0.000   2.057
    3        0.876   1.742   0.000   2.618
    4        0.876   1.683   0.000   2.560
    5        0.876   1.764   0.000   2.639
    6        0.876   1.764   0.000   2.639
    7        0.876   1.683   0.000   2.560
    8        0.876   1.742   0.000   2.618
--------------------------------------------------
tot          6.767  12.981   0.000  19.748
 
    CHARGE:  cpu time    0.0546: real time    0.0546
    FORLOC:  cpu time    0.0035: real time    0.0035
    FORNL :  cpu time    0.1069: real time    0.1069
    STRESS:  cpu time    0.5956: real time    0.5956
    FORCOR:  cpu time    0.0332: real time    0.0332
    FORHAR:  cpu time    0.0083: real time    0.0083
    MIXING:  cpu time    0.0012: real time    0.0012
    OFIELD:  cpu time    0.0000: real time    0.0000

  FORCE on cell =-STRESS in cart. coord.  units (eV):
  Direction    XX          YY          ZZ          XY          YZ          ZX
  --------------------------------------------------------------------------------------
  Alpha Z    25.67921    25.67921    25.67921
  Ewald    1597.01980  1597.02408 -2493.77342     0.00000     0.00000     0.00000
  Hartree  1587.83070  1587.83072 -1528.90838    -0.00000    -0.00000    -0.00000
  E(xc)    -107.43369  -107.43369  -111.26425     0.00000    -0.00000    -0.00000
  Local   -3512.89416 -3512.89620  3675.00525    -0.00000     0.00000    -0.00000
  n-local   -21.92817   -21.29656   -10.33294     0.31248     0.00000    -0.00000
  augment    -1.79887    -1.79880    -1.79081     0.00000     0.00000     0.00000
  Kinetic   436.58927   429.69584   445.22856    -4.50315    -0.00000     0.00000
  Fock        0.00000     0.00000     0.00000     0.00000     0.00000     0.00000
  -------------------------------------------------------------------------------------
  Total      -0.06565    -0.06565    -0.15678     0.00000    -0.00000    -0.00000
  in kB      -0.53248    -0.53248    -1.27162     0.00000    -0.00000    -0.00000
  external pressure =       -0.78 kB  Pullay stress =        0.00 kB


 VOLUME and BASIS-vectors are now :
 -----------------------------------------------------------------------------
  energy-cutoff  :      450.00
  volume of cell :      197.53
      direct lattice vectors                 reciprocal lattice vectors
     4.480848434  2.587018852  0.000000000     0.111586010  0.193272654  0.000000000
    -4.480848434  2.587018852  0.000000000    -0.111586010  0.193272654  0.000000000
     0.000000000  0.000000000  8.520221400     0.000000000  0.000000000  0.117367842

  length of vectors
     5.174038000  5.174038000  8.520221400     0.223172034  0.223172034  0.117367842


 FORCES acting on ions
    electron-ion (+dipol)            ewald-force                    non-local-force                 convergence-correction
 -----------------------------------------------------------------------------------------------
   -.581E-05 0.298E-04 -.223E-10   -.317E-03 -.466E-14 0.287E-18   0.104E-16 -.347E-17 0.165E-23   -.463E-09 -.171E-08 0.821E-13
   0.581E-05 0.298E-04 -.261E-10   0.317E-03 0.711E-14 0.692E-18   0.104E-16 0.694E-17 0.000E+00   0.463E-09 -.171E-08 0.823E-13
   0.256E+02 -.444E+02 -.353E-06   -.276E+02 0.479E+02 -.388E-17   0.200E+01 -.347E+01 0.662E-23   -.481E-04 0.833E-04 0.117E-12
   -.256E+02 -.444E+02 -.353E-06   0.276E+02 0.479E+02 -.333E-17   -.200E+01 -.347E+01 -.331E-23   0.481E-04 0.833E-04 0.117E-12
   -.513E+02 0.500E-03 0.249E-10   0.553E+02 0.123E-10 -.177E-17   -.401E+01 -.139E-16 0.132E-22   0.961E-04 0.372E-08 0.120E-12
   0.513E+02 0.500E-03 0.288E-10   -.553E+02 0.124E-10 -.199E-17   0.401E+01 -.139E-16 -.199E-22   -.961E-04 0.372E-08 0.122E-12
   0.256E+02 0.444E+02 0.353E-06   -.276E+02 -.479E+02 0.490E-17   0.200E+01 0.347E+01 0.331E-23   -.481E-04 -.832E-04 0.126E-12
   -.256E+02 0.444E+02 0.353E-06   0.276E+02 -.479E+02 0.510E-17   -.200E+01 0.347E+01 -.662E-23   0.481E-04 -.832E-04 0.123E-12
 -----------------------------------------------------------------------------------------------
   0.120E-11 0.349E-02 0.117E-09   0.000E+00 -.142E-13 0.000E+00   -.444E-15 0.444E-15 -.496E-23   0.301E-14 0.567E-08 0.890E-12
 
 
 POSITION                                       TOTAL-FORCE (eV/Angst)
 -----------------------------------------------------------------------------------
     -1.49361      2.58702      2.13006         0.000000     -0.000000     -0.000000
      1.49361      2.58702      2.13006         0.000000     -0.000000     -0.000000
     -0.71108      1.23161      2.13006        -0.000653      0.001131      0.000000
      0.71108      1.23161      2.13006         0.000653      0.001131      0.000000
     -3.05870      2.58702      2.13006         0.001306     -0.000000     -0.000000
      3.05870      2.58702      2.13006        -0.001306     -0.000000      0.000000
     -0.71108      3.94242      2.13006        -0.000653     -0.001131     -0.000000
      0.71108      3.94242      2.13006         0.000653     -0.001131     -0.000000
 -----------------------------------------------------------------------------------
    total drift:                                0.000000      0.003492      0.000000


--------------------------------------------------------------------------------------------------------



  FREE ENERGIE OF THE ION-ELECTRON SYSTEM (eV)
  ---------------------------------------------------
  free  energy   TOTEN  =       -67.22773023 eV

  energy  without entropy=      -67.22773016  energy(sigma->0) =      -67.22773020
 


--------------------------------------------------------------------------------------------------------


    POTLOK:  cpu time    0.0328: real time    0.0328


--------------------------------------------------------------------------------------------------------


 
 Found     4 degrees of freedom:
  ----------------------------------------------
 
     directions for atom     1:  z 
     directions for atom     3:  z 
 Linear response reoptimize wavefunctions
 Linear response:
   Degrees of freedom DOF   =            4
 Linear response progress:
  Degree of freedom:   1/  4
  LATTYP: Found a hexagonal cell.
 ALAT       =     5.1740377035
 C/A-ratio  =     1.6467258045
  
  Lattice vectors:
  
 A1 = (   4.4808484340,   2.5870188517,   0.0000000000)
 A2 = (  -4.4808484340,   2.5870188517,   0.0000000000)
 A3 = (   0.0000000000,   0.0000000000,   8.5202213998)


Analysis of symmetry for initial positions (statically):
=====================================================================
 Subroutine PRICEL returns:
 Original cell was already a primitive cell.
 

 Routine SETGRP: Setting up the symmetry group for a 
 hexagonal supercell.


 Subroutine GETGRP returns: Found 24 space group operations
 (whereof 12 operations were pure point group operations)
 out of a pool of 24 trial point group operations.


The static configuration has the point symmetry C_6v.
 The point group associated with its full space group is D_6h.


Analysis of symmetry for dynamics (positions and initial velocities):
=====================================================================
 Subroutine PRICEL returns:
 Original cell was already a primitive cell.
 

 Routine SETGRP: Setting up the symmetry group for a 
 hexagonal supercell.


 Subroutine GETGRP returns: Found  4 space group operations
 (whereof  2 operations were pure point group operations)
 out of a pool of 24 trial point group operations.


The dynamic configuration has the point symmetry C_1h.
 The point group associated with its full space group is C_2v.


 Subroutine INISYM returns: Found  4 space group operations
 (whereof  2 operations are pure point group operations),
 and found     1 'primitive' translations

 
 KPOINTS: K-points for BC3                        

Automatic generation of k-mesh.
Space group operators:
 irot       det(A)        alpha          n_x          n_y          n_z        tau_x        tau_y        tau_z
    1     1.000000     0.000000     1.000000     0.000000     0.000000     0.000000     0.000000     0.000000
    2    -1.000000   180.000000     0.000000     1.000000     0.000000     0.000000     0.000000     0.000000
    3    -1.000000   180.000000     0.000000     0.000000     1.000000     0.000000     0.000000     0.500000
    4     1.000000   180.000000     1.000000     0.000000     0.000000     0.000000     0.000000     0.500000
 
 Subroutine IBZKPT returns following result:
 ===========================================
 
 Found     43 irreducible k-points:
 
 Following reciprocal coordinates:
            Coordinates               Weight
  0.000000  0.000000  0.000000      1.000000
  0.083333  0.000000  0.000000      4.000000
  0.166667  0.000000  0.000000      4.000000
  0.250000 -0.000000  0.000000      4.000000
  0.333333 -0.000000  0.000000      4.000000
  0.416667  0.000000  0.000000      4.000000
  0.500000 -0.000000  0.000000      2.000000
  0.083333  0.083333  0.000000      2.000000
  0.166667  0.083333  0.000000      4.000000
  0.250000  0.083333  0.000000      4.000000
  0.333333  0.083333  0.000000      4.000000
  0.416667  0.083333  0.000000      4.000000
  0.500000  0.083333  0.000000      4.000000
 -0.416667  0.083333  0.000000      4.000000
 -0.333333  0.083333  0.000000      4.000000
 -0.250000  0.083333  0.000000      4.000000
 -0.166667  0.083333  0.000000      4.000000
 -0.083333  0.083333  0.000000      2.000000
  0.166667  0.166667  0.000000      2.000000
  0.250000  0.166667  0.000000      4.000000
  0.333333  0.166667  0.000000      4.000000
  0.416667  0.166667  0.000000      4.000000
  0.500000  0.166667  0.000000      4.000000
 -0.416667  0.166667  0.000000      4.000000
 -0.333333  0.166667  0.000000      4.000000
 -0.250000  0.166667  0.000000      4.000000
 -0.166667  0.166667  0.000000      2.000000
  0.250000  0.250000  0.000000      2.000000
  0.333333  0.250000  0.000000      4.000000
  0.416667  0.250000  0.000000      4.000000
  0.500000  0.250000  0.000000      4.000000
 -0.416667  0.250000  0.000000      4.000000
 -0.333333  0.250000  0.000000      4.000000
 -0.250000  0.250000  0.000000      2.000000
  0.333333  0.333333  0.000000      2.000000
  0.416667  0.333333  0.000000      4.000000
  0.500000  0.333333  0.000000      4.000000
 -0.416667  0.333333  0.000000      4.000000
 -0.333333  0.333333  0.000000      2.000000
  0.416667  0.416667  0.000000      2.000000
  0.500000  0.416667  0.000000      4.000000
 -0.416667  0.416667  0.000000      2.000000
  0.500000  0.500000  0.000000      1.000000
 
 Following cartesian coordinates:
            Coordinates               Weight
  0.000000  0.000000  0.000000      1.000000
  0.009299  0.016106  0.000000      4.000000
  0.018598  0.032212  0.000000      4.000000
  0.027897  0.048318  0.000000      4.000000
  0.037195  0.064424  0.000000      4.000000
  0.046494  0.080530  0.000000      4.000000
  0.055793  0.096636  0.000000      2.000000
  0.000000  0.032212  0.000000      2.000000
  0.009299  0.048318  0.000000      4.000000
  0.018598  0.064424  0.000000      4.000000
  0.027897  0.080530  0.000000      4.000000
  0.037195  0.096636  0.000000      4.000000
  0.046494  0.112742  0.000000      4.000000
 -0.055793 -0.064424  0.000000      4.000000
 -0.046494 -0.048318  0.000000      4.000000
 -0.037195 -0.032212  0.000000      4.000000
 -0.027897 -0.016106  0.000000      4.000000
 -0.018598  0.000000  0.000000      2.000000
  0.000000  0.064424  0.000000      2.000000
  0.009299  0.080530  0.000000      4.000000
  0.018598  0.096636  0.000000      4.000000
  0.027897  0.112742  0.000000      4.000000
  0.037195  0.128848  0.000000      4.000000
 -0.065092 -0.048318  0.000000      4.000000
 -0.055793 -0.032212  0.000000      4.000000
 -0.046494 -0.016106  0.000000      4.000000
 -0.037195  0.000000  0.000000      2.000000
  0.000000  0.096636  0.000000      2.000000
  0.009299  0.112742  0.000000      4.000000
  0.018598  0.128848  0.000000      4.000000
  0.027897  0.144954  0.000000      4.000000
 -0.074391 -0.032212  0.000000      4.000000
 -0.065092 -0.016106  0.000000      4.000000
 -0.055793  0.000000  0.000000      2.000000
  0.000000  0.128848  0.000000      2.000000
  0.009299  0.144954  0.000000      4.000000
  0.018598  0.161061  0.000000      4.000000
 -0.083690 -0.016106  0.000000      4.000000
 -0.074391  0.000000  0.000000      2.000000
  0.000000  0.161061  0.000000      2.000000
  0.009299  0.177167  0.000000      4.000000
 -0.092988  0.000000  0.000000      2.000000
  0.000000  0.193273  0.000000      1.000000
 


----------------------------------------- Iteration    4(   1)  ---------------------------------------


   POT+DIJ:  cpu time    0.1547: real time    0.1547
    HAMIL1:  cpu time    0.3778: real time    0.3778
    LRDIAG:  cpu time    0.0475: real time    0.0475
    LRDIIS:  cpu time    1.8759: real time    1.8761
    LRDIAG:  cpu time    0.0433: real time    0.0433
    --------------------------------------------
      LOOP:  cpu time    2.5000: real time    2.5002

 Free energy of the ion-electron system (eV)
  ---------------------------------------------------
  -Hartree energ DENC   =        -0.00813287
  -V(xc)+E(xc)   XCENC  =         0.00022657
  PAW double counting   =         0.00000000        0.00000000
  entropy T*S    EENTRO =        -0.00000000
  eigenvalues    EBANDS =        -0.05394268
  ---------------------------------------------------
  free energy    TOTEN  =        -0.06184898 eV

  energy without entropy =       -0.06184898


----------------------------------------- Iteration    4(   2)  ---------------------------------------


   POT+DIJ:  cpu time    0.1538: real time    0.1538
    HAMIL1:  cpu time    0.3778: real time    0.3778
    LRDIAG:  cpu time    0.0470: real time    0.0470
    LRDIIS:  cpu time    1.3578: real time    1.3578
    LRDIAG:  cpu time    0.0431: real time    0.0431
    MIXING:  cpu time    0.0009: real time    0.0009
    --------------------------------------------
      LOOP:  cpu time    2.2095: real time    2.2095

 Broyden mixing:
  rms(total) = 0.10404E+01    rms(broyden)= 0.10378E+01
  rms(prec ) = 0.14292E+01
  weight for this iteration     100.00

 Free energy of the ion-electron system (eV)
  ---------------------------------------------------
  -Hartree energ DENC   =        -0.00813287
  -V(xc)+E(xc)   XCENC  =         0.00022657
  PAW double counting   =         0.00000000        0.00000000
  entropy T*S    EENTRO =        -0.00000000
  eigenvalues    EBANDS =        -0.04164162
  ---------------------------------------------------
  free energy    TOTEN  =        -0.04954792 eV

  energy without entropy =       -0.04954792


----------------------------------------- Iteration    4(   3)  ---------------------------------------


   POT+DIJ:  cpu time    0.1532: real time    0.1532
    HAMIL1:  cpu time    0.3747: real time    0.3747
    LRDIAG:  cpu time    0.0471: real time    0.0471
    LRDIIS:  cpu time    1.1860: real time    1.1860
    LRDIAG:  cpu time    0.0429: real time    0.0429
    MIXING:  cpu time    0.0009: real time    0.0009
    --------------------------------------------
      LOOP:  cpu time    2.0341: real time    2.0340

 Broyden mixing:
  rms(total) = 0.50880E+00    rms(broyden)= 0.50853E+00
  rms(prec ) = 0.60080E+00
  weight for this iteration     100.00

 eigenvalues of (default mixing * dielectric matrix)
  average eigenvalue GAMMA=   1.3590
  1.3590

 Free energy of the ion-electron system (eV)
  ---------------------------------------------------
  -Hartree energ DENC   =        -0.01072695
  -V(xc)+E(xc)   XCENC  =         0.00025907
  PAW double counting   =         0.00661158       -0.00661059
  entropy T*S    EENTRO =        -0.00000000
  eigenvalues    EBANDS =        -0.03847462
  ---------------------------------------------------
  free energy    TOTEN  =        -0.04894151 eV

  energy without entropy =       -0.04894151


----------------------------------------- Iteration    4(   4)  ---------------------------------------


   POT+DIJ:  cpu time    0.1532: real time    0.1532
