PROCAR lm decomposed
# of k-points:   19         # of bands:   24         # of ions:    8

 k-point     1 :    0.00000000 0.00000000 0.00000000     weight = 0.00694444

band     1 # energy  -18.54033326 # occ.  2.00000000
 
ion      s     py     pz     px    dxy    dyz    dz2    dxz  x2-y2    tot
    1  0.028  0.000  0.000  0.000  0.000  0.000  0.000  0.000  0.000  0.028
    2  0.028  0.000  0.000  0.000  0.000  0.000  0.000  0.000  0.000  0.028
    3  0.093  0.004  0.000  0.001  0.000  0.000  0.000  0.000  0.000  0.098
    4  0.093  0.004  0.000  0.001  0.000  0.000  0.000  0.000  0.000  0.098
    5  0.093  0.000  0.000  0.005  0.000  0.000  0.000  0.000  0.000  0.098
    6  0.093  0.000  0.000  0.005  0.000  0.000  0.000  0.000  0.000  0.098
    7  0.093  0.004  0.000  0.001  0.000  0.000  0.000  0.000  0.000  0.098
    8  0.093  0.004  0.000  0.001  0.000  0.000  0.000  0.000  0.000  0.098
tot    0.612  0.015  0.000  0.015  0.000  0.000  0.000  0.000  0.000  0.642
 
band     2 # energy  -14.64883319 # occ.  2.00000000
 
ion      s     py     pz     px    dxy    dyz    dz2    dxz  x2-y2    tot
    1  0.000  0.000  0.000  0.014  0.000  0.000  0.000  0.000  0.000  0.014
    2  0.000  0.000  0.000  0.014  0.000  0.000  0.000  0.000  0.000  0.014
    3  0.049  0.011  0.000  0.011  0.000  0.000  0.000  0.000  0.000  0.071
    4  0.049  0.011  0.000  0.011  0.000  0.000  0.000  0.000  0.000  0.071
    5  0.195  0.000  0.000  0.006  0.000  0.000  0.000  0.000  0.000  0.201
    6  0.195  0.000  0.000  0.006  0.000  0.000  0.000  0.000  0.000  0.201
    7  0.049  0.011  0.000  0.011  0.000  0.000  0.000  0.000  0.000  0.071
    8  0.049  0.011  0.000  0.011  0.000  0.000  0.000  0.000  0.000  0.071
tot    0.586  0.044  0.000  0.083  0.000  0.000  0.000  0.000  0.000  0.713
 
band     3 # energy  -14.64878004 # occ.  2.00000000
 
ion      s     py     pz     px    dxy    dyz    dz2    dxz  x2-y2    tot
    1  0.000  0.014  0.000  0.000  0.000  0.000  0.000  0.000  0.000  0.014
    2  0.000  0.014  0.000  0.000  0.000  0.000  0.000  0.000  0.000  0.014
    3  0.146  0.000  0.000  0.011  0.000  0.000  0.000  0.000  0.000  0.158
    4  0.146  0.000  0.000  0.011  0.000  0.000  0.000  0.000  0.000  0.158
    5  0.000  0.027  0.000  0.000  0.000  0.000  0.000  0.000  0.000  0.027
    6  0.000  0.027  0.000  0.000  0.000  0.000  0.000  0.000  0.000  0.027
    7  0.146  0.000  0.000  0.011  0.000  0.000  0.000  0.000  0.000  0.158
    8  0.146  0.000  0.000  0.011  0.000  0.000  0.000  0.000  0.000  0.158
tot    0.586  0.083  0.000  0.044  0.000  0.000  0.000  0.000  0.000  0.713
 
band     4 # energy  -12.29923127 # occ.  2.00000000
 
ion      s     py     pz     px    dxy    dyz    dz2    dxz  x2-y2    tot
    1  0.000  0.054  0.000  0.000  0.000  0.000  0.000  0.000  0.000  0.054
    2  0.000  0.054  0.000  0.000  0.000  0.000  0.000  0.000  0.000  0.054
    3  0.072  0.001  0.000  0.023  0.000  0.000  0.000  0.000  0.000  0.096
    4  0.072  0.001  0.000  0.023  0.000  0.000  0.000  0.000  0.000  0.096
    5  0.000  0.087  0.000  0.000  0.000  0.000  0.000  0.000  0.000  0.087
    6  0.000  0.087  0.000  0.000  0.000  0.000  0.000  0.000  0.000  0.087
    7  0.072  0.001  0.000  0.023  0.000  0.000  0.000  0.000  0.000  0.096
    8  0.072  0.001  0.000  0.023  0.000  0.000  0.000  0.000  0.000  0.096
tot    0.289  0.286  0.000  0.094  0.000  0.000  0.000  0.000  0.000  0.668
 
band     5 # energy  -12.29916907 # occ.  2.00000000
 
ion      s     py     pz     px    dxy    dyz    dz2    dxz  x2-y2    tot
    1  0.000  0.000  0.000  0.054  0.000  0.000  0.000  0.000  0.000  0.054
    2  0.000  0.000  0.000  0.054  0.000  0.000  0.000  0.000  0.000  0.054
    3  0.024  0.023  0.000  0.043  0.000  0.000  0.000  0.000  0.000  0.090
    4  0.024  0.023  0.000  0.043  0.000  0.000  0.000  0.000  0.000  0.090
    5  0.096  0.000  0.000  0.003  0.000  0.000  0.000  0.000  0.000  0.100
    6  0.096  0.000  0.000  0.003  0.000  0.000  0.000  0.000  0.000  0.100
    7  0.024  0.023  0.000  0.043  0.000  0.000  0.000  0.000  0.000  0.090
    8  0.024  0.023  0.000  0.043  0.000  0.000  0.000  0.000  0.000  0.090
tot    0.289  0.094  0.000  0.286  0.000  0.000  0.000  0.000  0.000  0.668
 
band     6 # energy  -11.23071890 # occ.  2.00000000
 
ion      s     py     pz     px    dxy    dyz    dz2    dxz  x2-y2    tot
    1  0.121  0.000  0.000  0.000  0.000  0.000  0.000  0.000  0.000  0.121
    2  0.121  0.000  0.000  0.000  0.000  0.000  0.000  0.000  0.000  0.121
    3  0.000  0.047  0.000  0.016  0.000  0.000  0.000  0.000  0.000  0.063
    4  0.000  0.047  0.000  0.016  0.000  0.000  0.000  0.000  0.000  0.063
    5  0.000  0.000  0.000  0.062  0.000  0.000  0.000  0.000  0.000  0.063
    6  0.000  0.000  0.000  0.062  0.000  0.000  0.000  0.000  0.000  0.063
    7  0.000  0.047  0.000  0.016  0.000  0.000  0.000  0.000  0.000  0.063
    8  0.000  0.047  0.000  0.016  0.000  0.000  0.000  0.000  0.000  0.063
tot    0.245  0.187  0.000  0.187  0.000  0.000  0.000  0.000  0.000  0.618
 
band     7 # energy   -9.91354855 # occ.  2.00000000
 
ion      s     py     pz     px    dxy    dyz    dz2    dxz  x2-y2    tot
    1  0.201  0.000  0.000  0.000  0.000  0.000  0.000  0.000  0.000  0.201
    2  0.201  0.000  0.000  0.000  0.000  0.000  0.000  0.000  0.000  0.201
    3  0.030  0.016  0.000  0.005  0.000  0.000  0.000  0.000  0.000  0.051
    4  0.030  0.016  0.000  0.005  0.000  0.000  0.000  0.000  0.000  0.051
    5  0.030  0.000  0.000  0.021  0.000  0.000  0.000  0.000  0.000  0.051
    6  0.030  0.000  0.000  0.021  0.000  0.000  0.000  0.000  0.000  0.051
    7  0.030  0.016  0.000  0.005  0.000  0.000  0.000  0.000  0.000  0.051
    8  0.030  0.016  0.000  0.005  0.000  0.000  0.000  0.000  0.000  0.051
tot    0.581  0.064  0.000  0.064  0.000  0.000  0.000  0.000  0.000  0.708
 
band     8 # energy   -7.34520500 # occ.  2.00000000
 
ion      s     py     pz     px    dxy    dyz    dz2    dxz  x2-y2    tot
    1  0.000  0.000  0.032  0.000  0.000  0.000  0.000  0.000  0.000  0.032
    2  0.000  0.000  0.032  0.000  0.000  0.000  0.000  0.000  0.000  0.032
    3  0.000  0.000  0.059  0.000  0.000  0.000  0.000  0.000  0.000  0.059
    4  0.000  0.000  0.059  0.000  0.000  0.000  0.000  0.000  0.000  0.059
    5  0.000  0.000  0.059  0.000  0.000  0.000  0.000  0.000  0.000  0.059
    6  0.000  0.000  0.059  0.000  0.000  0.000  0.000  0.000  0.000  0.059
    7  0.000  0.000  0.059  0.000  0.000  0.000  0.000  0.000  0.000  0.059
    8  0.000  0.000  0.059  0.000  0.000  0.000  0.000  0.000  0.000  0.059
tot    0.000  0.000  0.416  0.000  0.000  0.000  0.000  0.000  0.000  0.416
 
band     9 # energy   -7.12489840 # occ.  2.00000000
 
ion      s     py     pz     px    dxy    dyz    dz2    dxz  x2-y2    tot
    1  0.000  0.000  0.000  0.000  0.000  0.000  0.000  0.000  0.000  0.000
    2  0.000  0.000  0.000  0.000  0.000  0.000  0.000  0.000  0.000  0.000
    3  0.000  0.032  0.000  0.096  0.000  0.000  0.000  0.000  0.000  0.128
    4  0.000  0.032  0.000  0.096  0.000  0.000  0.000  0.000  0.000  0.128
    5  0.000  0.128  0.000  0.000  0.000  0.000  0.000  0.000  0.000  0.128
    6  0.000  0.128  0.000  0.000  0.000  0.000  0.000  0.000  0.000  0.128
    7  0.000  0.032  0.000  0.096  0.000  0.000  0.000  0.000  0.000  0.128
    8  0.000  0.032  0.000  0.096  0.000  0.000  0.000  0.000  0.000  0.128
tot    0.000  0.383  0.000  0.383  0.000  0.000  0.000  0.000  0.000  0.767
 
band    10 # energy   -4.97097750 # occ.  2.00000000
 
ion      s     py     pz     px    dxy    dyz    dz2    dxz  x2-y2    tot
    1  0.000  0.130  0.000  0.000  0.000  0.000  0.000  0.000  0.000  0.130
    2  0.000  0.130  0.000  0.000  0.000  0.000  0.000  0.000  0.000  0.130
    3  0.000  0.074  0.000  0.046  0.000  0.000  0.000  0.000  0.000  0.121
    4  0.000  0.074  0.000  0.046  0.000  0.000  0.000  0.000  0.000  0.121
    5  0.000  0.010  0.000  0.000  0.000  0.000  0.000  0.000  0.000  0.010
    6  0.000  0.010  0.000  0.000  0.000  0.000  0.000  0.000  0.000  0.010
    7  0.000  0.074  0.000  0.046  0.000  0.000  0.000  0.000  0.000  0.121
    8  0.000  0.074  0.000  0.046  0.000  0.000  0.000  0.000  0.000  0.121
tot    0.002  0.578  0.000  0.186  0.000  0.000  0.000  0.000  0.000  0.766
 
band    11 # energy   -4.97095903 # occ.  2.00000000
 
ion      s     py     pz     px    dxy    dyz    dz2    dxz  x2-y2    tot
    1  0.000  0.000  0.000  0.130  0.000  0.000  0.000  0.000  0.000  0.130
    2  0.000  0.000  0.000  0.130  0.000  0.000  0.000  0.000  0.000  0.130
    3  0.000  0.046  0.000  0.001  0.000  0.000  0.000  0.000  0.000  0.047
    4  0.000  0.046  0.000  0.001  0.000  0.000  0.000  0.000  0.000  0.047
    5  0.001  0.000  0.000  0.158  0.000  0.000  0.000  0.000  0.000  0.158
    6  0.001  0.000  0.000  0.158  0.000  0.000  0.000  0.000  0.000  0.158
    7  0.000  0.046  0.000  0.001  0.000  0.000  0.000  0.000  0.000  0.047
    8  0.000  0.046  0.000  0.001  0.000  0.000  0.000  0.000  0.000  0.047
tot    0.002  0.186  0.000  0.578  0.000  0.000  0.000  0.000  0.000  0.766
 
band    12 # energy   -3.14928144 # occ.  2.00000000
 
ion      s     py     pz     px    dxy    dyz    dz2    dxz  x2-y2    tot
    1  0.000  0.000  0.000  0.000  0.000  0.000  0.000  0.000  0.000  0.000
    2  0.000  0.000  0.000  0.000  0.000  0.000  0.000  0.000  0.000  0.000
    3  0.000  0.000  0.041  0.000  0.000  0.000  0.000  0.000  0.000  0.041
    4  0.000  0.000  0.041  0.000  0.000  0.000  0.000  0.000  0.000  0.041
    5  0.000  0.000  0.164  0.000  0.000  0.000  0.000  0.000  0.000  0.164
    6  0.000  0.000  0.164  0.000  0.000  0.000  0.000  0.000  0.000  0.164
    7  0.000  0.000  0.041  0.000  0.000  0.000  0.000  0.000  0.000  0.041
    8  0.000  0.000  0.041  0.000  0.000  0.000  0.000  0.000  0.000  0.041
tot    0.000  0.000  0.491  0.000  0.000  0.000  0.000  0.000  0.000  0.491
 
band    13 # energy   -3.14924499 # occ.  2.00000000
 
ion      s     py     pz     px    dxy    dyz    dz2    dxz  x2-y2    tot
    1  0.000  0.000  0.000  0.000  0.000  0.000  0.000  0.000  0.000  0.000
    2  0.000  0.000  0.000  0.000  0.000  0.000  0.000  0.000  0.000  0.000
    3  0.000  0.000  0.123  0.000  0.000  0.000  0.000  0.000  0.000  0.123
    4  0.000  0.000  0.123  0.000  0.000  0.000  0.000  0.000  0.000  0.123
    5  0.000  0.000  0.000  0.000  0.000  0.000  0.000  0.000  0.000  0.000
    6  0.000  0.000  0.000  0.000  0.000  0.000  0.000  0.000  0.000  0.000
    7  0.000  0.000  0.123  0.000  0.000  0.000  0.000  0.000  0.000  0.123
    8  0.000  0.000  0.123  0.000  0.000  0.000  0.000  0.000  0.000  0.123
tot    0.000  0.000  0.491  0.000  0.000  0.000  0.000  0.000  0.000  0.491
 
band    14 # energy   -2.46668125 # occ.  1.99999319
 
ion      s     py     pz     px    dxy    dyz    dz2    dxz  x2-y2    tot
    1  0.000  0.106  0.000  0.000  0.000  0.000  0.000  0.000  0.000  0.106
    2  0.000  0.106  0.000  0.000  0.000  0.000  0.000  0.000  0.000  0.106
    3  0.001  0.101  0.000  0.000  0.000  0.000  0.000  0.000  0.000  0.102
    4  0.001  0.101  0.000  0.000  0.000  0.000  0.000  0.000  0.000  0.102
    5  0.000  0.092  0.000  0.000  0.000  0.000  0.000  0.000  0.000  0.092
    6  0.000  0.092  0.000  0.000  0.000  0.000  0.000  0.000  0.000  0.092
    7  0.001  0.101  0.000  0.000  0.000  0.000  0.000  0.000  0.000  0.102
    8  0.001  0.101  0.000  0.000  0.000  0.000  0.000  0.000  0.000  0.102
tot    0.003  0.801  0.000  0.000  0.000  0.000  0.000  0.000  0.000  0.804
 
band    15 # energy   -2.46657715 # occ.  1.99999314
 
ion      s     py     pz     px    dxy    dyz    dz2    dxz  x2-y2    tot
    1  0.000  0.000  0.000  0.106  0.000  0.000  0.000  0.000  0.000  0.106
    2  0.000  0.000  0.000  0.106  0.000  0.000  0.000  0.000  0.000  0.106
    3  0.000  0.000  0.000  0.095  0.000  0.000  0.000  0.000  0.000  0.095
    4  0.000  0.000  0.000  0.095  0.000  0.000  0.000  0.000  0.000  0.095
    5  0.001  0.000  0.000  0.105  0.000  0.000  0.000  0.000  0.000  0.105
    6  0.001  0.000  0.000  0.105  0.000  0.000  0.000  0.000  0.000  0.105
    7  0.000  0.000  0.000  0.095  0.000  0.000  0.000  0.000  0.000  0.095
    8  0.000  0.000  0.000  0.095  0.000  0.000  0.000  0.000  0.000  0.095
tot    0.003  0.000  0.000  0.801  0.000  0.000  0.000  0.000  0.000  0.804
 
band    16 # energy   -0.63146493 # occ.  0.00000000
 
ion      s     py     pz     px    dxy    dyz    dz2    dxz  x2-y2    tot
    1  0.000  0.000  0.175  0.000  0.000  0.000  0.000  0.000  0.000  0.175
    2  0.000  0.000  0.175  0.000  0.000  0.000  0.000  0.000  0.000  0.175
    3  0.000  0.000  0.023  0.000  0.000  0.000  0.000  0.000  0.000  0.023
    4  0.000  0.000  0.023  0.000  0.000  0.000  0.000  0.000  0.000  0.023
    5  0.000  0.000  0.023  0.000  0.000  0.000  0.000  0.000  0.000  0.023
    6  0.000  0.000  0.023  0.000  0.000  0.000  0.000  0.000  0.000  0.023
    7  0.000  0.000  0.023  0.000  0.000  0.000  0.000  0.000  0.000  0.023
    8  0.000  0.000  0.023  0.000  0.000  0.000  0.000  0.000  0.000  0.023
tot    0.000  0.000  0.491  0.000  0.000  0.000  0.000  0.000  0.000  0.491
 
band    17 # energy    1.10112753 # occ.  0.00000000
 
ion      s     py     pz     px    dxy    dyz    dz2    dxz  x2-y2    tot
    1  0.000  0.000  0.000  0.000  0.000  0.000  0.000  0.000  0.000  0.000
    2  0.000  0.000  0.000  0.000  0.000  0.000  0.000  0.000  0.000  0.000
    3  0.000  0.000  0.107  0.000  0.000  0.000  0.000  0.000  0.000  0.107
    4  0.000  0.000  0.107  0.000  0.000  0.000  0.000  0.000  0.000  0.107
    5  0.000  0.000  0.000  0.000  0.000  0.000  0.000  0.000  0.000  0.000
    6  0.000  0.000  0.000  0.000  0.000  0.000  0.000  0.000  0.000  0.000
    7  0.000  0.000  0.107  0.000  0.000  0.000  0.000  0.000  0.000  0.107
    8  0.000  0.000  0.107  0.000  0.000  0.000  0.000  0.000  0.000  0.107
tot    0.000  0.000  0.428  0.000  0.000  0.000  0.000  0.000  0.000  0.428
 
band    18 # energy    1.10116793 # occ.  0.00000000
 
ion      s     py     pz     px    dxy    dyz    dz2    dxz  x2-y2    tot
    1  0.000  0.000  0.000  0.000  0.000  0.000  0.000  0.000  0.000  0.000
    2  0.000  0.000  0.000  0.000  0.000  0.000  0.000  0.000  0.000  0.000
    3  0.000  0.000  0.036  0.000  0.000  0.000  0.000  0.000  0.000  0.036
    4  0.000  0.000  0.036  0.000  0.000  0.000  0.000  0.000  0.000  0.036
    5  0.000  0.000  0.143  0.000  0.000  0.000  0.000  0.000  0.000  0.143
    6  0.000  0.000  0.143  0.000  0.000  0.000  0.000  0.000  0.000  0.143
    7  0.000  0.000  0.036  0.000  0.000  0.000  0.000  0.000  0.000  0.036
    8  0.000  0.000  0.036  0.000  0.000  0.000  0.000  0.000  0.000  0.036
tot    0.000  0.000  0.428  0.000  0.000  0.000  0.000  0.000  0.000  0.428
 
band    19 # energy    1.79059721 # occ.  0.00000000
 
ion      s     py     pz     px    dxy    dyz    dz2    dxz  x2-y2    tot
    1  0.000  0.000  0.138  0.000  0.000  0.000  0.000  0.000  0.000  0.138
    2  0.000  0.000  0.138  0.000  0.000  0.000  0.000  0.000  0.000  0.138
    3  0.000  0.000  0.017  0.000  0.000  0.000  0.000  0.000  0.000  0.017
    4  0.000  0.000  0.017  0.000  0.000  0.000  0.000  0.000  0.000  0.017
    5  0.000  0.000  0.017  0.000  0.000  0.000  0.000  0.000  0.000  0.017
    6  0.000  0.000  0.017  0.000  0.000  0.000  0.000  0.000  0.000  0.017
    7  0.000  0.000  0.017  0.000  0.000  0.000  0.000  0.000  0.000  0.017
    8  0.000  0.000  0.017  0.000  0.000  0.000  0.000  0.000  0.000  0.017
tot    0.000  0.000  0.379  0.000  0.000  0.000  0.000  0.000  0.000  0.379
 
band    20 # energy    1.92123701 # occ.  0.00000000
 
ion      s     py     pz     px    dxy    dyz    dz2    dxz  x2-y2    tot
    1  0.001  0.000  0.000  0.000  0.000  0.000  0.000  0.000  0.000  0.001
    2  0.001  0.000  0.000  0.000  0.000  0.000  0.000  0.000  0.000  0.001
    3  0.003  0.000  0.000  0.000  0.000  0.000  0.000  0.000  0.000  0.003
    4  0.003  0.000  0.000  0.000  0.000  0.000  0.000  0.000  0.000  0.003
    5  0.003  0.000  0.000  0.000  0.000  0.000  0.000  0.000  0.000  0.003
    6  0.003  0.000  0.000  0.000  0.000  0.000  0.000  0.000  0.000  0.003
    7  0.003  0.000  0.000  0.000  0.000  0.000  0.000  0.000  0.000  0.003
    8  0.003  0.000  0.000  0.000  0.000  0.000  0.000  0.000  0.000  0.003
tot    0.019  0.001  0.000  0.001  0.000  0.000  0.000  0.000  0.000  0.021
 
band    21 # energy    4.52065914 # occ.  0.00000000
 
ion      s     py     pz     px    dxy    dyz    dz2    dxz  x2-y2    tot
    1  0.000  0.000  0.034  0.000  0.000  0.000  0.000  0.000  0.000  0.034
    2  0.000  0.000  0.034  0.000  0.000  0.000  0.000  0.000  0.000  0.034
    3  0.000  0.000  0.004  0.000  0.000  0.000  0.000  0.000  0.000  0.004
    4  0.000  0.000  0.004  0.000  0.000  0.000  0.000  0.000  0.000  0.004
    5  0.000  0.000  0.004  0.000  0.000  0.000  0.000  0.000  0.000  0.004
    6  0.000  0.000  0.004  0.000  0.000  0.000  0.000  0.000  0.000  0.004
    7  0.000  0.000  0.004  0.000  0.000  0.000  0.000  0.000  0.000  0.004
    8  0.000  0.000  0.004  0.000  0.000  0.000  0.000  0.000  0.000  0.004
tot    0.000  0.000  0.091  0.000  0.000  0.000  0.000  0.000  0.000  0.091
 
band    22 # energy    5.91194139 # occ.  0.00000000
 
ion      s     py     pz     px    dxy    dyz    dz2    dxz  x2-y2    tot
    1  0.005  0.000  0.000  0.000  0.000  0.000  0.000  0.000  0.000  0.005
    2  0.005  0.000  0.000  0.000  0.000  0.000  0.000  0.000  0.000  0.005
    3  0.009  0.002  0.000  0.001  0.000  0.000  0.000  0.000  0.000  0.012
    4  0.009  0.002  0.000  0.001  0.000  0.000  0.000  0.000  0.000  0.012
    5  0.009  0.000  0.000  0.002  0.000  0.000  0.000  0.000  0.000  0.012
    6  0.009  0.000  0.000  0.002  0.000  0.000  0.000  0.000  0.000  0.012
    7  0.009  0.002  0.000  0.001  0.000  0.000  0.000  0.000  0.000  0.012
    8  0.009  0.002  0.000  0.001  0.000  0.000  0.000  0.000  0.000  0.012
tot    0.066  0.007  0.000  0.007  0.000  0.000  0.000  0.000  0.000  0.081
 
band    23 # energy    6.31509254 # occ.  0.00000000
 
ion      s     py     pz     px    dxy    dyz    dz2    dxz  x2-y2    tot
    1  0.000  0.000  0.000  0.020  0.000  0.000  0.000  0.000  0.000  0.020
    2  0.000  0.000  0.000  0.020  0.000  0.000  0.000  0.000  0.000  0.020
    3  0.027  0.002  0.000  0.005  0.000  0.000  0.000  0.000  0.000  0.034
    4  0.027  0.002  0.000  0.005  0.000  0.000  0.000  0.000  0.000  0.034
    5  0.110  0.000  0.000  0.000  0.000  0.000  0.000  0.000  0.000  0.110
    6  0.110  0.000  0.000  0.000  0.000  0.000  0.000  0.000  0.000  0.110
    7  0.027  0.002  0.000  0.005  0.000  0.000  0.000  0.000  0.000  0.034
    8  0.027  0.002  0.000  0.005  0.000  0.000  0.000  0.000  0.000  0.034
tot    0.329  0.010  0.000  0.059  0.000  0.000  0.000  0.000  0.000  0.398
 
band    24 # energy    6.31511231 # occ.  0.00000000
 
ion      s     py     pz     px    dxy    dyz    dz2    dxz  x2-y2    tot
    1  0.000  0.020  0.000  0.000  0.000  0.000  0.000  0.000  0.000  0.020
    2  0.000  0.020  0.000  0.000  0.000  0.000  0.000  0.000  0.000  0.020
    3  0.082  0.000  0.000  0.002  0.000  0.000  0.000  0.000  0.000  0.085
    4  0.082  0.000  0.000  0.002  0.000  0.000  0.000  0.000  0.000  0.085
    5  0.000  0.009  0.000  0.000  0.000  0.000  0.000  0.000  0.000  0.009
    6  0.000  0.009  0.000  0.000  0.000  0.000  0.000  0.000  0.000  0.009
    7  0.082  0.000  0.000  0.002  0.000  0.000  0.000  0.000  0.000  0.085
    8  0.082  0.000  0.000  0.002  0.000  0.000  0.000  0.000  0.000  0.085
tot    0.329  0.059  0.000  0.010  0.000  0.000  0.000  0.000  0.000  0.398
 

 k-point     2 :    0.08333333 0.00000000 0.00000000     weight = 0.04166667

band     1 # energy  -18.51322257 # occ.  2.00000000
 
ion      s     py     pz     px    dxy    dyz    dz2    dxz  x2-y2    tot
    1  0.027  0.000  0.000  0.000  0.000  0.000  0.000  0.000  0.000  0.027
    2  0.027  0.000  0.000  0.000  0.000  0.000  0.000  0.000  0.000  0.027
    3  0.093  0.004  0.000  0.001  0.000  0.000  0.000  0.000  0.000  0.098
    4  0.092  0.004  0.000  0.001  0.000  0.000  0.000  0.000  0.000  0.098
    5  0.093  0.000  0.000  0.005  0.000  0.000  0.000  0.000  0.000  0.098
    6  0.093  0.000  0.000  0.005  0.000  0.000  0.000  0.000  0.000  0.098
    7  0.092  0.004  0.000  0.001  0.000  0.000  0.000  0.000  0.000  0.098
    8  0.093  0.004  0.000  0.001  0.000  0.000  0.000  0.000  0.000  0.098
tot    0.611  0.016  0.000  0.015  0.000  0.000  0.000  0.000  0.000  0.642
 
band     2 # energy  -14.78092946 # occ.  2.00000000
 
ion      s     py     pz     px    dxy    dyz    dz2    dxz  x2-y2    tot
    1  0.005  0.010  0.000  0.003  0.000  0.000  0.000  0.000  0.000  0.018
    2  0.005  0.010  0.000  0.003  0.000  0.000  0.000  0.000  0.000  0.018
    3  0.049  0.003  0.000  0.019  0.000  0.000  0.000  0.000  0.000  0.071
    4  0.187  0.005  0.000  0.002  0.000  0.000  0.000  0.000  0.000  0.194
    5  0.049  0.020  0.000  0.002  0.000  0.000  0.000  0.000  0.000  0.071
    6  0.049  0.020  0.000  0.002  0.000  0.000  0.000  0.000  0.000  0.071
    7  0.187  0.005  0.000  0.002  0.000  0.000  0.000  0.000  0.000  0.194
    8  0.049  0.003  0.000  0.019  0.000  0.000  0.000  0.000  0.000  0.071
tot    0.579  0.075  0.000  0.052  0.000  0.000  0.000  0.000  0.000  0.706
 
band     3 # energy  -14.69118583 # occ.  2.00000000
 
ion      s     py     pz     px    dxy    dyz    dz2    dxz  x2-y2    tot
    1  0.000  0.004  0.000  0.011  0.000  0.000  0.000  0.000  0.000  0.015
    2  0.000  0.004  0.000  0.011  0.000  0.000  0.000  0.000  0.000  0.015
    3  0.145  0.009  0.000  0.001  0.000  0.000  0.000  0.000  0.000  0.156
    4  0.000  0.007  0.000  0.021  0.000  0.000  0.000  0.000  0.000  0.028
    5  0.145  0.006  0.000  0.004  0.000  0.000  0.000  0.000  0.000  0.156
    6  0.145  0.006  0.000  0.004  0.000  0.000  0.000  0.000  0.000  0.156
    7  0.000  0.007  0.000  0.021  0.000  0.000  0.000  0.000  0.000  0.028
    8  0.145  0.009  0.000  0.001  0.000  0.000  0.000  0.000  0.000  0.156
tot    0.581  0.053  0.000  0.076  0.000  0.000  0.000  0.000  0.000  0.710
 
band     4 # energy  -12.33841316 # occ.  2.00000000
 
ion      s     py     pz     px    dxy    dyz    dz2    dxz  x2-y2    tot
    1  0.014  0.034  0.000  0.011  0.000  0.000  0.000  0.000  0.000  0.059
    2  0.014  0.034  0.000  0.011  0.000  0.000  0.000  0.000  0.000  0.059
    3  0.022  0.007  0.000  0.058  0.000  0.000  0.000  0.000  0.000  0.087
    4  0.100  0.001  0.000  0.000  0.000  0.000  0.000  0.000  0.000  0.102
    5  0.022  0.061  0.000  0.003  0.000  0.000  0.000  0.000  0.000  0.087
    6  0.022  0.061  0.000  0.003  0.000  0.000  0.000  0.000  0.000  0.087
    7  0.100  0.001  0.000  0.000  0.000  0.000  0.000  0.000  0.000  0.102
    8  0.022  0.007  0.000  0.058  0.000  0.000  0.000  0.000  0.000  0.087
tot    0.316  0.208  0.000  0.145  0.000  0.000  0.000  0.000  0.000  0.669
 
band     5 # energy  -12.20077019 # occ.  2.00000000
 
ion      s     py     pz     px    dxy    dyz    dz2    dxz  x2-y2    tot
    1  0.000  0.013  0.000  0.039  0.000  0.000  0.000  0.000  0.000  0.052
    2  0.000  0.013  0.000  0.039  0.000  0.000  0.000  0.000  0.000  0.052
    3  0.073  0.014  0.000  0.011  0.000  0.000  0.000  0.000  0.000  0.099
    4  0.000  0.022  0.000  0.065  0.000  0.000  0.000  0.000  0.000  0.087
    5  0.073  0.023  0.000  0.003  0.000  0.000  0.000  0.000  0.000  0.099
    6  0.073  0.023  0.000  0.003  0.000  0.000  0.000  0.000  0.000  0.099
    7  0.000  0.022  0.000  0.065  0.000  0.000  0.000  0.000  0.000  0.087
    8  0.073  0.014  0.000  0.011  0.000  0.000  0.000  0.000  0.000  0.099
tot    0.293  0.143  0.000  0.235  0.000  0.000  0.000  0.000  0.000  0.671
 
band     6 # energy  -11.09613793 # occ.  2.00000000
 
ion      s     py     pz     px    dxy    dyz    dz2    dxz  x2-y2    tot
    1  0.116  0.002  0.000  0.001  0.000  0.000  0.000  0.000  0.000  0.118
    2  0.116  0.002  0.000  0.001  0.000  0.000  0.000  0.000  0.000  0.118
    3  0.001  0.048  0.000  0.013  0.000  0.000  0.000  0.000  0.000  0.063
    4  0.004  0.048  0.000  0.016  0.000  0.000  0.000  0.000  0.000  0.068
    5  0.001  0.001  0.000  0.060  0.000  0.000  0.000  0.000  0.000  0.063
    6  0.001  0.001  0.000  0.060  0.000  0.000  0.000  0.000  0.000  0.063
    7  0.004  0.048  0.000  0.016  0.000  0.000  0.000  0.000  0.000  0.068
    8  0.001  0.048  0.000  0.013  0.000  0.000  0.000  0.000  0.000  0.063
tot    0.247  0.197  0.000  0.179  0.000  0.000  0.000  0.000  0.000  0.624
 
band     7 # energy   -9.75314353 # occ.  2.00000000
 
ion      s     py     pz     px    dxy    dyz    dz2    dxz  x2-y2    tot
    1  0.187  0.005  0.000  0.002  0.000  0.000  0.000  0.000  0.000  0.194
    2  0.187  0.005  0.000  0.002  0.000  0.000  0.000  0.000  0.000  0.194
    3  0.030  0.017  0.000  0.008  0.000  0.000  0.000  0.000  0.000  0.055
    4  0.030  0.016  0.000  0.005  0.000  0.000  0.000  0.000  0.000  0.051
    5  0.030  0.004  0.000  0.021  0.000  0.000  0.000  0.000  0.000  0.055
    6  0.030  0.004  0.000  0.021  0.000  0.000  0.000  0.000  0.000  0.055
    7  0.030  0.016  0.000  0.005  0.000  0.000  0.000  0.000  0.000  0.051
    8  0.030  0.017  0.000  0.008  0.000  0.000  0.000  0.000  0.000  0.055
tot    0.553  0.086  0.000  0.071  0.000  0.000  0.000  0.000  0.000  0.710
 
band     8 # energy   -7.30400408 # occ.  2.00000000
 
ion      s     py     pz     px    dxy    dyz    dz2    dxz  x2-y2    tot
    1  0.000  0.000  0.032  0.000  0.000  0.000  0.000  0.000  0.000  0.032
    2  0.000  0.000  0.032  0.000  0.000  0.000  0.000  0.000  0.000  0.032
    3  0.000  0.000  0.059  0.000  0.000  0.000  0.000  0.000  0.000  0.059
    4  0.000  0.000  0.059  0.000  0.000  0.000  0.000  0.000  0.000  0.059
    5  0.000  0.000  0.059  0.000  0.000  0.000  0.000  0.000  0.000  0.059
    6  0.000  0.000  0.059  0.000  0.000  0.000  0.000  0.000  0.000  0.059
    7  0.000  0.000  0.059  0.000  0.000  0.000  0.000  0.000  0.000  0.059
    8  0.000  0.000  0.059  0.000  0.000  0.000  0.000  0.000  0.000  0.059
tot    0.000  0.000  0.417  0.000  0.000  0.000  0.000  0.000  0.000  0.417
 
band     9 # energy   -7.18220683 # occ.  2.00000000
 
ion      s     py     pz     px    dxy    dyz    dz2    dxz  x2-y2    tot
    1  0.000  0.000  0.000  0.000  0.000  0.000  0.000  0.000  0.000  0.000
    2  0.000  0.000  0.000  0.000  0.000  0.000  0.000  0.000  0.000  0.000
    3  0.001  0.035  0.000  0.093  0.000  0.000  0.000  0.000  0.000  0.128
    4  0.000  0.031  0.000  0.094  0.000  0.000  0.000  0.000  0.000  0.125
    5  0.001  0.127  0.000  0.000  0.000  0.000  0.000  0.000  0.000  0.128
    6  0.001  0.127  0.000  0.000  0.000  0.000  0.000  0.000  0.000  0.128
    7  0.000  0.031  0.000  0.094  0.000  0.000  0.000  0.000  0.000  0.125
    8  0.001  0.035  0.000  0.093  0.000  0.000  0.000  0.000  0.000  0.128
tot    0.004  0.387  0.000  0.373  0.000  0.000  0.000  0.000  0.000  0.764
 
band    10 # energy   -5.09439867 # occ.  2.00000000
 
ion      s     py     pz     px    dxy    dyz    dz2    dxz  x2-y2    tot
    1  0.003  0.095  0.000  0.032  0.000  0.000  0.000  0.000  0.000  0.130
    2  0.003  0.095  0.000  0.032  0.000  0.000  0.000  0.000  0.000  0.130
    3  0.000  0.017  0.000  0.030  0.000  0.000  0.000  0.000  0.000  0.047
    4  0.003  0.116  0.000  0.039  0.000  0.000  0.000  0.000  0.000  0.158
    5  0.000  0.007  0.000  0.039  0.000  0.000  0.000  0.000  0.000  0.047
    6  0.000  0.007  0.000  0.039  0.000  0.000  0.000  0.000  0.000  0.047
    7  0.003  0.116  0.000  0.039  0.000  0.000  0.000  0.000  0.000  0.158
    8  0.000  0.017  0.000  0.030  0.000  0.000  0.000  0.000  0.000  0.047
tot    0.011  0.471  0.000  0.279  0.000  0.000  0.000  0.000  0.000  0.761
 
band    11 # energy   -4.99344179 # occ.  2.00000000
 
ion      s     py     pz     px    dxy    dyz    dz2    dxz  x2-y2    tot
    1  0.000  0.032  0.000  0.097  0.000  0.000  0.000  0.000  0.000  0.130
    2  0.000  0.032  0.000  0.097  0.000  0.000  0.000  0.000  0.000  0.130
    3  0.001  0.099  0.000  0.020  0.000  0.000  0.000  0.000  0.000  0.120
    4  0.000  0.003  0.000  0.009  0.000  0.000  0.000  0.000  0.000  0.013
    5  0.001  0.001  0.000  0.118  0.000  0.000  0.000  0.000  0.000  0.120
    6  0.001  0.001  0.000  0.118  0.000  0.000  0.000  0.000  0.000  0.120
    7  0.000  0.003  0.000  0.009  0.000  0.000  0.000  0.000  0.000  0.013
    8  0.001  0.099  0.000  0.020  0.000  0.000  0.000  0.000  0.000  0.120
tot    0.004  0.272  0.000  0.488  0.000  0.000  0.000  0.000  0.000  0.764
 
band    12 # energy   -3.27374939 # occ.  2.00000000
 
ion      s     py     pz     px    dxy    dyz    dz2    dxz  x2-y2    tot
    1  0.000  0.000  0.003  0.000  0.000  0.000  0.000  0.000  0.000  0.003
    2  0.000  0.000  0.003  0.000  0.000  0.000  0.000  0.000  0.000  0.003
    3  0.000  0.000  0.042  0.000  0.000  0.000  0.000  0.000  0.000  0.042
    4  0.000  0.000  0.155  0.000  0.000  0.000  0.000  0.000  0.000  0.155
    5  0.000  0.000  0.042  0.000  0.000  0.000  0.000  0.000  0.000  0.042
    6  0.000  0.000  0.042  0.000  0.000  0.000  0.000  0.000  0.000  0.042
    7  0.000  0.000  0.155  0.000  0.000  0.000  0.000  0.000  0.000  0.155
    8  0.000  0.000  0.042  0.000  0.000  0.000  0.000  0.000  0.000  0.042
tot    0.000  0.000  0.485  0.000  0.000  0.000  0.000  0.000  0.000  0.485
 
band    13 # energy   -3.16969811 # occ.  2.00000000
 
ion      s     py     pz     px    dxy    dyz    dz2    dxz  x2-y2    tot
    1  0.000  0.000  0.000  0.000  0.000  0.000  0.000  0.000  0.000  0.000
    2  0.000  0.000  0.000  0.000  0.000  0.000  0.000  0.000  0.000  0.000
    3  0.000  0.000  0.122  0.000  0.000  0.000  0.000  0.000  0.000  0.122