<?xml version="1.0" encoding="ISO-8859-1"?>
<modeling>
 <generator>
  <i name="program" type="string">vasp </i>
  <i name="version" type="string">5.4.4.18Apr17-6-g9f103f2a35  </i>
  <i name="subversion" type="string">(build Mar 30 2023 15:39:25) complex            parallel </i>
  <i name="platform" type="string">LinuxIFC </i>
  <i name="date" type="string">2023 06 16 </i>
  <i name="time" type="string">04:22:23 </i>
 </generator>
 <incar>
  <i type="string" name="SYSTEM"> BC3</i>
  <i type="int" name="ISTART">     1</i>
  <i type="string" name="PREC">accurate</i>
  <i type="string" name="ALGO"> Normal</i>
  <i type="int" name="ICHARG">     0</i>
  <i type="int" name="IBRION">     8</i>
  <i name="EDIFF">      0.00000100</i>
  <i name="EDIFFG">     -0.00100000</i>
  <i type="int" name="NSW">     1</i>
  <i name="ENCUT">    450.00000000</i>
  <i type="logical" name="LREAL"> F  </i>
  <i type="int" name="ISMEAR">     0</i>
  <i name="SIGMA">      0.10000000</i>
  <i type="int" name="NWRITE">     3</i>
  <i type="int" name="LORBIT">    11</i>
  <v type="int" name="KPOINT_BSE">    -1     0     0     0</v>
 </incar>
 <structure name="primitive_cell" >
  <crystal>
   <varray name="basis" >
    <v>       4.48084843       2.58701885       0.00000000 </v>
    <v>      -4.48084843       2.58701885       0.00000000 </v>
    <v>       0.00000000       0.00000000       8.52022140 </v>
   </varray>
   <i name="volume">    197.53348383 </i>
   <varray name="rec_basis" >
    <v>       0.11158601       0.19327265       0.00000000 </v>
    <v>      -0.11158601       0.19327265       0.00000000 </v>
    <v>       0.00000000       0.00000000       0.11736784 </v>
   </varray>
  </crystal>
  <varray name="positions" >
   <v>       0.33333300      -0.33333400       0.25000000 </v>
   <v>       0.15869124       0.31738348       0.25000000 </v>
   <v>      -0.31738448      -0.15869224       0.25000000 </v>
   <v>       0.15869124      -0.15869224       0.25000000 </v>
   <v>      -0.15869224       0.15869124       0.25000000 </v>
   <v>       0.31738348       0.15869124       0.25000000 </v>
   <v>      -0.15869224      -0.31738448       0.25000000 </v>
   <v>      -0.33333400       0.33333300       0.25000000 </v>
  </varray>
 </structure>
 <varray name="primitive_index" >
  <v type="int" >        1 </v>
  <v type="int" >        3 </v>
  <v type="int" >        7 </v>
  <v type="int" >        5 </v>
  <v type="int" >        6 </v>
  <v type="int" >        4 </v>
  <v type="int" >        8 </v>
  <v type="int" >        2 </v>
 </varray>
 <kpoints>
  <generation param="Gamma">
   <v type="int" name="divisions">      12       12        1 </v>
   <v name="usershift">      0.00000000       0.00000000       0.00000000 </v>
   <v name="genvec1">      0.08333333       0.00000000       0.00000000 </v>
   <v name="genvec2">      0.00000000       0.08333333       0.00000000 </v>
   <v name="genvec3">      0.00000000       0.00000000       1.00000000 </v>
   <v name="shift">      0.00000000       0.00000000       0.00000000 </v>
  </generation>
  <varray name="kpointlist" >
   <v>       0.00000000       0.00000000       0.00000000 </v>
   <v>       0.08333333       0.00000000       0.00000000 </v>
   <v>       0.16666667       0.00000000       0.00000000 </v>
   <v>       0.25000000      -0.00000000       0.00000000 </v>
   <v>       0.33333333      -0.00000000       0.00000000 </v>
   <v>       0.41666667       0.00000000       0.00000000 </v>
   <v>       0.50000000      -0.00000000       0.00000000 </v>
   <v>       0.08333333       0.08333333       0.00000000 </v>
   <v>       0.16666667       0.08333333       0.00000000 </v>
   <v>       0.25000000       0.08333333       0.00000000 </v>
   <v>       0.33333333       0.08333333       0.00000000 </v>
   <v>       0.41666667       0.08333333       0.00000000 </v>
   <v>       0.16666667       0.16666667       0.00000000 </v>
   <v>       0.25000000       0.16666667       0.00000000 </v>
   <v>       0.33333333       0.16666667       0.00000000 </v>
   <v>       0.41666667       0.16666667       0.00000000 </v>
   <v>       0.25000000       0.25000000       0.00000000 </v>
   <v>       0.33333333       0.25000000       0.00000000 </v>
   <v>       0.33333333       0.33333333       0.00000000 </v>
  </varray>
  <varray name="weights" >
   <v>       0.00694444 </v>
   <v>       0.04166667 </v>
   <v>       0.04166667 </v>
   <v>       0.04166667 </v>
   <v>       0.04166667 </v>
   <v>       0.04166667 </v>
   <v>       0.02083333 </v>
   <v>       0.04166667 </v>
   <v>       0.08333333 </v>
   <v>       0.08333333 </v>
   <v>       0.08333333 </v>
   <v>       0.08333333 </v>
   <v>       0.04166667 </v>
   <v>       0.08333333 </v>
   <v>       0.08333333 </v>
   <v>       0.04166667 </v>
   <v>       0.04166667 </v>
   <v>       0.08333333 </v>
   <v>       0.01388889 </v>
  </varray>
 </kpoints>
 <parameters>
  <separator name="general" >
   <i type="string" name="SYSTEM">BC3</i>
   <i type="logical" name="LCOMPAT"> F  </i>
  </separator>
  <separator name="electronic" >
   <i type="string" name="PREC">accura</i>
   <i name="ENMAX">    450.00000000</i>
   <i name="ENAUG">    644.87300000</i>
   <i name="EDIFF">      0.00000100</i>
   <i type="int" name="IALGO">    38</i>
   <i type="int" name="IWAVPR">    11</i>
   <i type="int" name="NBANDS">    24</i>
   <i name="NELECT">     30.00000000</i>
   <i type="int" name="TURBO">     0</i>
   <i type="int" name="IRESTART">     0</i>
   <i type="int" name="NREBOOT">     0</i>
   <i type="int" name="NMIN">     0</i>
   <i name="EREF">      0.00000000</i>
   <separator name="electronic smearing" >
    <i type="int" name="ISMEAR">     0</i>
    <i name="SIGMA">      0.10000000</i>
    <i name="KSPACING">      0.50000000</i>
    <i type="logical" name="KGAMMA"> T  </i>
   </separator>
   <separator name="electronic projectors" >
    <i type="logical" name="LREAL"> F  </i>
    <v name="ROPT">      0.00000000      0.00000000</v>
    <i type="int" name="LMAXPAW">  -100</i>
    <i type="int" name="LMAXMIX">     2</i>
    <i type="logical" name="NLSPLINE"> F  </i>
   </separator>
   <separator name="electronic startup" >
    <i type="int" name="ISTART">     0</i>
    <i type="int" name="ICHARG">     2</i>
    <i type="int" name="INIWAV">     1</i>
   </separator>
   <separator name="electronic spin" >
    <i type="int" name="ISPIN">     1</i>
    <i type="logical" name="LNONCOLLINEAR"> F  </i>
    <v name="MAGMOM">      1.00000000      1.00000000      1.00000000      1.00000000      1.00000000      1.00000000      1.00000000      1.00000000</v>
    <i name="NUPDOWN">     -1.00000000</i>
    <i type="logical" name="LSORBIT"> F  </i>
    <v name="SAXIS">      0.00000000      0.00000000      1.00000000</v>
    <i type="logical" name="LSPIRAL"> F  </i>
    <v name="QSPIRAL">      0.00000000      0.00000000      0.00000000</v>
    <i type="logical" name="LZEROZ"> F  </i>
   </separator>
   <separator name="electronic exchange-correlation" >
    <i type="logical" name="LASPH"> F  </i>
    <i type="logical" name="LMETAGGA"> F  </i>
   </separator>
   <separator name="electronic convergence" >
    <i type="int" name="NELM">    60</i>
    <i type="int" name="NELMDL">     0</i>
    <i type="int" name="NELMIN">     2</i>
    <i name="ENINI">    450.00000000</i>
    <separator name="electronic convergence detail" >
     <i type="logical" name="LDIAG"> T  </i>
     <i type="logical" name="LSUBROT"> F  </i>
     <i name="WEIMIN">      0.00100000</i>
     <i name="EBREAK">      0.00000001</i>
     <i name="DEPER">      0.30000000</i>
     <i type="int" name="NRMM">     4</i>
     <i name="TIME">      0.40000000</i>
    </separator>
   </separator>
   <separator name="electronic mixer" >
    <i name="AMIX">      0.40000000</i>
    <i name="BMIX">      1.00000000</i>
    <i name="AMIN">      0.10000000</i>
    <i name="AMIX_MAG">      1.60000000</i>
    <i name="BMIX_MAG">      1.00000000</i>
    <separator name="electronic mixer details" >
     <i type="int" name="IMIX">     4</i>
     <i type="logical" name="MIXFIRST"> F  </i>
     <i type="int" name="MAXMIX">   -45</i>
     <i name="WC">    100.00000000</i>
     <i type="int" name="INIMIX">     1</i>
     <i type="int" name="MIXPRE">     1</i>
     <i type="int" name="MREMOVE">     5</i>
    </separator>
   </separator>
   <separator name="electronic dipolcorrection" >
    <i type="logical" name="LDIPOL"> F  </i>
    <i type="logical" name="LMONO"> F  </i>
    <i type="int" name="IDIPOL">     0</i>
    <i name="EPSILON">      1.00000000</i>
    <v name="DIPOL">   -100.00000000   -100.00000000   -100.00000000</v>
    <i name="EFIELD">      0.00000000</i>
   </separator>
  </separator>
  <separator name="grids" >
   <i type="int" name="NGX">    36</i>
   <i type="int" name="NGY">    36</i>
   <i type="int" name="NGZ">    60</i>
   <i type="int" name="NGXF">    72</i>
   <i type="int" name="NGYF">    72</i>
   <i type="int" name="NGZF">   120</i>
   <i type="logical" name="ADDGRID"> F  </i>
  </separator>
  <separator name="ionic" >
   <i type="int" name="NSW">     1</i>
   <i type="int" name="IBRION">     8</i>
   <i type="int" name="MDALGO">     0</i>
   <i type="int" name="ISIF">     2</i>
   <i name="PSTRESS">      0.00000000</i>
   <i name="EDIFFG">     -0.00100000</i>
   <i type="int" name="NFREE">     0</i>
   <i name="POTIM">      0.50000000</i>
   <i name="SMASS">     -3.00000000</i>
   <i name="SCALEE">      1.00000000</i>
  </separator>
  <separator name="ionic md" >
   <i name="TEBEG">      0.00010000</i>
   <i name="TEEND">      0.00010000</i>
   <i type="int" name="NBLOCK">     1</i>
   <i type="int" name="KBLOCK">     1</i>
   <i type="int" name="NPACO">   256</i>
   <i name="APACO">     16.00000000</i>
  </separator>
  <separator name="symmetry" >
   <i type="int" name="ISYM">     2</i>
   <i name="SYMPREC">      0.00001000</i>
  </separator>
  <separator name="dos" >
   <i type="int" name="LORBIT">    11</i>
   <v name="RWIGS">     -1.00000000     -1.00000000</v>
   <i type="int" name="NEDOS">   301</i>
   <i name="EMIN">     10.00000000</i>
   <i name="EMAX">    -10.00000000</i>
   <i name="EFERMI">      0.00000000</i>
  </separator>
  <separator name="writing" >
   <i type="int" name="NWRITE">     3</i>
   <i type="logical" name="LWAVE"> T  </i>
   <i type="logical" name="LDOWNSAMPLE"> F  </i>
   <i type="logical" name="LCHARG"> T  </i>
   <i type="logical" name="LPARD"> F  </i>
   <i type="logical" name="LVTOT"> F  </i>
   <i type="logical" name="LVHAR"> F  </i>
   <i type="logical" name="LELF"> F  </i>
   <i type="logical" name="LOPTICS"> F  </i>
   <v name="STM">      0.00000000      0.00000000      0.00000000      0.00000000      0.00000000      0.00000000      0.00000000</v>
  </separator>
  <separator name="performance" >
   <i type="int" name="NPAR">    12</i>
   <i type="int" name="NSIM">     4</i>
   <i type="int" name="NBLK">    -1</i>
   <i type="logical" name="LPLANE"> T  </i>
   <i type="logical" name="LSCALAPACK"> T  </i>
   <i type="logical" name="LSCAAWARE"> F  </i>
   <i type="logical" name="LSCALU"> F  </i>
   <i type="logical" name="LASYNC"> F  </i>
   <i type="logical" name="LORBITALREAL"> F  </i>
  </separator>
  <separator name="miscellaneous" >
   <i type="int" name="IDIOT">     3</i>
   <i type="int" name="ISPECIAL">     0</i>
   <i type="logical" name="LMUSIC"> F  </i>
   <v name="POMASS">     10.81100000     12.01100000</v>
   <v name="DARWINR">      0.00000000      0.00000000</v>
   <v name="DARWINV">      1.00000000      1.00000000</v>
   <i type="logical" name="LCORR"> T  </i>
  </separator>
  <i type="logical" name="GGA_COMPAT"> T  </i>
  <i type="logical" name="LBERRY"> F  </i>
  <i type="int" name="ICORELEVEL">     0</i>
  <i type="logical" name="LDAU"> F  </i>
  <i type="int" name="I_CONSTRAINED_M">     0</i>
  <separator name="electronic exchange-correlation" >
   <i type="string" name="GGA">--</i>
   <i type="int" name="VOSKOWN">     0</i>
   <i type="logical" name="LHFCALC"> F  </i>
   <i type="string" name="PRECFOCK"></i>
   <i type="logical" name="LSYMGRAD"> F  </i>
   <i type="logical" name="LHFONE"> F  </i>
   <i type="logical" name="LRHFCALC"> F  </i>
   <i type="logical" name="LTHOMAS"> F  </i>
   <i type="logical" name="LMODELHF"> F  </i>
   <i name="ENCUT4O">     -1.00000000</i>
   <i type="int" name="EXXOEP">     0</i>
   <i type="int" name="FOURORBIT">     0</i>
   <i name="AEXX">      0.00000000</i>
   <i name="HFALPHA">      0.00000000</i>
   <i name="MCALPHA">      0.00000000</i>
   <i name="ALDAX">      1.00000000</i>
   <i name="AGGAX">      1.00000000</i>
   <i name="ALDAC">      1.00000000</i>
   <i name="AGGAC">      1.00000000</i>
   <i type="int" name="NKREDX">     1</i>
   <i type="int" name="NKREDY">     1</i>
   <i type="int" name="NKREDZ">     1</i>
   <i type="logical" name="SHIFTRED"> F  </i>
   <i type="logical" name="ODDONLY"> F  </i>
   <i type="logical" name="EVENONLY"> F  </i>
   <i type="int" name="LMAXFOCK">     0</i>
   <i type="int" name="NMAXFOCKAE">     0</i>
   <i type="logical" name="LFOCKAEDFT"> F  </i>
   <i name="HFSCREEN">      0.00000000</i>
   <i name="HFSCREENC">      0.00000000</i>
   <i type="int" name="NBANDSGWLOW">     0</i>
  </separator>
  <separator name="vdW DFT" >
   <i type="logical" name="LUSE_VDW"> F  </i>
   <i name="Zab_VDW">     -0.84910000</i>
   <i name="PARAM1">      0.12340000</i>
   <i name="PARAM2">      1.00000000</i>
   <i name="PARAM3">      0.00000000</i>
  </separator>
  <separator name="model GW" >
   <i type="int" name="MODEL_GW">     0</i>
   <i name="MODEL_EPS0">     14.81501129</i>
   <i name="MODEL_ALPHA">      1.00000000</i>
  </separator>
  <separator name="linear response parameters" >
   <i type="logical" name="LEPSILON"> F  </i>
   <i type="logical" name="LRPA"> F  </i>
   <i type="logical" name="LNABLA"> F  </i>
   <i type="logical" name="LVEL"> F  </i>
   <i type="int" name="KINTER">     0</i>
   <i name="CSHIFT">      0.10000000</i>
   <i name="OMEGAMAX">     -1.00000000</i>
   <i name="DEG_THRESHOLD">      0.00200000</i>
   <i name="RTIME">     -0.10000000</i>
   <i name="WPLASMAI">      0.00000000</i>
   <v name="DFIELD">      0.00000000      0.00000000      0.00000000</v>
   <v name="WPLASMA">      0.00000000      0.00000000      0.00000000      0.00000000      0.00000000      0.00000000      0.00000000      0.00000000      0.00000000</v>
  </separator>
  <separator name="orbital magnetization" >
   <i type="logical" name="NUCIND"> F  </i>
   <v name="MAGPOS">      0.00000000      0.00000000      0.00000000</v>
   <i type="logical" name="LNICSALL"> T  </i>
   <i type="logical" name="ORBITALMAG"> F  </i>
   <i type="logical" name="LMAGBLOCH"> F  </i>
   <i type="logical" name="LCHIMAG"> F  </i>
   <i type="logical" name="LGAUGE"> T  </i>
   <i type="int" name="MAGATOM">     0</i>
   <v name="MAGDIPOL">      0.00000000      0.00000000      0.00000000</v>
   <v name="AVECCONST">      0.00000000      0.00000000      0.00000000</v>
  </separator>
  <separator name="response functions" >
   <i type="logical" name="LADDER"> F  </i>
   <i type="logical" name="LRPAFORCE"> F  </i>
   <i type="logical" name="LFXC"> F  </i>
   <i type="logical" name="LHARTREE"> T  </i>
   <i type="int" name="IBSE">     0</i>
   <v type="int" name="KPOINT">    -1     0     0     0</v>
   <i type="logical" name="LTCTE"> F  </i>
   <i type="logical" name="LTETE"> F  </i>
   <i type="logical" name="LTRIPLET"> F  </i>
   <i type="logical" name="LFXCEPS"> F  </i>
   <i type="logical" name="LFXHEG"> F  </i>
   <i type="int" name="NATURALO">     2</i>
   <i type="logical" name="L2ORDER"> F  </i>
   <i type="logical" name="LMP2LT"> F  </i>
   <i type="logical" name="LUSEW"> F  </i>
   <i name="ENCUTGW">     -2.00000000</i>
   <i name="ENCUTGWSOFT">     -2.00000000</i>
   <i name="ENCUTLF">     -1.00000000</i>
   <i type="int" name="LMAXMP2">    -1</i>
   <i name="SCISSOR">      0.00000000</i>
   <i type="int" name="NOMEGA">     0</i>
   <i type="int" name="NOMEGAR">     0</i>
   <i type="int" name="NBANDSGW">    -1</i>
   <i type="int" name="NBANDSO">    -1</i>
   <i type="int" name="NBANDSV">    -1</i>
   <i type="int" name="NELM">     1</i>
   <i type="int" name="NELMHF">     1</i>
   <i type="int" name="DIM">     3</i>
   <i type="int" name="ANTIRES">     0</i>
   <i name="OMEGAMAX">    -30.00000000</i>
   <i name="OMEGAMIN">    -30.00000000</i>
   <i name="OMEGATL">   -200.00000000</i>
   <i type="int" name="OMEGAGRID">   140</i>
   <i name="CSHIFT">     -0.10000000</i>
   <i type="logical" name="SELFENERGY"> F  </i>
   <i type="logical" name="LSPECTRAL"> F  </i>
   <i type="logical" name="LSPECTRALGW"> F  </i>
   <i type="logical" name="LSINGLES"> F  </i>
   <i type="logical" name="LFERMIGW"> F  </i>
   <i type="logical" name="ODDONLYGW"> F  </i>
   <i type="logical" name="EVENONLYGW"> F  </i>
   <i type="int" name="NKREDLFX">     1</i>
   <i type="int" name="NKREDLFY">     1</i>
   <i type="int" name="NKREDLFZ">     1</i>
   <i type="int" name="MAXMEM">  2800</i>
   <i type="int" name="TELESCOPE">     0</i>
   <i type="int" name="TAUPAR">     1</i>
   <i type="int" name="OMEGAPAR">    -1</i>
   <i name="LAMBDA">      1.00000000</i>
  </separator>
  <separator name="External order field" >
   <i name="OFIELD_KAPPA">      0.00000000</i>
   <v name="OFIELD_K">      0.00000000      0.00000000      0.00000000</v>
   <i name="OFIELD_Q6_NEAR">      0.00000000</i>
   <i name="OFIELD_Q6_FAR">      0.00000000</i>
   <i name="OFIELD_A">      0.00000000</i>
  </separator>
 </parameters>
 <atominfo>
  <atoms>       8 </atoms>
  <types>       2 </types>
  <array name="atoms" >
   <dimension dim="1">ion</dimension>
   <field type="string">element</field>
   <field type="int">atomtype</field>
   <set>
    <rc><c>B </c><c>   1</c></rc>
    <rc><c>B </c><c>   1</c></rc>
    <rc><c>C </c><c>   2</c></rc>
    <rc><c>C </c><c>   2</c></rc>
    <rc><c>C </c><c>   2</c></rc>
    <rc><c>C </c><c>   2</c></rc>
    <rc><c>C </c><c>   2</c></rc>
    <rc><c>C </c><c>   2</c></rc>
   </set>
  </array>
  <array name="atomtypes" >
   <dimension dim="1">type</dimension>
   <field type="int">atomspertype</field>
   <field type="string">element</field>
   <field>mass</field>
   <field>valence</field>
   <field type="string">pseudopotential</field>
   <set>
    <rc><c>   2</c><c>B </c><c>     10.81100000</c><c>      3.00000000</c><c>  PAW_PBE B 06Sep2000                   </c></rc>
    <rc><c>   6</c><c>C </c><c>     12.01100000</c><c>      4.00000000</c><c>  PAW_PBE C 08Apr2002                   </c></rc>
   </set>
  </array>
 </atominfo>
 <structure name="initialpos" >
  <crystal>
   <varray name="basis" >
    <v>       4.48084843       2.58701885       0.00000000 </v>
    <v>      -4.48084843       2.58701885       0.00000000 </v>
    <v>       0.00000000       0.00000000       8.52022140 </v>
   </varray>
   <i name="volume">    197.53348383 </i>
   <varray name="rec_basis" >
    <v>       0.11158601       0.19327265       0.00000000 </v>
    <v>      -0.11158601       0.19327265       0.00000000 </v>
    <v>       0.00000000       0.00000000       0.11736784 </v>
   </varray>
  </crystal>
  <varray name="positions" >
   <v>       0.33333300       0.66666600       0.25000000 </v>
   <v>       0.66666600       0.33333300       0.25000000 </v>
   <v>       0.15869124       0.31738348       0.25000000 </v>
   <v>       0.31738348       0.15869124       0.25000000 </v>
   <v>       0.15869124       0.84130776       0.25000000 </v>
   <v>       0.84130776       0.15869124       0.25000000 </v>
   <v>       0.68261552       0.84130776       0.25000000 </v>
   <v>       0.84130776       0.68261552       0.25000000 </v>
  </varray>
 </structure>
 <calculation>
  <scstep>
   <time name="dav">    0.58    0.58</time>
   <time name="total">    0.62    0.62</time>
   <energy>
    <i name="alphaZ">     25.67921176 </i>
    <i name="ewald">    700.27145080 </i>
    <i name="hartreedc">  -1524.76618073 </i>
    <i name="XCdc">     91.14273073 </i>
    <i name="pawpsdc">    738.13200929 </i>
    <i name="pawaedc">   -739.83780425 </i>
    <i name="eentropy">     -0.01112055 </i>
    <i name="bandstr">   -156.35223398 </i>
    <i name="atom">   1025.20389953 </i>
    <i name="e_fr_energy">    159.46196259 </i>
    <i name="e_wo_entrp">    159.47308314 </i>
    <i name="e_0_energy">    159.46752287 </i>
   </energy>
  </scstep>
  <scstep>
   <time name="dav">    0.70    0.70</time>
   <time name="total">    0.70    0.70</time>
   <energy>
    <i name="e_fr_energy">    -54.86022317 </i>
    <i name="e_wo_entrp">    -54.86022313 </i>
    <i name="e_0_energy">    -54.86022315 </i>
   </energy>
  </scstep>
  <scstep>
   <time name="dav">    0.74    0.74</time>
   <time name="total">    0.74    0.74</time>
   <energy>
    <i name="e_fr_energy">    -73.12089610 </i>
    <i name="e_wo_entrp">    -73.12089610 </i>
    <i name="e_0_energy">    -73.12089610 </i>
   </energy>
  </scstep>
  <scstep>
   <time name="dav">    0.73    0.73</time>
   <time name="total">    0.73    0.73</time>
   <energy>
    <i name="e_fr_energy">    -73.42977548 </i>
    <i name="e_wo_entrp">    -73.42977548 </i>
    <i name="e_0_energy">    -73.42977548 </i>
   </energy>
  </scstep>
  <scstep>
   <time name="dav">    0.73    0.73</time>
   <time name="total">    0.79    0.79</time>
   <energy>
    <i name="e_fr_energy">    -73.44016542 </i>
    <i name="e_wo_entrp">    -73.44016542 </i>
    <i name="e_0_energy">    -73.44016542 </i>
   </energy>
  </scstep>
  <scstep>
   <time name="dav">    0.69    0.69</time>
   <time name="total">    0.78    0.78</time>
   <energy>
    <i name="e_fr_energy">    -68.98511693 </i>
    <i name="e_wo_entrp">    -68.98511693 </i>
    <i name="e_0_energy">    -68.98511693 </i>
   </energy>
  </scstep>
  <scstep>
   <time name="dav">    0.71    0.71</time>
   <time name="total">    0.80    0.80</time>
   <energy>
    <i name="e_fr_energy">    -67.34198385 </i>
    <i name="e_wo_entrp">    -67.34198385 </i>
    <i name="e_0_energy">    -67.34198385 </i>
   </energy>
  </scstep>
  <scstep>
   <time name="dav">    0.67    0.67</time>
   <time name="total">    0.76    0.76</time>
   <energy>
    <i name="e_fr_energy">    -67.24646651 </i>
    <i name="e_wo_entrp">    -67.24646649 </i>
    <i name="e_0_energy">    -67.24646650 </i>
   </energy>
  </scstep>
  <scstep>
   <time name="dav">    0.69    0.69</time>
   <time name="total">    0.78    0.78</time>
   <energy>
    <i name="e_fr_energy">    -67.22273198 </i>
    <i name="e_wo_entrp">    -67.22273197 </i>
    <i name="e_0_energy">    -67.22273198 </i>
   </energy>
  </scstep>
  <scstep>
   <time name="dav">    0.72    0.72</time>
   <time name="total">    0.81    0.81</time>
   <energy>
    <i name="e_fr_energy">    -67.21788146 </i>
    <i name="e_wo_entrp">    -67.21788141 </i>
    <i name="e_0_energy">    -67.21788144 </i>
   </energy>
  </scstep>
  <scstep>
   <time name="dav">    0.59    0.59</time>
   <time name="total">    0.68    0.68</time>
   <energy>
    <i name="e_fr_energy">    -67.22348928 </i>
    <i name="e_wo_entrp">    -67.22348922 </i>
    <i name="e_0_energy">    -67.22348925 </i>
   </energy>
  </scstep>
  <scstep>
   <time name="dav">    0.59    0.59</time>
   <time name="total">    0.68    0.68</time>
   <energy>
    <i name="e_fr_energy">    -67.22670516 </i>
    <i name="e_wo_entrp">    -67.22670509 </i>
    <i name="e_0_energy">    -67.22670513 </i>
   </energy>
  </scstep>
  <scstep>
   <time name="dav">    0.59    0.59</time>
   <time name="total">    0.68    0.68</time>
   <energy>
    <i name="e_fr_energy">    -67.22756024 </i>
    <i name="e_wo_entrp">    -67.22756018 </i>
    <i name="e_0_energy">    -67.22756021 </i>
   </energy>
  </scstep>
  <scstep>
   <time name="dav">    0.67    0.67</time>
   <time name="total">    0.76    0.76</time>
   <energy>
    <i name="e_fr_energy">    -67.22770899 </i>
    <i name="e_wo_entrp">    -67.22770893 </i>
    <i name="e_0_energy">    -67.22770896 </i>
   </energy>
  </scstep>
  <scstep>
   <time name="dav">    0.64    0.64</time>
   <time name="total">    0.74    0.74</time>
   <energy>
    <i name="e_fr_energy">    -67.22772579 </i>
    <i name="e_wo_entrp">    -67.22772573 </i>
    <i name="e_0_energy">    -67.22772576 </i>
   </energy>
  </scstep>
  <scstep>
   <time name="dav">    0.52    0.52</time>
   <time name="total">    0.61    0.61</time>
   <energy>
    <i name="e_fr_energy">    -67.22772996 </i>
    <i name="e_wo_entrp">    -67.22772989 </i>
    <i name="e_0_energy">    -67.22772993 </i>
   </energy>
  </scstep>
  <scstep>
   <time name="dav">    0.63    0.63</time>
   <time name="total">    0.67    0.67</time>
   <energy>
    <i name="alphaZ">     25.67921176 </i>
    <i name="ewald">    700.27145080 </i>
    <i name="hartreedc">  -1646.75287754 </i>
    <i name="XCdc">     96.02425692 </i>
    <i name="pawpsdc">   2894.38857850 </i>
    <i name="pawaedc">  -2896.91579167 </i>
    <i name="eentropy">     -0.00000007 </i>
    <i name="bandstr">   -265.12645845 </i>
    <i name="atom">   1025.20389953 </i>
    <i name="e_fr_energy">    -67.22773023 </i>
    <i name="e_wo_entrp">    -67.22773016 </i>
    <i name="e_0_energy">    -67.22773020 </i>
   </energy>
  </scstep>
  <structure>
   <crystal>
    <varray name="basis" >
     <v>       4.48084843       2.58701885       0.00000000 </v>
     <v>      -4.48084843       2.58701885       0.00000000 </v>
     <v>       0.00000000       0.00000000       8.52022140 </v>
    </varray>
    <i name="volume">    197.53348383 </i>
    <varray name="rec_basis" >
     <v>       0.11158601       0.19327265       0.00000000 </v>
     <v>      -0.11158601       0.19327265       0.00000000 </v>
     <v>       0.00000000       0.00000000       0.11736784 </v>
    </varray>
   </crystal>
   <varray name="positions" >
    <v>       0.33333300       0.66666600       0.25000000 </v>
    <v>       0.66666600       0.33333300       0.25000000 </v>
    <v>       0.15869124       0.31738348       0.25000000 </v>
    <v>       0.31738348       0.15869124       0.25000000 </v>
    <v>       0.15869124       0.84130776       0.25000000 </v>
    <v>       0.84130776       0.15869124       0.25000000 </v>
    <v>       0.68261552       0.84130776       0.25000000 </v>
    <v>       0.84130776       0.68261552       0.25000000 </v>
   </varray>
  </structure>
  <varray name="forces" >
   <v>       0.00000000      -0.00000000      -0.00000000 </v>
   <v>       0.00000000      -0.00000000      -0.00000000 </v>
   <v>      -0.00065280       0.00113069       0.00000000 </v>
   <v>       0.00065280       0.00113069       0.00000000 </v>
   <v>       0.00130561      -0.00000000      -0.00000000 </v>
   <v>      -0.00130561      -0.00000000       0.00000000 </v>
   <v>      -0.00065280      -0.00113069      -0.00000000 </v>
   <v>       0.00065280      -0.00113069      -0.00000000 </v>
  </varray>
  <varray name="stress" >
   <v>      -0.53247745       0.00000000      -0.00000000 </v>
   <v>       0.00000000      -0.53247736      -0.00000000 </v>
   <v>       0.00000000      -0.00000000      -1.27162319 </v>
  </varray>
  <energy>
   <i name="e_fr_energy">    -67.22773023 </i>
   <i name="e_wo_entrp">    -67.22773020 </i>
   <i name="e_0_energy">     -0.00000007 </i>
  </energy>
  <kpoints>
   <generation param="Gamma">
    <v type="int" name="divisions">      12       12        1 </v>
    <v name="usershift">      0.00000000       0.00000000       0.00000000 </v>
    <v name="genvec1">      0.08333333       0.00000000       0.00000000 </v>
    <v name="genvec2">      0.00000000       0.08333333       0.00000000 </v>
    <v name="genvec3">      0.00000000       0.00000000       1.00000000 </v>
    <v name="shift">      0.00000000       0.00000000       0.00000000 </v>
   </generation>
   <varray name="kpointlist" >
    <v>       0.00000000       0.00000000       0.00000000 </v>
    <v>       0.08333333       0.00000000       0.00000000 </v>
    <v>       0.16666667       0.00000000       0.00000000 </v>
    <v>       0.25000000      -0.00000000       0.00000000 </v>
    <v>       0.33333333      -0.00000000       0.00000000 </v>
    <v>       0.41666667       0.00000000       0.00000000 </v>
    <v>       0.50000000      -0.00000000       0.00000000 </v>
    <v>       0.08333333       0.08333333       0.00000000 </v>
    <v>       0.16666667       0.08333333       0.00000000 </v>
    <v>       0.25000000       0.08333333       0.00000000 </v>
    <v>       0.33333333       0.08333333       0.00000000 </v>
    <v>       0.41666667       0.08333333       0.00000000 </v>
    <v>       0.50000000       0.08333333       0.00000000 </v>
    <v>      -0.41666667       0.08333333       0.00000000 </v>
    <v>      -0.33333333       0.08333333       0.00000000 </v>
    <v>      -0.25000000       0.08333333       0.00000000 </v>
    <v>      -0.16666667       0.08333333       0.00000000 </v>
    <v>      -0.08333333       0.08333333       0.00000000 </v>
    <v>       0.16666667       0.16666667       0.00000000 </v>
    <v>       0.25000000       0.16666667       0.00000000 </v>
    <v>       0.33333333       0.16666667       0.00000000 </v>
    <v>       0.41666667       0.16666667       0.00000000 </v>
    <v>       0.50000000       0.16666667       0.00000000 </v>
    <v>      -0.41666667       0.16666667       0.00000000 </v>
    <v>      -0.33333333       0.16666667       0.00000000 </v>
    <v>      -0.25000000       0.16666667       0.00000000 </v>
    <v>      -0.16666667       0.16666667       0.00000000 </v>
    <v>       0.25000000       0.25000000       0.00000000 </v>
    <v>       0.33333333       0.25000000       0.00000000 </v>
    <v>       0.41666667       0.25000000       0.00000000 </v>
    <v>       0.50000000       0.25000000       0.00000000 </v>
    <v>      -0.41666667       0.25000000       0.00000000 </v>
    <v>      -0.33333333       0.25000000       0.00000000 </v>
    <v>      -0.25000000       0.25000000       0.00000000 </v>
    <v>       0.33333333       0.33333333       0.00000000 </v>
    <v>       0.41666667       0.33333333       0.00000000 </v>
    <v>       0.50000000       0.33333333       0.00000000 </v>
    <v>      -0.41666667       0.33333333       0.00000000 </v>
    <v>      -0.33333333       0.33333333       0.00000000 </v>
    <v>       0.41666667       0.41666667       0.00000000 </v>
    <v>       0.50000000       0.41666667       0.00000000 </v>
    <v>      -0.41666667       0.41666667       0.00000000 </v>
    <v>       0.50000000       0.50000000       0.00000000 </v>
   </varray>
   <varray name="weights" >
    <v>       0.00694444 </v>
    <v>       0.02777778 </v>
    <v>       0.02777778 </v>
    <v>       0.02777778 </v>
    <v>       0.02777778 </v>
    <v>       0.02777778 </v>
    <v>       0.01388889 </v>
    <v>       0.01388889 </v>
    <v>       0.02777778 </v>
    <v>       0.02777778 </v>
    <v>       0.02777778 </v>
    <v>       0.02777778 </v>
    <v>       0.02777778 </v>
    <v>       0.02777778 </v>
    <v>       0.02777778 </v>
    <v>       0.02777778 </v>
    <v>       0.02777778 </v>
    <v>       0.01388889 </v>
    <v>       0.01388889 </v>
    <v>       0.02777778 </v>
    <v>       0.02777778 </v>
    <v>       0.02777778 </v>
    <v>       0.02777778 </v>
    <v>       0.02777778 </v>
    <v>       0.02777778 </v>
    <v>       0.02777778 </v>
    <v>       0.01388889 </v>
    <v>       0.01388889 </v>
    <v>       0.02777778 </v>
    <v>       0.02777778 </v>
    <v>       0.02777778 </v>
    <v>       0.02777778 </v>
    <v>       0.02777778 </v>
    <v>       0.01388889 </v>
    <v>       0.01388889 </v>
    <v>       0.02777778 </v>
    <v>       0.02777778 </v>
    <v>       0.02777778 </v>
    <v>       0.01388889 </v>
    <v>       0.01388889 </v>
    <v>       0.02777778 </v>
    <v>       0.01388889 </v>
    <v>       0.00694444 </v>
   </varray>
  </kpoints>
  <scstep>
   <time name="total">    2.50    2.50</time>
   <energy>
    <i name="e_fr_energy">   -154.62243890 </i>
    <i name="e_wo_entrp">   -154.62243890 </i>
    <i name="e_0_energy">   -154.62243890 </i>
   </energy>
  </scstep>
  <scstep>
   <time name="total">    2.21    2.21</time>
   <energy>
    <i name="e_fr_energy">   -123.86979382 </i>
    <i name="e_wo_entrp">   -123.86979382 </i>
    <i name="e_0_energy">   -123.86979382 </i>
   </energy>
  </scstep>
  <scstep>
   <time name="total">    2.03    2.03</time>
   <energy>
    <i name="e_fr_energy">   -122.35378089 </i>
    <i name="e_wo_entrp">   -122.35378088 </i>
    <i name="e_0_energy">   -122.35378089 </i>
   </energy>
  </scstep>
  <scstep>
   <time name="total">    2.03    2.03</time>
   <energy>
    <i name="e_fr_energy">   -122.67741010 </i>
    <i name="e_wo_entrp">   -122.67741009 </i>
    <i name="e_0_energy">   -122.67741010 </i>
   </energy>
  </scstep>
  <scstep>
   <time name="total">    2.06    2.06</time>
   <energy>
    <i name="e_fr_energy">   -123.20090083 </i>
    <i name="e_wo_entrp">   -123.20090082 </i>
    <i name="e_0_energy">   -123.20090083 </i>
   </energy>
  </scstep>
  <scstep>
   <time name="total">    2.25    2.25</time>
   <energy>
    <i name="e_fr_energy">   -123.17534845 </i>
    <i name="e_wo_entrp">   -123.17534844 </i>
    <i name="e_0_energy">   -123.17534845 </i>
   </energy>
  </scstep>
  <scstep>
   <time name="total">    2.28    2.28</time>
   <energy>
    <i name="e_fr_energy">   -123.17140051 </i>
    <i name="e_wo_entrp">   -123.17140050 </i>
    <i name="e_0_energy">   -123.17140051 </i>
   </energy>
  </scstep>
  <scstep>
   <time name="total">    2.22    2.22</time>
   <energy>
    <i name="e_fr_energy">   -123.16972534 </i>
    <i name="e_wo_entrp">   -123.16972533 </i>
    <i name="e_0_energy">   -123.16972534 </i>
   </energy>
  </scstep>
  <kpoints>
   <generation param="Gamma">
    <v type="int" name="divisions">      12       12        1 </v>
    <v name="usershift">      0.00000000       0.00000000       0.00000000 </v>
    <v name="genvec1">      0.08333333       0.00000000       0.00000000 </v>
    <v name="genvec2">      0.00000000       0.08333333       0.00000000 </v>
    <v name="genvec3">      0.00000000       0.00000000       1.00000000 </v>
    <v name="shift">      0.00000000       0.00000000       0.00000000 </v>
   </generation>
   <varray name="kpointlist" >
    <v>       0.00000000       0.00000000       0.00000000 </v>
    <v>       0.08333333       0.00000000       0.00000000 </v>
    <v>       0.16666667       0.00000000       0.00000000 </v>
    <v>       0.25000000      -0.00000000       0.00000000 </v>
    <v>       0.33333333      -0.00000000       0.00000000 </v>
    <v>       0.41666667       0.00000000       0.00000000 </v>
    <v>       0.50000000      -0.00000000       0.00000000 </v>
    <v>       0.08333333       0.08333333       0.00000000 </v>
    <v>       0.16666667       0.08333333       0.00000000 </v>
    <v>       0.25000000       0.08333333       0.00000000 </v>
    <v>       0.33333333       0.08333333       0.00000000 </v>
    <v>       0.41666667       0.08333333       0.00000000 </v>
    <v>       0.16666667       0.16666667       0.00000000 </v>
    <v>       0.25000000       0.16666667       0.00000000 </v>
    <v>       0.33333333       0.16666667       0.00000000 </v>
    <v>       0.41666667       0.16666667       0.00000000 </v>
    <v>       0.25000000       0.25000000       0.00000000 </v>
    <v>       0.33333333       0.25000000       0.00000000 </v>
    <v>       0.33333333       0.33333333       0.00000000 </v>
   </varray>
   <varray name="weights" >
    <v>       0.00694444 </v>
    <v>       0.04166667 </v>
    <v>       0.04166667 </v>
    <v>       0.04166667 </v>
    <v>       0.04166667 </v>
    <v>       0.04166667 </v>
    <v>       0.02083333 </v>
    <v>       0.04166667 </v>
    <v>       0.08333333 </v>
    <v>       0.08333333 </v>
    <v>       0.08333333 </v>
    <v>       0.08333333 </v>
    <v>       0.04166667 </v>
    <v>       0.08333333 </v>
    <v>       0.08333333 </v>
    <v>       0.04166667 </v>
    <v>       0.04166667 </v>
    <v>       0.08333333 </v>
    <v>       0.01388889 </v>
   </varray>
  </kpoints>
  <scstep>
   <time name="total">    1.11    1.11</time>
   <energy>
    <i name="e_fr_energy">    -94.03855302 </i>
    <i name="e_wo_entrp">    -94.03855302 </i>
    <i name="e_0_energy">    -94.03855302 </i>
   </energy>
  </scstep>
  <scstep>
   <time name="total">    1.09    1.09</time>
   <energy>
    <i name="e_fr_energy">    -91.28330265 </i>
    <i name="e_wo_entrp">    -91.28330265 </i>
    <i name="e_0_energy">    -91.28330265 </i>
   </energy>
  </scstep>
  <scstep>
   <time name="total">    1.00    1.00</time>
   <energy>
    <i name="e_fr_energy">    -90.34206432 </i>
    <i name="e_wo_entrp">    -90.34206432 </i>
    <i name="e_0_energy">    -90.34206432 </i>
   </energy>
  </scstep>
  <scstep>
   <time name="total">    0.99    0.99</time>
   <energy>
    <i name="e_fr_energy">    -90.25688011 </i>
    <i name="e_wo_entrp">    -90.25688011 </i>
    <i name="e_0_energy">    -90.25688011 </i>
   </energy>
  </scstep>
  <scstep>
   <time name="total">    1.00    1.00</time>
   <energy>
    <i name="e_fr_energy">    -89.88938154 </i>
    <i name="e_wo_entrp">    -89.88938154 </i>
    <i name="e_0_energy">    -89.88938154 </i>
   </energy>
  </scstep>
  <scstep>
   <time name="total">    1.06    1.06</time>
   <energy>
    <i name="e_fr_energy">    -89.79965632 </i>
    <i name="e_wo_entrp">    -89.79965632 </i>
    <i name="e_0_energy">    -89.79965632 </i>
   </energy>
  </scstep>
  <scstep>
   <time name="total">    1.07    1.07</time>
   <energy>
    <i name="e_fr_energy">    -89.79388907 </i>
    <i name="e_wo_entrp">    -89.79388907 </i>
    <i name="e_0_energy">    -89.79388907 </i>
   </energy>
  </scstep>
  <scstep>
   <time name="total">    1.03    1.03</time>
   <energy>
    <i name="e_fr_energy">    -89.80903407 </i>
    <i name="e_wo_entrp">    -89.80903407 </i>
    <i name="e_0_energy">    -89.80903407 </i>
   </energy>
  </scstep>
  <scstep>
   <time name="total">    1.06    1.06</time>
   <energy>
    <i name="e_fr_energy">    -89.81056659 </i>
    <i name="e_wo_entrp">    -89.81056659 </i>
    <i name="e_0_energy">    -89.81056659 </i>
   </energy>
  </scstep>
  <kpoints>
   <generation param="Gamma">
    <v type="int" name="divisions">      12       12        1 </v>
    <v name="usershift">      0.00000000       0.00000000       0.00000000 </v>
    <v name="genvec1">      0.08333333       0.00000000       0.00000000 </v>
    <v name="genvec2">      0.00000000       0.08333333       0.00000000 </v>
    <v name="genvec3">      0.00000000       0.00000000       1.00000000 </v>
    <v name="shift">      0.00000000       0.00000000       0.00000000 </v>
   </generation>
   <varray name="kpointlist" >
    <v>       0.00000000       0.00000000       0.00000000 </v>
    <v>       0.08333333       0.00000000       0.00000000 </v>
    <v>       0.16666667       0.00000000       0.00000000 </v>
    <v>       0.25000000      -0.00000000       0.00000000 </v>
    <v>       0.33333333      -0.00000000       0.00000000 </v>
    <v>       0.41666667       0.00000000       0.00000000 </v>
    <v>       0.50000000      -0.00000000       0.00000000 </v>
    <v>       0.00000000       0.08333333       0.00000000 </v>
    <v>       0.08333333       0.08333333       0.00000000 </v>
    <v>       0.16666667       0.08333333       0.00000000 </v>
    <v>       0.25000000       0.08333333       0.00000000 </v>
    <v>       0.33333333       0.08333333       0.00000000 </v>
    <v>       0.41666667       0.08333333       0.00000000 </v>
    <v>       0.50000000       0.08333333       0.00000000 </v>
    <v>      -0.41666667       0.08333333       0.00000000 </v>
    <v>      -0.33333333       0.08333333       0.00000000 </v>
    <v>      -0.25000000       0.08333333       0.00000000 </v>
    <v>      -0.16666667       0.08333333       0.00000000 </v>
    <v>      -0.08333333       0.08333333       0.00000000 </v>
    <v>       0.00000000       0.16666667       0.00000000 </v>
    <v>       0.08333333       0.16666667       0.00000000 </v>
    <v>       0.16666667       0.16666667       0.00000000 </v>
    <v>       0.25000000       0.16666667       0.00000000 </v>
    <v>       0.33333333       0.16666667       0.00000000 </v>
    <v>       0.41666667       0.16666667       0.00000000 </v>
    <v>       0.50000000       0.16666667       0.00000000 </v>
    <v>      -0.41666667       0.16666667       0.00000000 </v>
    <v>      -0.33333333       0.16666667       0.00000000 </v>
    <v>      -0.25000000       0.16666667       0.00000000 </v>
    <v>      -0.16666667       0.16666667       0.00000000 </v>
    <v>      -0.08333333       0.16666667       0.00000000 </v>
    <v>      -0.00000000       0.25000000       0.00000000 </v>
    <v>       0.08333333       0.25000000       0.00000000 </v>
    <v>       0.16666667       0.25000000       0.00000000 </v>
    <v>       0.25000000       0.25000000       0.00000000 </v>
    <v>       0.33333333       0.25000000       0.00000000 </v>
    <v>       0.41666667       0.25000000       0.00000000 </v>
    <v>       0.50000000       0.25000000       0.00000000 </v>
    <v>      -0.41666667       0.25000000       0.00000000 </v>
    <v>      -0.33333333       0.25000000       0.00000000 </v>
    <v>      -0.25000000       0.25000000       0.00000000 </v>
    <v>      -0.16666667       0.25000000       0.00000000 </v>
    <v>      -0.08333333       0.25000000       0.00000000 </v>
    <v>      -0.00000000       0.33333333       0.00000000 </v>
    <v>       0.08333333       0.33333333       0.00000000 </v>
    <v>       0.16666667       0.33333333       0.00000000 </v>
    <v>       0.25000000       0.33333333       0.00000000 </v>
    <v>       0.33333333       0.33333333       0.00000000 </v>
    <v>       0.41666667       0.33333333       0.00000000 </v>
    <v>       0.50000000       0.33333333       0.00000000 </v>
    <v>      -0.41666667       0.33333333       0.00000000 </v>
    <v>      -0.33333333       0.33333333       0.00000000 </v>
    <v>      -0.25000000       0.33333333       0.00000000 </v>
    <v>      -0.16666667       0.33333333       0.00000000 </v>
    <v>      -0.08333333       0.33333333       0.00000000 </v>
    <v>       0.00000000       0.41666667       0.00000000 </v>
    <v>       0.08333333       0.41666667       0.00000000 </v>
    <v>       0.16666667       0.41666667       0.00000000 </v>
    <v>       0.25000000       0.41666667       0.00000000 </v>
    <v>       0.33333333       0.41666667       0.00000000 </v>
    <v>       0.41666667       0.41666667       0.00000000 </v>
    <v>       0.50000000       0.41666667       0.00000000 </v>
    <v>      -0.41666667       0.41666667       0.00000000 </v>
    <v>      -0.33333333       0.41666667       0.00000000 </v>
    <v>      -0.25000000       0.41666667       0.00000000 </v>
    <v>      -0.16666667       0.41666667       0.00000000 </v>
    <v>      -0.08333333       0.41666667       0.00000000 </v>
    <v>      -0.00000000       0.50000000       0.00000000 </v>
    <v>       0.08333333       0.50000000       0.00000000 </v>
    <v>       0.16666667       0.50000000       0.00000000 </v>
    <v>       0.25000000       0.50000000       0.00000000 </v>
    <v>       0.33333333       0.50000000       0.00000000 </v>
    <v>       0.41666667       0.50000000       0.00000000 </v>
    <v>       0.50000000       0.50000000       0.00000000 </v>
   </varray>
   <varray name="weights" >
    <v>       0.00694444 </v>
    <v>       0.01388889 </v>
    <v>       0.01388889 </v>
    <v>       0.01388889 </v>
    <v>       0.01388889 </v>
    <v>       0.01388889 </v>
    <v>       0.00694444 </v>
    <v>       0.01388889 </v>
    <v>       0.01388889 </v>
    <v>       0.01388889 </v>
    <v>       0.01388889 </v>
    <v>       0.01388889 </v>
    <v>       0.01388889 </v>
    <v>       0.01388889 </v>
    <v>       0.01388889 </v>
    <v>       0.01388889 </v>
    <v>       0.01388889 </v>
    <v>       0.01388889 </v>
    <v>       0.01388889 </v>
    <v>       0.01388889 </v>
    <v>       0.01388889 </v>
    <v>       0.01388889 </v>
    <v>       0.01388889 </v>
    <v>       0.01388889 </v>
    <v>       0.01388889 </v>
    <v>       0.01388889 </v>
    <v>       0.01388889 </v>
    <v>       0.01388889 </v>
    <v>       0.01388889 </v>
    <v>       0.01388889 </v>
    <v>       0.01388889 </v>
    <v>       0.01388889 </v>
    <v>       0.01388889 </v>
    <v>       0.01388889 </v>
    <v>       0.01388889 </v>
    <v>       0.01388889 </v>
    <v>       0.01388889 </v>
    <v>       0.01388889 </v>
    <v>       0.01388889 </v>
    <v>       0.01388889 </v>
    <v>       0.01388889 </v>
    <v>       0.01388889 </v>
    <v>       0.01388889 </v>
    <v>       0.01388889 </v>
    <v>       0.01388889 </v>
    <v>       0.01388889 </v>
    <v>       0.01388889 </v>
    <v>       0.01388889 </v>
    <v>       0.01388889 </v>
    <v>       0.01388889 </v>
    <v>       0.01388889 </v>
    <v>       0.01388889 </v>
    <v>       0.01388889 </v>
    <v>       0.01388889 </v>
    <v>       0.01388889 </v>
    <v>       0.01388889 </v>
    <v>       0.01388889 </v>
    <v>       0.01388889 </v>
    <v>       0.01388889 </v>
    <v>       0.01388889 </v>
    <v>       0.01388889 </v>
    <v>       0.01388889 </v>
    <v>       0.01388889 </v>
    <v>       0.01388889 </v>
    <v>       0.01388889 </v>
    <v>       0.01388889 </v>
    <v>       0.01388889 </v>
    <v>       0.00694444 </v>
    <v>       0.01388889 </v>
    <v>       0.01388889 </v>
    <v>       0.01388889 </v>
    <v>       0.01388889 </v>
    <v>       0.01388889 </v>
    <v>       0.00694444 </v>
   </varray>
  </kpoints>
  <scstep>
   <time name="total">    3.94    3.94</time>
   <energy>
    <i name="e_fr_energy">   -369.82207038 </i>
    <i name="e_wo_entrp">   -369.82207201 </i>
    <i name="e_0_energy">   -369.82207119 </i>
   </energy>
  </scstep>
  <scstep>
   <time name="total">    3.62    3.62</time>
   <energy>
    <i name="e_fr_energy">   -330.29538837 </i>
    <i name="e_wo_entrp">   -330.29538995 </i>
    <i name="e_0_energy">   -330.29538916 </i>
   </energy>
  </scstep>
  <scstep>
   <time name="total">    3.27    3.27</time>
   <energy>
    <i name="e_fr_energy">   -328.23453297 </i>
    <i name="e_wo_entrp">   -328.23453395 </i>
    <i name="e_0_energy">   -328.23453346 </i>
   </energy>
  </scstep>
  <scstep>
   <time name="total">    3.31    3.31</time>
   <energy>
    <i name="e_fr_energy">   -329.12563458 </i>
    <i name="e_wo_entrp">   -329.12563544 </i>
    <i name="e_0_energy">   -329.12563501 </i>
   </energy>
  </scstep>
  <scstep>
   <time name="total">    3.30    3.30</time>
   <energy>
    <i name="e_fr_energy">   -330.05333157 </i>
    <i name="e_wo_entrp">   -330.05333243 </i>
    <i name="e_0_energy">   -330.05333200 </i>
   </energy>
  </scstep>
  <scstep>
   <time name="total">    3.68    3.68</time>
   <energy>
    <i name="e_fr_energy">   -330.02073362 </i>
    <i name="e_wo_entrp">   -330.02073450 </i>
    <i name="e_0_energy">   -330.02073406 </i>
   </energy>
  </scstep>
  <scstep>
   <time name="total">    3.77    3.77</time>
   <energy>
    <i name="e_fr_energy">   -330.00054948 </i>
    <i name="e_wo_entrp">   -330.00055036 </i>
    <i name="e_0_energy">   -330.00054992 </i>
   </energy>
  </scstep>
  <scstep>
   <time name="total">    3.76    3.76</time>
   <energy>
    <i name="e_fr_energy">   -329.99721638 </i>
    <i name="e_wo_entrp">   -329.99721725 </i>
    <i name="e_0_energy">   -329.99721682 </i>
   </energy>
  </scstep>
  <scstep>
   <time name="total">    3.69    3.69</time>
   <energy>
    <i name="e_fr_energy">   -329.99802785 </i>
    <i name="e_wo_entrp">   -329.99802873 </i>
    <i name="e_0_energy">   -329.99802829 </i>
   </energy>
  </scstep>
  <kpoints>
   <generation param="Gamma">
    <v type="int" name="divisions">      12       12        1 </v>
    <v name="usershift">      0.00000000       0.00000000       0.00000000 </v>
    <v name="genvec1">      0.08333333       0.00000000       0.00000000 </v>
    <v name="genvec2">      0.00000000       0.08333333       0.00000000 </v>
    <v name="genvec3">      0.00000000       0.00000000       1.00000000 </v>
    <v name="shift">      0.00000000       0.00000000       0.00000000 </v>
   </generation>
   <varray name="kpointlist" >
    <v>       0.00000000       0.00000000       0.00000000 </v>
    <v>       0.08333333       0.00000000       0.00000000 </v>
    <v>       0.16666667       0.00000000       0.00000000 </v>
    <v>       0.25000000      -0.00000000       0.00000000 </v>
    <v>       0.33333333      -0.00000000       0.00000000 </v>
    <v>       0.41666667       0.00000000       0.00000000 </v>
    <v>       0.50000000      -0.00000000       0.00000000 </v>
    <v>       0.00000000       0.08333333       0.00000000 </v>
    <v>       0.08333333       0.08333333       0.00000000 </v>
    <v>       0.16666667       0.08333333       0.00000000 </v>
    <v>       0.25000000       0.08333333       0.00000000 </v>
    <v>       0.33333333       0.08333333       0.00000000 </v>
    <v>       0.41666667       0.08333333       0.00000000 </v>
    <v>       0.50000000       0.08333333       0.00000000 </v>
    <v>      -0.41666667       0.08333333       0.00000000 </v>
    <v>      -0.33333333       0.08333333       0.00000000 </v>
    <v>      -0.25000000       0.08333333       0.00000000 </v>
    <v>      -0.16666667       0.08333333       0.00000000 </v>
    <v>       0.00000000       0.16666667       0.00000000 </v>
    <v>       0.08333333       0.16666667       0.00000000 </v>
    <v>       0.16666667       0.16666667       0.00000000 </v>
    <v>       0.25000000       0.16666667       0.00000000 </v>
    <v>       0.33333333       0.16666667       0.00000000 </v>
    <v>       0.41666667       0.16666667       0.00000000 </v>
    <v>       0.50000000       0.16666667       0.00000000 </v>
    <v>      -0.41666667       0.16666667       0.00000000 </v>
    <v>      -0.33333333       0.16666667       0.00000000 </v>
    <v>      -0.00000000       0.25000000       0.00000000 </v>
    <v>       0.08333333       0.25000000       0.00000000 </v>
    <v>       0.16666667       0.25000000       0.00000000 </v>
    <v>       0.25000000       0.25000000       0.00000000 </v>
    <v>       0.33333333       0.25000000       0.00000000 </v>
    <v>       0.41666667       0.25000000       0.00000000 </v>
    <v>       0.50000000       0.25000000       0.00000000 </v>
    <v>      -0.00000000       0.33333333       0.00000000 </v>
    <v>       0.08333333       0.33333333       0.00000000 </v>
    <v>       0.16666667       0.33333333       0.00000000 </v>
    <v>       0.25000000       0.33333333       0.00000000 </v>
    <v>       0.33333333       0.33333333       0.00000000 </v>
    <v>       0.00000000       0.41666667       0.00000000 </v>
    <v>       0.08333333       0.41666667       0.00000000 </v>
    <v>       0.16666667       0.41666667       0.00000000 </v>
    <v>      -0.00000000       0.50000000       0.00000000 </v>
   </varray>
   <varray name="weights" >
    <v>       0.00694444 </v>
    <v>       0.02777778 </v>
    <v>       0.02777778 </v>
    <v>       0.02777778 </v>
    <v>       0.02777778 </v>
    <v>       0.02777778 </v>
    <v>       0.01388889 </v>
    <v>       0.01388889 </v>
    <v>       0.02777778 </v>
    <v>       0.02777778 </v>
    <v>       0.02777778 </v>
    <v>       0.02777778 </v>
    <v>       0.02777778 </v>
    <v>       0.02777778 </v>
    <v>       0.02777778 </v>
    <v>       0.02777778 </v>
    <v>       0.02777778 </v>
    <v>       0.01388889 </v>
    <v>       0.01388889 </v>
    <v>       0.02777778 </v>
    <v>       0.02777778 </v>
    <v>       0.02777778 </v>
    <v>       0.02777778 </v>
    <v>       0.02777778 </v>
    <v>       0.02777778 </v>
    <v>       0.02777778 </v>
    <v>       0.01388889 </v>
    <v>       0.01388889 </v>
    <v>       0.02777778 </v>
    <v>       0.02777778 </v>
    <v>       0.02777778 </v>
    <v>       0.02777778 </v>
    <v>       0.02777778 </v>
    <v>       0.01388889 </v>
    <v>       0.01388889 </v>
    <v>       0.02777778 </v>
    <v>       0.02777778 </v>
    <v>       0.02777778 </v>
    <v>       0.01388889 </v>
    <v>       0.01388889 </v>
    <v>       0.02777778 </v>
    <v>       0.01388889 </v>
    <v>       0.00694444 </v>
   </varray>
  </kpoints>
  <scstep>
   <time name="total">    2.01    2.01</time>
   <energy>
    <i name="e_fr_energy">   -300.20010885 </i>
    <i name="e_wo_entrp">   -300.20010885 </i>
    <i name="e_0_energy">   -300.20010885 </i>
   </energy>
  </scstep>
  <scstep>
   <time name="total">    2.17    2.17</time>
   <energy>
    <i name="e_fr_energy">   -297.95706049 </i>
    <i name="e_wo_entrp">   -297.95706049 </i>
    <i name="e_0_energy">   -297.95706049 </i>
   </energy>
  </scstep>
  <scstep>
   <time name="total">    1.82    1.82</time>
   <energy>
    <i name="e_fr_energy">   -297.07915418 </i>
    <i name="e_wo_entrp">   -297.07915418 </i>
    <i name="e_0_energy">   -297.07915418 </i>
   </energy>
  </scstep>
  <scstep>
   <time name="total">    1.84    1.84</time>
   <energy>
    <i name="e_fr_energy">   -297.97356059 </i>
    <i name="e_wo_entrp">   -297.97356059 </i>
    <i name="e_0_energy">   -297.97356059 </i>
   </energy>
  </scstep>
  <scstep>
   <time name="total">    2.03    2.03</time>
   <energy>
    <i name="e_fr_energy">   -297.41078385 </i>
    <i name="e_wo_entrp">   -297.41078385 </i>
    <i name="e_0_energy">   -297.41078385 </i>
   </energy>
  </scstep>
  <scstep>
   <time name="total">    2.25    2.25</time>
   <energy>
    <i name="e_fr_energy">   -297.41528368 </i>
    <i name="e_wo_entrp">   -297.41528368 </i>
    <i name="e_0_energy">   -297.41528368 </i>
   </energy>
  </scstep>
  <scstep>
   <time name="total">    2.18    2.18</time>
   <energy>
    <i name="e_fr_energy">   -297.36694051 </i>
    <i name="e_wo_entrp">   -297.36694051 </i>
    <i name="e_0_energy">   -297.36694051 </i>
   </energy>
  </scstep>
  <scstep>
   <time name="total">    2.14    2.14</time>
   <energy>
    <i name="e_fr_energy">   -297.37003825 </i>
    <i name="e_wo_entrp">   -297.37003825 </i>
    <i name="e_0_energy">   -297.37003825 </i>
   </energy>
  </scstep>
  <scstep>
   <time name="total">    2.19    2.19</time>
   <energy>
    <i name="e_fr_energy">   -297.37034675 </i>
    <i name="e_wo_entrp">   -297.37034675 </i>
    <i name="e_0_energy">   -297.37034675 </i>
   </energy>
  </scstep>
  <kpoints>
   <generation param="Gamma">
    <v type="int" name="divisions">      12       12        1 </v>
    <v name="usershift">      0.00000000       0.00000000       0.00000000 </v>
    <v name="genvec1">      0.08333333       0.00000000       0.00000000 </v>
    <v name="genvec2">      0.00000000       0.08333333       0.00000000 </v>
    <v name="genvec3">      0.00000000       0.00000000       1.00000000 </v>
    <v name="shift">      0.00000000       0.00000000       0.00000000 </v>
   </generation>
   <varray name="kpointlist" >
    <v>       0.00000000       0.00000000       0.00000000 </v>
    <v>       0.08333333       0.00000000       0.00000000 </v>
    <v>       0.16666667       0.00000000       0.00000000 </v>
    <v>       0.25000000      -0.00000000       0.00000000 </v>
    <v>       0.33333333      -0.00000000       0.00000000 </v>
    <v>       0.41666667       0.00000000       0.00000000 </v>
    <v>       0.50000000      -0.00000000       0.00000000 </v>
    <v>       0.08333333       0.08333333       0.00000000 </v>
    <v>       0.16666667       0.08333333       0.00000000 </v>
    <v>       0.25000000       0.08333333       0.00000000 </v>
    <v>       0.33333333       0.08333333       0.00000000 </v>
    <v>       0.41666667       0.08333333       0.00000000 </v>
    <v>       0.16666667       0.16666667       0.00000000 </v>
    <v>       0.25000000       0.16666667       0.00000000 </v>
    <v>       0.33333333       0.16666667       0.00000000 </v>
    <v>       0.41666667       0.16666667       0.00000000 </v>
    <v>       0.25000000       0.25000000       0.00000000 </v>
    <v>       0.33333333       0.25000000       0.00000000 </v>
    <v>       0.33333333       0.33333333       0.00000000 </v>
   </varray>
   <varray name="weights" >
    <v>       0.00694444 </v>
    <v>       0.04166667 </v>
    <v>       0.04166667 </v>
    <v>       0.04166667 </v>
    <v>       0.04166667 </v>
    <v>       0.04166667 </v>
    <v>       0.02083333 </v>
    <v>       0.04166667 </v>
    <v>       0.08333333 </v>
    <v>       0.08333333 </v>
    <v>       0.08333333 </v>
    <v>       0.08333333 </v>
    <v>       0.04166667 </v>
    <v>       0.08333333 </v>
    <v>       0.08333333 </v>
    <v>       0.04166667 </v>
    <v>       0.04166667 </v>
    <v>       0.08333333 </v>
    <v>       0.01388889 </v>
   </varray>
  </kpoints>
  <dynmat>
   <varray name="hessian" >
    <v>      -3.68550316       0.00000000      -0.00000000       0.06361852       0.00000000      -0.00000000       0.80847733      -0.46386376       0.00000000       0.23668409      -0.29011485      -0.00000000       1.61191299       0.00000000       0.00000000      -0.26580961       0.00000000      -0.00000000       0.80847733       0.46386376      -0.00000000       0.23668409       0.29011485       0.00000000 </v>
    <v>       0.00000000      -3.68550260      -0.00000000       0.00000000       0.06361851       0.00000000      -0.46386376       1.34410090       0.00000000      -0.29011485      -0.09831169      -0.00000000      -0.00000000       0.54066537       0.00000000       0.00000000       0.40418192       0.00000000       0.46386376       1.34410090      -0.00000000       0.29011485      -0.09831169      -0.00000000 </v>
    <v>      -0.00000000      -0.00000000      -1.14530651      -0.00000000       0.00000000       0.14603922       0.00000000      -0.00000000       0.35454062       0.00000000       0.00000000      -0.03854419      -0.00000000       0.00000000       0.35454062      -0.00000000      -0.00000000      -0.03854419      -0.00000000      -0.00000000       0.35454062       0.00000000       0.00000000      -0.03854419 </v>
    <v>       0.06361852       0.00000000      -0.00000000      -3.68550316       0.00000000       0.00000000       0.23668409       0.29011485      -0.00000000       0.80847733       0.46386376       0.00000000      -0.26580961       0.00000000       0.00000000       1.61191299       0.00000000      -0.00000000       0.23668409      -0.29011485       0.00000000       0.80847733      -0.46386376       0.00000000 </v>
    <v>       0.00000000       0.06361851       0.00000000       0.00000000      -3.68550260      -0.00000000       0.29011485      -0.09831169       0.00000000       0.46386376       1.34410090       0.00000000       0.00000000       0.40418192       0.00000000       0.00000000       0.54066537       0.00000000      -0.29011485      -0.09831169       0.00000000      -0.46386376       1.34410090      -0.00000000 </v>
    <v>      -0.00000000       0.00000000       0.14603922       0.00000000      -0.00000000      -1.14530651       0.00000000      -0.00000000      -0.03854419       0.00000000      -0.00000000       0.35454062      -0.00000000       0.00000000      -0.03854419      -0.00000000       0.00000000       0.35454062      -0.00000000      -0.00000000      -0.03854419      -0.00000000      -0.00000000       0.35454062 </v>
    <v>       0.80847733      -0.46386376       0.00000000       0.23668409       0.29011485       0.00000000      -4.49604671      -0.06111032       0.00000000       2.20055614       0.10405416      -0.00000000       0.30539875      -0.64129379      -0.00000000       1.21201806       0.46667852       0.00000000      -0.50647518       0.17255820      -0.00000000       0.29319124       0.12446120      -0.00000000 </v>
    <v>      -0.46386376       1.34410090      -0.00000000       0.29011485      -0.09831169      -0.00000000      -0.06111032      -4.42548191      -0.00000000      -0.10405416       0.88250524       0.00000000      -0.29617740      -0.23585050      -0.00000000       0.67478684       1.87104316       0.00000000      -0.17255820       0.57602330      -0.00000000       0.12446120       0.14947579      -0.00000000 </v>
    <v>       0.00000000       0.00000000       0.35454062      -0.00000000       0.00000000      -0.03854419       0.00000000      -0.00000000      -0.88632776      -0.00000000      -0.00000000       0.49736707       0.00000000       0.00000000      -0.25131612      -0.00000000       0.00000000       0.49736707       0.00000000       0.00000000      -0.25131612       0.00000000       0.00000000       0.09444497 </v>
    <v>       0.23668409      -0.29011485       0.00000000       0.80847733       0.46386376       0.00000000       2.20055614      -0.10405416      -0.00000000      -4.49604671       0.06111032      -0.00000000       1.21201806      -0.46667852       0.00000000       0.30539875       0.64129379      -0.00000000       0.29319124      -0.12446120      -0.00000000      -0.50647518      -0.17255820      -0.00000000 </v>
    <v>      -0.29011485      -0.09831169       0.00000000       0.46386376       1.34410090      -0.00000000       0.10405416       0.88250524      -0.00000000       0.06111032      -4.42548191      -0.00000000      -0.67478684       1.87104316      -0.00000000       0.29617740      -0.23585050       0.00000000      -0.12446120       0.14947579       0.00000000       0.17255820       0.57602330      -0.00000000 </v>
    <v>      -0.00000000      -0.00000000      -0.03854419       0.00000000       0.00000000       0.35454062      -0.00000000       0.00000000       0.49736707      -0.00000000      -0.00000000      -0.88632776      -0.00000000      -0.00000000       0.49736707      -0.00000000      -0.00000000      -0.25131612       0.00000000      -0.00000000       0.09444497       0.00000000       0.00000000      -0.25131612 </v>
    <v>       1.61191299      -0.00000000      -0.00000000      -0.26580961       0.00000000      -0.00000000       0.30539875      -0.29617740       0.00000000       1.21201806      -0.67478684      -0.00000000      -4.39020052       0.00000000      -0.00000000       0.07761809       0.00000000       0.00000000       0.30539875       0.29617740       0.00000000       1.21201806       0.67478684       0.00000000 </v>
    <v>       0.00000000       0.54066537       0.00000000       0.00000000       0.40418192       0.00000000      -0.64129379      -0.23585050       0.00000000      -0.46667852       1.87104316      -0.00000000       0.00000000      -4.53132808      -0.00000000       0.00000000       0.36504890       0.00000000       0.64129379      -0.23585050       0.00000000       0.46667852       1.87104316      -0.00000000 </v>
    <v>       0.00000000       0.00000000       0.35454062       0.00000000       0.00000000      -0.03854419      -0.00000000      -0.00000000      -0.25131612       0.00000000      -0.00000000       0.49736707      -0.00000000      -0.00000000      -0.88632776      -0.00000000      -0.00000000       0.09444497       0.00000000      -0.00000000      -0.25131612      -0.00000000      -0.00000000       0.49736707 </v>
    <v>      -0.26580961       0.00000000      -0.00000000       1.61191299       0.00000000      -0.00000000       1.21201806       0.67478684      -0.00000000       0.30539875       0.29617740      -0.00000000       0.07761809       0.00000000      -0.00000000      -4.39020052       0.00000000       0.00000000       1.21201806      -0.67478684       0.00000000       0.30539875      -0.29617740      -0.00000000 </v>
    <v>       0.00000000       0.40418192      -0.00000000       0.00000000       0.54066537       0.00000000       0.46667852       1.87104316       0.00000000       0.64129379      -0.23585050      -0.00000000       0.00000000       0.36504890      -0.00000000       0.00000000      -4.53132808       0.00000000      -0.46667852       1.87104316       0.00000000      -0.64129379      -0.23585050      -0.00000000 </v>
    <v>      -0.00000000       0.00000000      -0.03854419      -0.00000000       0.00000000       0.35454062       0.00000000       0.00000000       0.49736707      -0.00000000       0.00000000      -0.25131612       0.00000000       0.00000000       0.09444497       0.00000000       0.00000000      -0.88632776      -0.00000000       0.00000000       0.49736707       0.00000000       0.00000000      -0.25131612 </v>
    <v>       0.80847733       0.46386376      -0.00000000       0.23668409      -0.29011485      -0.00000000      -0.50647518      -0.17255820       0.00000000       0.29319124      -0.12446120       0.00000000       0.30539875       0.64129379       0.00000000       1.21201806      -0.46667852      -0.00000000      -4.49604671       0.06111032       0.00000000       2.20055614      -0.10405416       0.00000000 </v>
    <v>       0.46386376       1.34410090      -0.00000000      -0.29011485      -0.09831169      -0.00000000       0.17255820       0.57602330       0.00000000      -0.12446120       0.14947579      -0.00000000       0.29617740      -0.23585050      -0.00000000      -0.67478684       1.87104316       0.00000000       0.06111032      -4.42548191       0.00000000       0.10405416       0.88250524       0.00000000 </v>
    <v>      -0.00000000      -0.00000000       0.35454062       0.00000000       0.00000000      -0.03854419      -0.00000000      -0.00000000      -0.25131612      -0.00000000       0.00000000       0.09444497       0.00000000       0.00000000      -0.25131612       0.00000000       0.00000000       0.49736707       0.00000000       0.00000000      -0.88632776       0.00000000      -0.00000000       0.49736707 </v>
    <v>       0.23668409       0.29011485       0.00000000       0.80847733      -0.46386376      -0.00000000       0.29319124       0.12446120       0.00000000      -0.50647518       0.17255820       0.00000000       1.21201806       0.46667852      -0.00000000       0.30539875      -0.64129379       0.00000000       2.20055614       0.10405416       0.00000000      -4.49604671      -0.06111032      -0.00000000 </v>
    <v>       0.29011485      -0.09831169       0.00000000      -0.46386376       1.34410090      -0.00000000       0.12446120       0.14947579       0.00000000      -0.17255820       0.57602330       0.00000000       0.67478684       1.87104316      -0.00000000      -0.29617740      -0.23585050       0.00000000      -0.10405416       0.88250524      -0.00000000      -0.06111032      -4.42548191       0.00000000 </v>
    <v>       0.00000000      -0.00000000      -0.03854419       0.00000000      -0.00000000       0.35454062      -0.00000000      -0.00000000       0.09444497      -0.00000000      -0.00000000      -0.25131612       0.00000000      -0.00000000       0.49736707      -0.00000000      -0.00000000      -0.25131612       0.00000000       0.00000000       0.49736707      -0.00000000       0.00000000      -0.88632776 </v>
   </varray>
   <v name="eigenvalues"> -8.49366625E+00 -8.49366499E+00 -6.38843348E+00 -6.38843343E+00 -5.49902977E+00 -5.24295843E+00 -5.17422800E+00 -5.00950182E+00 -5.00950143E+00 -4.61511481E+00 -4.61511414E+00 -2.78788506E+00 -1.29904818E+00 -1.23555883E+00 -1.23555873E+00 -1.03793375E+00 -1.03793375E+00 -9.81599773E-01 -8.70419188E-01 -2.32089542E-01 -2.32089542E-01  5.69895764E-10  4.40167142E-08  4.40167174E-08</v>
   <varray name="eigenvectors" >
    <v>  -2.06114162E-01  9.88153799E-10  1.75928906E-17  2.06114162E-01 -9.88154021E-10 -3.93228179E-17  4.19197159E-01  6.06281586E-02 -1.13380762E-16 -4.19197160E-01  6.06281620E-02 -1.97576754E-16  3.14186072E-01 -2.17753313E-09  2.22194163E-16 -3.14186072E-01  2.17753241E-09  1.27008356E-17  4.19197160E-01 -6.06281620E-02  2.32580652E-17 -4.19197159E-01 -6.06281586E-02  2.62778175E-17</v>
    <v>  -9.88153841E-10 -2.06114149E-01  1.80061497E-17  9.88153563E-10  2.06114149E-01 -3.66620510E-17  6.06281867E-02  3.49189768E-01  1.59149715E-16  6.06281827E-02 -3.49189768E-01  4.33544952E-16  1.50627304E-09  4.54200854E-01 -1.19759585E-16 -1.50627267E-09 -4.54200854E-01 -3.00458397E-16 -6.06281827E-02  3.49189768E-01  1.66714299E-16 -6.06281867E-02 -3.49189768E-01 -1.44422233E-17</v>
    <v>  -1.42444761E-01  2.25708256E-10 -1.70959412E-16 -1.42444761E-01  2.25707570E-10  1.94730077E-17 -1.53578723E-01 -3.44096981E-01 -1.11066677E-16 -1.53578724E-01  3.44096980E-01  1.62481992E-16  4.42415164E-01  5.58137369E-10 -3.11447816E-17  4.42415164E-01  5.58138028E-10 -1.69797720E-16 -1.53578724E-01  3.44096980E-01  2.85249903E-17 -1.53578723E-01 -3.44096981E-01 -2.84145099E-17</v>
    <v>  -2.25707489E-10 -1.42444697E-01  1.06790877E-16 -2.25707762E-10 -1.42444697E-01  1.11166784E-16 -3.44097291E-01  2.43750345E-01 -1.51154094E-16  3.44097290E-01  2.43750347E-01 -1.45783574E-16  7.01017882E-10 -3.52243035E-01  1.46742310E-17  7.01018146E-10 -3.52243035E-01  4.14971687E-17  3.44097290E-01  2.43750347E-01 -8.47403075E-17 -3.44097291E-01  2.43750345E-01 -7.46868437E-18</v>
    <v>  -4.66971805E-16 -1.31520788E-07 -2.22155196E-16  3.15799294E-16 -1.31520788E-07  1.81375694E-16  3.53553228E-01  2.04124281E-01 -5.16821620E-17 -3.53553228E-01  2.04124281E-01  6.05737017E-17 -3.48903035E-16 -4.08248437E-01 -5.86807684E-17 -1.14058746E-15 -4.08248437E-01  1.06666442E-16 -3.53553228E-01  2.04124281E-01  6.01459732E-17  3.53553228E-01  2.04124281E-01  7.72665771E-18</v>
    <v>  -5.74830174E-07  2.09741493E-15 -8.54477364E-17  5.74830174E-07 -1.82988213E-15  1.92636992E-16 -2.04124346E-01  3.53553091E-01 -3.47188475E-17  2.04124346E-01  3.53553091E-01  1.57359638E-16  4.08248608E-01  1.13976146E-15 -1.26305556E-16 -4.08248608E-01 -9.23543038E-16 -2.36359276E-16 -2.04124346E-01 -3.53553091E-01  9.61966590E-17  2.04124346E-01 -3.53553091E-01  8.76803572E-18</v>
    <v>   1.43313771E-07  1.96986656E-15 -4.40848346E-17  1.43313768E-07 -1.46113435E-15  1.10120796E-16 -2.04124127E-01  3.53553500E-01 -7.65262200E-18 -2.04124127E-01 -3.53553500E-01  3.23054187E-16  4.08248119E-01  5.41216039E-16  1.21069943E-16  4.08248119E-01 -2.31782763E-15 -2.30027755E-16 -2.04124127E-01 -3.53553500E-01 -1.40154489E-16 -2.04124127E-01  3.53553500E-01  9.01199411E-17</v>
    <v>   5.01309686E-01  5.69182255E-10  2.30093154E-17 -5.01309686E-01 -5.69182178E-10  4.48000666E-17  1.80357718E-01  2.47204537E-01 -5.90424863E-17 -1.80357717E-01  2.47204537E-01 -4.85081119E-17 -2.47811662E-01  3.66822640E-10 -6.52091200E-17  2.47811662E-01 -3.66823880E-10  8.29740784E-17  1.80357717E-01 -2.47204537E-01  8.00989352E-17 -1.80357718E-01 -2.47204537E-01 -2.56120838E-18</v>
    <v>   5.69181198E-10 -5.01309666E-01  2.54188264E-17 -5.69183096E-10  5.01309666E-01 -1.66375673E-17 -2.47204148E-01  1.05088797E-01  4.16644023E-17 -2.47204148E-01 -1.05088796E-01  3.65467038E-18 -2.81359550E-10 -3.23081301E-01  4.29914880E-17  2.81362966E-10  3.23081301E-01 -1.55586737E-16  2.47204148E-01  1.05088796E-01 -4.87497483E-17  2.47204148E-01 -1.05088797E-01 -1.21117853E-18</v>
    <v>   6.03578338E-01 -1.79954092E-10  1.33858816E-17  6.03578338E-01 -1.79952948E-10  1.07624703E-16 -2.37773186E-01 -8.12230859E-02 -5.40863198E-17 -2.37773186E-01  8.12230860E-02 -1.05885856E-17 -9.70908624E-02  8.48713298E-11 -3.38936520E-17 -9.70908624E-02  8.48722982E-11  5.37827833E-17 -2.37773186E-01  8.12230860E-02  4.41658517E-17 -2.37773186E-01 -8.12230859E-02 -1.98936619E-18</v>
    <v>  -1.79953191E-10 -6.03578353E-01 -1.53258922E-17 -1.79953970E-10 -6.03578353E-01 -9.32595348E-17  8.12229596E-02  1.43984944E-01  1.55999716E-18 -8.12229594E-02  1.43984944E-01 -2.94090210E-17  2.89478373E-11  2.84667360E-01 -1.35355721E-16  2.89474816E-11  2.84667360E-01 -9.13971707E-17 -8.12229594E-02  1.43984944E-01 -1.35712334E-16  8.12229596E-02  1.43984944E-01 -2.73443077E-17</v>
    <v>  -4.56545450E-18  3.96937996E-17  2.92815897E-01 -1.62513132E-17  3.66341922E-17 -2.92815897E-01  9.29666646E-17 -7.58751592E-17 -3.71599628E-01 -5.27124376E-17  1.11900323E-16  3.71599628E-01  1.24394713E-17  4.27215127E-17 -3.71599628E-01 -7.48893973E-17 -1.08761989E-18  3.71599628E-01 -7.21880894E-17 -4.25111726E-17 -3.71599628E-01  2.49947964E-17  7.58746562E-17  3.71599628E-01</v>
    <v>   3.95587738E-16  1.18513660E-15 -6.20173506E-01 -3.31126479E-16 -1.15939501E-15 -6.20173506E-01 -7.24053102E-16  6.17338790E-16  1.96116311E-01 -5.05734049E-16 -7.75827965E-16  1.96116311E-01  3.13517325E-16 -4.76818103E-16  1.96116311E-01 -5.28373007E-16  3.95177626E-16  1.96116311E-01  5.15005112E-16  6.24204619E-16  1.96116311E-01  5.59000794E-16 -3.83523094E-16  1.96116311E-01</v>
    <v>  -4.54098613E-01  3.19749642E-09 -8.25149247E-16  4.54098613E-01 -3.19749684E-09 -1.64796620E-16  8.83666265E-03  2.45386136E-01  1.93121829E-16 -8.83666610E-03  2.45386132E-01 -1.11464889E-16 -4.16184534E-01 -1.05980534E-09 -1.64068384E-16  4.16184534E-01  1.05980551E-09  5.18052905E-16  8.83666610E-03 -2.45386132E-01  1.88612150E-16 -8.83666265E-03 -2.45386136E-01  3.53889948E-16</v>
    <v>  -3.19749656E-09 -4.54098642E-01 -1.90947740E-15  3.19749657E-09  4.54098642E-01 -1.18729700E-15  2.45386157E-01 -2.74510775E-01  2.47084256E-16  2.45386157E-01  2.74510779E-01  1.34613422E-15 -2.93052785E-09  1.50510327E-01  5.26866616E-17  2.93052767E-09 -1.50510327E-01  1.97200072E-16 -2.45386157E-01 -2.74510779E-01  1.14979516E-15 -2.45386157E-01  2.74510775E-01  3.51774938E-16</v>
    <v>   1.42018029E-16 -1.44578367E-16 -7.79949886E-16 -5.40641614E-17  1.60782033E-16  7.12249772E-16 -2.38551052E-16 -3.78090492E-16  5.77350269E-01 -1.78502385E-16  3.41720008E-16 -2.88675800E-01  2.04405318E-16  4.30947190E-16 -2.88674469E-01  5.94936987E-17 -4.88363841E-16 -2.88674469E-01  3.11046633E-16 -2.20319630E-16 -2.88675800E-01  3.14565566E-16  2.80080970E-16  5.77350269E-01</v>
    <v>  -1.59711619E-17  5.49103633E-16 -6.79562146E-16  2.28662826E-16 -3.62173067E-16  8.39535965E-16  5.94561013E-16  6.63761911E-16  7.68720951E-07  6.93739466E-16 -9.47932994E-16  4.99999616E-01 -1.76049445E-16 -1.20673714E-15 -5.00000384E-01  2.41095541E-16  1.14878992E-15 -5.00000384E-01 -3.91650671E-16  6.18195297E-16  4.99999616E-01 -6.46857462E-16 -1.03093905E-15  7.68720952E-07</v>
    <v>  -1.49116523E-16 -1.02495276E-16  6.43629436E-01  2.45810203E-16  3.04832720E-16 -6.43629436E-01  2.76680365E-16  2.73361658E-16  1.69057337E-01  4.39687532E-16  1.16604433E-16 -1.69057337E-01 -1.01256008E-16 -1.35511882E-16  1.69057337E-01  1.85474685E-16  3.07024899E-16 -1.69057337E-01 -4.86117038E-16 -3.82438478E-16  1.69057337E-01 -1.75082687E-16 -1.32268916E-16 -1.69057337E-01</v>
    <v>  -1.42894000E-16  5.21278484E-08 -5.57126638E-16 -1.81272830E-17 -5.21278487E-08  4.31410983E-16  3.53553343E-01  2.04124188E-01  3.06392053E-16  3.53553343E-01 -2.04124188E-01 -3.31082950E-16  5.62308494E-17 -4.08248329E-01  2.04279236E-15  1.26870854E-18  4.08248329E-01 -3.21393358E-16 -3.53553343E-01  2.04124188E-01 -2.88018688E-15 -3.53553343E-01 -2.04124188E-01  6.08834018E-16</v>
    <v>   4.05619486E-17 -4.96781432E-17  3.53310148E-17  3.38498162E-16 -6.75064606E-17 -1.41280013E-16 -5.88244688E-16 -3.25398400E-16  6.57856305E-07 -6.16115037E-16  6.43652184E-16  5.00000329E-01  1.14497467E-16  9.74487459E-16  4.99999671E-01  3.52467985E-16 -1.17211549E-15 -4.99999671E-01  9.99815456E-16 -9.69332858E-16 -5.00000329E-01  8.82829936E-16  3.07359246E-16 -6.57856305E-07</v>
    <v>   1.14439314E-16 -4.11044163E-17 -1.31385234E-16  6.46902082E-17  7.01182102E-17  1.39278957E-15  3.84918815E-17  1.02371240E-16 -5.77350269E-01  1.35244440E-16 -1.86719192E-17 -2.88674565E-01  4.13085918E-17  1.39809727E-16  2.88675704E-01  9.13843366E-17 -9.11787002E-17 -2.88675704E-01  4.18600744E-17  1.25556400E-16  2.88674565E-01  1.33177289E-16  1.41466105E-17  5.77350269E-01</v>
    <v>  -1.64245160E-09 -1.26638321E-10  3.39683415E-01 -1.64245157E-09 -1.26638493E-10  3.39683415E-01 -1.73120934E-09 -1.33605816E-10  3.58057341E-01 -1.73118823E-09 -1.33331861E-10  3.58057341E-01 -1.73096151E-09 -1.33487265E-10  3.58057341E-01 -1.73096144E-09 -1.33486865E-10  3.58057341E-01 -1.73118861E-09 -1.33331461E-10  3.58057341E-01 -1.73120953E-09 -1.33606031E-10  3.58057341E-01</v>
    <v>  -1.71307522E-02 -3.39277494E-01 -2.09285910E-10 -1.71307522E-02 -3.39277494E-01 -2.09285985E-10 -1.80847051E-02 -3.57578567E-01 -2.20606517E-10 -1.80280676E-02 -3.57575708E-01 -2.20606567E-10 -1.80539097E-02 -3.57626187E-01 -2.20606408E-10 -1.80539097E-02 -3.57626187E-01 -2.20606489E-10 -1.80280676E-02 -3.57575708E-01 -2.20606451E-10 -1.80847051E-02 -3.57578567E-01 -2.20606467E-10</v>
    <v>  -3.39277494E-01  1.71307522E-02 -1.63384944E-09 -3.39277494E-01  1.71307522E-02 -1.63384934E-09 -3.57608407E-01  1.80264165E-02 -1.72222658E-09 -3.57611267E-01  1.80830540E-02 -1.72222619E-09 -3.57560788E-01  1.80572119E-02 -1.72222625E-09 -3.57560788E-01  1.80572119E-02 -1.72222694E-09 -3.57611267E-01  1.80830540E-02 -1.72222665E-09 -3.57608407E-01  1.80264165E-02 -1.72222630E-09</v>
   </varray>
  </dynmat>
  <time name="totalsc">  123.79  124.19</time>
  <eigenvalues>
   <array>
    <dimension dim="1">band</dimension>
    <dimension dim="2">kpoint</dimension>
    <dimension dim="3">spin</dimension>
    <field>eigene</field>
    <field>occ</field>
    <set>
     <set comment="spin 1">
      <set comment="kpoint 1">
       <r>  -18.5403    1.0000 </r>
       <r>  -14.6488    1.0000 </r>
       <r>  -14.6488    1.0000 </r>
       <r>  -12.2992    1.0000 </r>
       <r>  -12.2992    1.0000 </r>
       <r>  -11.2307    1.0000 </r>
       <r>   -9.9135    1.0000 </r>
       <r>   -7.3452    1.0000 </r>
       <r>   -7.1249    1.0000 </r>
       <r>   -4.9710    1.0000 </r>
       <r>   -4.9710    1.0000 </r>
       <r>   -3.1493    1.0000 </r>
       <r>   -3.1492    1.0000 </r>
       <r>   -2.4667    1.0000 </r>
       <r>   -2.4666    1.0000 </r>
       <r>   -0.6315    0.0000 </r>
       <r>    1.1011    0.0000 </r>
       <r>    1.1012    0.0000 </r>
       <r>    1.7906    0.0000 </r>
       <r>    1.9212    0.0000 </r>
       <r>    4.5207    0.0000 </r>
       <r>    5.9119    0.0000 </r>
       <r>    6.3151    0.0000 </r>
       <r>    6.3151    0.0000 </r>
      </set>
      <set comment="kpoint 2">
       <r>  -18.5132    1.0000 </r>
       <r>  -14.7809    1.0000 </r>
       <r>  -14.6912    1.0000 </r>
       <r>  -12.3384    1.0000 </r>
       <r>  -12.2008    1.0000 </r>
       <r>  -11.0961    1.0000 </r>
       <r>   -9.7531    1.0000 </r>
       <r>   -7.3040    1.0000 </r>
       <r>   -7.1822    1.0000 </r>
       <r>   -5.0944    1.0000 </r>
       <r>   -4.9934    1.0000 </r>
       <r>   -3.2737    1.0000 </r>
       <r>   -3.1697    1.0000 </r>
       <r>   -2.6092    1.0000 </r>
       <r>   -2.5354    1.0000 </r>
       <r>   -0.8361    0.0000 </r>
       <r>    1.1605    0.0000 </r>
       <r>    1.4116    0.0000 </r>
       <r>    1.9153    0.0000 </r>
       <r>    1.9730    0.0000 </r>
       <r>    4.5728    0.0000 </r>
       <r>    5.9681    0.0000 </r>
       <r>    6.3866    0.0000 </r>
       <r>    6.4781    0.0000 </r>
      </set>
      <set comment="kpoint 3">
       <r>  -18.4341    1.0000 </r>
       <r>  -15.1059    1.0000 </r>
       <r>  -14.7954    1.0000 </r>
       <r>  -12.4549    1.0000 </r>
       <r>  -11.9317    1.0000 </r>
       <r>  -10.7149    1.0000 </r>
       <r>   -9.3237    1.0000 </r>
       <r>   -7.3645    1.0000 </r>
       <r>   -7.1816    1.0000 </r>
       <r>   -5.4404    1.0000 </r>
[...]
        <r>  0.0000  0.0000  0.0005  0.0000  0.0000  0.0000  0.0000  0.0000  0.0000 </r>
        <r>  0.0000  0.0000  0.0532  0.0000  0.0000  0.0000  0.0000  0.0000  0.0000 </r>
        <r>  0.0000  0.0000  0.0142  0.0000  0.0000  0.0000  0.0000  0.0000  0.0000 </r>
        <r>  0.0000  0.0000  0.0142  0.0000  0.0000  0.0000  0.0000  0.0000  0.0000 </r>
        <r>  0.0000  0.0000  0.0532  0.0000  0.0000  0.0000  0.0000  0.0000  0.0000 </r>
        <r>  0.0000  0.0000  0.0005  0.0000  0.0000  0.0000  0.0000  0.0000  0.0000 </r>
       </set>
      </set>
      <set comment="kpoint 19">
       <set comment="band 1">
        <r>  0.0000  0.0047  0.0000  0.0047  0.0000  0.0000  0.0000  0.0000  0.0000 </r>
        <r>  0.0000  0.0047  0.0000  0.0047  0.0000  0.0000  0.0000  0.0000  0.0000 </r>
        <r>  0.0961  0.0081  0.0000  0.0028  0.0000  0.0000  0.0000  0.0000  0.0000 </r>
        <r>  0.0961  0.0081  0.0000  0.0028  0.0000  0.0000  0.0000  0.0000  0.0000 </r>
        <r>  0.0961  0.0001  0.0000  0.0107  0.0000  0.0000  0.0000  0.0000  0.0000 </r>
        <r>  0.0961  0.0001  0.0000  0.0107  0.0000  0.0000  0.0000  0.0000  0.0000 </r>
        <r>  0.0961  0.0081  0.0000  0.0028  0.0000  0.0000  0.0000  0.0000  0.0000 </r>
        <r>  0.0961  0.0081  0.0000  0.0028  0.0000  0.0000  0.0000  0.0000  0.0000 </r>
       </set>
       <set comment="band 2">
        <r>  0.0394  0.0050  0.0000  0.0050  0.0000  0.0000  0.0000  0.0000  0.0000 </r>
        <r>  0.0394  0.0050  0.0000  0.0050  0.0000  0.0000  0.0000  0.0000  0.0000 </r>
        <r>  0.0427  0.0053  0.0000  0.0120  0.0000  0.0000  0.0000  0.0000  0.0000 </r>
        <r>  0.0427  0.0053  0.0000  0.0120  0.0000  0.0000  0.0000  0.0000  0.0000 </r>
        <r>  0.1610  0.0018  0.0000  0.0004  0.0000  0.0000  0.0000  0.0000  0.0000 </r>
        <r>  0.1610  0.0018  0.0000  0.0004  0.0000  0.0000  0.0000  0.0000  0.0000 </r>
        <r>  0.0427  0.0053  0.0000  0.0120  0.0000  0.0000  0.0000  0.0000  0.0000 </r>
        <r>  0.0427  0.0053  0.0000  0.0120  0.0000  0.0000  0.0000  0.0000  0.0000 </r>
       </set>
       <set comment="band 3">
        <r>  0.0394  0.0050  0.0000  0.0050  0.0000  0.0000  0.0000  0.0000  0.0000 </r>
        <r>  0.0394  0.0050  0.0000  0.0050  0.0000  0.0000  0.0000  0.0000  0.0000 </r>
        <r>  0.1216  0.0013  0.0000  0.0059  0.0000  0.0000  0.0000  0.0000  0.0000 </r>
        <r>  0.1216  0.0013  0.0000  0.0059  0.0000  0.0000  0.0000  0.0000  0.0000 </r>
        <r>  0.0032  0.0217  0.0000  0.0006  0.0000  0.0000  0.0000  0.0000  0.0000 </r>
        <r>  0.0032  0.0217  0.0000  0.0006  0.0000  0.0000  0.0000  0.0000  0.0000 </r>
        <r>  0.1216  0.0013  0.0000  0.0059  0.0000  0.0000  0.0000  0.0000  0.0000 </r>
        <r>  0.1216  0.0013  0.0000  0.0059  0.0000  0.0000  0.0000  0.0000  0.0000 </r>
       </set>
       <set comment="band 4">
        <r>  0.0525  0.0051  0.0000  0.0051  0.0000  0.0000  0.0000  0.0000  0.0000 </r>
        <r>  0.0525  0.0051  0.0000  0.0051  0.0000  0.0000  0.0000  0.0000  0.0000 </r>
        <r>  0.0771  0.0054  0.0000  0.0203  0.0000  0.0000  0.0000  0.0000  0.0000 </r>
        <r>  0.0771  0.0054  0.0000  0.0203  0.0000  0.0000  0.0000  0.0000  0.0000 </r>
        <r>  0.0163  0.0619  0.0000  0.0104  0.0000  0.0000  0.0000  0.0000  0.0000 </r>
        <r>  0.0163  0.0619  0.0000  0.0104  0.0000  0.0000  0.0000  0.0000  0.0000 </r>
        <r>  0.0771  0.0054  0.0000  0.0203  0.0000  0.0000  0.0000  0.0000  0.0000 </r>
        <r>  0.0771  0.0054  0.0000  0.0203  0.0000  0.0000  0.0000  0.0000  0.0000 </r>
       </set>
       <set comment="band 5">
        <r>  0.0525  0.0051  0.0000  0.0051  0.0000  0.0000  0.0000  0.0000  0.0000 </r>
        <r>  0.0525  0.0051  0.0000  0.0051  0.0000  0.0000  0.0000  0.0000  0.0000 </r>
        <r>  0.0366  0.0232  0.0000  0.0336  0.0000  0.0000  0.0000  0.0000  0.0000 </r>
        <r>  0.0366  0.0232  0.0000  0.0336  0.0000  0.0000  0.0000  0.0000  0.0000 </r>
        <r>  0.0974  0.0045  0.0000  0.0056  0.0000  0.0000  0.0000  0.0000  0.0000 </r>
        <r>  0.0974  0.0045  0.0000  0.0056  0.0000  0.0000  0.0000  0.0000  0.0000 </r>
        <r>  0.0366  0.0232  0.0000  0.0336  0.0000  0.0000  0.0000  0.0000  0.0000 </r>
        <r>  0.0366  0.0232  0.0000  0.0336  0.0000  0.0000  0.0000  0.0000  0.0000 </r>
       </set>
       <set comment="band 6">
        <r>  0.0000  0.0310  0.0000  0.0310  0.0000  0.0000  0.0000  0.0000  0.0000 </r>
        <r>  0.0000  0.0310  0.0000  0.0310  0.0000  0.0000  0.0000  0.0000  0.0000 </r>
        <r>  0.0003  0.0349  0.0000  0.0501  0.0000  0.0000  0.0000  0.0000  0.0000 </r>
        <r>  0.0003  0.0349  0.0000  0.0501  0.0000  0.0000  0.0000  0.0000  0.0000 </r>
        <r>  0.0003  0.0577  0.0000  0.0274  0.0000  0.0000  0.0000  0.0000  0.0000 </r>
        <r>  0.0003  0.0577  0.0000  0.0274  0.0000  0.0000  0.0000  0.0000  0.0000 </r>
        <r>  0.0003  0.0349  0.0000  0.0501  0.0000  0.0000  0.0000  0.0000  0.0000 </r>
        <r>  0.0003  0.0349  0.0000  0.0501  0.0000  0.0000  0.0000  0.0000  0.0000 </r>
       </set>
       <set comment="band 7">
        <r>  0.0855  0.0056  0.0000  0.0056  0.0000  0.0000  0.0000  0.0000  0.0000 </r>
        <r>  0.0855  0.0056  0.0000  0.0056  0.0000  0.0000  0.0000  0.0000  0.0000 </r>
        <r>  0.0125  0.0456  0.0000  0.0035  0.0000  0.0000  0.0000  0.0000  0.0000 </r>
        <r>  0.0125  0.0456  0.0000  0.0035  0.0000  0.0000  0.0000  0.0000  0.0000 </r>
        <r>  0.0047  0.0535  0.0000  0.0937  0.0000  0.0000  0.0000  0.0000  0.0000 </r>
        <r>  0.0047  0.0535  0.0000  0.0937  0.0000  0.0000  0.0000  0.0000  0.0000 </r>
        <r>  0.0125  0.0456  0.0000  0.0035  0.0000  0.0000  0.0000  0.0000  0.0000 </r>
        <r>  0.0125  0.0456  0.0000  0.0035  0.0000  0.0000  0.0000  0.0000  0.0000 </r>
       </set>
       <set comment="band 8">
        <r>  0.0855  0.0056  0.0000  0.0056  0.0000  0.0000  0.0000  0.0000  0.0000 </r>
        <r>  0.0855  0.0056  0.0000  0.0056  0.0000  0.0000  0.0000  0.0000  0.0000 </r>
        <r>  0.0073  0.0470  0.0000  0.0675  0.0000  0.0000  0.0000  0.0000  0.0000 </r>
        <r>  0.0073  0.0470  0.0000  0.0675  0.0000  0.0000  0.0000  0.0000  0.0000 </r>
        <r>  0.0151  0.0068  0.0000  0.0097  0.0000  0.0000  0.0000  0.0000  0.0000 </r>
        <r>  0.0151  0.0068  0.0000  0.0097  0.0000  0.0000  0.0000  0.0000  0.0000 </r>
        <r>  0.0073  0.0470  0.0000  0.0675  0.0000  0.0000  0.0000  0.0000  0.0000 </r>
        <r>  0.0073  0.0470  0.0000  0.0675  0.0000  0.0000  0.0000  0.0000  0.0000 </r>
       </set>
       <set comment="band 9">
        <r>  0.0000  0.0194  0.0000  0.0194  0.0000  0.0000  0.0000  0.0000  0.0000 </r>
        <r>  0.0000  0.0194  0.0000  0.0194  0.0000  0.0000  0.0000  0.0000  0.0000 </r>
        <r>  0.0046  0.0467  0.0000  0.0531  0.0000  0.0000  0.0000  0.0000  0.0000 </r>
        <r>  0.0046  0.0467  0.0000  0.0531  0.0000  0.0000  0.0000  0.0000  0.0000 </r>
        <r>  0.0046  0.0563  0.0000  0.0435  0.0000  0.0000  0.0000  0.0000  0.0000 </r>
        <r>  0.0046  0.0563  0.0000  0.0435  0.0000  0.0000  0.0000  0.0000  0.0000 </r>
        <r>  0.0046  0.0467  0.0000  0.0531  0.0000  0.0000  0.0000  0.0000  0.0000 </r>
        <r>  0.0046  0.0467  0.0000  0.0531  0.0000  0.0000  0.0000  0.0000  0.0000 </r>
       </set>
       <set comment="band 10">
        <r>  0.0000  0.0000  0.0000  0.0000  0.0000  0.0000  0.0000  0.0000  0.0000 </r>
        <r>  0.0000  0.0000  0.0000  0.0000  0.0000  0.0000  0.0000  0.0000  0.0000 </r>
        <r>  0.0000  0.0000  0.0729  0.0000  0.0000  0.0000  0.0000  0.0000  0.0000 </r>
        <r>  0.0000  0.0000  0.0729  0.0000  0.0000  0.0000  0.0000  0.0000  0.0000 </r>
        <r>  0.0000  0.0000  0.0729  0.0000  0.0000  0.0000  0.0000  0.0000  0.0000 </r>
        <r>  0.0000  0.0000  0.0729  0.0000  0.0000  0.0000  0.0000  0.0000  0.0000 </r>
        <r>  0.0000  0.0000  0.0729  0.0000  0.0000  0.0000  0.0000  0.0000  0.0000 </r>
        <r>  0.0000  0.0000  0.0729  0.0000  0.0000  0.0000  0.0000  0.0000  0.0000 </r>
       </set>
       <set comment="band 11">
        <r>  0.0000  0.0774  0.0000  0.0774  0.0000  0.0000  0.0000  0.0000  0.0000 </r>
        <r>  0.0000  0.0774  0.0000  0.0774  0.0000  0.0000  0.0000  0.0000  0.0000 </r>
        <r>  0.0451  0.0218  0.0000  0.0074  0.0000  0.0000  0.0000  0.0000  0.0000 </r>
        <r>  0.0451  0.0218  0.0000  0.0074  0.0000  0.0000  0.0000  0.0000  0.0000 </r>
        <r>  0.0451  0.0003  0.0000  0.0290  0.0000  0.0000  0.0000  0.0000  0.0000 </r>
        <r>  0.0451  0.0003  0.0000  0.0290  0.0000  0.0000  0.0000  0.0000  0.0000 </r>
        <r>  0.0451  0.0218  0.0000  0.0074  0.0000  0.0000  0.0000  0.0000  0.0000 </r>
        <r>  0.0451  0.0218  0.0000  0.0074  0.0000  0.0000  0.0000  0.0000  0.0000 </r>
       </set>
       <set comment="band 12">
        <r>  0.0183  0.0608  0.0000  0.0608  0.0000  0.0000  0.0000  0.0000  0.0000 </r>
        <r>  0.0183  0.0608  0.0000  0.0608  0.0000  0.0000  0.0000  0.0000  0.0000 </r>
        <r>  0.0036  0.0639  0.0000  0.0012  0.0000  0.0000  0.0000  0.0000  0.0000 </r>
        <r>  0.0036  0.0639  0.0000  0.0012  0.0000  0.0000  0.0000  0.0000  0.0000 </r>
        <r>  0.0006  0.0547  0.0000  0.0393  0.0000  0.0000  0.0000  0.0000  0.0000 </r>
        <r>  0.0006  0.0547  0.0000  0.0393  0.0000  0.0000  0.0000  0.0000  0.0000 </r>
        <r>  0.0036  0.0639  0.0000  0.0012  0.0000  0.0000  0.0000  0.0000  0.0000 </r>
        <r>  0.0036  0.0639  0.0000  0.0012  0.0000  0.0000  0.0000  0.0000  0.0000 </r>
       </set>
       <set comment="band 13">
        <r>  0.0183  0.0608  0.0000  0.0608  0.0000  0.0000  0.0000  0.0000  0.0000 </r>
        <r>  0.0183  0.0608  0.0000  0.0608  0.0000  0.0000  0.0000  0.0000  0.0000 </r>
        <r>  0.0016  0.0207  0.0000  0.0637  0.0000  0.0000  0.0000  0.0000  0.0000 </r>
        <r>  0.0016  0.0207  0.0000  0.0637  0.0000  0.0000  0.0000  0.0000  0.0000 </r>
        <r>  0.0046  0.0004  0.0000  0.0550  0.0000  0.0000  0.0000  0.0000  0.0000 </r>
        <r>  0.0046  0.0004  0.0000  0.0550  0.0000  0.0000  0.0000  0.0000  0.0000 </r>
        <r>  0.0016  0.0207  0.0000  0.0637  0.0000  0.0000  0.0000  0.0000  0.0000 </r>
        <r>  0.0016  0.0207  0.0000  0.0637  0.0000  0.0000  0.0000  0.0000  0.0000 </r>
       </set>
       <set comment="band 14">
        <r>  0.0000  0.0000  0.0475  0.0000  0.0000  0.0000  0.0000  0.0000  0.0000 </r>
        <r>  0.0000  0.0000  0.0475  0.0000  0.0000  0.0000  0.0000  0.0000  0.0000 </r>
        <r>  0.0000  0.0000  0.0303  0.0000  0.0000  0.0000  0.0000  0.0000  0.0000 </r>
        <r>  0.0000  0.0000  0.0303  0.0000  0.0000  0.0000  0.0000  0.0000  0.0000 </r>
        <r>  0.0000  0.0000  0.1084  0.0000  0.0000  0.0000  0.0000  0.0000  0.0000 </r>
        <r>  0.0000  0.0000  0.1084  0.0000  0.0000  0.0000  0.0000  0.0000  0.0000 </r>
        <r>  0.0000  0.0000  0.0303  0.0000  0.0000  0.0000  0.0000  0.0000  0.0000 </r>
        <r>  0.0000  0.0000  0.0303  0.0000  0.0000  0.0000  0.0000  0.0000  0.0000 </r>
       </set>
       <set comment="band 15">
        <r>  0.0000  0.0000  0.0475  0.0000  0.0000  0.0000  0.0000  0.0000  0.0000 </r>
        <r>  0.0000  0.0000  0.0475  0.0000  0.0000  0.0000  0.0000  0.0000  0.0000 </r>
        <r>  0.0000  0.0000  0.0824  0.0000  0.0000  0.0000  0.0000  0.0000  0.0000 </r>
        <r>  0.0000  0.0000  0.0824  0.0000  0.0000  0.0000  0.0000  0.0000  0.0000 </r>
        <r>  0.0000  0.0000  0.0043  0.0000  0.0000  0.0000  0.0000  0.0000  0.0000 </r>
        <r>  0.0000  0.0000  0.0043  0.0000  0.0000  0.0000  0.0000  0.0000  0.0000 </r>
        <r>  0.0000  0.0000  0.0824  0.0000  0.0000  0.0000  0.0000  0.0000  0.0000 </r>
        <r>  0.0000  0.0000  0.0824  0.0000  0.0000  0.0000  0.0000  0.0000  0.0000 </r>
       </set>
       <set comment="band 16">
        <r>  0.0000  0.0000  0.0662  0.0000  0.0000  0.0000  0.0000  0.0000  0.0000 </r>
        <r>  0.0000  0.0000  0.0662  0.0000  0.0000  0.0000  0.0000  0.0000  0.0000 </r>
        <r>  0.0000  0.0000  0.0718  0.0000  0.0000  0.0000  0.0000  0.0000  0.0000 </r>
        <r>  0.0000  0.0000  0.0718  0.0000  0.0000  0.0000  0.0000  0.0000  0.0000 </r>
        <r>  0.0000  0.0000  0.0382  0.0000  0.0000  0.0000  0.0000  0.0000  0.0000 </r>
        <r>  0.0000  0.0000  0.0382  0.0000  0.0000  0.0000  0.0000  0.0000  0.0000 </r>
        <r>  0.0000  0.0000  0.0718  0.0000  0.0000  0.0000  0.0000  0.0000  0.0000 </r>
        <r>  0.0000  0.0000  0.0718  0.0000  0.0000  0.0000  0.0000  0.0000  0.0000 </r>
       </set>
       <set comment="band 17">
        <r>  0.0000  0.0000  0.0662  0.0000  0.0000  0.0000  0.0000  0.0000  0.0000 </r>
        <r>  0.0000  0.0000  0.0662  0.0000  0.0000  0.0000  0.0000  0.0000  0.0000 </r>
        <r>  0.0000  0.0000  0.0494  0.0000  0.0000  0.0000  0.0000  0.0000  0.0000 </r>
        <r>  0.0000  0.0000  0.0494  0.0000  0.0000  0.0000  0.0000  0.0000  0.0000 </r>
        <r>  0.0000  0.0000  0.0830  0.0000  0.0000  0.0000  0.0000  0.0000  0.0000 </r>
        <r>  0.0000  0.0000  0.0830  0.0000  0.0000  0.0000  0.0000  0.0000  0.0000 </r>
        <r>  0.0000  0.0000  0.0494  0.0000  0.0000  0.0000  0.0000  0.0000  0.0000 </r>
        <r>  0.0000  0.0000  0.0494  0.0000  0.0000  0.0000  0.0000  0.0000  0.0000 </r>
       </set>
       <set comment="band 18">
        <r>  0.0000  0.0006  0.0000  0.0006  0.0000  0.0000  0.0000  0.0000  0.0000 </r>
        <r>  0.0000  0.0006  0.0000  0.0006  0.0000  0.0000  0.0000  0.0000  0.0000 </r>
        <r>  0.0026  0.0001  0.0000  0.0001  0.0000  0.0000  0.0000  0.0000  0.0000 </r>
        <r>  0.0026  0.0001  0.0000  0.0001  0.0000  0.0000  0.0000  0.0000  0.0000 </r>
        <r>  0.0026  0.0000  0.0000  0.0002  0.0000  0.0000  0.0000  0.0000  0.0000 </r>
        <r>  0.0026  0.0000  0.0000  0.0002  0.0000  0.0000  0.0000  0.0000  0.0000 </r>
        <r>  0.0026  0.0001  0.0000  0.0001  0.0000  0.0000  0.0000  0.0000  0.0000 </r>
        <r>  0.0026  0.0001  0.0000  0.0001  0.0000  0.0000  0.0000  0.0000  0.0000 </r>
       </set>
       <set comment="band 19">
        <r>  0.0012  0.0000  0.0000  0.0000  0.0000  0.0000  0.0000  0.0000  0.0000 </r>
        <r>  0.0012  0.0000  0.0000  0.0000  0.0000  0.0000  0.0000  0.0000  0.0000 </r>
        <r>  0.0013  0.0007  0.0000  0.0013  0.0000  0.0000  0.0000  0.0000  0.0000 </r>
        <r>  0.0013  0.0007  0.0000  0.0013  0.0000  0.0000  0.0000  0.0000  0.0000 </r>
        <r>  0.0029  0.0000  0.0000  0.0019  0.0000  0.0000  0.0000  0.0000  0.0000 </r>
        <r>  0.0029  0.0000  0.0000  0.0019  0.0000  0.0000  0.0000  0.0000  0.0000 </r>
        <r>  0.0013  0.0007  0.0000  0.0013  0.0000  0.0000  0.0000  0.0000  0.0000 </r>
        <r>  0.0013  0.0007  0.0000  0.0013  0.0000  0.0000  0.0000  0.0000  0.0000 </r>
       </set>
       <set comment="band 20">
        <r>  0.0012  0.0000  0.0000  0.0000  0.0000  0.0000  0.0000  0.0000  0.0000 </r>
        <r>  0.0012  0.0000  0.0000  0.0000  0.0000  0.0000  0.0000  0.0000  0.0000 </r>
        <r>  0.0024  0.0018  0.0000  0.0001  0.0000  0.0000  0.0000  0.0000  0.0000 </r>
        <r>  0.0024  0.0018  0.0000  0.0001  0.0000  0.0000  0.0000  0.0000  0.0000 </r>
        <r>  0.0007  0.0008  0.0000  0.0011  0.0000  0.0000  0.0000  0.0000  0.0000 </r>
        <r>  0.0007  0.0008  0.0000  0.0011  0.0000  0.0000  0.0000  0.0000  0.0000 </r>
        <r>  0.0024  0.0018  0.0000  0.0001  0.0000  0.0000  0.0000  0.0000  0.0000 </r>
        <r>  0.0024  0.0018  0.0000  0.0001  0.0000  0.0000  0.0000  0.0000  0.0000 </r>
       </set>
       <set comment="band 21">
        <r>  0.0000  0.0000  0.0647  0.0000  0.0000  0.0000  0.0000  0.0000  0.0000 </r>
        <r>  0.0000  0.0000  0.0647  0.0000  0.0000  0.0000  0.0000  0.0000  0.0000 </r>
        <r>  0.0000  0.0000  0.0717  0.0000  0.0000  0.0000  0.0000  0.0000  0.0000 </r>
        <r>  0.0000  0.0000  0.0717  0.0000  0.0000  0.0000  0.0000  0.0000  0.0000 </r>
        <r>  0.0000  0.0000  0.0248  0.0000  0.0000  0.0000  0.0000  0.0000  0.0000 </r>
        <r>  0.0000  0.0000  0.0248  0.0000  0.0000  0.0000  0.0000  0.0000  0.0000 </r>
        <r>  0.0000  0.0000  0.0717  0.0000  0.0000  0.0000  0.0000  0.0000  0.0000 </r>
        <r>  0.0000  0.0000  0.0717  0.0000  0.0000  0.0000  0.0000  0.0000  0.0000 </r>
       </set>
       <set comment="band 22">
        <r>  0.0000  0.0000  0.0647  0.0000  0.0000  0.0000  0.0000  0.0000  0.0000 </r>
        <r>  0.0000  0.0000  0.0647  0.0000  0.0000  0.0000  0.0000  0.0000  0.0000 </r>
        <r>  0.0000  0.0000  0.0404  0.0000  0.0000  0.0000  0.0000  0.0000  0.0000 </r>
        <r>  0.0000  0.0000  0.0404  0.0000  0.0000  0.0000  0.0000  0.0000  0.0000 </r>
        <r>  0.0000  0.0000  0.0874  0.0000  0.0000  0.0000  0.0000  0.0000  0.0000 </r>
        <r>  0.0000  0.0000  0.0874  0.0000  0.0000  0.0000  0.0000  0.0000  0.0000 </r>
        <r>  0.0000  0.0000  0.0405  0.0000  0.0000  0.0000  0.0000  0.0000  0.0000 </r>
        <r>  0.0000  0.0000  0.0404  0.0000  0.0000  0.0000  0.0000  0.0000  0.0000 </r>
       </set>
       <set comment="band 23">
        <r>  0.0000  0.0000  0.0000  0.0000  0.0000  0.0000  0.0000  0.0000  0.0000 </r>
        <r>  0.0000  0.0000  0.0000  0.0000  0.0000  0.0000  0.0000  0.0000  0.0000 </r>
        <r>  0.0000  0.0000  0.0966  0.0000  0.0000  0.0000  0.0000  0.0000  0.0000 </r>
        <r>  0.0000  0.0000  0.0966  0.0000  0.0000  0.0000  0.0000  0.0000  0.0000 </r>
        <r>  0.0000  0.0000  0.0966  0.0000  0.0000  0.0000  0.0000  0.0000  0.0000 </r>
        <r>  0.0000  0.0000  0.0966  0.0000  0.0000  0.0000  0.0000  0.0000  0.0000 </r>
        <r>  0.0000  0.0000  0.0966  0.0000  0.0000  0.0000  0.0000  0.0000  0.0000 </r>
        <r>  0.0000  0.0000  0.0966  0.0000  0.0000  0.0000  0.0000  0.0000  0.0000 </r>
       </set>
       <set comment="band 24">
        <r>  0.0000  0.0000  0.0000  0.0000  0.0000  0.0000  0.0000  0.0000  0.0000 </r>
        <r>  0.0000  0.0000  0.0000  0.0000  0.0000  0.0000  0.0000  0.0000  0.0000 </r>
        <r>  0.0000  0.0000  0.0115  0.0000  0.0000  0.0000  0.0000  0.0000  0.0000 </r>
        <r>  0.0000  0.0000  0.0115  0.0000  0.0000  0.0000  0.0000  0.0000  0.0000 </r>
        <r>  0.0000  0.0000  0.0114  0.0000  0.0000  0.0000  0.0000  0.0000  0.0000 </r>
        <r>  0.0000  0.0000  0.0115  0.0000  0.0000  0.0000  0.0000  0.0000  0.0000 </r>
        <r>  0.0000  0.0000  0.0115  0.0000  0.0000  0.0000  0.0000  0.0000  0.0000 </r>
        <r>  0.0000  0.0000  0.0115  0.0000  0.0000  0.0000  0.0000  0.0000  0.0000 </r>
       </set>
      </set>
     </set>
    </set>
   </array>
  </projected>
 </calculation>
 <structure name="finalpos" >
  <crystal>
   <varray name="basis" >
    <v>       4.48084843       2.58701885       0.00000000 </v>
    <v>      -4.48084843       2.58701885       0.00000000 </v>
    <v>       0.00000000       0.00000000       8.52022140 </v>
   </varray>
   <i name="volume">    197.53348383 </i>
   <varray name="rec_basis" >
    <v>       0.11158601       0.19327265       0.00000000 </v>
    <v>      -0.11158601       0.19327265       0.00000000 </v>
    <v>       0.00000000       0.00000000       0.11736784 </v>
   </varray>
  </crystal>
  <varray name="positions" >
   <v>       0.33333300       0.66666600       0.25000000 </v>
   <v>       0.66666600       0.33333300       0.25000000 </v>
   <v>       0.15869124       0.31738348       0.25000000 </v>
   <v>       0.31738348       0.15869124       0.25000000 </v>
   <v>       0.15869124       0.84130776       0.25000000 </v>
   <v>       0.84130776       0.15869124       0.25000000 </v>
   <v>       0.68261552       0.84130776       0.25000000 </v>
   <v>       0.84130776       0.68261552       0.25000000 </v>
  </varray>
 </structure>
</modeling>
