 running on   12 total cores
 distrk:  each k-point on   12 cores,    1 groups
 distr:  one band on    1 cores,   12 groups
 using from now: INCAR     
 vasp.5.4.4.18Apr17-6-g9f103f2a35 (build Mar 30 2023 15:39:25) complex          
  
 POSCAR found type information on POSCAR  B  C 
 POSCAR found :  2 types and       8 ions
 scaLAPACK will be used

 ----------------------------------------------------------------------------- 
|                                                                             |
|           W    W    AA    RRRRR   N    N  II  N    N   GGGG   !!!           |
|           W    W   A  A   R    R  NN   N  II  NN   N  G    G  !!!           |
|           W    W  A    A  R    R  N N  N  II  N N  N  G       !!!           |
|           W WW W  AAAAAA  RRRRR   N  N N  II  N  N N  G  GGG   !            |
|           WW  WW  A    A  R   R   N   NN  II  N   NN  G    G                |
|           W    W  A    A  R    R  N    N  II  N    N   GGGG   !!!           |
|                                                                             |
|      For optimal performance we recommend to set                            |
|        NCORE= 4 - approx SQRT( number of cores)                             |
|      NCORE specifies how many cores store one orbital (NPAR=cpu/NCORE).     |
|      This setting can  greatly improve the performance of VASP for DFT.     |
|      The default,   NCORE=1            might be grossly inefficient         |
|      on modern multi-core architectures or massively parallel machines.     |
|      Do your own testing !!!!                                               |
|      Unfortunately you need to use the default for GW and RPA calculations. |
|      (for HF NCORE is supported but not extensively tested yet)             |
|                                                                             |
 ----------------------------------------------------------------------------- 

 LDA part: xc-table for Pade appr. of Perdew
 POSCAR, INCAR and KPOINTS ok, starting setup
 FFT: planning ...
 WAVECAR not read
 WARNING: random wavefunctions but no delay for mixing, default for NELMDL
 entering main loop
       N       E                     dE             d eps       ncg     rms          rms(c)
DAV:   1     0.159461962588E+03    0.15946E+03   -0.11956E+04   912   0.895E+02
DAV:   2    -0.548602231698E+02   -0.21432E+03   -0.20540E+03  1200   0.212E+02
DAV:   3    -0.731208961021E+02   -0.18261E+02   -0.18166E+02  1284   0.708E+01
DAV:   4    -0.734297754794E+02   -0.30888E+00   -0.30841E+00  1272   0.108E+01
DAV:   5    -0.734401654164E+02   -0.10390E-01   -0.10386E-01  1260   0.176E+00    0.131E+01
DAV:   6    -0.689851169342E+02    0.44550E+01   -0.52617E+00  1200   0.105E+01    0.740E+00
DAV:   7    -0.673419838499E+02    0.16431E+01   -0.37045E+00  1236   0.883E+00    0.223E+00
DAV:   8    -0.672464665061E+02    0.95517E-01   -0.22510E-01  1152   0.218E+00    0.656E-01
DAV:   9    -0.672227319830E+02    0.23735E-01   -0.20763E-02  1200   0.808E-01    0.203E-01
DAV:  10    -0.672178814641E+02    0.48505E-02   -0.15335E-02  1248   0.510E-01    0.153E-01
DAV:  11    -0.672234892772E+02   -0.56078E-02   -0.51249E-03   960   0.365E-01    0.578E-02
DAV:  12    -0.672267051618E+02   -0.32159E-02   -0.53447E-04   972   0.133E-01    0.200E-02
DAV:  13    -0.672275602431E+02   -0.85508E-03   -0.10490E-04   972   0.608E-02    0.993E-03
DAV:  14    -0.672277089916E+02   -0.14875E-03   -0.68524E-06  1128   0.167E-02    0.245E-03
DAV:  15    -0.672277257914E+02   -0.16800E-04   -0.15645E-06  1092   0.603E-03    0.137E-03
DAV:  16    -0.672277299586E+02   -0.41672E-05   -0.16653E-07   792   0.220E-03    0.328E-04
DAV:  17    -0.672277302281E+02   -0.26954E-06   -0.27501E-08  1044   0.917E-04
   1 F= -.67227730E+02 E0= -.67227730E+02  d E =-.656262E-07
 Linear response reoptimize wavefunctions to high precision
DAV:   1    -0.672277302458E+02   -0.17686E-07   -0.59917E-09  1284   0.381E-04
DAV:   2    -0.672277302457E+02    0.44565E-10   -0.99871E-11  1056   0.544E-05
 Linear response DOF=           4
 Linear response progress:
  Degree of freedom:   1/  4
       N       E                     dE             d eps       ncg     rms          rms(c)
RMM:   1    -0.618489755619E-01   -0.61849E-01   -0.14147E-02  5594   0.134E+00
RMM:   2    -0.495479175272E-01    0.12301E-01   -0.47968E-03  3597   0.353E-01    0.208E-01
RMM:   3    -0.489415123565E-01    0.60641E-03   -0.24548E-03  3194   0.197E-01    0.102E-01
RMM:   4    -0.490709640413E-01   -0.12945E-03   -0.11272E-04  3221   0.530E-02    0.506E-02
RMM:   5    -0.492803603327E-01   -0.20940E-03   -0.62884E-05  3204   0.396E-02    0.654E-03
RMM:   6    -0.492701393808E-01    0.10221E-04   -0.25747E-06  3553   0.857E-03    0.136E-03
RMM:   7    -0.492685602051E-01    0.15792E-05   -0.11540E-07  3625   0.164E-03    0.507E-04
RMM:   8    -0.492678901379E-01    0.67007E-06   -0.32514E-08  3398   0.781E-04    0.261E-04
 force on displaced ion       1 direction 1 : -39.844   0.000   0.000
 Linear response progress:
  Degree of freedom:   2/  4
       N       E                     dE             d eps       ncg     rms          rms(c)
RMM:   1    -0.376154212094E-01   -0.37615E-01   -0.13426E-02  1908   0.838E-01
RMM:   2    -0.365133210583E-01    0.11021E-02   -0.77176E-04  1587   0.160E-01    0.182E-01
RMM:   3    -0.361368257293E-01    0.37650E-03   -0.29807E-04  1379   0.805E-02    0.101E-01
RMM:   4    -0.361027520452E-01    0.34074E-04   -0.20744E-04  1416   0.734E-02    0.224E-02
RMM:   5    -0.359557526141E-01    0.14700E-03   -0.28191E-05  1449   0.268E-02    0.367E-03
RMM:   6    -0.359198625279E-01    0.35890E-04   -0.59180E-07  1539   0.560E-03    0.116E-03
RMM:   7    -0.359175556271E-01    0.23069E-05   -0.15281E-07  1571   0.151E-03    0.754E-04
RMM:   8    -0.359236136272E-01   -0.60580E-05   -0.38661E-07  1462   0.158E-03    0.286E-04
RMM:   9    -0.359242266347E-01   -0.61301E-06   -0.16029E-07  1529   0.544E-04    0.774E-05
 force on displaced ion       1 direction 3 :   0.000  -0.000 -12.382
 Linear response progress:
  Degree of freedom:   3/  4
       N       E                     dE             d eps       ncg     rms          rms(c)
RMM:   1    -0.147928828152E+00   -0.14793E+00    0.11511E-01  8880   0.215E+00
RMM:   2    -0.132118155349E+00    0.15811E-01   -0.89534E-03  6217   0.539E-01    0.267E-01
RMM:   3    -0.131293813189E+00    0.82434E-03   -0.45462E-03  5477   0.276E-01    0.130E-01
RMM:   4    -0.131650253830E+00   -0.35644E-03   -0.31720E-04  5512   0.875E-02    0.604E-02
RMM:   5    -0.132021332627E+00   -0.37108E-03   -0.10033E-04  5379   0.487E-02    0.106E-02
RMM:   6    -0.132008293449E+00    0.13039E-04   -0.34149E-06  6044   0.966E-03    0.245E-03
RMM:   7    -0.132000219793E+00    0.80737E-05   -0.29166E-07  6225   0.244E-03    0.681E-04
RMM:   8    -0.131998886551E+00    0.13332E-05   -0.36806E-08  6107   0.753E-04    0.295E-04
RMM:   9    -0.131999211142E+00   -0.32459E-06   -0.14085E-08  5911   0.415E-04    0.983E-05
 force on displaced ion       3 direction 1 : -54.002  -0.734   0.000
 Linear response progress:
  Degree of freedom:   4/  4
       N       E                     dE             d eps       ncg     rms          rms(c)
RMM:   1    -0.120080043541E+00   -0.12008E+00    0.97546E-03  3946   0.154E+00
RMM:   2    -0.119182824196E+00    0.89722E-03   -0.20563E-03  3526   0.247E-01    0.236E-01
RMM:   3    -0.118831661671E+00    0.35116E-03   -0.73330E-04  2665   0.136E-01    0.122E-01
RMM:   4    -0.119189424236E+00   -0.35776E-03   -0.52832E-04  2828   0.113E-01    0.248E-02
RMM:   5    -0.118964313541E+00    0.22511E-03   -0.21545E-05  3146   0.244E-02    0.367E-03
RMM:   6    -0.118966113473E+00   -0.17999E-05    0.59996E-07  3719   0.480E-03    0.129E-03
RMM:   7    -0.118946776204E+00    0.19337E-04    0.68413E-07  3312   0.179E-03    0.253E-04
RMM:   8    -0.118948015299E+00   -0.12391E-05   -0.66947E-08  3564   0.460E-04    0.561E-05
RMM:   9    -0.118948138700E+00   -0.12340E-06   -0.41273E-08  3578   0.122E-04    0.180E-05
 force on displaced ion       3 direction 3 :   0.000  -0.000 -10.646
 Linear response finished
 writing wavefunctions
