    8    8    1    1
  0.4330982E+02  0.5164732E-09  0.5164732E-09  0.1500000E-08  0.5000000E-15
  1.000000000000000E-004
  CAR 
 BC3-optical                             
     30     43     72
