       N       E                     dE             d eps       ncg     rms          rms(c)
DIA:   1    -0.722354582111E+02   -0.72235E+02    0.00000E+00     0   0.000E+00    0.129E+01
