 vasp.5.4.4.18Apr17-6-g9f103f2a35 (build Mar 30 2023 15:39:25) complex          
  
 executed on             LinuxIFC date 2023.06.30  16:02:03
 running on   12 total cores
 distrk:  each k-point on   12 cores,    1 groups
 distr:  one band on NCORES_PER_BAND=   1 cores,   12 groups


--------------------------------------------------------------------------------------------------------


 INCAR:
 POTCAR:    PAW_PBE B 06Sep2000                   
 POTCAR:    PAW_PBE C 08Apr2002                   

 ----------------------------------------------------------------------------- 
|                                                                             |
|           W    W    AA    RRRRR   N    N  II  N    N   GGGG   !!!           |
|           W    W   A  A   R    R  NN   N  II  NN   N  G    G  !!!           |
|           W    W  A    A  R    R  N N  N  II  N N  N  G       !!!           |
|           W WW W  AAAAAA  RRRRR   N  N N  II  N  N N  G  GGG   !            |
|           WW  WW  A    A  R   R   N   NN  II  N   NN  G    G                |
|           W    W  A    A  R    R  N    N  II  N    N   GGGG   !!!           |
|                                                                             |
|      For optimal performance we recommend to set                            |
|        NCORE= 4 - approx SQRT( number of cores)                             |
|      NCORE specifies how many cores store one orbital (NPAR=cpu/NCORE).     |
|      This setting can  greatly improve the performance of VASP for DFT.     |
|      The default,   NCORE=1            might be grossly inefficient         |
|      on modern multi-core architectures or massively parallel machines.     |
|      Do your own testing !!!!                                               |
|      Unfortunately you need to use the default for GW and RPA calculations. |
|      (for HF NCORE is supported but not extensively tested yet)             |
|                                                                             |
 ----------------------------------------------------------------------------- 

 POTCAR:    PAW_PBE B 06Sep2000                   
   SHA256 =  a32ced30f5ae56fd4d10b4325ff17eb3e4e38ee0f4288bc219fb012fddfa6e97 B/
   COPYR  = (c) Copyright 06Sep2000 Georg Kresse                                
   COPYR  = This file is part of the software VASP. Any use, copying, and all ot
   COPYR  = If you do not have a valid VASP license, you may not use, copy or di
   VRHFIN =B: s2p1                                                              
   LEXCH  = PE                                                                  
   EATOM  =    71.1703 eV,    5.2309 Ry                                         
                                                                                
   TITEL  = PAW_PBE B 06Sep2000                                                 
   LULTRA =        F    use ultrasoft PP ?                                      
   IUNSCR =        1    unscreen: 0-lin 1-nonlin 2-no                           
   RPACOR =    1.200    partial core radius                                     
   POMASS =   10.811; ZVAL   =    3.000    mass and valenz                      
   RCORE  =    1.700    outmost cutoff radius                                   
   RWIGS  =    1.710; RWIGS  =    0.905    wigner-seitz radius (au A)           
   ENMAX  =  318.614; ENMIN  =  238.960 eV                                      
   ICORE  =        2    local potential                                         
   LCOR   =        T    correct aug charges                                     
   LPAW   =        T    paw PP                                                  
   EAUG   =  535.514                                                            
   DEXC   =    0.000                                                            
   RMAX   =    1.732    core radius for proj-oper                               
   RAUG   =    1.300    factor for augmentation sphere                          
   RDEP   =    1.757    radius for radial grids                                 
   RDEPT  =    1.436    core radius for aug-charge                              
                                                                                
   Atomic configuration                                                         
    4 entries                                                                   
     n  l   j            E        occ.                                          
     1  0  0.50      -180.5896   2.0000                                         
     2  0  0.50        -9.4431   2.0000                                         
     2  1  0.50        -3.6068   1.0000                                         
     3  2  1.50        -4.0817   0.0000                                         
   Description                                                                  
     l       E           TYP  RCUT    TYP  RCUT                                 
     0     -9.4430752     23  1.500                                             
     0      0.8675899     23  1.500                                             
     1     -3.6067955     23  1.700                                             
     1      6.1086146     23  1.700                                             
     2     -4.0817478      7  1.700                                             
  local pseudopotential read in
  partial core-charges read in
  partial kinetic energy density read in
  atomic valenz-charges read in
  non local Contribution for L=           0  read in
    real space projection operators read in
  non local Contribution for L=           0  read in
    real space projection operators read in
  non local Contribution for L=           1  read in
    real space projection operators read in
  non local Contribution for L=           1  read in
    real space projection operators read in
    PAW grid and wavefunctions read in
 
   number of l-projection  operators is LMAX  =           4
   number of lm-projection operators is LMMAX =           8
 
 POTCAR:    PAW_PBE C 08Apr2002                   
   SHA256 =  253f7b50bb8d59471dbedb8285d89021f4a42ed1a2c5d38a03a736e69125dd95 C/
   COPYR  = (c) Copyright 08Apr2002 Georg Kresse                                
   COPYR  = This file is part of the software VASP. Any use, copying, and all ot
   COPYR  = If you do not have a valid VASP license, you may not use, copy or di
   VRHFIN =C: s2p2                                                              
   LEXCH  = PE                                                                  
   EATOM  =   147.1560 eV,   10.8157 Ry                                         
                                                                                
   TITEL  = PAW_PBE C 08Apr2002                                                 
   LULTRA =        F    use ultrasoft PP ?                                      
   IUNSCR =        1    unscreen: 0-lin 1-nonlin 2-no                           
   RPACOR =    1.200    partial core radius                                     
   POMASS =   12.011; ZVAL   =    4.000    mass and valenz                      
   RCORE  =    1.500    outmost cutoff radius                                   
   RWIGS  =    1.630; RWIGS  =    0.863    wigner-seitz radius (au A)           
   ENMAX  =  400.000; ENMIN  =  300.000 eV                                      
   ICORE  =        2    local potential                                         
   LCOR   =        T    correct aug charges                                     
   LPAW   =        T    paw PP                                                  
   EAUG   =  644.873                                                            
   DEXC   =    0.000                                                            
   RMAX   =    1.529    core radius for proj-oper                               
   RAUG   =    1.300    factor for augmentation sphere                          
   RDEP   =    1.501    radius for radial grids                                 
   RDEPT  =    1.300    core radius for aug-charge                              
                                                                                
   Atomic configuration                                                         
    4 entries                                                                   
     n  l   j            E        occ.                                          
     1  0  0.50      -273.3789   2.0000                                         
     2  0  0.50       -13.7508   2.0000                                         
     2  1  0.50        -5.2854   2.0000                                         
     3  2  1.50        -5.4423   0.0000                                         
   Description                                                                  
     l       E           TYP  RCUT    TYP  RCUT                                 
     0    -13.7508458     23  1.200                                             
     0     -8.2022199     23  1.200                                             
     1     -5.2854383     23  1.500                                             
     1     34.0145650     23  1.500                                             
     2     -5.4423304      7  1.500                                             
  local pseudopotential read in
  partial core-charges read in
  partial kinetic energy density read in
  atomic valenz-charges read in
  non local Contribution for L=           0  read in
    real space projection operators read in
  non local Contribution for L=           0  read in
    real space projection operators read in
  non local Contribution for L=           1  read in
    real space projection operators read in
  non local Contribution for L=           1  read in
    real space projection operators read in
    PAW grid and wavefunctions read in
 
   number of l-projection  operators is LMAX  =           4
   number of lm-projection operators is LMMAX =           8
 
  PAW_PBE B 06Sep2000                   :
 energy of atom  1       EATOM=  -71.1703
 kinetic energy error for atom=    0.0015 (will be added to EATOM!!)
  PAW_PBE C 08Apr2002                   :
 energy of atom  2       EATOM= -147.1560
 kinetic energy error for atom=    0.0116 (will be added to EATOM!!)
 
 
 POSCAR: BC3                                     
  positions in direct lattice
  No initial velocities read in
 exchange correlation table for  LEXCH =        8
   RHO(1)=    0.500       N(1)  =     2000
   RHO(2)=  100.500       N(2)  =     4000
 


--------------------------------------------------------------------------------------------------------


 ion  position               nearest neighbor table
   1  0.333  0.667  0.250-   3 1.49   7 1.49   5 1.49
   2  0.667  0.333  0.250-   4 1.49   8 1.49   6 1.49
   3  0.167  0.333  0.250-   1 1.49   6 1.49   4 1.49
   4  0.333  0.167  0.250-   2 1.49   5 1.49   3 1.49
   5  0.167  0.833  0.250-   4 1.49   8 1.49   1 1.49
   6  0.833  0.167  0.250-   3 1.49   7 1.49   2 1.49
   7  0.667  0.833  0.250-   1 1.49   6 1.49   8 1.49
   8  0.833  0.667  0.250-   2 1.49   5 1.49   7 1.49
 
  LATTYP: Found a base centered orthorhombic cell.
 ALAT       =     5.1640000000
 B/A-ratio  =     1.7323780015
 C/A-ratio  =     2.9047250194
  
  Lattice vectors:
  
 A1 = (   4.4730000000,   2.5820000000,   0.0000000000)
 A2 = (  -4.4730000000,   2.5820000000,   0.0000000000)
 A3 = (   0.0000000000,   0.0000000000,  15.0000000000)


Analysis of symmetry for initial positions (statically):
=====================================================================
 Subroutine PRICEL returns:
 Original cell was already a primitive cell.
 

 Routine SETGRP: Setting up the symmetry group for a 
 base centered orthorhombic supercell.


 Subroutine GETGRP returns: Found  8 space group operations
 (whereof  4 operations were pure point group operations)
 out of a pool of  8 trial point group operations.


The static configuration has the point symmetry C_2v.
 The point group associated with its full space group is D_2h.


Analysis of symmetry for dynamics (positions and initial velocities):
=====================================================================
 Subroutine PRICEL returns:
 Original cell was already a primitive cell.
 

 Routine SETGRP: Setting up the symmetry group for a 
 base centered orthorhombic supercell.


 Subroutine GETGRP returns: Found  8 space group operations
 (whereof  4 operations were pure point group operations)
 out of a pool of  8 trial point group operations.


The dynamic configuration has the point symmetry C_2v.
 The point group associated with its full space group is D_2h.


 Subroutine INISYM returns: Found  8 space group operations
 (whereof  4 operations are pure point group operations),
 and found     1 'primitive' translations



 irot  :   1
 --------------------------------------------------------------------
 isymop:   1   0   0
           0   1   0
           0   0   1

 gtrans:     0.0000000     0.0000000     0.0000000

 ptrans:     0.0000000     0.0000000     0.0000000
 
 rotmap:
 (   1->   1)  (   2->   2)  (   3->   3)  (   4->   4)  (   5->   5) 
 (   6->   6)  (   7->   7)  (   8->   8) 


 irot  :   2
 --------------------------------------------------------------------
 isymop:  -1   0   0
           0  -1   0
           0   0   1

 gtrans:     0.0000000     0.0000000     0.0000000

 ptrans:     0.0000000     0.0000000     0.0000000
 
 rotmap:
 (   1->   2)  (   2->   1)  (   3->   8)  (   4->   7)  (   5->   6) 
 (   6->   5)  (   7->   4)  (   8->   3) 


 irot  :   3
 --------------------------------------------------------------------
 isymop:   0   1   0
           1   0   0
           0   0   1

 gtrans:     0.0000000     0.0000000     0.0000000

 ptrans:     0.0000000     0.0000000     0.0000000
 
 rotmap:
 (   1->   2)  (   2->   1)  (   3->   4)  (   4->   3)  (   5->   6) 
 (   6->   5)  (   7->   8)  (   8->   7) 


 irot  :   4
 --------------------------------------------------------------------
 isymop:   0  -1   0
          -1   0   0
           0   0   1

 gtrans:     0.0000000     0.0000000     0.0000000

 ptrans:     0.0000000     0.0000000     0.0000000
 
 rotmap:
 (   1->   1)  (   2->   2)  (   3->   7)  (   4->   8)  (   5->   5) 
 (   6->   6)  (   7->   3)  (   8->   4) 


 irot  :   5
 --------------------------------------------------------------------
 isymop:  -1   0   0
           0  -1   0
           0   0  -1

 gtrans:     0.0000000     0.0000000     0.5000000

 ptrans:     0.0000000     0.0000000     0.0000000
 
 rotmap:
 (   1->   2)  (   2->   1)  (   3->   8)  (   4->   7)  (   5->   6) 
 (   6->   5)  (   7->   4)  (   8->   3) 


 irot  :   6
 --------------------------------------------------------------------
 isymop:   1   0   0
           0   1   0
           0   0  -1

 gtrans:     0.0000000     0.0000000     0.5000000

 ptrans:     0.0000000     0.0000000     0.0000000
 
 rotmap:
 (   1->   1)  (   2->   2)  (   3->   3)  (   4->   4)  (   5->   5) 
 (   6->   6)  (   7->   7)  (   8->   8) 


 irot  :   7
 --------------------------------------------------------------------
 isymop:   0  -1   0
          -1   0   0
           0   0  -1

 gtrans:     0.0000000     0.0000000     0.5000000

 ptrans:     0.0000000     0.0000000     0.0000000
 
 rotmap:
 (   1->   1)  (   2->   2)  (   3->   7)  (   4->   8)  (   5->   5) 
 (   6->   6)  (   7->   3)  (   8->   4) 


 irot  :   8
 --------------------------------------------------------------------
 isymop:   0   1   0
           1   0   0
           0   0  -1

 gtrans:     0.0000000     0.0000000     0.5000000

 ptrans:     0.0000000     0.0000000     0.0000000
 
 rotmap:
 (   1->   2)  (   2->   1)  (   3->   4)  (   4->   3)  (   5->   6) 
 (   6->   5)  (   7->   8)  (   8->   7) 
 
 
 KPOINTS: K-points for BC3                        

Automatic generation of k-mesh.
Space group operators:
 irot       det(A)        alpha          n_x          n_y          n_z        tau_x        tau_y        tau_z
    1     1.000000     0.000000     1.000000     0.000000     0.000000     0.000000     0.000000     0.000000
    2     1.000000   180.000000     0.000000     0.000000     1.000000     0.000000     0.000000     0.000000
    3    -1.000000   180.000000     1.000000     0.000000     0.000000     0.000000     0.000000     0.000000
    4    -1.000000   179.999999     0.000000     1.000000     0.000000     0.000000     0.000000     0.000000
    5    -1.000000     0.000000     1.000000     0.000000     0.000000     0.000000     0.000000     0.500000
    6    -1.000000   180.000000     0.000000     0.000000     1.000000     0.000000     0.000000     0.500000
    7     1.000000   180.000000     1.000000     0.000000     0.000000     0.000000     0.000000     0.500000
    8     1.000000   179.999999     0.000000     1.000000     0.000000     0.000000     0.000000     0.500000
 
 Subroutine IBZKPT returns following result:
 ===========================================
 
 Found     43 irreducible k-points:
 
 Following reciprocal coordinates:
            Coordinates               Weight
  0.000000  0.000000  0.000000      1.000000
  0.083333  0.000000  0.000000      4.000000
  0.166667 -0.000000  0.000000      4.000000
  0.250000 -0.000000  0.000000      4.000000
  0.333333  0.000000  0.000000      4.000000
  0.416667 -0.000000  0.000000      4.000000
  0.500000 -0.000000  0.000000      2.000000
  0.083333  0.083333  0.000000      2.000000
  0.166667  0.083333  0.000000      4.000000
  0.250000  0.083333  0.000000      4.000000
  0.333333  0.083333  0.000000      4.000000
  0.416667  0.083333  0.000000      4.000000
  0.500000  0.083333  0.000000      4.000000
 -0.416667  0.083333  0.000000      4.000000
 -0.333333  0.083333  0.000000      4.000000
 -0.250000  0.083333  0.000000      4.000000
 -0.166667  0.083333  0.000000      4.000000
 -0.083333  0.083333  0.000000      2.000000
  0.166667  0.166667  0.000000      2.000000
  0.250000  0.166667  0.000000      4.000000
  0.333333  0.166667  0.000000      4.000000
  0.416667  0.166667  0.000000      4.000000
  0.500000  0.166667  0.000000      4.000000
 -0.416667  0.166667  0.000000      4.000000
 -0.333333  0.166667  0.000000      4.000000
 -0.250000  0.166667  0.000000      4.000000
 -0.166667  0.166667  0.000000      2.000000
  0.250000  0.250000  0.000000      2.000000
  0.333333  0.250000  0.000000      4.000000
  0.416667  0.250000  0.000000      4.000000
  0.500000  0.250000  0.000000      4.000000
 -0.416667  0.250000  0.000000      4.000000
 -0.333333  0.250000  0.000000      4.000000
 -0.250000  0.250000  0.000000      2.000000
  0.333333  0.333333  0.000000      2.000000
  0.416667  0.333333  0.000000      4.000000
  0.500000  0.333333  0.000000      4.000000
 -0.416667  0.333333  0.000000      4.000000
 -0.333333  0.333333  0.000000      2.000000
  0.416667  0.416667  0.000000      2.000000
  0.500000  0.416667  0.000000      4.000000
 -0.416667  0.416667  0.000000      2.000000
  0.500000  0.500000  0.000000      1.000000
 
 Following cartesian coordinates:
            Coordinates               Weight
  0.000000  0.000000  0.000000      1.000000
  0.009315  0.016137  0.000000      4.000000
  0.018630  0.032275  0.000000      4.000000
  0.027945  0.048412  0.000000      4.000000
  0.037261  0.064549  0.000000      4.000000
  0.046576  0.080687  0.000000      4.000000
  0.055891  0.096824  0.000000      2.000000
  0.000000  0.032275  0.000000      2.000000
  0.009315  0.048412  0.000000      4.000000
  0.018630  0.064549  0.000000      4.000000
  0.027945  0.080687  0.000000      4.000000
  0.037261  0.096824  0.000000      4.000000
  0.046576  0.112962  0.000000      4.000000
 -0.055891 -0.064549  0.000000      4.000000
 -0.046576 -0.048412  0.000000      4.000000
 -0.037261 -0.032275  0.000000      4.000000
 -0.027945 -0.016137  0.000000      4.000000
 -0.018630  0.000000  0.000000      2.000000
  0.000000  0.064549  0.000000      2.000000
  0.009315  0.080687  0.000000      4.000000
  0.018630  0.096824  0.000000      4.000000
  0.027945  0.112962  0.000000      4.000000
  0.037261  0.129099  0.000000      4.000000
 -0.065206 -0.048412  0.000000      4.000000
 -0.055891 -0.032275  0.000000      4.000000
 -0.046576 -0.016137  0.000000      4.000000
 -0.037261  0.000000  0.000000      2.000000
  0.000000  0.096824  0.000000      2.000000
  0.009315  0.112962  0.000000      4.000000
  0.018630  0.129099  0.000000      4.000000
  0.027945  0.145236  0.000000      4.000000
 -0.074521 -0.032275  0.000000      4.000000
 -0.065206 -0.016137  0.000000      4.000000
 -0.055891  0.000000  0.000000      2.000000
  0.000000  0.129099  0.000000      2.000000
  0.009315  0.145236  0.000000      4.000000
  0.018630  0.161374  0.000000      4.000000
 -0.083836 -0.016137  0.000000      4.000000
 -0.074521  0.000000  0.000000      2.000000
  0.000000  0.161374  0.000000      2.000000
  0.009315  0.177511  0.000000      4.000000
 -0.093152  0.000000  0.000000      2.000000
  0.000000  0.193648  0.000000      1.000000
 

 ----------------------------------------------------------------------------- 
|                                                                             |
|           W    W    AA    RRRRR   N    N  II  N    N   GGGG   !!!           |
|           W    W   A  A   R    R  NN   N  II  NN   N  G    G  !!!           |
|           W    W  A    A  R    R  N N  N  II  N N  N  G       !!!           |
|           W WW W  AAAAAA  RRRRR   N  N N  II  N  N N  G  GGG   !            |
|           WW  WW  A    A  R   R   N   NN  II  N   NN  G    G                |
|           W    W  A    A  R    R  N    N  II  N    N   GGGG   !!!           |
|                                                                             |
|      The number of bands has been changed from the values supplied          |
|      in the INCAR file. This is a result of running the parallel version.   |
|      The orbitals not found in the WAVECAR file will be initialized with    |
|      random numbers, which is usually adequate. For correlated              |
|      calculations, however, you should redo the groundstate calculation.    |
|      I found NBANDS    =       64  now  NBANDS  =      72                   |
|                                                                             |
 ----------------------------------------------------------------------------- 



--------------------------------------------------------------------------------------------------------




 Dimension of arrays:
   k-points           NKPTS =     43   k-points in BZ     NKDIM =     43   number of bands    NBANDS=     72
   number of dos      NEDOS =   2400   number of ions     NIONS =      8
   non local maximal  LDIM  =      4   non local SUM 2l+1 LMDIM =      8
   total plane-waves  NPLWV = 139968
   max r-space proj   IRMAX =      1   max aug-charges    IRDMAX=   6498
   dimension x,y,z NGX =    36 NGY =   36 NGZ =  108
   dimension x,y,z NGXF=    72 NGYF=   72 NGZF=  216
   support grid    NGXF=    72 NGYF=   72 NGZF=  216
   ions per type =               2   6
   NGX,Y,Z   is equivalent  to a cutoff of  11.59, 11.59, 11.97 a.u.
   NGXF,Y,Z  is equivalent  to a cutoff of  23.18, 23.18, 23.94 a.u.

 SYSTEM =  BC3-optical                             
 POSCAR =  BC3                                     

 Startparameter for this run:
   NWRITE =      3    write-flag & timer
   PREC   = accura    normal or accurate (medium, high low for compatibility)
   ISTART =      1    job   : 0-new  1-cont  2-samecut
   ICHARG =      2    charge: 1-file 2-atom 10-const
   ISPIN  =      1    spin polarized calculation?
   LNONCOLLINEAR =      F non collinear calculations
   LSORBIT =      F    spin-orbit coupling
   INIWAV =      1    electr: 0-lowe 1-rand  2-diag
   LASPH  =      F    aspherical Exc in radial PAW
   METAGGA=      F    non-selfconsistent MetaGGA calc.

 Electronic Relaxation 1
   ENCUT  =  450.0 eV  33.07 Ry    5.75 a.u.   8.93  8.93 25.95*2*pi/ulx,y,z
   ENINI  =  450.0     initial cutoff
   ENAUG  =  644.9 eV  augmentation charge cutoff
   NELM   =     60;   NELMIN=  2; NELMDL=  0     # of ELM steps 
   EDIFF  = 0.1E-07   stopping-criterion for ELM
   LREAL  =      F    real-space projection
   NLSPLINE    = F    spline interpolate recip. space projectors
   LCOMPAT=      F    compatible to vasp.4.4
   GGA_COMPAT  = T    GGA compatible to vasp.4.4-vasp.4.6
   LMAXPAW     = -100 max onsite density
   LMAXMIX     =    2 max onsite mixed and CHGCAR
   VOSKOWN=      0    Vosko Wilk Nusair interpolation
   ROPT   =    0.00000   0.00000
 Ionic relaxation
   EDIFFG = 0.1E-06   stopping-criterion for IOM
   NSW    =      0    number of steps for IOM
   NBLOCK =      1;   KBLOCK =      1    inner block; outer block 
   IBRION =     -1    ionic relax: 0-MD 1-quasi-New 2-CG
   NFREE  =      0    steps in history (QN), initial steepest desc. (CG)
   ISIF   =      2    stress and relaxation
   IWAVPR =     10    prediction:  0-non 1-charg 2-wave 3-comb
   ISYM   =      2    0-nonsym 1-usesym 2-fastsym
   LCORR  =      T    Harris-Foulkes like correction to forces

   POTIM  = 0.5000    time-step for ionic-motion
   TEIN   =    0.0    initial temperature
   TEBEG  =    0.0;   TEEND  =   0.0 temperature during run
   SMASS  =  -3.00    Nose mass-parameter (am)
   estimated Nose-frequenzy (Omega)   =  0.10E-29 period in steps =****** mass=  -0.610E-27a.u.
   SCALEE = 1.0000    scale energy and forces
   NPACO  =    256;   APACO  = 16.0  distance and # of slots for P.C.
   PSTRESS=    0.0 pullay stress

  Mass of Ions in am
   POMASS =  10.81 12.01
  Ionic Valenz
   ZVAL   =   3.00  4.00
  Atomic Wigner-Seitz radii
   RWIGS  =  -1.00 -1.00
  virtual crystal weights 
   VCA    =   1.00  1.00
   NELECT =      30.0000    total number of electrons
   NUPDOWN=      -1.0000    fix difference up-down

 DOS related values:
   EMIN   =  10.00;   EMAX   =-10.00  energy-range for DOS
   EFERMI =   0.00
   ISMEAR =     0;   SIGMA  =   0.01  broadening in eV -4-tet -1-fermi 0-gaus

 Electronic relaxation 2 (details)
   IALGO  =     90    algorithm
   LDIAG  =      T    sub-space diagonalisation (order eigenvalues)
   LSUBROT=      F    optimize rotation matrix (better conditioning)
   TURBO    =      0    0=normal 1=particle mesh
   IRESTART =      0    0=no restart 2=restart with 2 vectors
   NREBOOT  =      0    no. of reboots
   NMIN     =      0    reboot dimension
   EREF     =   0.00    reference energy to select bands
   IMIX   =      4    mixing-type and parameters
     AMIX     =   0.40;   BMIX     =  1.00
     AMIX_MAG =   1.60;   BMIX_MAG =  1.00
     AMIN     =   0.10
     WC   =   100.;   INIMIX=   1;  MIXPRE=   1;  MAXMIX= -45

 Intra band minimization:
   WEIMIN = 0.0000     energy-eigenvalue tresh-hold
   EBREAK =  0.35E-10  absolut break condition
   DEPER  =   0.30     relativ break condition  

   TIME   =   0.40     timestep for ELM

  volume/ion in A,a.u.               =      43.31       292.27
  Fermi-wavevector in a.u.,A,eV,Ry     =   0.724252  1.368638  7.136816  0.524541
  Thomas-Fermi vector in A             =   1.814675
 
 Write flags
   LWAVE        =      T    write WAVECAR
   LDOWNSAMPLE  =      F    k-point downsampling of WAVECAR
   LCHARG       =      T    write CHGCAR
   LVTOT        =      F    write LOCPOT, total local potential
   LVHAR        =      F    write LOCPOT, Hartree potential only
   LELF         =      F    write electronic localiz. function (ELF)
   LORBIT       =      0    0 simple, 1 ext, 2 COOP (PROOUT), +10 PAW based schemes


 Dipole corrections
   LMONO  =      F    monopole corrections only (constant potential shift)
   LDIPOL =      F    correct potential (dipole corrections)
   IDIPOL =      0    1-x, 2-y, 3-z, 4-all directions 
   EPSILON=  1.0000000 bulk dielectric constant

 Exchange correlation treatment:
   GGA     =    --    GGA type
   LEXCH   =     8    internal setting for exchange type
   VOSKOWN=      0    Vosko Wilk Nusair interpolation
   LHFCALC =     F    Hartree Fock is set to
   LHFONE  =     F    Hartree Fock one center treatment
   AEXX    =    0.0000 exact exchange contribution

 Linear response parameters
   LEPSILON=     F    determine dielectric tensor
   LRPA    =     F    only Hartree local field effects (RPA)
   LNABLA  =     F    use nabla operator in PAW spheres
   LVEL    =     F    velocity operator in full k-point grid
   LINTERFAST=   F  fast interpolation
   KINTER  =     0    interpolate to denser k-point grid
   CSHIFT  =0.1000    complex shift for real part using Kramers Kronig
   OMEGAMAX=  -1.0    maximum frequency
   DEG_THRESHOLD= 0.2000000E-02 threshold for treating states as degnerate
   RTIME   =   -0.100 relaxation time in fs
  (WPLASMAI=    0.000 imaginary part of plasma frequency in eV, 0.658/RTIME)
   DFIELD  = 0.0000000 0.0000000 0.0000000 field for delta impulse in time
 
 Orbital magnetization related:
   ORBITALMAG=     F  switch on orbital magnetization
   LCHIMAG   =     F  perturbation theory with respect to B field
   DQ        =  0.001000  dq finite difference perturbation B field
   LLRAUG    =     F  two centre corrections for induced B field



--------------------------------------------------------------------------------------------------------


 Static calculation
 charge density and potential will be updated during run
 non-spin polarized calculation
 Exact diagonalization
 preconditioned conjugated gradient (Jacobi prec)
    charged. constant during bandupdate  
    band-by band algorithm
 perform sub-space diagonalisation
    after iterative eigenvector-optimisation
 modified Broyden-mixing scheme, WC =      100.0
 initial mixing is a Kerker type mixing with AMIX =  0.4000 and BMIX =      1.0000
 Hartree-type preconditioning will be used
 using additional bands           57
 reciprocal scheme for non local part
 use partial core corrections
 calculate Harris-corrections to forces 
   (improved forces if not selfconsistent)
 use gradient corrections 
 use of overlap-Matrix (Vanderbilt PP)
 Gauss-broadening in eV      SIGMA  =   0.01


--------------------------------------------------------------------------------------------------------


  energy-cutoff  :      450.00
  volume of cell :      346.48
      direct lattice vectors                 reciprocal lattice vectors
     4.473000000  2.582000000  0.000000000     0.111781802  0.193648335  0.000000000
    -4.473000000  2.582000000  0.000000000    -0.111781802  0.193648335  0.000000000
     0.000000000  0.000000000 15.000000000     0.000000000  0.000000000  0.066666667

  length of vectors
     5.164731648  5.164731648 15.000000000     0.223595279  0.223595279  0.066666667


 
 old parameters found on file WAVECAR:
  energy-cutoff  :      450.00
  volume of cell :      346.48
      direct lattice vectors                 reciprocal lattice vectors
     4.473000000  2.582000000  0.000000000     0.111781802  0.193648335  0.000000000
    -4.473000000  2.582000000  0.000000000    -0.111781802  0.193648335  0.000000000
     0.000000000  0.000000000 15.000000000     0.000000000  0.000000000  0.066666667

  length of vectors

 
 k-points in units of 2pi/SCALE and weight: K-points for BC3                        
   0.00000000  0.00000000  0.00000000       0.007
   0.00931515  0.01613736  0.00000000       0.028
   0.01863030  0.03227472  0.00000000       0.028
   0.02794545  0.04841208  0.00000000       0.028
   0.03726060  0.06454944  0.00000000       0.028
   0.04657575  0.08068681  0.00000000       0.028
   0.05589090  0.09682417  0.00000000       0.014
   0.00000000  0.03227472  0.00000000       0.014
   0.00931515  0.04841208  0.00000000       0.028
   0.01863030  0.06454944  0.00000000       0.028
   0.02794545  0.08068681  0.00000000       0.028
   0.03726060  0.09682417  0.00000000       0.028
   0.04657575  0.11296153  0.00000000       0.028
  -0.05589090 -0.06454944  0.00000000       0.028
  -0.04657575 -0.04841208  0.00000000       0.028
  -0.03726060 -0.03227472  0.00000000       0.028
  -0.02794545 -0.01613736  0.00000000       0.028
  -0.01863030  0.00000000  0.00000000       0.014
   0.00000000  0.06454944  0.00000000       0.014
   0.00931515  0.08068681  0.00000000       0.028
   0.01863030  0.09682417  0.00000000       0.028
   0.02794545  0.11296153  0.00000000       0.028
   0.03726060  0.12909889  0.00000000       0.028
  -0.06520605 -0.04841208  0.00000000       0.028
  -0.05589090 -0.03227472  0.00000000       0.028
  -0.04657575 -0.01613736  0.00000000       0.028
  -0.03726060  0.00000000  0.00000000       0.014
   0.00000000  0.09682417  0.00000000       0.014
   0.00931515  0.11296153  0.00000000       0.028
   0.01863030  0.12909889  0.00000000       0.028
   0.02794545  0.14523625  0.00000000       0.028
  -0.07452120 -0.03227472  0.00000000       0.028
  -0.06520605 -0.01613736  0.00000000       0.028
  -0.05589090  0.00000000  0.00000000       0.014
   0.00000000  0.12909889  0.00000000       0.014
   0.00931515  0.14523625  0.00000000       0.028
   0.01863030  0.16137361  0.00000000       0.028
  -0.08383635 -0.01613736  0.00000000       0.028
  -0.07452120  0.00000000  0.00000000       0.014
   0.00000000  0.16137361  0.00000000       0.014
   0.00931515  0.17751097  0.00000000       0.028
  -0.09315150  0.00000000  0.00000000       0.014
   0.00000000  0.19364833  0.00000000       0.007
 
 k-points in reciprocal lattice and weights: K-points for BC3                        
   0.00000000  0.00000000  0.00000000       0.007
   0.08333333  0.00000000  0.00000000       0.028
   0.16666667 -0.00000000  0.00000000       0.028
   0.25000000 -0.00000000  0.00000000       0.028
   0.33333333  0.00000000  0.00000000       0.028
   0.41666667 -0.00000000  0.00000000       0.028
   0.50000000 -0.00000000  0.00000000       0.014
   0.08333333  0.08333333  0.00000000       0.014
   0.16666667  0.08333333  0.00000000       0.028
   0.25000000  0.08333333  0.00000000       0.028
   0.33333333  0.08333333  0.00000000       0.028
   0.41666667  0.08333333  0.00000000       0.028
   0.50000000  0.08333333  0.00000000       0.028
  -0.41666667  0.08333333  0.00000000       0.028
  -0.33333333  0.08333333  0.00000000       0.028
  -0.25000000  0.08333333  0.00000000       0.028
  -0.16666667  0.08333333  0.00000000       0.028
  -0.08333333  0.08333333  0.00000000       0.014
   0.16666667  0.16666667  0.00000000       0.014
   0.25000000  0.16666667  0.00000000       0.028
   0.33333333  0.16666667  0.00000000       0.028
   0.41666667  0.16666667  0.00000000       0.028
   0.50000000  0.16666667  0.00000000       0.028
  -0.41666667  0.16666667  0.00000000       0.028
  -0.33333333  0.16666667  0.00000000       0.028
  -0.25000000  0.16666667  0.00000000       0.028
  -0.16666667  0.16666667  0.00000000       0.014
   0.25000000  0.25000000  0.00000000       0.014
   0.33333333  0.25000000  0.00000000       0.028
   0.41666667  0.25000000  0.00000000       0.028
   0.50000000  0.25000000  0.00000000       0.028
  -0.41666667  0.25000000  0.00000000       0.028
  -0.33333333  0.25000000  0.00000000       0.028
  -0.25000000  0.25000000  0.00000000       0.014
   0.33333333  0.33333333  0.00000000       0.014
   0.41666667  0.33333333  0.00000000       0.028
   0.50000000  0.33333333  0.00000000       0.028
  -0.41666667  0.33333333  0.00000000       0.028
  -0.33333333  0.33333333  0.00000000       0.014
   0.41666667  0.41666667  0.00000000       0.014
   0.50000000  0.41666667  0.00000000       0.028
  -0.41666667  0.41666667  0.00000000       0.014
   0.50000000  0.50000000  0.00000000       0.007
 
 position of ions in fractional coordinates (direct lattice) 
   0.33333300  0.66666600  0.25000000
   0.66666600  0.33333300  0.25000000
   0.16666600  0.33333300  0.25000000
   0.33333300  0.16666600  0.25000000
   0.16666600  0.83333300  0.25000000
   0.83333300  0.16666600  0.25000000
   0.66666600  0.83333300  0.25000000
   0.83333300  0.66666600  0.25000000
 
 position of ions in cartesian coordinates  (Angst):
  -1.49099851  2.58199742  3.75000000
   1.49099851  2.58199742  3.75000000
  -0.74550149  1.29099742  3.75000000
   0.74550149  1.29099742  3.75000000
  -2.98200149  2.58199742  3.75000000
   2.98200149  2.58199742  3.75000000
  -0.74550149  3.87299742  3.75000000
   0.74550149  3.87299742  3.75000000
 


--------------------------------------------------------------------------------------------------------


 k-point  1 :   0.0000 0.0000 0.0000  plane waves:    7497
 k-point  2 :   0.0833 0.0000 0.0000  plane waves:    7488
 k-point  3 :   0.1667-0.0000 0.0000  plane waves:    7499
 k-point  4 :   0.2500-0.0000 0.0000  plane waves:    7495
 k-point  5 :   0.3333 0.0000 0.0000  plane waves:    7522
 k-point  6 :   0.4167-0.0000 0.0000  plane waves:    7518
 k-point  7 :   0.5000-0.0000 0.0000  plane waves:    7508
 k-point  8 :   0.0833 0.0833 0.0000  plane waves:    7497
 k-point  9 :   0.1667 0.0833 0.0000  plane waves:    7488
 k-point 10 :   0.2500 0.0833 0.0000  plane waves:    7501
 k-point 11 :   0.3333 0.0833 0.0000  plane waves:    7501
 k-point 12 :   0.4167 0.0833 0.0000  plane waves:    7514
 k-point 13 :   0.5000 0.0833 0.0000  plane waves:    7514
 k-point 14 :  -0.4167 0.0833 0.0000  plane waves:    7501
 k-point 15 :  -0.3333 0.0833 0.0000  plane waves:    7497
 k-point 16 :  -0.2500 0.0833 0.0000  plane waves:    7486
 k-point 17 :  -0.1667 0.0833 0.0000  plane waves:    7497
 k-point 18 :  -0.0833 0.0833 0.0000  plane waves:    7487
 k-point 19 :   0.1667 0.1667 0.0000  plane waves:    7511
 k-point 20 :   0.2500 0.1667 0.0000  plane waves:    7510
 k-point 21 :   0.3333 0.1667 0.0000  plane waves:    7520
 k-point 22 :   0.4167 0.1667 0.0000  plane waves:    7529
 k-point 23 :   0.5000 0.1667 0.0000  plane waves:    7520
 k-point 24 :  -0.4167 0.1667 0.0000  plane waves:    7512
 k-point 25 :  -0.3333 0.1667 0.0000  plane waves:    7509
 k-point 26 :  -0.2500 0.1667 0.0000  plane waves:    7486
 k-point 27 :  -0.1667 0.1667 0.0000  plane waves:    7499
 k-point 28 :   0.2500 0.2500 0.0000  plane waves:    7509
 k-point 29 :   0.3333 0.2500 0.0000  plane waves:    7527
 k-point 30 :   0.4167 0.2500 0.0000  plane waves:    7527
 k-point 31 :   0.5000 0.2500 0.0000  plane waves:    7509
 k-point 32 :  -0.4167 0.2500 0.0000  plane waves:    7510
 k-point 33 :  -0.3333 0.2500 0.0000  plane waves:    7494
 k-point 34 :  -0.2500 0.2500 0.0000  plane waves:    7495
 k-point 35 :   0.3333 0.3333 0.0000  plane waves:    7545
 k-point 36 :   0.4167 0.3333 0.0000  plane waves:    7527
 k-point 37 :   0.5000 0.3333 0.0000  plane waves:    7520
 k-point 38 :  -0.4167 0.3333 0.0000  plane waves:    7501
 k-point 39 :  -0.3333 0.3333 0.0000  plane waves:    7522
 k-point 40 :   0.4167 0.4167 0.0000  plane waves:    7529
 k-point 41 :   0.5000 0.4167 0.0000  plane waves:    7514
 k-point 42 :  -0.4167 0.4167 0.0000  plane waves:    7516
 k-point 43 :   0.5000 0.5000 0.0000  plane waves:    7504

 maximum and minimum number of plane-waves per node :      7545     7486

 maximum number of plane-waves:      7545
 maximum index in each direction: 
   IXMAX=    9   IYMAX=    8   IZMAX=   25
   IXMIN=   -9   IYMIN=   -9   IZMIN=  -25


 serial   3D FFT for wavefunctions
 parallel 3D FFT for charge:
    minimum data exchange during FFTs selected (reduces bandwidth)


 total amount of memory used by VASP MPI-rank0   118595. kBytes
=======================================================================

   base      :      30000. kBytes
   nonl-proj :      42510. kBytes
   fftplans  :       3727. kBytes
   grid      :      10879. kBytes
   one-center:         24. kBytes
   wavefun   :      31455. kBytes
 
     INWAV:  cpu time    1.1184: real time    1.3018
 Broyden mixing: mesh for mixing (old mesh)
   NGX = 17   NGY = 17   NGZ = 51
  (NGX  = 72   NGY  = 72   NGZ  =216)
  gives a total of  14739 points

 initial charge density was supplied:
 charge density of overlapping atoms calculated
 number of electron      30.0000000 magnetization 
 keeping initial charge density in first step


--------------------------------------------------------------------------------------------------------


 Maximum index for augmentation-charges          409 (set IRDMAX)


--------------------------------------------------------------------------------------------------------


 First call to EWALD:  gamma=   0.252
 Maximum number of real-space cells 4x 4x 2
 Maximum number of reciprocal cells 2x 2x 5

    FEWALD:  cpu time    0.0017: real time    0.0021


--------------------------------------- Iteration      1(   1)  ---------------------------------------


    POTLOK:  cpu time    0.0675: real time    0.0683
    SETDIJ:  cpu time    0.0019: real time    0.0019

 total amount of memory used by VASP MPI-rank0  3416165. kBytes
=======================================================================

   base      :      30000. kBytes
   nonl-proj :      42510. kBytes
   fftplans  :       3727. kBytes
   grid      :      10879. kBytes
   one-center:         24. kBytes
   wavefun   :    3329025. kBytes
 
    EDDIAG:  cpu time 6203.7822: real time 6203.7708
       DOS:  cpu time    0.0012: real time    0.0012
    CHARGE:  cpu time    0.2358: real time    0.2358
    MIXING:  cpu time    0.0016: real time    0.0016
    --------------------------------------------
      LOOP:  cpu time 6204.0901: real time 6204.0796

 eigenvalue-minimisations  :     0
 total energy-change (2. order) :-0.7223546E+02  ( 0.0000000E+00)
 number of electron      30.0000012 magnetization 
 augmentation part        0.5472259 magnetization 

 Broyden mixing:
  rms(total) = 0.12879E+01    rms(broyden)= 0.12875E+01
  rms(prec ) = 0.14614E+01
  weight for this iteration     100.00

 Free energy of the ion-electron system (eV)
  ---------------------------------------------------
  alpha Z        PSCENC =        14.64016667
  Ewald energy   TEWEN  =      2593.16580357
  -Hartree energ DENC   =     -3354.31385078
  -exchange      EXHF   =         0.00000000
  -V(xc)+E(xc)   XCENC  =        90.91428725
  PAW double counting   =       738.13200929     -739.83780425
  entropy T*S    EENTRO =        -0.00000000
  eigenvalues    EBANDS =      -440.13996950
  atomic energy  EATOM  =      1025.20389953
  Solvation  Ediel_sol  =         0.00000000
  ---------------------------------------------------
  free energy    TOTEN  =       -72.23545821 eV

  energy without entropy =      -72.23545821  energy(sigma->0) =      -72.23545821


--------------------------------------------------------------------------------------------------------




 average (electrostatic) potential at core
  the test charge radii are     0.7672  0.6991
  (the norm of the test charge is              1.0000)
       1 -40.6578       2 -40.6578       3 -63.3763       4 -63.3763       5 -63.3761
       6 -63.3761       7 -63.3763       8 -63.3763
 
 
 
 E-fermi :  -7.7510     XC(G=0):  -3.1505     alpha+bet : -2.3762


 k-point     1 :       0.0000    0.0000    0.0000
  band No.  band energies     occupation 
      1     -23.8702      2.00000
      2     -20.0920      2.00000
      3     -20.0896      2.00000
      4     -18.5263      2.00000
      5     -18.5251      2.00000
      6     -16.9460      2.00000
      7     -16.8911      2.00000
      8     -12.8256      2.00000
      9     -11.8583      2.00000
     10     -11.7117      2.00000
     11     -11.7100      2.00000
     12      -9.1522      2.00000
     13      -9.1521      2.00000
     14      -7.7940      2.00000
     15      -7.7924      2.00000
     16      -6.1582      0.00000
     17      -4.1317      0.00000
     18      -4.1309      0.00000
     19      -2.0541      0.00000
     20       0.0124      0.00000
     21       0.0163      0.00000
     22       0.4387      0.00000
     23       1.6280      0.00000
     24       1.6325      0.00000
     25       1.7142      0.00000
     26       2.5149      0.00000
     27       3.6753      0.00000
     28       4.2352      0.00000
     29       4.9296      0.00000
     30       5.0600      0.00000
     31       5.4649      0.00000
     32       7.1030      0.00000
     33       7.5068      0.00000
     34       7.5074      0.00000
     35       7.5602      0.00000
     36       7.5618      0.00000
     37       7.5657      0.00000
     38       7.8685      0.00000
     39       7.8686      0.00000
     40       7.9289      0.00000
     41       8.7851      0.00000
     42       9.0005      0.00000
     43       9.0020      0.00000
     44       9.1652      0.00000
     45       9.1729      0.00000
     46       9.8745      0.00000
     47       9.9477      0.00000
     48       9.9489      0.00000
     49       9.9657      0.00000
     50       9.9754      0.00000
     51       9.9769      0.00000
     52      10.2111      0.00000
     53      10.5469      0.00000
     54      10.5478      0.00000
     55      10.9483      0.00000
     56      11.5617      0.00000
     57      11.5631      0.00000
     58      11.5679      0.00000
     59      11.6919      0.00000
     60      11.6931      0.00000
     61      11.7175      0.00000
     62      11.9314      0.00000
     63      11.9326      0.00000
     64      11.9332      0.00000
     65      12.9062      0.00000
     66      12.9071      0.00000
     67      13.1719      0.00000
     68      13.2397      0.00000
     69      13.2405      0.00000
     70      13.6219      0.00000
     71      14.1837      0.00000
     72      14.1866      0.00000

 k-point     2 :       0.0833    0.0000    0.0000
  band No.  band energies     occupation 
      1     -23.8375      2.00000
      2     -20.2598      2.00000
      3     -20.1631      2.00000
      4     -18.5763      2.00000
      5     -18.3958      2.00000
      6     -16.7754      2.00000
      7     -16.7318      2.00000
      8     -12.8903      2.00000
      9     -11.8159      2.00000
     10     -11.8063      2.00000
     11     -11.7233      2.00000
     12      -9.2895      2.00000
     13      -9.2246      2.00000
     14      -7.9098      2.00000
     15      -7.8140      2.00000
     16      -6.3142      0.00000
     17      -4.0825      0.00000
     18      -3.8728      0.00000
     19      -1.9531      0.00000
     20       0.0843      0.00000
     21       0.1885      0.00000
     22       0.4903      0.00000
     23       1.6519      0.00000
     24       1.7654      0.00000
     25       1.7775      0.00000
     26       2.5691      0.00000
     27       3.7593      0.00000
     28       4.2856      0.00000
     29       4.8117      0.00000
     30       5.1135      0.00000
     31       5.4960      0.00000
     32       6.4427      0.00000
     33       6.9294      0.00000
     34       7.0459      0.00000
     35       7.4495      0.00000
     36       7.6633      0.00000
     37       7.9215      0.00000
     38       7.9301      0.00000
     39       8.0370      0.00000
     40       8.2727      0.00000
     41       8.4908      0.00000
     42       8.7955      0.00000
     43       9.1048      0.00000
     44       9.2029      0.00000
     45       9.2240      0.00000
     46       9.3809      0.00000
     47       9.4080      0.00000
     48       9.5943      0.00000
     49      10.0391      0.00000
     50      10.3910      0.00000
     51      10.4629      0.00000
     52      10.5608      0.00000
     53      10.5913      0.00000
     54      10.6570      0.00000
     55      10.8303      0.00000
     56      11.1524      0.00000
     57      11.2880      0.00000
     58      11.4278      0.00000
     59      11.6713      0.00000
     60      11.7748      0.00000
     61      11.9521      0.00000
     62      12.0116      0.00000
     63      12.2908      0.00000
     64      12.3895      0.00000
     65      13.0446      0.00000
     66      13.0476      0.00000
     67      13.2090      0.00000
     68      13.2219      0.00000
     69      13.3809      0.00000
     70      13.5010      0.00000
     71      14.2376      0.00000
     72      14.2714      0.00000

 k-point     3 :       0.1667   -0.0000    0.0000
  band No.  band energies     occupation 
      1     -23.7403      2.00000
      2     -20.6611      2.00000
      3     -20.3227      2.00000
      4     -18.7018      2.00000
      5     -18.0654      2.00000
      6     -16.4580      2.00000
      7     -16.1957      2.00000
      8     -13.1079      2.00000
      9     -12.0787      2.00000
     10     -11.7143      2.00000
     11     -11.6890      2.00000
     12      -9.6822      2.00000
     13      -9.4280      2.00000
     14      -8.2491      2.00000
     15      -7.8678      2.00000
     16      -6.5822      0.00000
     17      -3.9501      0.00000
     18      -3.3273      0.00000
     19      -1.6402      0.00000
     20       0.2717      0.00000
     21       0.6489      0.00000
     22       0.6853      0.00000
     23       1.6926      0.00000
     24       1.9187      0.00000
     25       2.2063      0.00000
     26       2.7310      0.00000
     27       4.0079      0.00000
     28       4.4353      0.00000
     29       4.4726      0.00000
     30       5.2518      0.00000
     31       5.3615      0.00000
     32       5.8065      0.00000
     33       6.5435      0.00000
     34       6.6175      0.00000
     35       6.6268      0.00000
     36       7.2615      0.00000
     37       7.6527      0.00000
     38       7.7185      0.00000
     39       8.1958      0.00000
     40       8.3491      0.00000
     41       8.4273      0.00000
     42       8.8777      0.00000
     43       8.9299      0.00000
     44       8.9441      0.00000
     45       9.0800      0.00000
     46       9.2538      0.00000
     47       9.4003      0.00000
     48       9.4641      0.00000
     49       9.6857      0.00000
     50       9.8740      0.00000
     51      10.4859      0.00000
     52      10.5759      0.00000
     53      10.7359      0.00000
     54      10.8184      0.00000
     55      10.9409      0.00000
     56      11.2194      0.00000
     57      11.3078      0.00000
     58      11.7752      0.00000
     59      11.8024      0.00000
     60      11.8432      0.00000
     61      12.0662      0.00000
     62      12.4243      0.00000
     63      12.4828      0.00000
     64      13.0167      0.00000
     65      13.3845      0.00000
     66      13.3951      0.00000
     67      13.4122      0.00000
     68      13.5068      0.00000
     69      13.5181      0.00000
     70      13.7745      0.00000
     71      14.0477      0.00000
     72      14.4573      0.00000

 k-point     4 :       0.2500   -0.0000    0.0000
  band No.  band energies     occupation 
      1     -23.5818      2.00000
      2     -21.1407      2.00000
      3     -20.4916      2.00000
      4     -18.8453      2.00000
      5     -17.6236      2.00000
      6     -16.0287      2.00000
      7     -15.4675      2.00000
      8     -13.4869      2.00000
      9     -12.4866      2.00000
     10     -11.6219      2.00000
     11     -11.4796      2.00000
     12     -10.2820      2.00000
     13      -9.7268      2.00000
     14      -8.7425      2.00000
     15      -7.9370      2.00000
     16      -6.7897      0.00000
     17      -3.7690      0.00000
     18      -2.7818      0.00000
     19      -1.0989      0.00000
     20       0.5199      0.00000
     21       0.9170      0.00000
     22       1.4495      0.00000
     23       1.7068      0.00000
     24       2.1737      0.00000
     25       2.8711      0.00000
     26       2.9989      0.00000
     27       3.9402      0.00000
     28       4.3092      0.00000
     29       4.6436      0.00000
     30       4.6871      0.00000
     31       5.5469      0.00000
     32       5.7533      0.00000
     33       5.9104      0.00000
     34       6.2922      0.00000
     35       6.3393      0.00000
     36       6.7529      0.00000
     37       6.8486      0.00000
     38       7.2391      0.00000
     39       8.0025      0.00000
     40       8.1413      0.00000
     41       8.4283      0.00000
     42       8.4865      0.00000
     43       8.5796      0.00000
     44       8.7339      0.00000
     45       8.8132      0.00000
     46       9.0301      0.00000
     47       9.0977      0.00000
     48       9.3133      0.00000
     49       9.5071      0.00000
     50       9.7078      0.00000
     51      10.5205      0.00000
     52      10.5463      0.00000
     53      10.6227      0.00000
     54      10.7845      0.00000
     55      10.9474      0.00000
     56      11.0396      0.00000
     57      11.7407      0.00000
     58      12.0392      0.00000
     59      12.0817      0.00000
     60      12.4020      0.00000
     61      12.4289      0.00000
     62      12.6077      0.00000
     63      13.0041      0.00000
     64      13.4316      0.00000
     65      13.5419      0.00000
     66      13.7359      0.00000
     67      13.8623      0.00000
     68      13.9983      0.00000
     69      14.0694      0.00000
     70      14.3199      0.00000
     71      14.4591      0.00000
     72      14.4966      0.00000

 k-point     5 :       0.3333    0.0000    0.0000
  band No.  band energies     occupation 
      1     -23.3710      2.00000
      2     -21.6112      2.00000
      3     -20.6284      2.00000
      4     -18.9658      2.00000
      5     -17.1382      2.00000
      6     -15.5368      2.00000
      7     -14.6487      2.00000
      8     -13.9633      2.00000
      9     -12.9693      2.00000
     10     -11.4384      2.00000
     11     -11.1914      2.00000
     12     -11.0297      2.00000
     13     -10.0782      2.00000
     14      -9.2924      2.00000
     15      -8.0020      2.00000
     16      -6.9250      0.00000
     17      -3.5868      0.00000
     18      -2.3660      0.00000
     19      -0.3627      0.00000
     20       0.7858      0.00000
     21       1.2661      0.00000
     22       1.6754      0.00000
     23       2.4104      0.00000
     24       2.5282      0.00000
     25       3.2656      0.00000
     26       3.3692      0.00000
     27       3.6795      0.00000
     28       3.7038      0.00000
     29       4.9138      0.00000
     30       5.0169      0.00000
     31       5.0652      0.00000
     32       5.7773      0.00000
     33       5.8653      0.00000
     34       6.0479      0.00000
     35       6.0838      0.00000
     36       6.4963      0.00000
     37       6.5283      0.00000
     38       6.8760      0.00000
     39       7.1271      0.00000
     40       7.3899      0.00000
     41       7.9885      0.00000
     42       8.2567      0.00000
     43       8.3127      0.00000
     44       8.5233      0.00000
     45       8.5833      0.00000
     46       8.6038      0.00000
     47       8.7687      0.00000
     48       8.7789      0.00000
     49       9.4627      0.00000
     50      10.0109      0.00000
     51      10.3664      0.00000
     52      10.4438      0.00000
     53      10.4614      0.00000
     54      10.5673      0.00000
     55      10.6867      0.00000
     56      11.5050      0.00000
     57      11.8361      0.00000
     58      12.4733      0.00000
     59      12.6619      0.00000
     60      12.7518      0.00000
     61      12.8930      0.00000
     62      13.2394      0.00000
     63      13.3536      0.00000
     64      13.7318      0.00000
     65      13.9988      0.00000
     66      14.0261      0.00000
     67      14.1330      0.00000
     68      14.2783      0.00000
     69      14.3001      0.00000
     70      14.3763      0.00000
     71      14.6358      0.00000
     72      15.1028      0.00000

 k-point     6 :       0.4167   -0.0000    0.0000
  band No.  band energies     occupation 
      1     -23.1381      2.00000
      2     -22.0090      2.00000
      3     -20.7152      2.00000
      4     -19.0436      2.00000
      5     -16.6969      2.00000
      6     -15.0388      2.00000
      7     -14.4159      2.00000
      8     -13.9015      2.00000
      9     -13.3459      2.00000
     10     -11.8665      2.00000
     11     -11.1887      2.00000
     12     -10.8356      2.00000
     13     -10.4360      2.00000
     14      -9.8242      2.00000
     15      -8.0472      2.00000
     16      -7.0024      0.00000
     17      -3.4514      0.00000
     18      -2.1084      0.00000
     19       0.4530      0.00000
     20       1.0462      0.00000
     21       1.4382      0.00000
     22       1.8328      0.00000
     23       2.5044      0.00000
     24       2.9664      0.00000
     25       2.9934      0.00000
     26       3.4896      0.00000
     27       3.8437      0.00000
     28       4.1998      0.00000
     29       4.5635      0.00000
     30       5.0851      0.00000
     31       5.4574      0.00000
     32       5.4924      0.00000
     33       5.8871      0.00000
     34       5.9711      0.00000
     35       6.1180      0.00000
     36       6.2563      0.00000
     37       6.5314      0.00000
     38       6.6149      0.00000
     39       6.6838      0.00000
     40       6.8817      0.00000
     41       7.2517      0.00000
     42       7.4590      0.00000
     43       8.0693      0.00000
     44       8.2287      0.00000
     45       8.2346      0.00000
     46       8.3244      0.00000
     47       8.3832      0.00000
     48       9.1513      0.00000
     49       9.2358      0.00000
     50      10.1471      0.00000
     51      10.2760      0.00000
     52      10.3264      0.00000
     53      10.3696      0.00000
     54      10.4092      0.00000
     55      10.4449      0.00000
     56      11.5502      0.00000
     57      12.3668      0.00000
     58      12.5661      0.00000
     59      13.3095      0.00000
     60      13.3658      0.00000
     61      13.4927      0.00000
     62      13.6439      0.00000
     63      13.8319      0.00000
     64      14.0641      0.00000
     65      14.0698      0.00000
     66      14.1553      0.00000
     67      14.2287      0.00000
     68      14.2935      0.00000
     69      14.7511      0.00000
     70      14.7763      0.00000
     71      15.1629      0.00000
     72      15.3563      0.00000

 k-point     7 :       0.5000   -0.0000    0.0000
  band No.  band energies     occupation 
      1     -23.0055      2.00000
      2     -22.1978      2.00000
      3     -20.7449      2.00000
      4     -19.0703      2.00000
      5     -16.4913      2.00000
      6     -14.7454      2.00000
      7     -14.6280      2.00000
      8     -13.9142      2.00000
      9     -12.8413      2.00000
     10     -12.6443      2.00000
     11     -10.9885      2.00000
     12     -10.6733      2.00000
     13     -10.5380      2.00000
     14     -10.1833      2.00000
     15      -8.0633      2.00000
     16      -7.0278      0.00000
     17      -3.4015      0.00000
     18      -2.0204      0.00000
     19       0.9922      0.00000
     20       1.2634      0.00000
     21       1.2939      0.00000
     22       1.9943      0.00000
     23       2.3421      0.00000
     24       2.3422      0.00000
     25       3.4854      0.00000
     26       3.6109      0.00000
     27       4.4076      0.00000
     28       4.4237      0.00000
     29       4.5063      0.00000
     30       4.5704      0.00000
     31       5.5275      0.00000
     32       5.7362      0.00000
     33       5.7696      0.00000
     34       5.9861      0.00000
     35       6.0914      0.00000
     36       6.1706      0.00000
     37       6.4779      0.00000
     38       6.5294      0.00000
     39       6.6111      0.00000
     40       6.8542      0.00000
     41       6.9601      0.00000
     42       7.0656      0.00000
     43       7.6499      0.00000
     44       8.1066      0.00000
     45       8.1654      0.00000
     46       8.2551      0.00000
     47       8.2997      0.00000
     48       9.0950      0.00000
     49       9.5472      0.00000
     50       9.7169      0.00000
     51      10.2374      0.00000
     52      10.2812      0.00000
     53      10.3065      0.00000
     54      10.3562      0.00000
     55      10.9565      0.00000
     56      10.9874      0.00000
     57      13.1452      0.00000
     58      13.1673      0.00000
     59      13.1801      0.00000
     60      13.6165      0.00000
     61      13.6309      0.00000
     62      13.6893      0.00000
     63      13.7168      0.00000
     64      13.7605      0.00000
     65      14.2995      0.00000
     66      14.3019      0.00000
     67      14.3102      0.00000
     68      14.6466      0.00000
     69      14.9105      0.00000
     70      14.9757      0.00000
     71      15.4794      0.00000
     72      15.4903      0.00000

 k-point     8 :       0.0833    0.0833    0.0000
  band No.  band energies     occupation 
      1     -23.7725      2.00000
      2     -20.5123      2.00000
      3     -20.3164      2.00000
      4     -18.5963      2.00000
      5     -18.2352      2.00000
      6     -16.5005      2.00000
      7     -16.4087      2.00000
      8     -13.0386      2.00000
      9     -11.9486      2.00000
     10     -11.7598      2.00000
     11     -11.7312      2.00000
     12      -9.5479      2.00000
     13      -9.3694      2.00000
     14      -8.1070      2.00000
     15      -7.8948      2.00000
     16      -6.4946      0.00000
     17      -4.0295      0.00000
     18      -3.4480      0.00000
     19      -1.7498      0.00000
     20       0.2296      0.00000
     21       0.4952      0.00000
     22       0.6069      0.00000
     23       1.7041      0.00000
     24       1.8676      0.00000
     25       2.0427      0.00000
     26       2.6772      0.00000
     27       3.9266      0.00000
     28       4.3863      0.00000
     29       4.5830      0.00000
     30       5.2188      0.00000
     31       5.5016      0.00000
     32       6.0427      0.00000
     33       6.0734      0.00000
     34       7.0085      0.00000
     35       7.1018      0.00000
     36       7.4569      0.00000
     37       7.6250      0.00000
     38       7.8545      0.00000
     39       8.1779      0.00000
     40       8.2644      0.00000
     41       8.2984      0.00000
     42       8.7589      0.00000
     43       8.9357      0.00000
     44       9.0486      0.00000
     45       9.2054      0.00000
     46       9.3302      0.00000
     47       9.4972      0.00000
     48       9.7493      0.00000
     49      10.0859      0.00000
     50      10.0898      0.00000
     51      10.3677      0.00000
     52      10.4330      0.00000
     53      10.4588      0.00000
     54      10.4709      0.00000
     55      10.6155      0.00000
     56      11.3943      0.00000
     57      11.7078      0.00000
     58      11.7612      0.00000
     59      11.7728      0.00000
     60      11.9297      0.00000
     61      12.1019      0.00000
     62      12.2387      0.00000
     63      12.4499      0.00000
     64      12.6131      0.00000
     65      12.9927      0.00000
     66      13.1695      0.00000
     67      13.3587      0.00000
     68      13.4371      0.00000
     69      13.5683      0.00000
     70      13.6930      0.00000
     71      14.1830      0.00000
     72      14.3621      0.00000

 k-point     9 :       0.1667    0.0833    0.0000
  band No.  band energies     occupation 
      1     -23.6445      2.00000
      2     -20.9146      2.00000
      3     -20.5294      2.00000
      4     -18.6483      2.00000
      5     -17.9336      2.00000
      6     -16.0827      2.00000
      7     -15.8082      2.00000
      8     -13.3702      2.00000
      9     -12.2054      2.00000
     10     -11.7596      2.00000
     11     -11.5631      2.00000
     12     -10.0282      2.00000
     13      -9.6366      2.00000
     14      -8.4849      2.00000
     15      -8.0456      2.00000
     16      -6.6325      0.00000
     17      -3.9505      0.00000
     18      -2.8545      0.00000
     19      -1.3410      0.00000
     20       0.4833      0.00000
     21       0.7879      0.00000
     22       1.1185      0.00000
     23       1.7743      0.00000
     24       2.0718      0.00000
     25       2.5354      0.00000
     26       2.8925      0.00000
     27       4.1485      0.00000
     28       4.2450      0.00000
     29       4.5870      0.00000
     30       4.9816      0.00000
     31       5.4120      0.00000
     32       5.6119      0.00000
     33       6.0097      0.00000
     34       6.2001      0.00000
     35       6.6578      0.00000
     36       7.1562      0.00000
     37       7.2755      0.00000
     38       7.4739      0.00000
     39       7.8622      0.00000
     40       8.0010      0.00000
     41       8.3040      0.00000
     42       8.5439      0.00000
     43       8.6510      0.00000
     44       8.9499      0.00000
     45       9.1058      0.00000
     46       9.3005      0.00000
     47       9.4531      0.00000
     48       9.5412      0.00000
     49       9.6515      0.00000
     50       9.8882      0.00000
     51      10.0351      0.00000
     52      10.4180      0.00000
     53      10.6062      0.00000
     54      10.7808      0.00000
     55      10.8346      0.00000
     56      11.3205      0.00000
     57      11.4738      0.00000
     58      11.8230      0.00000
     59      12.1640      0.00000
     60      12.4099      0.00000
     61      12.5732      0.00000
     62      12.5976      0.00000
     63      12.9683      0.00000
     64      13.1423      0.00000
     65      13.1506      0.00000
     66      13.4828      0.00000
     67      13.5443      0.00000
     68      13.6683      0.00000
     69      13.7742      0.00000
     70      13.9589      0.00000
     71      14.0185      0.00000
     72      14.2380      0.00000

 k-point    10 :       0.2500    0.0833    0.0000
  band No.  band energies     occupation 
      1     -23.4589      2.00000
      2     -21.3745      2.00000
      3     -20.7060      2.00000
      4     -18.7448      2.00000
      5     -17.5014      2.00000
      6     -15.6069      2.00000
      7     -15.0428      2.00000
      8     -13.8425      2.00000
      9     -12.5921      2.00000
     10     -11.6388      2.00000
     11     -11.3140      2.00000
     12     -10.6854      2.00000
     13      -9.9787      2.00000
     14      -8.9967      2.00000
     15      -8.1815      2.00000
     16      -6.6967      0.00000
     17      -3.8439      0.00000
     18      -2.3233      0.00000
     19      -0.7241      0.00000
     20       0.7654      0.00000
     21       1.1141      0.00000
     22       1.7880      0.00000
     23       1.9433      0.00000
     24       2.3771      0.00000
     25       3.2117      0.00000
     26       3.2214      0.00000
     27       3.5481      0.00000
     28       4.0931      0.00000
     29       4.7846      0.00000
     30       4.8841      0.00000
     31       5.3282      0.00000
     32       5.3689      0.00000
     33       5.7993      0.00000
     34       6.2642      0.00000
     35       6.3169      0.00000
     36       6.3678      0.00000
     37       6.9228      0.00000
     38       7.0185      0.00000
     39       7.5368      0.00000
     40       7.5839      0.00000
     41       7.7893      0.00000
     42       8.3690      0.00000
     43       8.4714      0.00000
     44       8.5425      0.00000
     45       8.6607      0.00000
     46       8.8419      0.00000
     47       9.1275      0.00000
     48       9.3794      0.00000
     49       9.7674      0.00000
     50       9.8102      0.00000
     51       9.9731      0.00000
     52      10.2005      0.00000
     53      10.7769      0.00000
     54      10.9794      0.00000
     55      10.9953      0.00000
     56      11.3415      0.00000
     57      11.8649      0.00000
     58      11.9380      0.00000
     59      12.1723      0.00000
     60      12.6544      0.00000
     61      12.8120      0.00000
     62      12.8699      0.00000
     63      13.4052      0.00000
     64      13.6054      0.00000
     65      13.6278      0.00000
     66      13.7971      0.00000
     67      13.8083      0.00000
     68      13.8349      0.00000
     69      14.0169      0.00000
     70      14.4072      0.00000
     71      14.7118      0.00000
     72      14.8624      0.00000

 k-point    11 :       0.3333    0.0833    0.0000
  band No.  band energies     occupation 
      1     -23.2319      2.00000
      2     -21.8075      2.00000
      3     -20.8285      2.00000
      4     -18.8295      2.00000
      5     -17.0344      2.00000
      6     -15.1114      2.00000
      7     -14.4033      2.00000
      8     -14.1613      2.00000
      9     -13.0356      2.00000
     10     -11.4645      2.00000
     11     -11.4227      2.00000
     12     -10.9901      2.00000
     13     -10.3488      2.00000
     14      -9.5383      2.00000
     15      -8.2787      2.00000
     16      -6.7279      0.00000
     17      -3.7379      0.00000
     18      -1.9523      0.00000
     19       0.0446      0.00000
     20       1.0433      0.00000
     21       1.4790      0.00000
     22       1.7816      0.00000
     23       2.7580      0.00000
     24       2.8574      0.00000
     25       2.9213      0.00000
     26       3.3424      0.00000
     27       3.6374      0.00000
     28       4.0396      0.00000
     29       4.5868      0.00000
     30       5.0076      0.00000
     31       5.2937      0.00000
     32       5.4540      0.00000
     33       5.5773      0.00000
     34       6.0652      0.00000
     35       6.1922      0.00000
     36       6.3854      0.00000
     37       6.6437      0.00000
     38       6.7502      0.00000
     39       6.9541      0.00000
     40       7.0545      0.00000
     41       7.3184      0.00000
     42       7.6757      0.00000
     43       7.7552      0.00000
     44       8.2164      0.00000
     45       8.4876      0.00000
     46       8.9313      0.00000
     47       8.9753      0.00000
     48       9.1703      0.00000
     49       9.5624      0.00000
     50       9.6857      0.00000
     51       9.9680      0.00000
     52      10.2508      0.00000
     53      10.4094      0.00000
     54      11.0688      0.00000
     55      11.1008      0.00000
     56      11.5739      0.00000
     57      11.9870      0.00000
     58      12.4298      0.00000
     59      12.4979      0.00000
     60      12.9298      0.00000
     61      13.0239      0.00000
     62      13.0408      0.00000
     63      13.4588      0.00000
     64      13.7746      0.00000
     65      14.0305      0.00000
     66      14.1279      0.00000
     67      14.3207      0.00000
     68      14.5269      0.00000
     69      14.6565      0.00000
     70      14.8975      0.00000
     71      15.0024      0.00000
     72      15.1045      0.00000

 k-point    12 :       0.4167    0.0833    0.0000
  band No.  band energies     occupation 
      1     -23.0250      2.00000
      2     -22.1227      2.00000
      3     -20.8910      2.00000
      4     -18.8762      2.00000
      5     -16.6750      2.00000
      6     -14.8076      2.00000
      7     -14.6387      2.00000
      8     -13.6459      2.00000
      9     -13.1256      2.00000
     10     -12.3039      2.00000
     11     -11.1636      2.00000
     12     -10.6876      2.00000
     13     -10.6207      2.00000
     14     -10.0267      2.00000
     15      -8.3292      2.00000
     16      -6.7425      0.00000
     17      -3.6717      0.00000
     18      -1.7628      0.00000
     19       0.7998      0.00000
     20       1.2987      0.00000
     21       1.5000      0.00000
     22       2.1099      0.00000
     23       2.1150      0.00000
     24       2.6784      0.00000
     25       3.2887      0.00000
     26       3.9013      0.00000
     27       3.9742      0.00000
     28       4.1656      0.00000
     29       4.6379      0.00000
     30       4.7865      0.00000
     31       5.0001      0.00000
     32       5.5522      0.00000
     33       5.7831      0.00000
     34       5.9304      0.00000
     35       6.0016      0.00000
     36       6.3747      0.00000
     37       6.3798      0.00000
     38       6.4389      0.00000
     39       6.8352      0.00000
     40       6.9906      0.00000
     41       7.0509      0.00000
     42       7.2577      0.00000
     43       7.3654      0.00000
     44       7.8884      0.00000
     45       8.0580      0.00000
     46       8.8217      0.00000
     47       9.0289      0.00000
     48       9.3259      0.00000
     49       9.4000      0.00000
     50       9.5605      0.00000
     51       9.8295      0.00000
     52       9.9296      0.00000
     53      10.7304      0.00000
     54      11.0614      0.00000
     55      11.0641      0.00000
     56      11.2929      0.00000
     57      12.3674      0.00000
     58      12.8810      0.00000
     59      13.0129      0.00000
     60      13.1337      0.00000
     61      13.2376      0.00000
     62      13.3866      0.00000
     63      13.5360      0.00000
     64      13.7481      0.00000
     65      14.0568      0.00000
     66      14.3468      0.00000
     67      14.4115      0.00000
     68      14.6107      0.00000
     69      14.9988      0.00000
     70      15.1500      0.00000
     71      15.2525      0.00000
     72      15.4055      0.00000

 k-point    13 :       0.5000    0.0833    0.0000
  band No.  band energies     occupation 
      1     -23.0250      2.00000
      2     -22.1226      2.00000
      3     -20.8910      2.00000
      4     -18.8761      2.00000
      5     -16.6749      2.00000
      6     -14.8075      2.00000
      7     -14.6397      2.00000
      8     -13.6454      2.00000
      9     -13.1259      2.00000
     10     -12.3033      2.00000
     11     -11.1632      2.00000
     12     -10.6880      2.00000
     13     -10.6208      2.00000
     14     -10.0265      2.00000
     15      -8.3294      2.00000
     16      -6.7422      0.00000
     17      -3.6718      0.00000
     18      -1.7629      0.00000
     19       0.7996      0.00000
     20       1.2986      0.00000
     21       1.4999      0.00000
     22       2.1099      0.00000
     23       2.1151      0.00000
     24       2.6786      0.00000
     25       3.2886      0.00000
     26       3.9015      0.00000
     27       3.9754      0.00000
     28       4.1652      0.00000
     29       4.6390      0.00000
     30       4.7869      0.00000
     31       5.0002      0.00000
     32       5.5515      0.00000
     33       5.7829      0.00000
     34       5.9304      0.00000
     35       6.0006      0.00000
     36       6.3735      0.00000
     37       6.3800      0.00000
     38       6.4387      0.00000
     39       6.8352      0.00000
     40       6.9896      0.00000
     41       7.0498      0.00000
     42       7.2568      0.00000
     43       7.3652      0.00000
     44       7.8904      0.00000
     45       8.0580      0.00000
     46       8.8218      0.00000
     47       9.0292      0.00000
     48       9.3267      0.00000
     49       9.3998      0.00000
     50       9.5606      0.00000
     51       9.8295      0.00000
     52       9.9299      0.00000
     53      10.7303      0.00000
     54      11.0617      0.00000
     55      11.0642      0.00000
     56      11.2931      0.00000
     57      12.3703      0.00000
     58      12.8810      0.00000
     59      13.0126      0.00000
     60      13.1322      0.00000
     61      13.2394      0.00000
     62      13.3877      0.00000
     63      13.5343      0.00000
     64      13.7478      0.00000
     65      14.0587      0.00000
     66      14.3449      0.00000
     67      14.4108      0.00000
     68      14.6095      0.00000
     69      14.9991      0.00000
     70      15.1479      0.00000
     71      15.2518      0.00000
     72      15.4073      0.00000

 k-point    14 :      -0.4167    0.0833    0.0000
  band No.  band energies     occupation 
      1     -23.2320      2.00000
      2     -21.8075      2.00000
      3     -20.8286      2.00000
      4     -18.8290      2.00000
      5     -17.0343      2.00000
      6     -15.1120      2.00000
      7     -14.4043      2.00000
      8     -14.1615      2.00000
      9     -13.0346      2.00000
     10     -11.4639      2.00000
     11     -11.4222      2.00000
     12     -10.9902      2.00000
     13     -10.3493      2.00000
     14      -9.5382      2.00000
     15      -8.2791      2.00000
     16      -6.7270      0.00000
     17      -3.7383      0.00000
     18      -1.9525      0.00000
     19       0.0443      0.00000
     20       1.0433      0.00000
     21       1.4789      0.00000
     22       1.7816      0.00000
     23       2.7580      0.00000
     24       2.8574      0.00000
     25       2.9220      0.00000
     26       3.3426      0.00000
     27       3.6372      0.00000
     28       4.0427      0.00000
     29       4.5870      0.00000
     30       5.0068      0.00000
     31       5.2935      0.00000
     32       5.4537      0.00000
     33       5.5768      0.00000
     34       6.0651      0.00000
     35       6.1914      0.00000
     36       6.3841      0.00000
     37       6.6433      0.00000
     38       6.7492      0.00000
     39       6.9531      0.00000
     40       7.0547      0.00000
     41       7.3177      0.00000
     42       7.6753      0.00000
     43       7.7526      0.00000
     44       8.2165      0.00000
     45       8.4892      0.00000
     46       8.9318      0.00000
     47       8.9751      0.00000
     48       9.1710      0.00000
     49       9.5633      0.00000
     50       9.6873      0.00000
     51       9.9679      0.00000
     52      10.2507      0.00000
     53      10.4098      0.00000
     54      11.0696      0.00000
     55      11.1016      0.00000
     56      11.5762      0.00000
     57      11.9871      0.00000
     58      12.4322      0.00000
     59      12.4979      0.00000
     60      12.9302      0.00000
     61      13.0266      0.00000
     62      13.0398      0.00000
     63      13.4581      0.00000
     64      13.7742      0.00000
     65      14.0284      0.00000
     66      14.1275      0.00000
     67      14.3185      0.00000
     68      14.5289      0.00000
     69      14.6555      0.00000
     70      14.8970      0.00000
     71      15.0014      0.00000
     72      15.1018      0.00000

 k-point    15 :      -0.3333    0.0833    0.0000
  band No.  band energies     occupation 
      1     -23.4590      2.00000
      2     -21.3745      2.00000
      3     -20.7061      2.00000
      4     -18.7440      2.00000
      5     -17.5017      2.00000
      6     -15.6075      2.00000
      7     -15.0432      2.00000
      8     -13.8435      2.00000
      9     -12.5909      2.00000
     10     -11.6383      2.00000
     11     -11.3141      2.00000
     12     -10.6848      2.00000
     13      -9.9793      2.00000
     14      -8.9966      2.00000
     15      -8.1820      2.00000
     16      -6.6954      0.00000
     17      -3.8445      0.00000
     18      -2.3234      0.00000
     19      -0.7244      0.00000
     20       0.7658      0.00000
     21       1.1142      0.00000
     22       1.7872      0.00000
     23       1.9432      0.00000
     24       2.3770      0.00000
     25       3.2118      0.00000
     26       3.2244      0.00000
     27       3.5481      0.00000
     28       4.0933      0.00000
     29       4.7835      0.00000
     30       4.8840      0.00000
     31       5.3275      0.00000
     32       5.3692      0.00000
     33       5.7990      0.00000
     34       6.2633      0.00000
[...]
     68      14.3413      0.00000
     69      14.4831      0.00000
     70      15.2814      0.00000
     71      15.6492      0.00000
     72      15.8064      0.00000

 k-point    37 :       0.5000    0.3333    0.0000
  band No.  band energies     occupation 
      1     -23.0593      2.00000
      2     -21.9342      2.00000
      3     -21.1885      2.00000
      4     -18.4419      2.00000
      5     -17.1094      2.00000
      6     -14.9808      2.00000
      7     -14.4059      2.00000
      8     -13.7271      2.00000
      9     -12.8612      2.00000
     10     -11.9416      2.00000
     11     -11.5724      2.00000
     12     -10.7757      2.00000
     13     -10.7184      2.00000
     14      -9.7157      2.00000
     15      -8.7839      2.00000
     16      -6.2627      0.00000
     17      -4.1515      0.00000
     18      -1.3138      0.00000
     19       0.4296      0.00000
     20       1.5234      0.00000
     21       1.7917      0.00000
     22       2.0894      0.00000
     23       2.2955      0.00000
     24       3.0961      0.00000
     25       3.1359      0.00000
     26       3.3781      0.00000
     27       4.0035      0.00000
     28       4.0563      0.00000
     29       4.3317      0.00000
     30       4.3890      0.00000
     31       5.2384      0.00000
     32       5.4003      0.00000
     33       5.6113      0.00000
     34       5.6406      0.00000
     35       5.9051      0.00000
     36       6.2605      0.00000
     37       6.2987      0.00000
     38       6.4721      0.00000
     39       6.8011      0.00000
     40       7.0754      0.00000
     41       7.3238      0.00000
     42       7.5396      0.00000
     43       7.6416      0.00000
     44       7.7482      0.00000
     45       8.2793      0.00000
     46       8.8045      0.00000
     47       9.2646      0.00000
     48       9.6667      0.00000
     49       9.8925      0.00000
     50       9.8956      0.00000
     51      10.1406      0.00000
     52      10.1678      0.00000
     53      10.5818      0.00000
     54      11.1417      0.00000
     55      11.7499      0.00000
     56      11.7629      0.00000
     57      11.9230      0.00000
     58      12.2674      0.00000
     59      12.3591      0.00000
     60      12.4999      0.00000
     61      12.7487      0.00000
     62      12.7646      0.00000
     63      12.9138      0.00000
     64      13.3345      0.00000
     65      13.5986      0.00000
     66      14.1675      0.00000
     67      14.1689      0.00000
     68      14.7868      0.00000
     69      14.8059      0.00000
     70      15.1966      0.00000
     71      15.4914      0.00000
     72      15.6149      0.00000

 k-point    38 :      -0.4167    0.3333    0.0000
  band No.  band energies     occupation 
      1     -23.2321      2.00000
      2     -21.8083      2.00000
      3     -20.8272      2.00000
      4     -18.8279      2.00000
      5     -17.0360      2.00000
      6     -15.1126      2.00000
      7     -14.4040      2.00000
      8     -14.1621      2.00000
      9     -13.0350      2.00000
     10     -11.4649      2.00000
     11     -11.4206      2.00000
     12     -10.9905      2.00000
     13     -10.3481      2.00000
     14      -9.5391      2.00000
     15      -8.2777      2.00000
     16      -6.7259      0.00000
     17      -3.7393      0.00000
     18      -1.9532      0.00000
     19       0.0440      0.00000
     20       1.0467      0.00000
     21       1.4793      0.00000
     22       1.7827      0.00000
     23       2.7573      0.00000
     24       2.8576      0.00000
     25       2.9184      0.00000
     26       3.3417      0.00000
     27       3.6370      0.00000
     28       4.0427      0.00000
     29       4.5862      0.00000
     30       5.0084      0.00000
     31       5.2934      0.00000
     32       5.4528      0.00000
     33       5.5762      0.00000
     34       6.0662      0.00000
     35       6.1910      0.00000
     36       6.3830      0.00000
     37       6.6440      0.00000
     38       6.7488      0.00000
     39       6.9521      0.00000
     40       7.0540      0.00000
     41       7.3190      0.00000
     42       7.6747      0.00000
     43       7.7535      0.00000
     44       8.2173      0.00000
     45       8.4867      0.00000
     46       8.9329      0.00000
     47       8.9749      0.00000
     48       9.1720      0.00000
     49       9.5632      0.00000
     50       9.6857      0.00000
     51       9.9686      0.00000
     52      10.2505      0.00000
     53      10.4093      0.00000
     54      11.0713      0.00000
     55      11.1026      0.00000
     56      11.5747      0.00000
     57      11.9866      0.00000
     58      12.4309      0.00000
     59      12.4990      0.00000
     60      12.9296      0.00000
     61      13.0256      0.00000
     62      13.0412      0.00000
     63      13.4596      0.00000
     64      13.7740      0.00000
     65      14.0311      0.00000
     66      14.1297      0.00000
     67      14.3198      0.00000
     68      14.5284      0.00000
     69      14.6566      0.00000
     70      14.8974      0.00000
     71      14.9999      0.00000
     72      15.1026      0.00000

 k-point    39 :      -0.3333    0.3333    0.0000
  band No.  band energies     occupation 
      1     -23.3712      2.00000
      2     -21.6121      2.00000
      3     -20.6269      2.00000
      4     -18.9647      2.00000
      5     -17.1395      2.00000
      6     -15.5375      2.00000
      7     -14.6497      2.00000
      8     -13.9633      2.00000
      9     -12.9696      2.00000
     10     -11.4364      2.00000
     11     -11.1917      2.00000
     12     -11.0304      2.00000
     13     -10.0773      2.00000
     14      -9.2934      2.00000
     15      -8.0007      2.00000
     16      -6.9236      0.00000
     17      -3.5878      0.00000
     18      -2.3668      0.00000
     19      -0.3631      0.00000
     20       0.7893      0.00000
     21       1.2660      0.00000
     22       1.6765      0.00000
     23       2.4070      0.00000
     24       2.5280      0.00000
     25       3.2654      0.00000
     26       3.3689      0.00000
     27       3.6784      0.00000
     28       3.7058      0.00000
     29       4.9130      0.00000
     30       5.0162      0.00000
     31       5.0650      0.00000
     32       5.7779      0.00000
     33       5.8646      0.00000
     34       6.0493      0.00000
     35       6.0833      0.00000
     36       6.4972      0.00000
     37       6.5263      0.00000
     38       6.8769      0.00000
     39       7.1238      0.00000
     40       7.3892      0.00000
     41       7.9876      0.00000
     42       8.2577      0.00000
     43       8.3140      0.00000
     44       8.5242      0.00000
     45       8.5837      0.00000
     46       8.6044      0.00000
     47       8.7669      0.00000
     48       8.7788      0.00000
     49       9.4605      0.00000
     50      10.0106      0.00000
     51      10.3681      0.00000
     52      10.4449      0.00000
     53      10.4623      0.00000
     54      10.5688      0.00000
     55      10.6866      0.00000
     56      11.5052      0.00000
     57      11.8358      0.00000
     58      12.4726      0.00000
     59      12.6623      0.00000
     60      12.7520      0.00000
     61      12.8920      0.00000
     62      13.2406      0.00000
     63      13.3540      0.00000
     64      13.7315      0.00000
     65      13.9995      0.00000
     66      14.0271      0.00000
     67      14.1341      0.00000
     68      14.2772      0.00000
     69      14.3023      0.00000
     70      14.3756      0.00000
     71      14.6385      0.00000
     72      15.1026      0.00000

 k-point    40 :       0.4167    0.4167    0.0000
  band No.  band energies     occupation 
      1     -22.9352      2.00000
      2     -22.1056      2.00000
      3     -21.2267      2.00000
      4     -18.4539      2.00000
      5     -16.9058      2.00000
      6     -15.1994      2.00000
      7     -14.1805      2.00000
      8     -13.2470      2.00000
      9     -12.8645      2.00000
     10     -12.6120      2.00000
     11     -11.3726      2.00000
     12     -11.0293      2.00000
     13     -10.4307      2.00000
     14     -10.0594      2.00000
     15      -8.8214      2.00000
     16      -6.2241      0.00000
     17      -4.1641      0.00000
     18      -1.1976      0.00000
     19       0.9359      0.00000
     20       1.7561      0.00000
     21       1.7762      0.00000
     22       1.7979      0.00000
     23       2.4771      0.00000
     24       2.5091      0.00000
     25       3.6344      0.00000
     26       3.7426      0.00000
     27       4.0317      0.00000
     28       4.3900      0.00000
     29       4.4106      0.00000
     30       4.5832      0.00000
     31       4.5946      0.00000
     32       5.0156      0.00000
     33       5.3450      0.00000
     34       5.6216      0.00000
     35       6.1301      0.00000
     36       6.1854      0.00000
     37       6.2216      0.00000
     38       6.4024      0.00000
     39       6.6356      0.00000
     40       6.8098      0.00000
     41       7.3408      0.00000
     42       7.6821      0.00000
     43       7.6931      0.00000
     44       7.7791      0.00000
     45       7.8410      0.00000
     46       8.7388      0.00000
     47       9.5905      0.00000
     48       9.6769      0.00000
     49       9.6835      0.00000
     50       9.7841      0.00000
     51       9.8229      0.00000
     52      10.0872      0.00000
     53      11.0674      0.00000
     54      11.0996      0.00000
     55      11.5280      0.00000
     56      11.9285      0.00000
     57      12.1549      0.00000
     58      12.3378      0.00000
     59      12.4554      0.00000
     60      12.5033      0.00000
     61      12.7661      0.00000
     62      12.8110      0.00000
     63      13.1867      0.00000
     64      13.2611      0.00000
     65      13.6738      0.00000
     66      13.8035      0.00000
     67      14.0012      0.00000
     68      14.3968      0.00000
     69      15.3637      0.00000
     70      15.4161      0.00000
     71      15.4610      0.00000
     72      15.7301      0.00000

 k-point    41 :       0.5000    0.4167    0.0000
  band No.  band energies     occupation 
      1     -23.0252      2.00000
      2     -22.1234      2.00000
      3     -20.8896      2.00000
      4     -18.8748      2.00000
      5     -16.6772      2.00000
      6     -14.8071      2.00000
      7     -14.6408      2.00000
      8     -13.6455      2.00000
      9     -13.1261      2.00000
     10     -12.3043      2.00000
     11     -11.1618      2.00000
     12     -10.6865      2.00000
     13     -10.6211      2.00000
     14     -10.0273      2.00000
     15      -8.3281      2.00000
     16      -6.7408      0.00000
     17      -3.6731      0.00000
     18      -1.7637      0.00000
     19       0.7992      0.00000
     20       1.3019      0.00000
     21       1.5024      0.00000
     22       2.1097      0.00000
     23       2.1148      0.00000
     24       2.6779      0.00000
     25       3.2883      0.00000
     26       3.9008      0.00000
     27       3.9720      0.00000
     28       4.1648      0.00000
     29       4.6382      0.00000
     30       4.7861      0.00000
     31       5.0009      0.00000
     32       5.5495      0.00000
     33       5.7826      0.00000
     34       5.9314      0.00000
     35       6.0013      0.00000
     36       6.3737      0.00000
     37       6.3794      0.00000
     38       6.4394      0.00000
     39       6.8350      0.00000
     40       6.9899      0.00000
     41       7.0498      0.00000
     42       7.2554      0.00000
     43       7.3655      0.00000
     44       7.8872      0.00000
     45       8.0590      0.00000
     46       8.8231      0.00000
     47       9.0299      0.00000
     48       9.3257      0.00000
     49       9.3996      0.00000
     50       9.5610      0.00000
     51       9.8302      0.00000
     52       9.9295      0.00000
     53      10.7300      0.00000
     54      11.0631      0.00000
     55      11.0663      0.00000
     56      11.2925      0.00000
     57      12.3685      0.00000
     58      12.8831      0.00000
     59      13.0137      0.00000
     60      13.1342      0.00000
     61      13.2380      0.00000
     62      13.3868      0.00000
     63      13.5358      0.00000
     64      13.7475      0.00000
     65      14.0585      0.00000
     66      14.3462      0.00000
     67      14.4121      0.00000
     68      14.6111      0.00000
     69      14.9990      0.00000
     70      15.1487      0.00000
     71      15.2534      0.00000
     72      15.4069      0.00000

 k-point    42 :      -0.4167    0.4167    0.0000
  band No.  band energies     occupation 
      1     -23.1382      2.00000
      2     -22.0098      2.00000
      3     -20.7137      2.00000
      4     -19.0425      2.00000
      5     -16.6987      2.00000
      6     -15.0402      2.00000
      7     -14.4153      2.00000
      8     -13.9025      2.00000
      9     -13.3458      2.00000
     10     -11.8673      2.00000
     11     -11.1869      2.00000
     12     -10.8360      2.00000
     13     -10.4347      2.00000
     14      -9.8250      2.00000
     15      -8.0459      2.00000
     16      -7.0009      0.00000
     17      -3.4526      0.00000
     18      -2.1094      0.00000
     19       0.4525      0.00000
     20       1.0496      0.00000
     21       1.4401      0.00000
     22       1.8329      0.00000
     23       2.5041      0.00000
     24       2.9656      0.00000
     25       2.9932      0.00000
     26       3.4862      0.00000
     27       3.8433      0.00000
     28       4.1992      0.00000
     29       4.5645      0.00000
     30       5.0844      0.00000
     31       5.4585      0.00000
     32       5.4921      0.00000
     33       5.8884      0.00000
     34       5.9706      0.00000
     35       6.1149      0.00000
     36       6.2572      0.00000
     37       6.5302      0.00000
     38       6.6156      0.00000
     39       6.6835      0.00000
     40       6.8790      0.00000
     41       7.2508      0.00000
     42       7.4594      0.00000
     43       8.0689      0.00000
     44       8.2303      0.00000
     45       8.2340      0.00000
     46       8.3254      0.00000
     47       8.3840      0.00000
     48       9.1509      0.00000
     49       9.2334      0.00000
     50      10.1468      0.00000
     51      10.2776      0.00000
     52      10.3276      0.00000
     53      10.3706      0.00000
     54      10.4108      0.00000
     55      10.4445      0.00000
     56      11.5496      0.00000
     57      12.3670      0.00000
     58      12.5667      0.00000
     59      13.3090      0.00000
     60      13.3663      0.00000
     61      13.4930      0.00000
     62      13.6456      0.00000
     63      13.8318      0.00000
     64      14.0645      0.00000
     65      14.0708      0.00000
     66      14.1574      0.00000
     67      14.2290      0.00000
     68      14.2946      0.00000
     69      14.7517      0.00000
     70      14.7763      0.00000
     71      15.1643      0.00000
     72      15.3572      0.00000

 k-point    43 :       0.5000    0.5000    0.0000
  band No.  band energies     occupation 
      1     -23.0057      2.00000
      2     -22.1985      2.00000
      3     -20.7433      2.00000
      4     -19.0691      2.00000
      5     -16.4936      2.00000
      6     -14.7477      2.00000
      7     -14.6270      2.00000
      8     -13.9134      2.00000
      9     -12.8423      2.00000
     10     -12.6449      2.00000
     11     -10.9868      2.00000
     12     -10.6719      2.00000
     13     -10.5384      2.00000
     14     -10.1840      2.00000
     15      -8.0619      2.00000
     16      -7.0263      0.00000
     17      -3.4028      0.00000
     18      -2.0214      0.00000
     19       0.9915      0.00000
     20       1.2672      0.00000
     21       1.2959      0.00000
     22       1.9942      0.00000
     23       2.3416      0.00000
     24       2.3417      0.00000
     25       3.4849      0.00000
     26       3.6106      0.00000
     27       4.4070      0.00000
     28       4.4232      0.00000
     29       4.5056      0.00000
     30       4.5655      0.00000
     31       5.5295      0.00000
     32       5.7371      0.00000
     33       5.7696      0.00000
     34       5.9856      0.00000
     35       6.0910      0.00000
     36       6.1716      0.00000
     37       6.4763      0.00000
     38       6.5304      0.00000
     39       6.6105      0.00000
     40       6.8548      0.00000
     41       6.9587      0.00000
     42       7.0628      0.00000
     43       7.6472      0.00000
     44       8.1080      0.00000
     45       8.1670      0.00000
     46       8.2561      0.00000
     47       8.3006      0.00000
     48       9.0926      0.00000
     49       9.5467      0.00000
     50       9.7166      0.00000
     51      10.2390      0.00000
     52      10.2824      0.00000
     53      10.3077      0.00000
     54      10.3579      0.00000
     55      10.9561      0.00000
     56      10.9868      0.00000
     57      13.1452      0.00000
     58      13.1672      0.00000
     59      13.1830      0.00000
     60      13.6178      0.00000
     61      13.6304      0.00000
     62      13.6904      0.00000
     63      13.7162      0.00000
     64      13.7617      0.00000
     65      14.3008      0.00000
     66      14.3020      0.00000
     67      14.3095      0.00000
     68      14.6461      0.00000
     69      14.9132      0.00000
     70      14.9770      0.00000
     71      15.4791      0.00000
     72      15.4900      0.00000


--------------------------------------------------------------------------------------------------------


 soft charge-density along one line, spin component           1
         0         1         2         3         4         5         6         7         8         9
 total charge-density along one line
 
 pseudopotential strength for first ion, spin component:           1
  7.073  10.819   0.000  -0.000   0.000   0.000  -0.000   0.000
 10.819  16.548   0.000  -0.000   0.000   0.000  -0.000   0.000
  0.000   0.000  -2.527   0.000  -0.000  -4.385   0.000  -0.000
 -0.000  -0.000   0.000  -2.507   0.000   0.000  -4.342   0.000
  0.000   0.000  -0.000   0.000  -2.527  -0.000   0.000  -4.385
  0.000   0.000  -4.385   0.000  -0.000  -7.411   0.000  -0.000
 -0.000  -0.000   0.000  -4.342   0.000   0.000  -7.326   0.000
  0.000   0.000  -0.000   0.000  -4.385  -0.000   0.000  -7.411
 total augmentation occupancy for first ion, spin component:           1
  3.909  -0.988   0.000   0.000   0.001   0.000   0.000  -0.000
 -0.988   0.273   0.000   0.000  -0.000   0.000   0.000   0.000
  0.000   0.000   4.570   0.000   0.000  -1.186  -0.000   0.000
 -0.000   0.000   0.000   1.027   0.000   0.000  -0.212  -0.000
  0.001  -0.000   0.000   0.000   4.569   0.000   0.000  -1.186
  0.000   0.000  -1.186   0.000   0.000   0.322  -0.000   0.000
  0.000  -0.000   0.000  -0.212  -0.000  -0.000   0.044   0.000
 -0.000   0.000   0.000   0.000  -1.186   0.000  -0.000   0.322


--------------------------------------- Iteration      1(   2)  ---------------------------------------


    POTLOK:  cpu time    0.0644: real time    0.0645
    SETDIJ:  cpu time    0.0019: real time    0.0019

 total amount of memory used by VASP MPI-rank0  3416165. kBytes
=======================================================================

   base      :      30000. kBytes
   nonl-proj :      42510. kBytes
   fftplans  :       3727. kBytes
   grid      :      10879. kBytes
   one-center:         24. kBytes
   wavefun   :    3329025. kBytes
 
