    1    1    1    1
  0.3125000E+02  0.3535534E-09  0.3535534E-09  0.3535534E-09  0.5000000E-15
  1.000000000000000E-004
  CAR 
 fcc Si                                  
      4     56     12
 
  0.0000000E+00  0.0000000E+00  0.0000000E+00  0.7513148E-03
    1       -6.549765   1.000000
    2        7.091370   0.000000
    3        7.091373   0.000000
    4        7.091373   0.000000
    5       12.094985   0.000000
    6       12.094985   0.000000
    7       12.094985   0.000000
    8       12.925927   0.000000
    9       15.825335   0.000000
   10       15.845688   0.000000
   11       15.845688   0.000000
   12       20.084866   0.000000
 
  0.9090909E-01  0.0000000E+00  0.0000000E+00  0.6010518E-02
    1       -6.421145   1.000000
    2        6.243951   0.000000
    3        6.979207   0.000000
    4        6.979209   0.000000
    5       11.775864   0.000000
    6       12.325790   0.000000
    7       12.325790   0.000000
    8       13.501182   0.000000
    9       15.358384   0.000000
   10       15.358384   0.000000
   11       16.725610   0.000000
   12       19.225042   0.000000
 
  0.1818182E+00  0.0000000E+00  0.0000000E+00  0.6010518E-02
    1       -6.040313   1.000000
    2        4.486822   0.000000
    3        6.724319   0.000000
    4        6.724321   0.000000
    5       11.152142   0.000000
    6       12.669092   0.000000
    7       12.669092   0.000000
    8       14.752622   0.000000
    9       14.905011   0.000000
   10       14.905011   0.000000
   11       17.349231   0.000000
   12       19.660353   0.000000
 
  0.2727273E+00  0.0000000E+00  0.0000000E+00  0.6010518E-02
    1       -5.428138   1.000000
    2        2.597547   0.282374
    3        6.458872   0.000000
    4        6.458874   0.000000
    5       10.650326   0.000000
    6       12.377078   0.000000
    7       12.377078   0.000000
    8       15.486287   0.000000
    9       15.611054   0.000000
   10       15.611054   0.000000
   11       17.272896   0.000000
   12       22.446264   0.000000
 
  0.3636364E+00  0.0000000E+00  0.0000000E+00  0.6010518E-02
    1       -4.649486   1.000000
    2        0.898814   1.000000
    3        6.260741   0.000000
    4        6.260742   0.000000
    5       10.319356   0.000000
    6       11.865483   0.000000
    7       11.865483   0.000000
    8       15.063989   0.000000
    9       17.070528   0.000000
   10       17.070528   0.000000
   11       18.597985   0.000000
   12       25.361352   0.000000
 
  0.4545455E+00  0.0000000E+00  0.0000000E+00  0.6010518E-02
    1       -3.940851   1.000000
    2       -0.284791   1.000000
    3        6.158730   0.000000
    4        6.158731   0.000000
    5       10.163195   0.000000
    6       11.554391   0.000000
    7       11.554391   0.000000
    8       14.716444   0.000000
    9       18.500208   0.000000
   10       18.500208   0.000000
   11       19.883202   0.000000
   12       23.431414   0.000000
 
  0.9090909E-01  0.9090909E-01  0.0000000E+00  0.4507889E-02
    1       -6.378148   1.000000
    2        6.486594   0.000000
    3        6.679969   0.000000
    4        6.679970   0.000000
    5       11.307808   0.000000
    6       12.709131   0.000000
    7       12.709131   0.000000
    8       13.371570   0.000000
    9       14.700917   0.000000
   10       15.994315   0.000000
   11       16.993633   0.000000
   12       20.221224   0.000000
 
  0.1818182E+00  0.9090909E-01  0.0000000E+00  0.1803156E-01
    1       -6.081022   1.000000
    2        5.091367   0.000000
    3        6.313257   0.000000
    4        6.570537   0.000000
    5       10.980275   0.000000
    6       12.849483   0.000000
    7       13.013970   0.000000
    8       13.269018   0.000000
    9       15.277397   0.000000
   10       15.888087   0.000000
   11       18.198565   0.000000
   12       19.499246   0.000000
 
  0.2727273E+00  0.9090909E-01  0.0000000E+00  0.1803156E-01
    1       -5.544268   1.000000
    2        3.268797   0.000000
    3        6.014396   0.000000
    4        6.261599   0.000000
    5       10.823156   0.000000
    6       12.193065   0.000000
    7       13.243203   0.000000
    8       13.436135   0.000000
    9       16.312939   0.000000
   10       16.558977   0.000000
   11       17.867548   0.000000
   12       21.567831   0.000000
 
  0.3636364E+00  0.9090909E-01  0.0000000E+00  0.1803156E-01
    1       -4.812294   1.000000
    2        1.514082   1.000000
    3        5.850807   0.000000
    4        5.887664   0.000000
    5       10.568510   0.000000
    6       11.650983   0.000000
    7       12.699288   0.000000
    8       14.654198   0.000000
    9       16.459942   0.000000
   10       17.581365   0.000000
   11       18.924979   0.000000
   12       24.544193   0.000000
 
  0.4545455E+00  0.9090909E-01  0.0000000E+00  0.1803156E-01
    1       -4.037272   1.000000
    2        0.123370   1.000000
    3        5.560825   0.000000
    4        5.842324   0.000000
    5       10.431288   0.000000
    6       11.345299   0.000000
    7       12.188578   0.000000
    8       15.665020   0.000000
    9       16.639305   0.000000
   10       18.756104   0.000000
   11       20.441822   0.000000
   12       23.455005   0.000000
 
 -0.4545455E+00  0.9090909E-01  0.0000000E+00  0.1803156E-01
    1       -3.732923   1.000000
    2       -0.336751   1.000000
    3        5.338705   0.000000
    4        5.980020   0.000000
    5       10.525125   0.000000
    6       11.260465   0.000000
    7       11.913751   0.000000
    8       15.705365   0.000000
    9       17.719124   0.000000
   10       18.341398   0.000000
   11       21.116935   0.000000
   12       22.592196   0.000000
 
 -0.3636364E+00  0.9090909E-01  0.0000000E+00  0.1803156E-01
    1       -4.281309   1.000000
    2        0.525165   1.000000
    3        5.259358   0.000000
    4        6.234592   0.000000
    5       10.790645   0.000000
    6       11.443596   0.000000
    7       11.930891   0.000000
    8       15.773174   0.000000
    9       16.697340   0.000000
   10       17.415196   0.000000
   11       20.472233   0.000000
   12       23.145588   0.000000
 
 -0.2727273E+00  0.9090909E-01  0.0000000E+00  0.1803156E-01
    1       -5.073685   1.000000
    2        2.077759   1.000000
    3        5.350085   0.000000
    4        6.556791   0.000000
    5       11.101654   0.000000
    6       11.974211   0.000000
    7       12.254101   0.000000
    8       15.057224   0.000000
    9       15.169347   0.000000
   10       17.229578   0.000000
   11       18.898393   0.000000
   12       23.184504   0.000000
 
 -0.1818182E+00  0.9090909E-01  0.0000000E+00  0.1803156E-01
    1       -5.748853   1.000000
    2        3.872494   0.000000
    3        5.631603   0.000000
    4        6.868929   0.000000
    5       11.442678   0.000000
    6       12.569203   0.000000
    7       12.681269   0.000000
    8       13.979680   0.000000
    9       14.194992   0.000000
   10       17.052117   0.000000
   11       18.125324   0.000000
   12       20.441728   0.000000
 
 -0.9090909E-01  0.9090909E-01  0.0000000E+00  0.9015778E-02
    1       -6.208216   1.000000
    2        5.479735   0.000000
    3        6.199880   0.000000
    4        7.050297   0.000000
    5       11.680716   0.000000
    6       12.451353   0.000000
    7       12.549474   0.000000
    8       14.001665   0.000000
    9       14.353507   0.000000
   10       15.800203   0.000000
   11       17.849040   0.000000
   12       19.248676   0.000000
 
  0.1818182E+00  0.1818182E+00  0.0000000E+00  0.4507889E-02
    1       -5.869167   1.000000
    2        5.156357   0.000000
    3        5.852974   0.000000
    4        5.852975   0.000000
    5       10.044835   0.000000
    6       11.639481   0.000000
    7       14.122704   0.000000
    8       14.122705   0.000000
    9       15.785377   0.000000
   10       16.471214   0.000000
   11       19.394328   0.000000
   12       20.792811   0.000000
 
  0.2727273E+00  0.1818182E+00  0.0000000E+00  0.1803156E-01
    1       -5.414598   1.000000
    2        3.854064   0.000000
    3        5.485803   0.000000
    4        5.490967   0.000000
    5        9.862605   0.000000
    6       10.874898   0.000000
    7       14.320551   0.000000
    8       14.557370   0.000000
    9       16.924938   0.000000
   10       17.292307   0.000000
   11       19.790321   0.000000
   12       21.377608   0.000000
 
  0.3636364E+00  0.1818182E+00  0.0000000E+00  0.1803156E-01
    1       -4.750036   1.000000
    2        2.240755   0.999996
    3        4.917725   0.000000
    4        5.293548   0.000000
    5        9.650168   0.000000
    6       11.367930   0.000000
    7       14.149438   0.000000
    8       14.205473   0.000000
    9       18.078562   0.000000
   10       18.419814   0.000000
   11       19.726907   0.000000
   12       23.811674   0.000000
 
  0.4545455E+00  0.1818182E+00  0.0000000E+00  0.1803156E-01
    1       -3.978187   1.000000
    2        0.792975   1.000000
    3        4.352336   0.000000
    4        5.284229   0.000000
    5        9.468392   0.000000
    6       12.206506   0.000000
    7       13.542192   0.000000
    8       14.549241   0.000000
    9       18.151850   0.000000
   10       19.046998   0.000000
   11       21.179373   0.000000
   12       23.764765   0.000000
 
 -0.4545455E+00  0.1818182E+00  0.0000000E+00  0.1803156E-01
    1       -3.458232   1.000000
    2       -0.004674   1.000000
    3        3.921464   0.000000
    4        5.460777   0.000000
    5        9.598889   0.000000
    6       12.493850   0.000000
    7       13.085587   0.000000
    8       15.594156   0.000000
    9       18.028535   0.000000
   10       18.322702   0.000000
   11       21.252848   0.000000
   12       23.490041   0.000000
 
 -0.3636364E+00  0.1818182E+00  0.0000000E+00  0.1803156E-01
    1       -3.755747   1.000000
    2        0.448749   1.000000
    3        3.686833   0.000000
    4        5.796953   0.000000
    5       10.044916   0.000000
    6       12.513324   0.000000
    7       12.865310   0.000000
    8       15.915792   0.000000
    9       16.544971   0.000000
   10       18.410827   0.000000
   11       20.996845   0.000000
   12       23.351425   0.000000
 
 -0.2727273E+00  0.1818182E+00  0.0000000E+00  0.1803156E-01
    1       -4.507022   1.000000
    2        1.752997   1.000000
    3        3.710039   0.000000
    4        6.233868   0.000000
    5       10.774180   0.000000
    6       12.485707   0.000000
    7       12.924238   0.000000
    8       14.811368   0.000000
    9       14.949061   0.000000
   10       19.077302   0.000000
   11       21.308665   0.000000
   12       22.629889   0.000000
 
 -0.1818182E+00  0.1818182E+00  0.0000000E+00  0.9015778E-02
    1       -5.222241   1.000000
    2        3.124225   0.000000
    3        4.241905   0.000000
    4        6.654626   0.000000
    5       11.694974   0.000000
    6       12.197671   0.000000
    7       13.227305   0.000000
    8       13.517504   0.000000
    9       14.102525   0.000000
   10       19.102827   0.000000
   11       20.019316   0.000000
   12       20.426401   0.000000
 
  0.2727273E+00  0.2727273E+00  0.0000000E+00  0.4507889E-02
    1       -5.045355   1.000000
    2        3.562664   0.000000
    3        5.062884   0.000000
    4        5.062886   0.000000
    5        8.985523   0.000000
    6        9.588674   0.000000
    7       15.870392   0.000000
    8       15.870393   0.000000
    9       17.224198   0.000000
   10       17.908143   0.000000
   11       21.853093   0.000000
   12       22.346201   0.000000
 
  0.3636364E+00  0.2727273E+00  0.0000000E+00  0.1803156E-01
    1       -4.462750   1.000000
    2        2.533208   0.630840
    3        4.389896   0.000000
    4        4.806383   0.000000
    5        8.776904   0.000000
    6        9.438675   0.000000
    7       15.926258   0.000000
    8       16.075409   0.000000
    9       18.271233   0.000000
   10       19.495035   0.000000
   11       21.539437   0.000000
   12       23.931706   0.000000
 
  0.4545455E+00  0.2727273E+00  0.0000000E+00  0.1803156E-01
    1       -3.744485   1.000000
    2        1.409026   1.000000
    3        3.422475   0.000000
    4        4.751534   0.000000
    5        8.565877   0.000000
    6       10.707337   0.000000
    7       15.322852   0.000000
    8       15.739463   0.000000
    9       19.280941   0.000000
   10       20.477065   0.000000
   11       21.874134   0.000000
   12       23.850481   0.000000
 
 -0.4545455E+00  0.2727273E+00  0.0000000E+00  0.1803156E-01
    1       -3.141506   1.000000
    2        0.598654   1.000000
    3        2.650016   0.093781
    4        4.902412   0.000000
    5        8.672168   0.000000
    6       12.338844   0.000000
    7       14.747396   0.000000
    8       15.370243   0.000000
    9       18.490051   0.000000
   10       19.925946   0.000000
   11       21.987516   0.000000
   12       24.186746   0.000000
 
 -0.3636364E+00  0.2727273E+00  0.0000000E+00  0.1803156E-01
    1       -3.176783   1.000000
    2        0.713121   1.000000
    3        2.199357   1.000000
    4        5.241689   0.000000
    5        9.096885   0.000000
    6       13.717688   0.000000
    7       14.293873   0.000000
    8       14.980223   0.000000
    9       16.713299   0.000000
   10       19.210111   0.000000
   11       21.810832   0.000000
   12       24.922894   0.000000
 
 -0.2727273E+00  0.2727273E+00  0.0000000E+00  0.9015778E-02
    1       -3.800579   1.000000
    2        1.466087   1.000000
    3        2.362983   0.996941
    4        5.722340   0.000000
    5        9.820834   0.000000
    6       13.735400   0.000000
    7       13.817782   0.000000
    8       14.747052   0.000000
    9       15.245161   0.000000
   10       19.668397   0.000000
   11       22.132619   0.000000
   12       22.648080   0.000000
 
  0.3636364E+00  0.3636364E+00  0.0000000E+00  0.4507889E-02
    1       -3.973817   1.000000
    2        1.887127   1.000000
    3        4.485540   0.000000
    4        4.485541   0.000000
    5        8.182018   0.000000
    6        8.246680   0.000000
    7       17.702589   0.000000
    8       17.702589   0.000000
    9       18.131363   0.000000
   10       19.886368   0.000000
   11       23.479334   0.000000
   12       23.999637   0.000000
 
  0.4545455E+00  0.3636364E+00  0.0000000E+00  0.1803156E-01
    1       -3.357631   1.000000
    2        1.122329   1.000000
    3        3.691676   0.000000
    4        4.368938   0.000000
    5        7.938730   0.000000
    6        8.778831   0.000000
    7       17.313748   0.000000
    8       17.789292   0.000000
    9       19.367712   0.000000
   10       21.272967   0.000000
   11       22.840746   0.000000
   12       23.471145   0.000000
 
 -0.4545455E+00  0.3636364E+00  0.0000000E+00  0.1803156E-01
    1       -2.827646   1.000000
    2        0.718240   1.000000
    3        2.456531   0.921973
    4        4.466218   0.000000
    5        8.014672   0.000000
    6       10.370024   0.000000
    7       16.606096   0.000000
    8       17.106812   0.000000
    9       18.855574   0.000000
   10       20.821425   0.000000
   11       23.680288   0.000000
   12       24.265163   0.000000
 
 -0.3636364E+00  0.3636364E+00  0.0000000E+00  0.9015778E-02
    1       -2.759916   1.000000
    2        1.012470   1.000000
    3        1.470543   1.000000
    4        4.768867   0.000000
    5        8.405140   0.000000
    6       12.294083   0.000000
    7       15.697556   0.000000
    8       16.005667   0.000000
    9       17.449240   0.000000
   10       19.650176   0.000000
   11       23.919850   0.000000
   12       25.033506   0.000000
 
  0.4545455E+00  0.4545455E+00  0.0000000E+00  0.4507889E-02
    1       -2.920716   1.000000
    2        0.488862   1.000000
    3        4.186187   0.000000
    4        4.186188   0.000000
    5        7.494999   0.000000
    6        7.878504   0.000000
    7       18.853839   0.000000
    8       19.454560   0.000000
    9       19.454561   0.000000
   10       21.107595   0.000000
   11       22.504470   0.000000
   12       22.504472   0.000000
 
 -0.4545455E+00  0.4545455E+00  0.0000000E+00  0.9015778E-02
    1       -2.687194   1.000000
    2        0.318751   1.000000
    3        3.465397   0.000000
    4        4.219607   0.000000
    5        7.646762   0.000000
    6        8.575003   0.000000
    7       18.220197   0.000000
    8       18.816753   0.000000
    9       19.502176   0.000000
   10       21.600306   0.000000
   11       22.370104   0.000000
   12       22.918284   0.000000
 
  0.2727273E+00  0.1818182E+00  0.9090909E-01  0.1803156E-01
    1       -5.705014   1.000000
    2        4.256028   0.000000
    3        5.276892   0.000000
    4        6.483367   0.000000
    5       10.861513   0.000000
    6       12.082315   0.000000
    7       13.123458   0.000000
    8       13.791780   0.000000
    9       15.319394   0.000000
   10       17.284787   0.000000
   11       19.641109   0.000000
   12       19.658289   0.000000
 
  0.3636364E+00  0.1818182E+00  0.9090909E-01  0.3606311E-01
    1       -5.102367   1.000000
    2        2.753553   0.002701
    3        4.673425   0.000000
    4        6.168539   0.000000
    5       10.913238   0.000000
    6       11.739930   0.000000
    7       13.009644   0.000000
    8       14.045493   0.000000
    9       15.899763   0.000000
   10       18.626241   0.000000
   11       19.453193   0.000000
   12       21.959062   0.000000
 
  0.4545455E+00  0.1818182E+00  0.9090909E-01  0.3606311E-01
    1       -4.340200   1.000000
    2        1.172372   1.000000
    3        4.444181   0.000000
    4        5.771730   0.000000
    5       10.657018   0.000000
    6       11.498957   0.000000
    7       13.180263   0.000000
    8       14.579856   0.000000
    9       17.072470   0.000000
   10       18.255738   0.000000
   11       21.019695   0.000000
   12       23.093724   0.000000
 
 -0.4545455E+00  0.1818182E+00  0.9090909E-01  0.3606311E-01
    1       -3.655267   1.000000
    2        0.045099   1.000000
    3        4.377728   0.000000
    4        5.503967   0.000000
    5       10.545343   0.000000
    6       11.198547   0.000000
    7       13.138778   0.000000
    8       15.806061   0.000000
    9       17.490955   0.000000
   10       18.198219   0.000000
   11       21.686844   0.000000
   12       22.471986   0.000000
 
  0.3636364E+00  0.2727273E+00  0.9090909E-01  0.1803156E-01
    1       -4.894331   1.000000
    2        3.047755   0.000000
    3        4.421365   0.000000
    4        5.341626   0.000000
    5        9.923912   0.000000
    6       10.191498   0.000000
    7       14.186156   0.000000
    8       15.686567   0.000000
    9       16.878851   0.000000
   10       19.232910   0.000000
   11       20.823397   0.000000
   12       21.776417   0.000000
 
  0.4545455E+00  0.2727273E+00  0.9090909E-01  0.3606311E-01
    1       -4.194430   1.000000
    2        1.841750   1.000000
    3        3.745676   0.000000
    4        4.912500   0.000000
    5        9.753331   0.000000
    6       11.059569   0.000000
    7       13.659466   0.000000
    8       15.782608   0.000000
    9       17.783943   0.000000
   10       20.147256   0.000000
   11       21.541501   0.000000
   12       23.314142   0.000000
 
 -0.4545455E+00  0.2727273E+00  0.9090909E-01  0.3606311E-01
    1       -3.475342   1.000000
    2        0.696757   1.000000
    3        3.309355   0.000000
    4        4.698525   0.000000
    5        9.716695   0.000000
    6       12.102532   0.000000
    7       13.601177   0.000000
    8       15.440689   0.000000
    9       18.228212   0.000000
   10       19.790534   0.000000
   11       22.332015   0.000000
   12       22.641270   0.000000
 
 -0.3636364E+00  0.2727273E+00  0.9090909E-01  0.3606311E-01
    1       -3.212939   1.000000
    2        0.331878   1.000000
    3        2.995784   0.000000
    4        4.825464   0.000000
    5        9.956477   0.000000
    6       12.187568   0.000000
    7       14.457636   0.000000
    8       14.924925   0.000000
    9       17.472375   0.000000
   10       19.537773   0.000000
   11       21.547018   0.000000
   12       23.572622   0.000000
 
 -0.2727273E+00  0.2727273E+00  0.9090909E-01  0.3606311E-01
    1       -3.714778   1.000000
    2        1.087520   1.000000
    3        2.896265   0.000001
    4        5.215313   0.000000
    5       10.419554   0.000000
    6       12.123372   0.000000
    7       13.558051   0.000000
    8       15.221073   0.000000
    9       16.737510   0.000000
   10       19.729352   0.000000
   11       21.446740   0.000000
   12       23.724355   0.000000
 
 -0.1818182E+00  0.2727273E+00  0.9090909E-01  0.1803156E-01
    1       -4.457860   1.000000
    2        2.169000   1.000000
    3        3.320761   0.000000
    4        5.740190   0.000000
    5       10.999621   0.000000
    6       11.879810   0.000000
    7       12.660514   0.000000
    8       15.254396   0.000000
    9       15.657970   0.000000
   10       20.143519   0.000000
   11       21.808001   0.000000
   12       21.849454   0.000000
 
  0.4545455E+00  0.3636364E+00  0.9090909E-01  0.1803156E-01
    1       -3.851025   1.000000
    2        1.780815   1.000000
    3        3.806220   0.000000
    4        4.271206   0.000000
    5        8.974347   0.000000
    6        9.250953   0.000000
    7       15.494251   0.000000
    8       17.647272   0.000000
    9       18.176585   0.000000
   10       21.210714   0.000000
   11       22.464490   0.000000
   12       23.667896   0.000000
 
 -0.4545455E+00  0.3636364E+00  0.9090909E-01  0.3606311E-01
    1       -3.186635   1.000000
    2        1.093262   1.000000
    3        2.813764   0.000140
    4        4.035942   0.000000
    5        9.020058   0.000000
    6       10.591282   0.000000
    7       14.897476   0.000000
    8       17.107317   0.000000
    9       18.677158   0.000000
   10       21.836711   0.000000
   11       22.694192   0.000000
   12       23.357439   0.000000
 
 -0.3636364E+00  0.3636364E+00  0.9090909E-01  0.3606311E-01
    1       -2.815547   1.000000
    2        0.857421   1.000000
    3        1.934751   1.000000
    4        4.200984   0.000000
    5        9.263089   0.000000
    6       12.313661   0.000000
    7       14.469122   0.000000
    8       15.666814   0.000000
    9       18.186599   0.000000
   10       20.638320   0.000000
   11       23.099422   0.000000
   12       24.133314   0.000000
 
 -0.2727273E+00  0.3636364E+00  0.9090909E-01  0.1803156E-01
    1       -3.086795   1.000000
    2        1.205101   1.000000
    3        1.692505   1.000000
    4        4.624242   0.000000
    5        9.753043   0.000000
    6       13.353753   0.000000
    7       13.805682   0.000000
    8       14.989134   0.000000
    9       17.232201   0.000000
   10       19.776095   0.000000
   11       22.906634   0.000000
   12       24.196227   0.000000
 
 -0.4545455E+00  0.4545455E+00  0.9090909E-01  0.1803156E-01
    1       -2.855811   1.000000
    2        0.623350   1.000000
    3        3.489230   0.000000
    4        3.702425   0.000000
    5        8.400499   0.000000
    6        8.904481   0.000000
    7       16.939862   0.000000
    8       18.207922   0.000000
    9       19.465185   0.000000
   10       22.478279   0.000000
   11       22.640701   0.000000
   12       22.649411   0.000000
 
 -0.3636364E+00  0.4545455E+00  0.9090909E-01  0.1803156E-01
    1       -2.631432   1.000000
    2        0.666593   1.000000
    3        2.385209   0.992390
    4        3.784328   0.000000
    5        8.780741   0.000000
    6       10.428333   0.000000
    7       16.302973   0.000000
    8       16.367085   0.000000
    9       19.377361   0.000000
   10       21.402351   0.000000
   11       23.549886   0.000000
   12       24.062793   0.000000
 
 -0.4545455E+00  0.3636364E+00  0.1818182E+00  0.1803156E-01
    1       -3.515902   1.000000
    2        1.454893   1.000000
    3        2.669651   0.055299
    4        4.243129   0.000000
    5       10.484625   0.000000
    6       11.337839   0.000000
    7       13.106934   0.000000
    8       16.749948   0.000000
    9       17.474825   0.000000
   10       21.082689   0.000000
   11       22.379954   0.000000
   12       23.725695   0.000000
 
 -0.3636364E+00  0.3636364E+00  0.1818182E+00  0.3606311E-01
    1       -2.948767   1.000000
    2        0.935685   1.000000
    3        2.233010   0.999998
    4        3.794340   0.000000
    5       10.584191   0.000000
    6       12.182567   0.000000
    7       13.358376   0.000000
    8       15.342371   0.000000
    9       18.238533   0.000000
   10       21.331497   0.000000
   11       22.407457   0.000000
   12       23.777416   0.000000
 
 -0.3636364E+00  0.4545455E+00  0.1818182E+00  0.1803156E-01
    1       -2.711782   1.000000
    2        0.999268   1.000000
    3        2.335765   0.999115
    4        3.127704   0.000000
    5       10.163370   0.000000
    6       11.040041   0.000000
    7       14.321850   0.000000
    8       15.832039   0.000000
    9       19.479354   0.000000
   10       22.658938   0.000000
   11       23.065032   0.000000
   12       23.408634   0.000000
 
 -0.2727273E+00  0.4545455E+00  0.1818182E+00  0.1803156E-01
    1       -2.613881   1.000000
    2        1.350985   1.000000
    3        1.566072   1.000000
    4        3.163111   0.000000
    5       10.593927   0.000000
    6       12.488963   0.000000
    7       13.606451   0.000000
    8       14.443680   0.000000
    9       19.447713   0.000000
   10       21.953267   0.000000
   11       23.577908   0.000000
   12       24.031262   0.000000
