       N       E                     dE             d eps       ncg     rms          rms(c)
DAV:   1    -0.269240180791E+01   -0.26924E+01   -0.97907E+02  1428   0.132E+02
DAV:   2    -0.358856835470E+01   -0.89617E+00   -0.89004E+00  1968   0.108E+01
DAV:   3    -0.359218938111E+01   -0.36210E-02   -0.36208E-02  1500   0.670E-01
DAV:   4    -0.359219188792E+01   -0.25068E-05   -0.25069E-05  2364   0.173E-02
DAV:   5    -0.359219188832E+01   -0.40374E-09   -0.26771E-10  1476   0.466E-05    0.948E-01
DAV:   6    -0.358248617393E+01    0.97057E-02   -0.79102E-03  1656   0.248E-01    0.498E-01
DAV:   7    -0.357839703937E+01    0.40891E-02   -0.14870E-02  1596   0.342E-01    0.132E-01
DAV:   8    -0.357851680537E+01   -0.11977E-03   -0.14235E-04  1740   0.491E-02    0.122E-02
DAV:   9    -0.357852150207E+01   -0.46967E-05   -0.33725E-06  2040   0.804E-03    0.357E-03
DAV:  10    -0.357852112277E+01    0.37930E-06   -0.82489E-08  1752   0.138E-03
   1 F= -.35785211E+01 E0= -.35772953E+01  d E =-.245159E-02
