   8   8   0   0
  0.2469169E+02  0.5174038E-09  0.5174038E-09  0.8520222E-09  0.5000000E-15
  1.000000000000000E-004
  CAR 
 BC3-optical                             
    179.09053651    -27.95132347 2400     -2.38394080      1.00000000
    -27.951  0.0000E+00  0.0000E+00
    -27.865  0.0000E+00  0.0000E+00
    -27.779  0.0000E+00  0.0000E+00
    -27.692  0.0000E+00  0.0000E+00
    -27.606  0.0000E+00  0.0000E+00
    -27.520  0.0000E+00  0.0000E+00
    -27.434  0.0000E+00  0.0000E+00
    -27.347  0.0000E+00  0.0000E+00
    -27.261  0.0000E+00  0.0000E+00
    -27.175  0.0000E+00  0.0000E+00
    -27.088  0.0000E+00  0.0000E+00
    -27.002  0.0000E+00  0.0000E+00
    -26.916  0.0000E+00  0.0000E+00
    -26.829  0.0000E+00  0.0000E+00
    -26.743  0.0000E+00  0.0000E+00
    -26.657  0.0000E+00  0.0000E+00
    -26.570  0.0000E+00  0.0000E+00
    -26.484  0.0000E+00  0.0000E+00
    -26.398  0.0000E+00  0.0000E+00
    -26.312  0.0000E+00  0.0000E+00
    -26.225  0.0000E+00  0.0000E+00
    -26.139  0.0000E+00  0.0000E+00
    -26.053  0.0000E+00  0.0000E+00
    -25.966  0.0000E+00  0.0000E+00
    -25.880  0.0000E+00  0.0000E+00
    -25.794  0.0000E+00  0.0000E+00
    -25.707  0.0000E+00  0.0000E+00
    -25.621  0.0000E+00  0.0000E+00
    -25.535  0.0000E+00  0.0000E+00
    -25.449  0.0000E+00  0.0000E+00
    -25.362  0.0000E+00  0.0000E+00
    -25.276  0.0000E+00  0.0000E+00
    -25.190  0.0000E+00  0.0000E+00
    -25.103  0.0000E+00  0.0000E+00
    -25.017  0.0000E+00  0.0000E+00
    -24.931  0.0000E+00  0.0000E+00
    -24.844  0.0000E+00  0.0000E+00
    -24.758  0.0000E+00  0.0000E+00
    -24.672  0.0000E+00  0.0000E+00
    -24.585  0.0000E+00  0.0000E+00
    -24.499  0.0000E+00  0.0000E+00
    -24.413  0.0000E+00  0.0000E+00
    -24.327  0.0000E+00  0.0000E+00
    -24.240  0.0000E+00  0.0000E+00
    -24.154  0.0000E+00  0.0000E+00
    -24.068  0.0000E+00  0.0000E+00
    -23.981  0.0000E+00  0.0000E+00
    -23.895  0.0000E+00  0.0000E+00
    -23.809  0.0000E+00  0.0000E+00
    -23.722  0.0000E+00  0.0000E+00
    -23.636  0.0000E+00  0.0000E+00
    -23.550  0.0000E+00  0.0000E+00
    -23.464  0.0000E+00  0.0000E+00
    -23.377  0.0000E+00  0.0000E+00
    -23.291  0.0000E+00  0.0000E+00
    -23.205  0.0000E+00  0.0000E+00
    -23.118  0.0000E+00  0.0000E+00
    -23.032  0.0000E+00  0.0000E+00
    -22.946  0.0000E+00  0.0000E+00
    -22.859  0.0000E+00  0.0000E+00
    -22.773  0.0000E+00  0.0000E+00
    -22.687  0.0000E+00  0.0000E+00
    -22.601  0.0000E+00  0.0000E+00
    -22.514  0.0000E+00  0.0000E+00
    -22.428  0.0000E+00  0.0000E+00
    -22.342  0.0000E+00  0.0000E+00
    -22.255  0.0000E+00  0.0000E+00
    -22.169  0.0000E+00  0.0000E+00
    -22.083  0.0000E+00  0.0000E+00
    -21.996  0.0000E+00  0.0000E+00
    -21.910  0.0000E+00  0.0000E+00
    -21.824  0.0000E+00  0.0000E+00
    -21.737  0.0000E+00  0.0000E+00
    -21.651  0.0000E+00  0.0000E+00
    -21.565  0.0000E+00  0.0000E+00
    -21.479  0.0000E+00  0.0000E+00
    -21.392  0.0000E+00  0.0000E+00
    -21.306  0.0000E+00  0.0000E+00
    -21.220  0.0000E+00  0.0000E+00
    -21.133  0.0000E+00  0.0000E+00
    -21.047  0.0000E+00  0.0000E+00
    -20.961  0.0000E+00  0.0000E+00
    -20.874  0.0000E+00  0.0000E+00
    -20.788  0.0000E+00  0.0000E+00
    -20.702  0.0000E+00  0.0000E+00
    -20.616  0.0000E+00  0.0000E+00
    -20.529  0.0000E+00  0.0000E+00
    -20.443  0.0000E+00  0.0000E+00
    -20.357  0.0000E+00  0.0000E+00
    -20.270  0.0000E+00  0.0000E+00
    -20.184  0.0000E+00  0.0000E+00
    -20.098  0.0000E+00  0.0000E+00
    -20.011  0.0000E+00  0.0000E+00
    -19.925  0.0000E+00  0.0000E+00
    -19.839  0.0000E+00  0.0000E+00
    -19.753  0.0000E+00  0.0000E+00
    -19.666  0.0000E+00  0.0000E+00
    -19.580  0.0000E+00  0.0000E+00
    -19.494  0.0000E+00  0.0000E+00
    -19.407  0.0000E+00  0.0000E+00
    -19.321  0.0000E+00  0.0000E+00
    -19.235  0.0000E+00  0.0000E+00
    -19.148  0.0000E+00  0.0000E+00
    -19.062  0.0000E+00  0.0000E+00
    -18.976  0.0000E+00  0.0000E+00
    -18.889  0.0000E+00  0.0000E+00
    -18.803  0.0000E+00  0.0000E+00
    -18.717  0.0000E+00  0.0000E+00
    -18.631  0.0000E+00  0.0000E+00
    -18.544  0.4660E-01  0.4022E-02
    -18.458  0.1564E+01  0.1489E+00
    -18.372  0.1030E+01  0.2695E+00
    -18.285  0.2831E+01  0.5139E+00
    -18.199  0.2895E+01  0.7638E+00
    -18.113  0.1159E+01  0.8639E+00
    -18.026  0.4193E+01  0.1226E+01
    -17.940  0.5349E+01  0.1726E+01
    -17.854  0.3180E+01  0.2000E+01
    -17.768  0.0000E+00  0.2000E+01
    -17.681  0.0000E+00  0.2000E+01
    -17.595  0.0000E+00  0.2000E+01
    -17.509  0.0000E+00  0.2000E+01
    -17.422  0.0000E+00  0.2000E+01
    -17.336  0.0000E+00  0.2000E+01
    -17.250  0.0000E+00  0.2000E+01
    -17.163  0.0000E+00  0.2000E+01
    -17.077  0.0000E+00  0.2000E+01
    -16.991  0.0000E+00  0.2000E+01
    -16.904  0.0000E+00  0.2000E+01
    -16.818  0.0000E+00  0.2000E+01
    -16.732  0.0000E+00  0.2000E+01
    -16.646  0.0000E+00  0.2000E+01
    -16.559  0.0000E+00  0.2000E+01
    -16.473  0.0000E+00  0.2000E+01
    -16.387  0.0000E+00  0.2000E+01
    -16.300  0.1647E-04  0.2000E+01
    -16.214  0.2246E+01  0.2194E+01
    -16.128  0.1931E+01  0.2375E+01
    -16.041  0.3883E+01  0.2710E+01
    -15.955  0.2895E+01  0.2960E+01
    -15.869  0.2804E+01  0.3202E+01
    -15.783  0.0000E+00  0.3264E+01
    -15.696  0.3314E+01  0.3550E+01
    -15.610  0.1478E-01  0.3598E+01
    -15.524  0.1918E+01  0.3764E+01
    -15.437  0.2205E+01  0.3954E+01
    -15.351  0.1658E+01  0.4097E+01
    -15.265  0.3860E+01  0.4431E+01
    -15.178  0.1963E+01  0.4600E+01
    -15.092  0.4868E+01  0.5020E+01
    -15.006  0.2942E+01  0.5309E+01
    -14.920  0.2761E+01  0.5548E+01
    -14.833  0.4389E-07  0.5639E+01
    -14.747  0.2897E+01  0.5889E+01
    -14.661  0.9809E+00  0.5974E+01
    -14.574  0.3065E+00  0.6000E+01
    -14.488  0.0000E+00  0.6000E+01
    -14.402  0.0000E+00  0.6000E+01
    -14.315  0.0000E+00  0.6000E+01
    -14.229  0.0000E+00  0.6000E+01
    -14.143  0.0000E+00  0.6000E+01
    -14.056  0.0000E+00  0.6000E+01
    -13.970  0.0000E+00  0.6000E+01
    -13.884  0.0000E+00  0.6000E+01
    -13.798  0.0000E+00  0.6000E+01
    -13.711  0.0000E+00  0.6000E+01
    -13.625  0.0000E+00  0.6000E+01
    -13.539  0.0000E+00  0.6000E+01
    -13.452  0.0000E+00  0.6000E+01
    -13.366  0.0000E+00  0.6000E+01
    -13.280  0.0000E+00  0.6000E+01
    -13.193  0.0000E+00  0.6000E+01
    -13.107  0.0000E+00  0.6000E+01
    -13.021  0.0000E+00  0.6000E+01
    -12.935  0.0000E+00  0.6000E+01
    -12.848  0.1611E+00  0.6014E+01
    -12.762  0.9656E+00  0.6125E+01
    -12.676  0.2875E+01  0.6373E+01
    -12.589  0.2868E+01  0.6622E+01
    -12.503  0.1931E+01  0.6792E+01
    -12.417  0.2894E+01  0.7041E+01
    -12.330  0.3011E+01  0.7302E+01
    -12.244  0.3990E+01  0.7736E+01
    -12.158  0.9656E+00  0.7819E+01
    -12.071  0.6354E+00  0.7874E+01
    -11.985  0.9656E+00  0.7986E+01
    -11.899  0.2385E+01  0.8192E+01
    -11.813  0.1758E+01  0.8388E+01
    -11.726  0.1228E+00  0.8413E+01
    -11.640  0.8428E+00  0.8486E+01
    -11.554  0.1706E+00  0.8501E+01
    -11.467  0.1439E+01  0.8625E+01
    -11.381  0.4607E+01  0.9023E+01
    -11.295  0.1072E-15  0.9042E+01
    -11.208  0.2092E+01  0.9222E+01
    -11.122  0.3220E-01  0.9225E+01
    -11.036  0.3831E+01  0.9556E+01
    -10.950  0.1931E+01  0.9722E+01
    -10.863  0.9656E+00  0.9806E+01
    -10.777  0.9656E+00  0.9889E+01
    -10.691  0.2266E+01  0.1008E+02
    -10.604  0.1590E+01  0.1022E+02
    -10.518  0.3718E+00  0.1025E+02
    -10.432  0.0000E+00  0.1026E+02
    -10.345  0.9052E-01  0.1027E+02
    -10.259  0.1841E+01  0.1043E+02
    -10.173  0.4579E+00  0.1047E+02
    -10.087  0.0000E+00  0.1051E+02
    -10.000  0.0000E+00  0.1051E+02
     -9.914  0.7715E-01  0.1052E+02
     -9.828  0.0000E+00  0.1053E+02
     -9.741  0.1905E+01  0.1069E+02
     -9.655  0.1838E+01  0.1086E+02
     -9.569  0.3581E-02  0.1086E+02
     -9.482  0.1285E+01  0.1097E+02
     -9.396  0.9648E+00  0.1106E+02
     -9.310  0.2872E+01  0.1130E+02
     -9.223  0.0000E+00  0.1131E+02
     -9.137  0.9804E+00  0.1139E+02
     -9.051  0.3846E+01  0.1172E+02
     -8.965  0.2759E+01  0.1196E+02
     -8.878  0.2776E+01  0.1222E+02
     -8.792  0.1838E+01  0.1238E+02
     -8.706  0.8490E+00  0.1246E+02
     -8.619  0.4828E+00  0.1251E+02
     -8.533  0.1572E-12  0.1251E+02
     -8.447  0.1717E+01  0.1266E+02
     -8.360  0.6450E+01  0.1322E+02
     -8.274  0.4035E+01  0.1357E+02
     -8.188  0.7926E+00  0.1364E+02
     -8.102  0.1004E-01  0.1364E+02
     -8.015  0.1213E+01  0.1374E+02
     -7.929  0.3420E+01  0.1410E+02
     -7.843  0.4567E+00  0.1418E+02
     -7.756  0.1931E+01  0.1435E+02
     -7.670  0.8681E+00  0.1442E+02
     -7.584  0.4017E+01  0.1478E+02
     -7.497  0.4651E+01  0.1518E+02
     -7.411  0.2141E-10  0.1518E+02
     -7.325  0.2095E+01  0.1536E+02
     -7.239  0.4828E+01  0.1578E+02
     -7.152  0.2887E+01  0.1603E+02
     -7.066  0.6496E+00  0.1608E+02
     -6.980  0.3181E+01  0.1648E+02
     -6.893  0.4615E-04  0.1651E+02
     -6.807  0.2916E+01  0.1677E+02
     -6.721  0.1269E+01  0.1688E+02
     -6.634  0.2253E+01  0.1713E+02
     -6.548  0.4357E+01  0.1750E+02
     -6.462  0.4826E+01  0.1804E+02
     -6.375  0.1657E+01  0.1818E+02
     -6.289  0.3311E+01  0.1849E+02
     -6.203  0.3862E+01  0.1896E+02
     -6.117  0.4697E+01  0.1936E+02
     -6.030  0.2936E+00  0.1940E+02
     -5.944  0.1518E+01  0.1953E+02
     -5.858  0.1301E+01  0.1972E+02
     -5.771  0.1917E+01  0.1989E+02
     -5.685  0.1375E+00  0.1990E+02
     -5.599  0.3908E+01  0.2024E+02
     -5.512  0.1072E-15  0.2031E+02
     -5.426  0.2875E+01  0.2055E+02
     -5.340  0.2595E-02  0.2056E+02
     -5.254  0.3533E+01  0.2086E+02
     -5.167  0.4585E+01  0.2126E+02
     -5.081  0.5763E+01  0.2176E+02
     -4.995  0.7329E+01  0.2249E+02
     -4.908  0.6817E+01  0.2313E+02
     -4.822  0.6143E+01  0.2366E+02
     -4.736  0.3907E+01  0.2403E+02
     -4.649  0.1506E-07  0.2403E+02
     -4.563  0.2673E+01  0.2426E+02
     -4.477  0.1385E+00  0.2429E+02
     -4.390  0.6386E+01  0.2484E+02
     -4.304  0.1931E+01  0.2503E+02
     -4.218  0.9656E+00  0.2511E+02
     -4.132  0.9656E+00  0.2519E+02
     -4.045  0.3759E+01  0.2552E+02
     -3.959  0.4444E+01  0.2591E+02
     -3.873  0.1297E+01  0.2614E+02
     -3.786  0.2661E+01  0.2644E+02
     -3.700  0.1932E+01  0.2661E+02
     -3.614  0.6715E+01  0.2719E+02
     -3.527  0.4826E+01  0.2765E+02
     -3.441  0.2899E+01  0.2790E+02
     -3.355  0.5135E+01  0.2835E+02
     -3.269  0.2920E+01  0.2870E+02
     -3.182  0.3899E+01  0.2911E+02
     -3.096  0.1251E+01  0.2922E+02
     -3.010  0.9660E+00  0.2931E+02
     -2.923  0.2398E+01  0.2953E+02
     -2.837  0.9656E+00  0.2964E+02
     -2.751  0.4145E-03  0.2964E+02
     -2.664  0.1863E+01  0.2980E+02
     -2.578  0.9656E+00  0.2989E+02
     -2.492  0.9656E+00  0.2997E+02
     -2.406  0.3218E+00  0.3000E+02
     -2.319  0.0000E+00  0.3000E+02
     -2.233  0.0000E+00  0.3000E+02
     -2.147  0.0000E+00  0.3000E+02
     -2.060  0.0000E+00  0.3000E+02
     -1.974  0.0000E+00  0.3000E+02
     -1.888  0.0000E+00  0.3000E+02
     -1.801  0.4911E+00  0.3004E+02
     -1.715  0.9567E+00  0.3013E+02
     -1.629  0.9656E+00  0.3021E+02
     -1.542  0.3059E+01  0.3047E+02
     -1.456  0.1605E+01  0.3068E+02
     -1.370  0.0000E+00  0.3079E+02
     -1.284  0.2428E+01  0.3100E+02
     -1.197  0.1240E+01  0.3115E+02
     -1.111  0.3106E+01  0.3148E+02
     -1.025  0.9656E+00  0.3162E+02
     -0.938  0.0000E+00  0.3162E+02
     -0.852  0.9537E+00  0.3171E+02
     -0.766  0.9538E+00  0.3179E+02
     -0.679  0.9276E-12  0.3179E+02
     -0.593  0.1967E+01  0.3196E+02
     -0.507  0.0000E+00  0.3197E+02
     -0.421  0.0000E+00  0.3197E+02
     -0.334  0.0000E+00  0.3197E+02
     -0.248  0.0000E+00  0.3197E+02
     -0.162  0.0000E+00  0.3197E+02
     -0.075  0.2649E-05  0.3197E+02
      0.011  0.6437E+00  0.3203E+02
      0.097  0.0000E+00  0.3203E+02
      0.184  0.0000E+00  0.3203E+02
      0.270  0.0000E+00  0.3203E+02
      0.356  0.0000E+00  0.3203E+02
      0.442  0.0000E+00  0.3203E+02
      0.529  0.1900E+01  0.3219E+02
      0.615  0.0000E+00  0.3219E+02
      0.701  0.3104E-10  0.3219E+02
      0.788  0.9656E+00  0.3228E+02
      0.874  0.0000E+00  0.3228E+02
      0.960  0.0000E+00  0.3228E+02
      1.047  0.1033E+01  0.3237E+02
      1.133  0.2817E+01  0.3277E+02
      1.219  0.1931E+01  0.3297E+02
      1.306  0.1936E+01  0.3314E+02
      1.392  0.2023E+01  0.3331E+02
      1.478  0.9630E+00  0.3347E+02
      1.564  0.2856E+01  0.3372E+02
      1.651  0.1916E+01  0.3389E+02
      1.737  0.1207E-12  0.3389E+02
      1.823  0.1127E+01  0.3399E+02
      1.910  0.1243E+01  0.3409E+02
      1.996  0.2983E+01  0.3442E+02
      2.082  0.1242E+01  0.3452E+02
      2.169  0.1263E+01  0.3465E+02
      2.255  0.8965E+00  0.3479E+02
      2.341  0.1931E+01  0.3496E+02
      2.427  0.2001E+01  0.3513E+02
      2.514  0.8503E+00  0.3529E+02
      2.600  0.3716E+01  0.3561E+02
      2.686  0.5896E-15  0.3562E+02
      2.773  0.9656E+00  0.3571E+02
      2.859  0.4576E+01  0.3610E+02
      2.945  0.2414E+01  0.3633E+02
      3.032  0.1931E+01  0.3650E+02
      3.118  0.3525E+00  0.3653E+02
      3.204  0.2199E+01  0.3672E+02
      3.291  0.9855E+00  0.3684E+02
      3.377  0.6736E+01  0.3742E+02
      3.463  0.4543E-09  0.3742E+02
      3.549  0.1931E+01  0.3758E+02
      3.636  0.1780E-03  0.3758E+02
      3.722  0.1931E+01  0.3775E+02
      3.808  0.3249E+01  0.3803E+02
      3.895  0.1084E-01  0.3817E+02
      3.981  0.3851E+01  0.3850E+02
      4.067  0.8368E+00  0.3857E+02
      4.154  0.1931E+01  0.3875E+02
      4.240  0.1250E+00  0.3876E+02
      4.326  0.2772E+01  0.3900E+02
      4.412  0.1326E+01  0.3911E+02
      4.499  0.2724E+01  0.3942E+02
      4.585  0.2951E+01  0.3967E+02
      4.671  0.2029E+00  0.3970E+02
      4.758  0.3144E+01  0.4004E+02
      4.844  0.3860E+01  0.4043E+02
      4.930  0.1931E+01  0.4060E+02
      5.017  0.1055E+01  0.4069E+02
      5.103  0.1861E+01  0.4085E+02
      5.189  0.5847E+01  0.4135E+02
      5.275  0.2796E+01  0.4160E+02
      5.362  0.1998E+01  0.4177E+02
      5.448  0.8988E+00  0.4185E+02
      5.534  0.3862E+01  0.4218E+02
      5.621  0.3095E+01  0.4245E+02
      5.707  0.2194E+01  0.4276E+02
      5.793  0.2867E+01  0.4301E+02
      5.880  0.9884E+00  0.4310E+02
      5.966  0.4370E+01  0.4352E+02
      6.052  0.3318E+01  0.4386E+02
      6.139  0.4341E+01  0.4424E+02
      6.225  0.1927E+01  0.4444E+02
      6.311  0.3955E+01  0.4479E+02
      6.397  0.3801E+01  0.4513E+02
      6.484  0.8737E+00  0.4521E+02
      6.570  0.1185E+02  0.4625E+02
      6.656  0.2754E+01  0.4650E+02
      6.743  0.1140E+01  0.4660E+02
      6.829  0.8579E+01  0.4739E+02
      6.915  0.2546E+01  0.4764E+02
      7.002  0.4764E+01  0.4818E+02
      7.088  0.5576E+01  0.4869E+02
      7.174  0.3862E+01  0.4910E+02
      7.260  0.6645E+01  0.4967E+02
      7.347  0.2897E+01  0.5001E+02
      7.433  0.2466E+01  0.5023E+02
      7.519  0.1025E+02  0.5119E+02
      7.606  0.8176E+01  0.5193E+02
      7.692  0.2092E+01  0.5215E+02
      7.778  0.1060E+01  0.5224E+02
      7.865  0.6021E+01  0.5276E+02
      7.951  0.3862E+01  0.5311E+02
      8.037  0.8184E+01  0.5382E+02
      8.123  0.6647E+01  0.5444E+02
      8.210  0.8806E+01  0.5525E+02
      8.296  0.5731E+01  0.5581E+02
      8.382  0.6058E+01  0.5633E+02
      8.469  0.5566E+01  0.5693E+02
      8.555  0.3890E+01  0.5727E+02
      8.641  0.9586E+01  0.5811E+02
      8.728  0.9826E+01  0.5904E+02
      8.814  0.4314E+01  0.5943E+02
      8.900  0.3996E+01  0.5977E+02
      8.987  0.2913E+01  0.6008E+02
      9.073  0.6187E+01  0.6062E+02
      9.159  0.6120E+01  0.6129E+02
      9.245  0.7551E+01  0.6198E+02
      9.332  0.5017E+01  0.6248E+02
      9.418  0.7295E+01  0.6312E+02
      9.504  0.9620E+01  0.6398E+02
      9.591  0.3000E+01  0.6437E+02
      9.677  0.1605E+01  0.6451E+02
      9.763  0.9883E+01  0.6541E+02
      9.850  0.7010E+01  0.6601E+02
      9.936  0.4789E+01  0.6646E+02
     10.022  0.2905E+01  0.6671E+02
     10.108  0.2403E+01  0.6692E+02
     10.195  0.3858E+01  0.6725E+02
     10.281  0.6651E+01  0.6782E+02
     10.367  0.2172E+01  0.6810E+02
     10.454  0.6685E+01  0.6868E+02
     10.540  0.5202E+01  0.6913E+02
     10.626  0.5797E+01  0.6976E+02
     10.713  0.1283E+01  0.6987E+02
     10.799  0.4964E+01  0.7030E+02
     10.885  0.2873E+01  0.7060E+02
     10.972  0.4826E+01  0.7101E+02
     11.058  0.6925E+01  0.7161E+02
     11.144  0.7868E+01  0.7230E+02
     11.230  0.3657E+00  0.7234E+02
     11.317  0.2824E+01  0.7263E+02
     11.403  0.3716E+01  0.7297E+02
     11.489  0.9023E+00  0.7319E+02
     11.576  0.2428E+01  0.7340E+02
     11.662  0.2061E+01  0.7363E+02
     11.748  0.7764E+01  0.7430E+02
     11.835  0.2708E+01  0.7454E+02
     11.921  0.7418E+01  0.7524E+02
     12.007  0.5849E+01  0.7584E+02
     12.093  0.4910E+01  0.7633E+02
     12.180  0.1546E+02  0.7779E+02
     12.266  0.4307E+00  0.7806E+02
     12.352  0.7670E+01  0.7878E+02
     12.439  0.5728E+01  0.7928E+02
     12.525  0.1548E+01  0.7941E+02
     12.611  0.7606E+01  0.8007E+02
     12.698  0.7868E+01  0.8075E+02
     12.784  0.2298E+01  0.8103E+02
     12.870  0.5236E+01  0.8148E+02
     12.956  0.4842E+01  0.8190E+02
     13.043  0.9464E+01  0.8272E+02
     13.129  0.6560E+01  0.8329E+02
     13.215  0.3984E+01  0.8365E+02
     13.302  0.7902E+01  0.8434E+02
     13.388  0.1881E+01  0.8466E+02
     13.474  0.3699E+01  0.8498E+02
     13.561  0.2605E+01  0.8530E+02
     13.647  0.6187E+01  0.8584E+02
     13.733  0.5500E+01  0.8632E+02
     13.820  0.7026E+01  0.8693E+02
     13.906  0.8706E+01  0.8774E+02
     13.992  0.7034E+01  0.8843E+02
     14.078  0.6212E+01  0.8897E+02
     14.165  0.4463E+01  0.8936E+02
     14.251  0.6798E+01  0.9007E+02
     14.337  0.1221E+02  0.9113E+02
     14.424  0.5289E+01  0.9166E+02
     14.510  0.8718E+01  0.9241E+02
     14.596  0.9920E+00  0.9257E+02
     14.683  0.6610E+01  0.9314E+02
     14.769  0.2681E+01  0.9339E+02
     14.855  0.1247E+01  0.9350E+02
     14.941  0.7192E+01  0.9426E+02
     15.028  0.5711E+01  0.9480E+02
     15.114  0.7168E+01  0.9543E+02
     15.200  0.3087E+01  0.9570E+02
     15.287  0.5054E+01  0.9613E+02
     15.373  0.3720E+01  0.9646E+02
     15.459  0.4816E+01  0.9689E+02
     15.546  0.2904E+01  0.9714E+02
     15.632  0.1985E+01  0.9731E+02
     15.718  0.5323E+01  0.9787E+02
     15.805  0.6227E+01  0.9846E+02
     15.891  0.3862E+01  0.9882E+02
     15.977  0.2997E+01  0.9908E+02
     16.063  0.6355E+01  0.9970E+02
     16.150  0.7083E+01  0.1004E+03
     16.236  0.4698E+01  0.1008E+03
     16.322  0.3861E+01  0.1011E+03
     16.409  0.3908E+01  0.1014E+03
     16.495  0.5833E+01  0.1019E+03
     16.581  0.6738E+01  0.1025E+03
     16.668  0.8709E+01  0.1033E+03
     16.754  0.5545E+01  0.1039E+03
     16.840  0.7154E+01  0.1045E+03
     16.926  0.7534E+01  0.1052E+03
     17.013  0.5076E+01  0.1056E+03
     17.099  0.5442E+01  0.1062E+03
     17.185  0.8598E+01  0.1070E+03
     17.272  0.1118E+02  0.1080E+03
     17.358  0.4788E+01  0.1085E+03
     17.444  0.4195E+01  0.1089E+03
     17.531  0.1064E+02  0.1099E+03
     17.617  0.7853E+01  0.1107E+03
     17.703  0.2023E+01  0.1109E+03
     17.789  0.4262E+01  0.1112E+03
     17.876  0.4775E+01  0.1116E+03
     17.962  0.1908E+01  0.1118E+03
     18.048  0.8269E+01  0.1126E+03
     18.135  0.6713E+01  0.1132E+03
     18.221  0.8056E+01  0.1139E+03
     18.307  0.2157E+01  0.1141E+03
     18.394  0.5817E+01  0.1146E+03
     18.480  0.9675E+01  0.1155E+03
     18.566  0.6422E+01  0.1160E+03
     18.653  0.7848E+01  0.1168E+03
     18.739  0.5129E+01  0.1173E+03
     18.825  0.7167E+01  0.1180E+03
     18.911  0.5495E+01  0.1185E+03
     18.998  0.9010E+01  0.1193E+03
     19.084  0.2535E+01  0.1196E+03
     19.170  0.1144E+02  0.1206E+03
     19.257  0.3789E+01  0.1210E+03
     19.343  0.5475E+01  0.1217E+03
     19.429  0.1012E+02  0.1226E+03
     19.516  0.3760E+01  0.1230E+03
     19.602  0.7750E+01  0.1236E+03
     19.688  0.1047E+02  0.1246E+03
     19.774  0.7242E+01  0.1252E+03
     19.861  0.7021E+01  0.1260E+03
     19.947  0.7749E+01  0.1267E+03
     20.033  0.4940E+01  0.1272E+03
     20.120  0.1330E+02  0.1283E+03
     20.206  0.6498E+01  0.1289E+03
     20.292  0.5918E+01  0.1294E+03
     20.379  0.1109E+02  0.1305E+03
     20.465  0.6403E+01  0.1311E+03
     20.551  0.1943E+01  0.1314E+03
     20.637  0.1159E+02  0.1324E+03
     20.724  0.1363E+02  0.1338E+03
     20.810  0.4396E+01  0.1341E+03
     20.896  0.3361E+01  0.1344E+03
     20.983  0.1046E+02  0.1354E+03
     21.069  0.8096E+01  0.1361E+03
     21.155  0.6446E+01  0.1368E+03
     21.242  0.6429E+01  0.1374E+03
     21.328  0.4178E+01  0.1378E+03
     21.414  0.2112E+01  0.1380E+03
     21.501  0.1818E+02  0.1395E+03
     21.587  0.2849E+01  0.1399E+03
     21.673  0.3217E+01  0.1401E+03
     21.759  0.1045E+02  0.1411E+03
     21.846  0.9421E+00  0.1412E+03
     21.932  0.4564E+01  0.1416E+03
     22.018  0.7351E+01  0.1423E+03
     22.105  0.3726E+01  0.1427E+03
     22.191  0.8428E+01  0.1436E+03
     22.277  0.5787E+01  0.1441E+03
     22.364  0.5793E+01  0.1447E+03
     22.450  0.1397E+01  0.1448E+03
     22.536  0.5793E+01  0.1453E+03
     22.622  0.3822E+01  0.1456E+03
     22.709  0.4448E+01  0.1460E+03
     22.795  0.5966E+01  0.1465E+03
     22.881  0.5381E+01  0.1470E+03
     22.968  0.9433E+01  0.1479E+03
     23.054  0.3165E+01  0.1482E+03
     23.140  0.8178E+01  0.1489E+03
     23.227  0.5881E+01  0.1495E+03
     23.313  0.8896E+01  0.1503E+03
     23.399  0.5328E+01  0.1508E+03
     23.486  0.3169E+01  0.1511E+03
     23.572  0.6694E+01  0.1517E+03
     23.658  0.5289E+01  0.1523E+03
     23.744  0.6255E+00  0.1524E+03
     23.831  0.5178E+01  0.1529E+03
     23.917  0.8631E+01  0.1538E+03
     24.003  0.5710E+01  0.1543E+03
     24.090  0.9003E+01  0.1552E+03
     24.176  0.6576E+01  0.1559E+03
     24.262  0.1075E+02  0.1568E+03
     24.349  0.6352E+01  0.1576E+03
     24.435  0.2194E+01  0.1577E+03
     24.521  0.6729E+01  0.1585E+03
     24.607  0.1337E+02  0.1597E+03
     24.694  0.2127E+01  0.1600E+03
     24.780  0.6962E+01  0.1607E+03
     24.866  0.7103E+01  0.1613E+03
     24.953  0.3671E+01  0.1618E+03
     25.039  0.7339E+01  0.1625E+03
     25.125  0.9474E+01  0.1634E+03
     25.212  0.6838E+01  0.1640E+03
     25.298  0.9009E+01  0.1648E+03
     25.384  0.1052E+02  0.1658E+03
     25.470  0.6799E+01  0.1664E+03
     25.557  0.5349E+01  0.1668E+03
     25.643  0.3143E+01  0.1673E+03
     25.729  0.6465E+01  0.1679E+03
     25.816  0.4595E+01  0.1683E+03
     25.902  0.7254E+01  0.1690E+03
     25.988  0.1008E+02  0.1699E+03
     26.075  0.5131E+01  0.1703E+03
     26.161  0.3862E+01  0.1707E+03
     26.247  0.8214E+01  0.1714E+03
     26.334  0.6759E+01  0.1722E+03
     26.420  0.7170E+01  0.1728E+03
     26.506  0.1038E+02  0.1738E+03
     26.592  0.3672E+00  0.1740E+03
     26.679  0.4716E+01  0.1744E+03
     26.765  0.9744E+01  0.1753E+03
     26.851  0.6354E+01  0.1760E+03
     26.938  0.8793E+01  0.1767E+03
     27.024  0.4755E+01  0.1772E+03
     27.110  0.1479E+02  0.1785E+03
     27.197  0.9631E+01  0.1794E+03
     27.283  0.7764E+01  0.1801E+03
     27.369  0.3947E+01  0.1805E+03
     27.455  0.6272E+01  0.1811E+03
     27.542  0.9004E+01  0.1820E+03
     27.628  0.3850E+01  0.1824E+03
     27.714  0.6785E+01  0.1829E+03
     27.801  0.4286E+01  0.1833E+03
     27.887  0.4192E+01  0.1837E+03
     27.973  0.3048E+01  0.1840E+03
     28.060  0.1378E+02  0.1852E+03
     28.146  0.6975E+01  0.1860E+03
     28.232  0.9529E+01  0.1868E+03
     28.318  0.8330E+01  0.1875E+03
     28.405  0.1800E+01  0.1877E+03
     28.491  0.1682E+01  0.1879E+03
     28.577  0.2217E+01  0.1881E+03
     28.664  0.2989E+01  0.1884E+03
     28.750  0.2884E+01  0.1887E+03
     28.836  0.2287E+01  0.1889E+03
     28.923  0.4977E+01  0.1893E+03
     29.009  0.3687E+01  0.1896E+03
     29.095  0.3612E+01  0.1900E+03
     29.182  0.4278E+01  0.1905E+03
     29.268  0.7226E+01  0.1911E+03
     29.354  0.1668E+01  0.1913E+03
     29.440  0.7216E+01  0.1920E+03
     29.527  0.5186E+01  0.1925E+03
     29.613  0.8049E+01  0.1934E+03
     29.699  0.7017E+01  0.1940E+03
     29.786  0.6524E+01  0.1947E+03
     29.872  0.7418E+01  0.1954E+03
     29.958  0.1144E+02  0.1964E+03
     30.045  0.4888E+01  0.1969E+03
     30.131  0.1303E+02  0.1981E+03
     30.217  0.1363E+02  0.1992E+03
     30.303  0.7475E+01  0.2000E+03
     30.390  0.9738E+01  0.2009E+03
     30.476  0.1189E+02  0.2020E+03
     30.562  0.6810E+01  0.2027E+03
     30.649  0.7354E+01  0.2035E+03
     30.735  0.8787E+01  0.2043E+03
     30.821  0.4345E+01  0.2047E+03
     30.908  0.8859E+01  0.2055E+03
     30.994  0.9174E+01  0.2064E+03
     31.080  0.4531E+01  0.2068E+03
     31.167  0.6125E+01  0.2073E+03
     31.253  0.8661E+01  0.2081E+03
     31.339  0.5072E+01  0.2085E+03
     31.425  0.1070E+02  0.2095E+03
     31.512  0.9566E+01  0.2105E+03
     31.598  0.9047E+01  0.2113E+03
     31.684  0.7705E+01  0.2119E+03
     31.771  0.4888E+01  0.2126E+03
     31.857  0.1715E+01  0.2128E+03
     31.943  0.1070E+02  0.2138E+03
     32.030  0.3845E+01  0.2142E+03
     32.116  0.8408E+01  0.2149E+03
     32.202  0.7958E+01  0.2156E+03
     32.288  0.8627E+01  0.2164E+03
     32.375  0.9860E+01  0.2173E+03
     32.461  0.7926E+01  0.2180E+03
     32.547  0.8911E+01  0.2188E+03
     32.634  0.1118E+02  0.2199E+03
     32.720  0.4913E+01  0.2205E+03
     32.806  0.8717E+01  0.2213E+03
     32.893  0.5751E+01  0.2219E+03
     32.979  0.6722E+01  0.2225E+03
     33.065  0.6271E+01  0.2230E+03
     33.151  0.9526E+01  0.2239E+03
     33.238  0.4348E+01  0.2243E+03
     33.324  0.6912E+01  0.2249E+03
     33.410  0.4718E+01  0.2254E+03
     33.497  0.1052E+02  0.2263E+03
     33.583  0.9337E+00  0.2264E+03
     33.669  0.7328E+01  0.2271E+03
     33.756  0.1592E+02  0.2285E+03
     33.842  0.5140E+01  0.2292E+03
     33.928  0.3341E+01  0.2296E+03
     34.015  0.1140E+02  0.2306E+03
     34.101  0.5365E+01  0.2312E+03
     34.187  0.7656E+01  0.2319E+03
     34.273  0.1044E+02  0.2328E+03
     34.360  0.6743E+01  0.2334E+03
     34.446  0.1450E+01  0.2336E+03
     34.532  0.6309E+01  0.2341E+03
     34.619  0.9191E+01  0.2349E+03
     34.705  0.4093E+01  0.2353E+03
     34.791  0.6238E+01  0.2359E+03
     34.878  0.6715E+01  0.2366E+03
     34.964  0.5857E+01  0.2371E+03
     35.050  0.7553E+01  0.2378E+03
     35.136  0.6826E+01  0.2385E+03
     35.223  0.4237E+01  0.2389E+03
     35.309  0.6677E+01  0.2395E+03
     35.395  0.3282E+01  0.2398E+03
     35.482  0.8139E+01  0.2405E+03
     35.568  0.1069E+02  0.2415E+03
     35.654  0.5590E+01  0.2421E+03
     35.741  0.1332E+02  0.2432E+03
     35.827  0.6935E+01  0.2438E+03
     35.913  0.8278E+01  0.2445E+03
     35.999  0.7049E+01  0.2453E+03
     36.086  0.1140E+01  0.2455E+03
     36.172  0.4875E+01  0.2459E+03
     36.258  0.7652E+01  0.2467E+03
     36.345  0.1050E+02  0.2476E+03
     36.431  0.7837E+01  0.2483E+03
     36.517  0.1263E+02  0.2497E+03
     36.604  0.7606E+01  0.2504E+03
     36.690  0.2251E+01  0.2506E+03
     36.776  0.7550E+01  0.2513E+03
     36.863  0.1247E+02  0.2524E+03
     36.949  0.9512E+01  0.2533E+03
     37.035  0.8199E+01  0.2540E+03
     37.121  0.9885E+01  0.2549E+03
     37.208  0.7205E+01  0.2557E+03
     37.294  0.4910E+01  0.2562E+03
     37.380  0.9650E+01  0.2572E+03
     37.467  0.4517E+01  0.2576E+03
     37.553  0.9118E+01  0.2584E+03
     37.639  0.1087E+02  0.2594E+03
     37.726  0.7179E+01  0.2602E+03
     37.812  0.1149E+02  0.2612E+03
     37.898  0.1136E+02  0.2622E+03
     37.984  0.1444E+02  0.2635E+03
     38.071  0.8710E+01  0.2643E+03
     38.157  0.5303E+01  0.2648E+03
     38.243  0.1059E+02  0.2658E+03
     38.330  0.8899E+01  0.2666E+03
     38.416  0.4061E+01  0.2671E+03
     38.502  0.7104E+01  0.2678E+03
     38.589  0.7928E+01  0.2685E+03
     38.675  0.4669E+01  0.2691E+03
     38.761  0.4375E+01  0.2695E+03
     38.848  0.9807E+01  0.2705E+03
     38.934  0.9721E+01  0.2713E+03
     39.020  0.8799E+01  0.2721E+03
     39.106  0.8076E+01  0.2730E+03
     39.193  0.1238E+02  0.2741E+03
     39.279  0.8472E+01  0.2750E+03
     39.365  0.7985E+01  0.2758E+03
     39.452  0.7783E+01  0.2766E+03
     39.538  0.1148E+02  0.2776E+03
     39.624  0.9140E+01  0.2787E+03
     39.711  0.5858E+01  0.2793E+03
     39.797  0.8918E+01  0.2800E+03
     39.883  0.9649E+01  0.2809E+03
     39.969  0.7035E+01  0.2817E+03
     40.056  0.8412E+01  0.2825E+03
     40.142  0.8869E+01  0.2833E+03
     40.228  0.1038E+02  0.2843E+03
     40.315  0.3064E+01  0.2846E+03
     40.401  0.4719E+01  0.2852E+03
     40.487  0.5441E+01  0.2857E+03
     40.574  0.1336E+02  0.2869E+03
     40.660  0.5319E+01  0.2874E+03
     40.746  0.1290E+02  0.2886E+03
     40.832  0.8553E+01  0.2894E+03
     40.919  0.4914E+01  0.2899E+03
     41.005  0.1219E+02  0.2911E+03
     41.091  0.9137E+01  0.2921E+03
     41.178  0.5733E+01  0.2926E+03
     41.264  0.2520E+01  0.2928E+03
     41.350  0.1317E+02  0.2941E+03
     41.437  0.2696E+01  0.2944E+03
     41.523  0.8932E+01  0.2952E+03
     41.609  0.6639E+01  0.2958E+03
     41.696  0.1349E+02  0.2970E+03
     41.782  0.1043E+02  0.2981E+03
     41.868  0.9581E+01  0.2991E+03
     41.954  0.1132E+02  0.3002E+03
     42.041  0.9170E+01  0.3010E+03
     42.127  0.1112E+02  0.3020E+03
     42.213  0.8414E+01  0.3028E+03
     42.300  0.9549E+01  0.3036E+03
     42.386  0.6758E+01  0.3044E+03
     42.472  0.5463E+01  0.3048E+03
     42.559  0.1056E+02  0.3058E+03
     42.645  0.5247E+01  0.3063E+03
     42.731  0.1741E+02  0.3080E+03
     42.817  0.8360E+01  0.3088E+03
     42.904  0.7721E+01  0.3095E+03
     42.990  0.4156E+01  0.3099E+03
     43.076  0.8887E+01  0.3107E+03
     43.163  0.8251E+01  0.3114E+03
     43.249  0.8760E+01  0.3123E+03