    8    8    1    1
  0.2469169E+02  0.5174038E-09  0.5174038E-09  0.8520221E-09  0.5000000E-15
  1.000000000000000E-004
  CAR 
 BC3-optical                             
     30     19   1032
 
  0.0000000E+00  0.0000000E+00  0.0000000E+00  0.6944444E-02
    1      -18.540330   1.000000
    2      -14.648830   1.000000
    3      -14.648777   1.000000
    4      -12.299229   1.000000
    5      -12.299167   1.000000
    6      -11.230715   1.000000
    7       -9.913547   1.000000
    8       -7.345203   1.000000
    9       -7.124896   1.000000
   10       -4.970975   1.000000
   11       -4.970956   1.000000
   12       -3.149280   1.000000
   13       -3.149244   1.000000
   14       -2.466679   1.000000
   15       -2.466575   1.000000
   16       -0.631464   0.000000
   17        1.101129   0.000000
   18        1.101169   0.000000
   19        1.790598   0.000000
   20        1.921674   0.000000
   21        4.520662   0.000000
   22        5.912961   0.000000
   23        6.315096   0.000000
   24        6.315115   0.000000
   25        7.672551   0.000000
   26        8.079556   0.000000
   27        8.079673   0.000000
   28        8.995488   0.000000
   29        9.141934   0.000000
   30        9.141937   0.000000
   31        9.297564   0.000000
   32        9.297571   0.000000
   33        9.515962   0.000000
   34       10.327330   0.000000
   35       10.683641   0.000000
   36       10.683642   0.000000
   37       11.354047   0.000000
   38       11.354052   0.000000
   39       11.392154   0.000000
   40       11.399470   0.000000
   41       11.984097   0.000000
   42       13.000816   0.000000
   43       13.000817   0.000000
   44       13.028540   0.000000
   45       13.131890   0.000000
   46       13.131908   0.000000
   47       13.182485   0.000000
   48       13.527899   0.000000
   49       15.613508   0.000000
   50       15.800768   0.000000
   51       15.800779   0.000000
   52       16.491310   0.000000
   53       18.292253   0.000000
   54       18.292256   0.000000
   55       18.860150   0.000000
   56       18.860163   0.000000
   57       19.147298   0.000000
   58       19.229015   0.000000
   59       19.533273   0.000000
   60       19.533315   0.000000
   61       19.721663   0.000000
   62       19.988751   0.000000
   63       19.988761   0.000000
   64       20.016688   0.000000
   65       20.454582   0.000000
   66       21.081347   0.000000
   67       21.302664   0.000000
   68       21.302697   0.000000
   69       22.879326   0.000000
   70       23.296805   0.000000
   71       23.296810   0.000000
   72       23.439718   0.000000
   73       23.439726   0.000000
   74       23.573846   0.000000
   75       24.093577   0.000000
   76       24.093579   0.000000
   77       24.412553   0.000000
   78       24.412557   0.000000
   79       24.537175   0.000000
   80       24.637383   0.000000
   81       24.876313   0.000000
   82       25.217383   0.000000
   83       25.217417   0.000000
   84       26.651568   0.000000
   85       26.651616   0.000000
   86       26.753758   0.000000
   87       26.753762   0.000000
   88       26.846263   0.000000
   89       27.034087   0.000000
   90       27.121610   0.000000
   91       27.730780   0.000000
   92       27.730800   0.000000
   93       27.799804   0.000000
   94       27.799810   0.000000
   95       27.840132   0.000000
   96       28.296661   0.000000
   97       28.296686   0.000000
   98       28.793610   0.000000
   99       28.793617   0.000000
  100       28.952424   0.000000
  101       29.648908   0.000000
  102       30.289686   0.000000
  103       31.191995   0.000000
  104       31.191998   0.000000
  105       31.423948   0.000000
  106       31.481643   0.000000
  107       31.481645   0.000000
  108       31.884134   0.000000
  109       32.086519   0.000000
  110       32.086521   0.000000
  111       32.404351   0.000000
  112       32.684378   0.000000
  113       33.298301   0.000000
  114       33.298302   0.000000
  115       33.312672   0.000000
  116       33.312680   0.000000
  117       33.460645   0.000000
  118       34.009881   0.000000
  119       34.981579   0.000000
  120       34.981581   0.000000
  121       35.044186   0.000000
  122       35.044191   0.000000
  123       35.226808   0.000000
  124       35.226835   0.000000
  125       35.833401   0.000000
  126       35.865511   0.000000
  127       35.865523   0.000000
  128       36.045391   0.000000
  129       36.696358   0.000000
  130       36.696365   0.000000
  131       37.054605   0.000000
  132       37.300973   0.000000
  133       37.312412   0.000000
  134       37.312440   0.000000
  135       37.341555   0.000000
  136       37.341562   0.000000
  137       37.366296   0.000000
  138       37.456389   0.000000
  139       37.456391   0.000000
  140       37.659463   0.000000
  141       37.889841   0.000000
  142       37.946924   0.000000
  143       38.210467   0.000000
  144       38.210468   0.000000
  145       38.557686   0.000000
  146       38.847366   0.000000
  147       38.847368   0.000000
  148       40.894251   0.000000
  149       42.208908   0.000000
  150       42.208950   0.000000
  151       42.391510   0.000000
  152       43.754099   0.000000
  153       43.754099   0.000000
  154       43.938480   0.000000
  155       43.938496   0.000000
  156       44.310334   0.000000
  157       44.310335   0.000000
  158       44.356574   0.000000
  159       44.492624   0.000000
  160       44.492625   0.000000
  161       44.797730   0.000000
  162       45.326365   0.000000
  163       45.326376   0.000000
  164       45.609172   0.000000
  165       45.609188   0.000000
  166       46.065495   0.000000
  167       46.598664   0.000000
  168       46.826255   0.000000
  169       47.887070   0.000000
  170       47.968150   0.000000
  171       48.726195   0.000000
  172       48.726197   0.000000
  173       48.938505   0.000000
  174       49.020647   0.000000
  175       49.020666   0.000000
  176       49.189464   0.000000
  177       49.378865   0.000000
  178       49.507629   0.000000
  179       49.507689   0.000000
  180       49.712416   0.000000
  181       49.712416   0.000000
  182       50.136963   0.000000
  183       50.345745   0.000000
  184       50.345763   0.000000
  185       50.571790   0.000000
  186       50.614980   0.000000
  187       50.614989   0.000000
  188       51.578456   0.000000
  189       51.578474   0.000000
  190       51.718355   0.000000
  191       52.020281   0.000000
  192       52.495101   0.000000
  193       52.495102   0.000000
  194       52.504913   0.000000
  195       52.504916   0.000000
  196       52.886654   0.000000
  197       53.491834   0.000000
  198       53.491844   0.000000
  199       53.492620   0.000000
  200       53.830026   0.000000
  201       53.830035   0.000000
  202       53.914275   0.000000
  203       54.291584   0.000000
  204       54.318578   0.000000
  205       54.318582   0.000000
  206       54.469440   0.000000
  207       54.469450   0.000000
  208       54.649017   0.000000
  209       54.943263   0.000000
  210       54.943269   0.000000
  211       55.268415   0.000000
  212       55.338321   0.000000
  213       55.600013   0.000000
  214       55.709123   0.000000
  215       55.856151   0.000000
  216       55.856154   0.000000
  217       55.978437   0.000000
  218       55.978465   0.000000
  219       56.027300   0.000000
  220       56.406241   0.000000
  221       56.406248   0.000000
  222       57.054134   0.000000
  223       57.054137   0.000000
  224       57.168393   0.000000
  225       57.181258   0.000000
  226       57.181258   0.000000
  227       57.434511   0.000000
  228       57.475857   0.000000
  229       57.475862   0.000000
  230       57.690883   0.000000
  231       57.690884   0.000000
  232       57.866020   0.000000
  233       57.878575   0.000000
  234       57.983040   0.000000
  235       57.983044   0.000000
  236       58.011273   0.000000
  237       58.022537   0.000000
  238       58.148966   0.000000
  239       58.148967   0.000000
  240       58.172730   0.000000
  241       58.363098   0.000000
  242       58.363126   0.000000
  243       58.383868   0.000000
  244       58.383878   0.000000
  245       58.898756   0.000000
  246       58.898777   0.000000
  247       59.056349   0.000000
  248       59.711882   0.000000
  249       59.711899   0.000000
  250       59.971044   0.000000
  251       60.220015   0.000000
  252       60.610790   0.000000
  253       60.610804   0.000000
  254       60.978134   0.000000
  255       61.158460   0.000000
  256       61.158502   0.000000
  257       62.118681   0.000000
  258       62.118681   0.000000
  259       62.765371   0.000000
  260       63.252678   0.000000
  261       63.671952   0.000000
  262       63.671953   0.000000
  263       65.391631   0.000000
  264       65.391636   0.000000
  265       65.760967   0.000000
  266       65.760978   0.000000
  267       65.965919   0.000000
  268       66.027138   0.000000
  269       66.178831   0.000000
  270       66.178845   0.000000
  271       66.212015   0.000000
  272       66.253739   0.000000
  273       66.349405   0.000000
  274       66.349416   0.000000
  275       66.592527   0.000000
  276       66.750694   0.000000
  277       66.750753   0.000000
  278       66.889638   0.000000
  279       67.071254   0.000000
  280       67.071261   0.000000
  281       67.211345   0.000000
  282       67.298869   0.000000
  283       67.298874   0.000000
  284       67.385085   0.000000
  285       67.690773   0.000000
  286       67.690777   0.000000
  287       68.211521   0.000000
  288       68.211526   0.000000
  289       68.511364   0.000000
  290       68.511377   0.000000
  291       68.601536   0.000000
  292       68.601549   0.000000
  293       68.615687   0.000000
  294       68.624722   0.000000
  295       68.634436   0.000000
  296       68.997180   0.000000
  297       69.282465   0.000000
  298       69.311900   0.000000
  299       69.311916   0.000000
  300       69.417628   0.000000
  301       69.417657   0.000000
  302       69.574407   0.000000
  303       69.978631   0.000000
  304       69.978640   0.000000
  305       70.257332   0.000000
  306       70.713373   0.000000
  307       70.713397   0.000000
  308       71.102367   0.000000
  309       71.274763   0.000000
  310       71.787785   0.000000
  311       72.406129   0.000000
  312       72.406139   0.000000
  313       72.415643   0.000000
  314       72.673376   0.000000
  315       72.704253   0.000000
  316       72.704264   0.000000
  317       72.742860   0.000000
  318       72.747165   0.000000
  319       72.747169   0.000000
  320       73.372690   0.000000
  321       73.372737   0.000000
  322       73.375051   0.000000
  323       73.375052   0.000000
  324       73.465314   0.000000
  325       73.465324   0.000000
  326       73.671454   0.000000
  327       73.991960   0.000000
  328       74.007506   0.000000
  329       74.007507   0.000000
  330       74.482802   0.000000
  331       75.059668   0.000000
  332       75.059678   0.000000
  333       75.147782   0.000000
  334       75.834950   0.000000
  335       76.625596   0.000000
  336       76.625608   0.000000
  337       76.871027   0.000000
  338       77.027708   0.000000
  339       77.507657   0.000000
  340       77.784038   0.000000
  341       77.784044   0.000000
  342       77.873399   0.000000
  343       77.873417   0.000000
  344       77.911254   0.000000
  345       77.911257   0.000000
  346       78.021249   0.000000
  347       78.321102   0.000000
  348       78.321109   0.000000
  349       78.611948   0.000000
  350       78.611962   0.000000
  351       78.657206   0.000000
  352       78.960538   0.000000
  353       78.960556   0.000000
  354       79.366604   0.000000
  355       79.451004   0.000000
  356       79.451006   0.000000
  357       79.935201   0.000000
  358       79.935203   0.000000
  359       80.012136   0.000000
  360       80.089741   0.000000
  361       80.782433   0.000000
  362       80.782453   0.000000
  363       81.032070   0.000000
  364       81.032070   0.000000
  365       81.152572   0.000000
  366       81.352005   0.000000
  367       81.352018   0.000000
  368       81.378357   0.000000
  369       81.407023   0.000000
  370       81.590090   0.000000
  371       81.872159   0.000000
  372       81.925418   0.000000
  373       81.925421   0.000000
  374       81.936565   0.000000
  375       81.936583   0.000000
  376       82.357047   0.000000
  377       82.641825   0.000000
  378       82.641829   0.000000
  379       82.646165   0.000000
  380       82.781158   0.000000
  381       82.788043   0.000000
  382       82.976946   0.000000
  383       83.026299   0.000000
  384       83.026311   0.000000
  385       83.028493   0.000000
  386       83.028500   0.000000
  387       84.189634   0.000000
  388       84.189638   0.000000
  389       84.283320   0.000000
  390       84.283336   0.000000
  391       84.998410   0.000000
  392       84.998415   0.000000
  393       85.630028   0.000000
  394       85.654890   0.000000
  395       85.654896   0.000000
  396       86.574693   0.000000
  397       86.847856   0.000000
  398       86.847857   0.000000
  399       87.663424   0.000000
  400       88.482200   0.000000
  401       88.482201   0.000000
  402       89.116791   0.000000
  403       89.762115   0.000000
  404       89.762134   0.000000
  405       90.204069   0.000000
  406       90.204088   0.000000
  407       90.366650   0.000000
  408       91.149463   0.000000
  409       91.712733   0.000000
  410       91.712755   0.000000
  411       91.747747   0.000000
  412       91.747749   0.000000
  413       91.783284   0.000000
  414       92.013350   0.000000
  415       92.092639   0.000000
  416       92.124718   0.000000
  417       92.196109   0.000000
  418       92.196125   0.000000
  419       92.218578   0.000000
  420       92.218587   0.000000
  421       92.276323   0.000000
  422       92.563297   0.000000
  423       93.095069   0.000000
  424       93.275908   0.000000
  425       93.275927   0.000000
  426       93.566458   0.000000
  427       93.566523   0.000000
  428       93.878184   0.000000
  429       94.558597   0.000000
  430       94.558639   0.000000
  431       94.693940   0.000000
  432       94.693944   0.000000
  433       95.223780   0.000000
  434       95.223789   0.000000
  435       95.303085   0.000000
  436       95.456832   0.000000
  437       95.474010   0.000000
  438       95.549591   0.000000
  439       95.549598   0.000000
  440       95.556531   0.000000
  441       95.556544   0.000000
  442       95.564788   0.000000
  443       95.640682   0.000000
  444       95.640692   0.000000
  445       95.641338   0.000000
  446       95.810303   0.000000
  447       95.810307   0.000000
  448       95.888622   0.000000
  449       95.897352   0.000000
  450       95.897357   0.000000
  451       95.913550   0.000000
  452       95.976211   0.000000
  453       96.329603   0.000000
  454       96.329618   0.000000
  455       96.348779   0.000000
  456       96.656832   0.000000
  457       96.656840   0.000000
  458       96.938995   0.000000
  459       97.187586   0.000000
  460       97.284034   0.000000
  461       97.284052   0.000000
  462       97.337099   0.000000
  463       97.958063   0.000000
  464       97.958077   0.000000
  465       98.097181   0.000000
  466       98.487666   0.000000
  467       98.487667   0.000000
  468       98.780554   0.000000
  469       98.977829   0.000000
  470       98.977841   0.000000
  471       99.005740   0.000000
  472       99.023971   0.000000
  473       99.050655   0.000000
  474       99.050661   0.000000
  475       99.115053   0.000000
  476       99.115059   0.000000
  477       99.465890   0.000000
  478       99.465891   0.000000
  479       99.516985   0.000000
  480       99.565891   0.000000
  481       99.565913   0.000000
  482       99.769432   0.000000
  483       99.769468   0.000000
  484       99.800320   0.000000
  485       99.800325   0.000000
  486       99.828011   0.000000
  487       99.852470   0.000000
  488       99.882306   0.000000
  489       99.942831   0.000000
  490       99.942838   0.000000
  491       99.973753   0.000000
  492      100.166004   0.000000
  493      100.255370   0.000000
  494      100.255412   0.000000
  495      100.413453   0.000000
  496      100.413457   0.000000
  497      100.563856   0.000000
  498      100.563880   0.000000
  499      100.815495   0.000000
  500      100.815510   0.000000
  501      100.911428   0.000000
  502      100.911435   0.000000
  503      101.031522   0.000000
  504      101.428944   0.000000
  505      101.645936   0.000000
  506      102.305510   0.000000
  507      102.336487   0.000000
  508      102.375541   0.000000
  509      102.375542   0.000000
  510      102.434236   0.000000
  511      102.434237   0.000000
  512      102.440257   0.000000
  513      102.459462   0.000000
  514      102.459466   0.000000
  515      102.484310   0.000000
  516      102.484386   0.000000
  517      102.708561   0.000000
  518      102.997308   0.000000
  519      102.997317   0.000000
  520      103.008334   0.000000
  521      103.018097   0.000000
  522      103.018109   0.000000
  523      103.018979   0.000000
  524      103.018991   0.000000
  525      103.145642   0.000000
  526      103.226953   0.000000
  527      103.226963   0.000000
  528      103.258087   0.000000
  529      103.469140   0.000000
  530      103.803490   0.000000
  531      103.827436   0.000000
  532      103.827443   0.000000
  533      103.924399   0.000000
  534      103.924402   0.000000
  535      103.976969   0.000000
  536      104.146342   0.000000
  537      104.289445   0.000000
  538      104.297308   0.000000
  539      104.297309   0.000000
  540      104.620647   0.000000
  541      104.634612   0.000000
  542      104.634623   0.000000
  543      104.763480   0.000000
  544      104.763484   0.000000
  545      104.946240   0.000000
  546      104.946240   0.000000
  547      105.131009   0.000000
  548      105.131014   0.000000
  549      105.282881   0.000000
  550      105.385350   0.000000
  551      105.454752   0.000000
  552      105.725594   0.000000
  553      105.725601   0.000000
  554      106.479242   0.000000
  555      106.479281   0.000000
  556      106.774012   0.000000
  557      107.286724   0.000000
  558      109.075725   0.000000
  559      109.378627   0.000000
  560      109.378673   0.000000
  561      109.776981   0.000000
  562      110.202634   0.000000
  563      110.732254   0.000000
  564      110.732322   0.000000
  565      110.842755   0.000000
  566      110.842757   0.000000
  567      110.903964   0.000000
  568      110.903965   0.000000
  569      111.010926   0.000000
  570      111.010932   0.000000
  571      111.080799   0.000000
  572      111.293566   0.000000
  573      111.656616   0.000000
  574      111.752373   0.000000
  575      111.752387   0.000000
  576      111.966780   0.000000
  577      112.477925   0.000000
  578      112.477927   0.000000
  579      112.582074   0.000000
  580      112.801219   0.000000
  581      112.801232   0.000000
  582      112.890910   0.000000
  583      113.119218   0.000000
  584      113.381294   0.000000
  585      113.381308   0.000000
  586      113.385466   0.000000
  587      113.568929   0.000000
  588      113.568935   0.000000
  589      113.595846   0.000000
  590      114.103224   0.000000
  591      114.252022   0.000000
  592      114.424606   0.000000
  593      114.424607   0.000000
  594      115.662058   0.000000
  595      115.662072   0.000000
  596      115.743871   0.000000
  597      115.743886   0.000000
  598      115.759644   0.000000
  599      115.759672   0.000000
  600      115.916512   0.000000
  601      115.916515   0.000000
  602      116.177208   0.000000
  603      116.192018   0.000000
  604      116.709526   0.000000
  605      116.709592   0.000000
  606      116.770673   0.000000
  607      117.165103   0.000000
  608      117.165114   0.000000
  609      117.472278   0.000000
  610      117.833434   0.000000
  611      117.909205   0.000000
  612      117.909252   0.000000
  613      118.250437   0.000000
  614      118.250442   0.000000
  615      118.278747   0.000000
  616      118.603264   0.000000
  617      118.603277   0.000000
  618      118.932116   0.000000
  619      119.019934   0.000000
  620      119.029886   0.000000
  621      119.029897   0.000000
  622      119.098413   0.000000
  623      119.098434   0.000000
  624      119.261049   0.000000
  625      119.261055   0.000000
  626      119.329398   0.000000
  627      119.367190   0.000000
  628      119.367194   0.000000
  629      119.497555   0.000000
  630      119.497568   0.000000
  631      119.580870   0.000000
  632      119.596344   0.000000
  633      119.624677   0.000000
  634      119.624681   0.000000
  635      120.401058   0.000000
  636      120.421620   0.000000
  637      120.669337   0.000000
  638      120.669340   0.000000
  639      121.550160   0.000000
  640      121.550187   0.000000
  641      121.704265   0.000000
  642      121.704269   0.000000
  643      121.768804   0.000000
  644      121.870390   0.000000
  645      121.909116   0.000000
  646      121.971260   0.000000
  647      122.012475   0.000000
  648      122.012476   0.000000
  649      122.086780   0.000000
  650      122.206717   0.000000
  651      122.551626   0.000000
  652      122.551628   0.000000
  653      122.638653   0.000000
  654      123.020462   0.000000
  655      123.020464   0.000000
  656      123.060946   0.000000
  657      123.121576   0.000000
  658      123.121580   0.000000
  659      123.187976   0.000000
  660      123.187980   0.000000
  661      123.279096   0.000000
  662      123.740258   0.000000
  663      124.152652   0.000000
  664      124.152662   0.000000
  665      124.541011   0.000000
  666      124.851209   0.000000
  667      124.851218   0.000000
  668      124.953572   0.000000
  669      124.953605   0.000000
  670      125.003028   0.000000
  671      125.059182   0.000000
  672      125.106064   0.000000
  673      125.378899   0.000000
  674      125.378910   0.000000
  675      125.442834   0.000000
  676      125.442839   0.000000
  677      125.456795   0.000000
  678      125.456801   0.000000
  679      125.463441   0.000000
  680      125.511440   0.000000
  681      125.570203   0.000000
  682      125.624705   0.000000
  683      125.624774   0.000000
  684      125.654329   0.000000
  685      125.713576   0.000000
  686      125.757235   0.000000
  687      125.757237   0.000000
  688      125.802528   0.000000
  689      125.906101   0.000000
  690      125.906112   0.000000
  691      126.409482   0.000000
  692      126.409489   0.000000
  693      126.425361   0.000000
  694      126.425371   0.000000
  695      126.717175   0.000000
  696      126.761789   0.000000
  697      126.761803   0.000000
  698      126.947268   0.000000
  699      126.947322   0.000000
  700      127.059389   0.000000
  701      127.059401   0.000000
  702      127.158371   0.000000
  703      127.674973   0.000000
  704      127.674990   0.000000
  705      127.784348   0.000000
  706      127.784362   0.000000
  707      127.877391   0.000000
  708      127.877410   0.000000
  709      127.951060   0.000000
  710      128.754744   0.000000
  711      129.173108   0.000000
  712      129.528848   0.000000
  713      130.087041   0.000000
  714      130.253658   0.000000
  715      130.957071   0.000000
  716      130.957072   0.000000
  717      131.502503   0.000000
  718      131.502518   0.000000
  719      131.801891   0.000000
  720      131.801909   0.000000
  721      132.247480   0.000000
  722      132.566737   0.000000
  723      132.645261   0.000000
  724      132.645282   0.000000
  725      132.992588   0.000000
  726      132.992604   0.000000
  727      133.052679   0.000000
  728      133.733294   0.000000
  729      133.733308   0.000000
  730      133.750235   0.000000
  731      133.966585   0.000000
  732      134.241846   0.000000
  733      134.241862   0.000000
  734      134.277401   0.000000
  735      134.277403   0.000000
  736      134.481426   0.000000
  737      134.481436   0.000000
  738      134.966337   0.000000
  739      135.233783   0.000000
  740      135.233790   0.000000
  741      135.356058   0.000000
  742      135.659083   0.000000
  743      136.128165   0.000000
  744      136.128167   0.000000
  745      136.317371   0.000000
  746      136.416985   0.000000
  747      136.417058   0.000000
  748      136.490381   0.000000
  749      136.871500   0.000000
  750      136.913655   0.000000
  751      137.128074   0.000000
  752      137.128086   0.000000
  753      137.224945   0.000000
  754      137.224957   0.000000
  755      137.272618   0.000000
  756      137.272648   0.000000
  757      137.357431   0.000000
  758      137.357438   0.000000
  759      137.397430   0.000000
  760      137.579164   0.000000
  761      137.579200   0.000000
  762      137.661012   0.000000
  763      137.661015   0.000000
  764      137.789266   0.000000
  765      137.789293   0.000000
  766      137.840034   0.000000
  767      137.901923   0.000000
  768      137.901928   0.000000
  769      137.912305   0.000000
  770      138.031957   0.000000
  771      138.048991   0.000000
  772      138.278778   0.000000
  773      138.278787   0.000000
  774      138.308941   0.000000
  775      138.615165   0.000000
  776      138.955831   0.000000
  777      139.111471   0.000000
  778      139.111472   0.000000
  779      139.153122   0.000000
  780      139.225632   0.000000
  781      139.225637   0.000000
  782      140.753767   0.000000
  783      141.560763   0.000000
  784      141.560787   0.000000
  785      141.752576   0.000000
  786      142.375390   0.000000
  787      142.375391   0.000000
  788      142.635056   0.000000
  789      142.847402   0.000000
  790      142.847405   0.000000
  791      143.153565   0.000000
  792      143.238492   0.000000
  793      143.238509   0.000000
  794      143.253979   0.000000
  795      143.542043   0.000000
  796      143.542068   0.000000
  797      143.910127   0.000000
  798      143.910134   0.000000
  799      143.925480   0.000000
  800      143.949741   0.000000
  801      143.979878   0.000000
  802      143.979895   0.000000
  803      144.121607   0.000000
  804      144.182306   0.000000
  805      144.182312   0.000000
  806      144.203072   0.000000
  807      144.203105   0.000000
  808      144.255670   0.000000
  809      144.275013   0.000000
  810      145.015334   0.000000
  811      145.015360   0.000000
  812      145.151769   0.000000
  813      145.151782   0.000000
  814      145.161232   0.000000
  815      145.371372   0.000000
  816      145.464337   0.000000
  817      145.464342   0.000000
  818      145.763588   0.000000
  819      145.835708   0.000000
  820      145.884451   0.000000
  821      145.884501   0.000000
  822      146.166569   0.000000
  823      146.260852   0.000000
  824      146.260861   0.000000
  825      146.336626   0.000000
  826      146.336649   0.000000
  827      146.700415   0.000000
  828      146.864758   0.000000
  829      146.882543   0.000000
  830      146.882550   0.000000
  831      147.129238   0.000000
  832      147.235296   0.000000
  833      147.292188   0.000000
  834      147.292222   0.000000
  835      147.387107   0.000000
  836      147.387107   0.000000
  837      147.704331   0.000000
  838      147.765834   0.000000
  839      147.765837   0.000000
  840      147.786727   0.000000
  841      147.801546   0.000000
  842      147.801552   0.000000
  843      147.881575   0.000000
  844      147.983442   0.000000
  845      148.047822   0.000000
  846      148.047824   0.000000
  847      148.048557   0.000000
  848      148.048559   0.000000
  849      148.114135   0.000000
  850      148.114138   0.000000
  851      148.153045   0.000000
  852      148.257329   0.000000
  853      148.263368   0.000000
  854      148.263439   0.000000
  855      148.382980   0.000000
  856      148.432169   0.000000
  857      148.473601   0.000000
  858      148.473612   0.000000
  859      148.688179   0.000000
  860      148.783438   0.000000
  861      148.783465   0.000000
  862      148.945197   0.000000
  863      148.945204   0.000000
  864      149.135678   0.000000
  865      149.135692   0.000000
  866      149.213725   0.000000
  867      149.213733   0.000000
  868      149.344049   0.000000
  869      149.344054   0.000000
  870      149.389767   0.000000
  871      149.389767   0.000000
  872      149.623356   0.000000
  873      149.775766   0.000000
  874      149.804744   0.000000
  875      150.531134   0.000000
  876      150.531147   0.000000
  877      150.572189   0.000000
  878      150.622915   0.000000
  879      150.639837   0.000000
  880      150.992380   0.000000
  881      150.992393   0.000000
  882      151.121974   0.000000
  883      151.121976   0.000000
  884      151.341575   0.000000
  885      151.341587   0.000000
  886      151.564346   0.000000
  887      151.564369   0.000000
  888      151.686642   0.000000
  889      151.693522   0.000000
  890      151.750483   0.000000
  891      151.750492   0.000000
  892      151.957044   0.000000
  893      152.239439   0.000000
  894      152.567101   0.000000
  895      152.940337   0.000000
  896      153.240363   0.000000
  897      153.240366   0.000000
  898      153.472187   0.000000
  899      153.604883   0.000000
  900      153.613123   0.000000
  901      153.679481   0.000000