Warning: no access to tty (Bad file descriptor).
Thus no job control in this shell.
Loading compiler-rt version 2021.4.0
Loading mpi version 2021.4.0
Loading mkl version 2021.4.0
Loading tbb version 2021.4.0

Loading mkl
  Loading requirement: tbb
a= 5.2
 running on   12 total cores
 distrk:  each k-point on   12 cores,    1 groups
 distr:  one band on    1 cores,   12 groups
 using from now: INCAR     
 vasp.5.4.4.18Apr17-6-g9f103f2a35 (build Mar 30 2023 15:39:25) complex          
  
 POSCAR found :  1 types and       2 ions
 scaLAPACK will be used

 ----------------------------------------------------------------------------- 
|                                                                             |
|           W    W    AA    RRRRR   N    N  II  N    N   GGGG   !!!           |
|           W    W   A  A   R    R  NN   N  II  NN   N  G    G  !!!           |
|           W    W  A    A  R    R  N N  N  II  N N  N  G       !!!           |
|           W WW W  AAAAAA  RRRRR   N  N N  II  N  N N  G  GGG   !            |
|           WW  WW  A    A  R   R   N   NN  II  N   NN  G    G                |
|           W    W  A    A  R    R  N    N  II  N    N   GGGG   !!!           |
|                                                                             |
|      For optimal performance we recommend to set                            |
|        NCORE= 4 - approx SQRT( number of cores)                             |
|      NCORE specifies how many cores store one orbital (NPAR=cpu/NCORE).     |
|      This setting can  greatly improve the performance of VASP for DFT.     |
|      The default,   NCORE=1            might be grossly inefficient         |
|      on modern multi-core architectures or massively parallel machines.     |
|      Do your own testing !!!!                                               |
|      Unfortunately you need to use the default for GW and RPA calculations. |
|      (for HF NCORE is supported but not extensively tested yet)             |
|                                                                             |
 ----------------------------------------------------------------------------- 

 LDA part: xc-table for Pade appr. of Perdew
 POSCAR, INCAR and KPOINTS ok, starting setup
 FFT: planning ...
 WAVECAR not read
 entering main loop
       N       E                     dE             d eps       ncg     rms          rms(c)
DAV:   1    -0.564131153018E+01   -0.56413E+01   -0.21597E+03  1464   0.289E+02
DAV:   2    -0.107638180617E+02   -0.51225E+01   -0.49797E+01  2064   0.325E+01
DAV:   3    -0.107942438931E+02   -0.30426E-01   -0.30426E-01  1572   0.285E+00
DAV:   4    -0.107943074094E+02   -0.63516E-04   -0.63516E-04  2352   0.134E-01
DAV:   5    -0.107943074136E+02   -0.41777E-08   -0.39745E-08  1536   0.876E-04    0.649E+00
DAV:   6    -0.106059611884E+02    0.18835E+00   -0.13342E-01  1620   0.128E+00    0.402E+00
DAV:   7    -0.105273309930E+02    0.78630E-01   -0.22804E-01  1740   0.176E+00    0.361E-01
DAV:   8    -0.105280099915E+02   -0.67900E-03   -0.41769E-03  1440   0.316E-01    0.972E-02
DAV:   9    -0.105281534342E+02   -0.14344E-03   -0.13488E-04  2148   0.654E-02    0.757E-02
DAV:  10    -0.105281685212E+02   -0.15087E-04   -0.11882E-05  1836   0.183E-02    0.112E-02
DAV:  11    -0.105281689017E+02   -0.38052E-06   -0.22043E-06  2028   0.668E-03
   1 F= -.10528169E+02 E0= -.10528155E+02  d E =-.270123E-04
 writing wavefunctions
a= 5.3
 running on   12 total cores
 distrk:  each k-point on   12 cores,    1 groups
 distr:  one band on    1 cores,   12 groups
 using from now: INCAR     
 vasp.5.4.4.18Apr17-6-g9f103f2a35 (build Mar 30 2023 15:39:25) complex          
  
 POSCAR found :  1 types and       2 ions
 scaLAPACK will be used

 ----------------------------------------------------------------------------- 
|                                                                             |
|           W    W    AA    RRRRR   N    N  II  N    N   GGGG   !!!           |
|           W    W   A  A   R    R  NN   N  II  NN   N  G    G  !!!           |
|           W    W  A    A  R    R  N N  N  II  N N  N  G       !!!           |
|           W WW W  AAAAAA  RRRRR   N  N N  II  N  N N  G  GGG   !            |
|           WW  WW  A    A  R   R   N   NN  II  N   NN  G    G                |
|           W    W  A    A  R    R  N    N  II  N    N   GGGG   !!!           |
|                                                                             |
|      For optimal performance we recommend to set                            |
|        NCORE= 4 - approx SQRT( number of cores)                             |
|      NCORE specifies how many cores store one orbital (NPAR=cpu/NCORE).     |
|      This setting can  greatly improve the performance of VASP for DFT.     |
|      The default,   NCORE=1            might be grossly inefficient         |
|      on modern multi-core architectures or massively parallel machines.     |
|      Do your own testing !!!!                                               |
|      Unfortunately you need to use the default for GW and RPA calculations. |
|      (for HF NCORE is supported but not extensively tested yet)             |
|                                                                             |
 ----------------------------------------------------------------------------- 

 LDA part: xc-table for Pade appr. of Perdew
 POSCAR, INCAR and KPOINTS ok, starting setup
 FFT: planning ...
 WAVECAR not read
 entering main loop
       N       E                     dE             d eps       ncg     rms          rms(c)
DAV:   1    -0.539462301738E+01   -0.53946E+01   -0.21483E+03  1392   0.287E+02
DAV:   2    -0.109060128664E+02   -0.55114E+01   -0.54444E+01  2040   0.344E+01
DAV:   3    -0.109382315446E+02   -0.32219E-01   -0.32219E-01  1632   0.305E+00
DAV:   4    -0.109382881833E+02   -0.56639E-04   -0.56638E-04  2292   0.126E-01
DAV:   5    -0.109382881874E+02   -0.40694E-08   -0.46960E-08  1668   0.104E-03    0.603E+00
DAV:   6    -0.107804330338E+02    0.15786E+00   -0.10868E-01  1656   0.115E+00    0.371E+00
DAV:   7    -0.107123148011E+02    0.68118E-01   -0.19318E-01  1716   0.162E+00    0.273E-01
DAV:   8    -0.107131296807E+02   -0.81488E-03   -0.35966E-03  1512   0.293E-01    0.904E-02
DAV:   9    -0.107132993297E+02   -0.16965E-03   -0.17078E-04  2076   0.701E-02    0.703E-02
DAV:  10    -0.107133130391E+02   -0.13709E-04   -0.95887E-06  1896   0.166E-02    0.514E-03
DAV:  11    -0.107133140227E+02   -0.98361E-06   -0.24875E-06  1956   0.720E-03
   1 F= -.10713314E+02 E0= -.10713313E+02  d E =-.213191E-05
 writing wavefunctions
a= 5.4
 running on   12 total cores
 distrk:  each k-point on   12 cores,    1 groups
 distr:  one band on    1 cores,   12 groups
 using from now: INCAR     
 vasp.5.4.4.18Apr17-6-g9f103f2a35 (build Mar 30 2023 15:39:25) complex          
  
 POSCAR found :  1 types and       2 ions
 scaLAPACK will be used

 ----------------------------------------------------------------------------- 
|                                                                             |
|           W    W    AA    RRRRR   N    N  II  N    N   GGGG   !!!           |
|           W    W   A  A   R    R  NN   N  II  NN   N  G    G  !!!           |
|           W    W  A    A  R    R  N N  N  II  N N  N  G       !!!           |
|           W WW W  AAAAAA  RRRRR   N  N N  II  N  N N  G  GGG   !            |
|           WW  WW  A    A  R   R   N   NN  II  N   NN  G    G                |
|           W    W  A    A  R    R  N    N  II  N    N   GGGG   !!!           |
|                                                                             |
|      For optimal performance we recommend to set                            |
|        NCORE= 4 - approx SQRT( number of cores)                             |
|      NCORE specifies how many cores store one orbital (NPAR=cpu/NCORE).     |
|      This setting can  greatly improve the performance of VASP for DFT.     |
|      The default,   NCORE=1            might be grossly inefficient         |
|      on modern multi-core architectures or massively parallel machines.     |
|      Do your own testing !!!!                                               |
|      Unfortunately you need to use the default for GW and RPA calculations. |
|      (for HF NCORE is supported but not extensively tested yet)             |
|                                                                             |
 ----------------------------------------------------------------------------- 

 LDA part: xc-table for Pade appr. of Perdew
 POSCAR, INCAR and KPOINTS ok, starting setup
 FFT: planning ...
 WAVECAR not read
 entering main loop
       N       E                     dE             d eps       ncg     rms          rms(c)
DAV:   1    -0.545614189737E+01   -0.54561E+01   -0.21199E+03  1392   0.283E+02
DAV:   2    -0.109618491385E+02   -0.55057E+01   -0.53697E+01  2064   0.335E+01
DAV:   3    -0.109956463894E+02   -0.33797E-01   -0.33797E-01  1524   0.305E+00
DAV:   4    -0.109957220232E+02   -0.75634E-04   -0.75634E-04  2436   0.150E-01
DAV:   5    -0.109957220281E+02   -0.48683E-08   -0.48450E-08  1500   0.104E-03    0.559E+00
DAV:   6    -0.108643974996E+02    0.13132E+00   -0.87366E-02  1668   0.102E+00    0.342E+00
DAV:   7    -0.108056099911E+02    0.58788E-01   -0.16207E-01  1788   0.148E+00    0.203E-01
DAV:   8    -0.108065460586E+02   -0.93607E-03   -0.31576E-03  1464   0.272E-01    0.830E-02
DAV:   9    -0.108067380582E+02   -0.19200E-03   -0.20112E-04  2100   0.735E-02    0.644E-02
DAV:  10    -0.108067514913E+02   -0.13433E-04   -0.95128E-06  1872   0.165E-02    0.428E-03
DAV:  11    -0.108067527282E+02   -0.12369E-05   -0.24568E-06  2076   0.712E-03    0.408E-03
DAV:  12    -0.108067530172E+02   -0.28900E-06   -0.44739E-07  1728   0.363E-03
   1 F= -.10806753E+02 E0= -.10806753E+02  d E =-.110562E-06
 writing wavefunctions
a= 5.5
 running on   12 total cores
 distrk:  each k-point on   12 cores,    1 groups
 distr:  one band on    1 cores,   12 groups
 using from now: INCAR     
 vasp.5.4.4.18Apr17-6-g9f103f2a35 (build Mar 30 2023 15:39:25) complex          
  
 POSCAR found :  1 types and       2 ions
 scaLAPACK will be used

 ----------------------------------------------------------------------------- 
|                                                                             |
|           W    W    AA    RRRRR   N    N  II  N    N   GGGG   !!!           |
|           W    W   A  A   R    R  NN   N  II  NN   N  G    G  !!!           |
|           W    W  A    A  R    R  N N  N  II  N N  N  G       !!!           |
|           W WW W  AAAAAA  RRRRR   N  N N  II  N  N N  G  GGG   !            |
|           WW  WW  A    A  R   R   N   NN  II  N   NN  G    G                |
|           W    W  A    A  R    R  N    N  II  N    N   GGGG   !!!           |
|                                                                             |
|      For optimal performance we recommend to set                            |
|        NCORE= 4 - approx SQRT( number of cores)                             |
|      NCORE specifies how many cores store one orbital (NPAR=cpu/NCORE).     |
|      This setting can  greatly improve the performance of VASP for DFT.     |
|      The default,   NCORE=1            might be grossly inefficient         |
|      on modern multi-core architectures or massively parallel machines.     |
|      Do your own testing !!!!                                               |
|      Unfortunately you need to use the default for GW and RPA calculations. |
|      (for HF NCORE is supported but not extensively tested yet)             |
|                                                                             |
 ----------------------------------------------------------------------------- 

 LDA part: xc-table for Pade appr. of Perdew
 POSCAR, INCAR and KPOINTS ok, starting setup
 FFT: planning ...
 WAVECAR not read
 entering main loop
       N       E                     dE             d eps       ncg     rms          rms(c)
DAV:   1    -0.568669336396E+01   -0.56867E+01   -0.20976E+03  1416   0.284E+02
DAV:   2    -0.109468317977E+02   -0.52601E+01   -0.51860E+01  1992   0.327E+01
DAV:   3    -0.109806735061E+02   -0.33842E-01   -0.33842E-01  1668   0.307E+00
DAV:   4    -0.109807491505E+02   -0.75644E-04   -0.75645E-04  2268   0.138E-01
DAV:   5    -0.109807491556E+02   -0.50879E-08   -0.50694E-08  1584   0.109E-03    0.519E+00
DAV:   6    -0.108723557839E+02    0.10839E+00   -0.69274E-02  1632   0.910E-01    0.315E+00
DAV:   7    -0.108218068137E+02    0.50549E-01   -0.13443E-01  1776   0.136E+00    0.156E-01
DAV:   8    -0.108228499828E+02   -0.10432E-02   -0.27955E-03  1572   0.254E-01    0.770E-02
DAV:   9    -0.108230657397E+02   -0.21576E-03   -0.23870E-04  2004   0.777E-02    0.577E-02
DAV:  10    -0.108230777913E+02   -0.12052E-04   -0.88770E-06  2004   0.160E-02    0.558E-03
DAV:  11    -0.108230793792E+02   -0.15879E-05   -0.23949E-06  1968   0.706E-03    0.329E-03
DAV:  12    -0.108230796933E+02   -0.31403E-06   -0.48456E-07  1908   0.372E-03
   1 F= -.10823080E+02 E0= -.10823080E+02  d E =-.425307E-08
 writing wavefunctions
a= 5.6
 running on   12 total cores
 distrk:  each k-point on   12 cores,    1 groups
 distr:  one band on    1 cores,   12 groups
 using from now: INCAR     
 vasp.5.4.4.18Apr17-6-g9f103f2a35 (build Mar 30 2023 15:39:25) complex          
  
 POSCAR found :  1 types and       2 ions
 scaLAPACK will be used

 ----------------------------------------------------------------------------- 
|                                                                             |
|           W    W    AA    RRRRR   N    N  II  N    N   GGGG   !!!           |
|           W    W   A  A   R    R  NN   N  II  NN   N  G    G  !!!           |
|           W    W  A    A  R    R  N N  N  II  N N  N  G       !!!           |
|           W WW W  AAAAAA  RRRRR   N  N N  II  N  N N  G  GGG   !            |
|           WW  WW  A    A  R   R   N   NN  II  N   NN  G    G                |
|           W    W  A    A  R    R  N    N  II  N    N   GGGG   !!!           |
|                                                                             |
|      For optimal performance we recommend to set                            |
|        NCORE= 4 - approx SQRT( number of cores)                             |
|      NCORE specifies how many cores store one orbital (NPAR=cpu/NCORE).     |
|      This setting can  greatly improve the performance of VASP for DFT.     |
|      The default,   NCORE=1            might be grossly inefficient         |
|      on modern multi-core architectures or massively parallel machines.     |
|      Do your own testing !!!!                                               |
|      Unfortunately you need to use the default for GW and RPA calculations. |
|      (for HF NCORE is supported but not extensively tested yet)             |
|                                                                             |
 ----------------------------------------------------------------------------- 

 LDA part: xc-table for Pade appr. of Perdew
 POSCAR, INCAR and KPOINTS ok, starting setup
 FFT: planning ...
 WAVECAR not read
 entering main loop
       N       E                     dE             d eps       ncg     rms          rms(c)
DAV:   1    -0.520247265780E+01   -0.52025E+01   -0.20684E+03  1380   0.281E+02
DAV:   2    -0.108682156700E+02   -0.56657E+01   -0.56080E+01  2040   0.339E+01
DAV:   3    -0.109056146230E+02   -0.37399E-01   -0.37399E-01  1584   0.326E+00
DAV:   4    -0.109057203784E+02   -0.10576E-03   -0.10576E-03  2376   0.178E-01
DAV:   5    -0.109057204078E+02   -0.29335E-07   -0.29334E-07  1584   0.155E-03    0.482E+00
DAV:   6    -0.108170320409E+02    0.88688E-01   -0.54122E-02  1680   0.806E-01    0.291E+00
DAV:   7    -0.107737365573E+02    0.43295E-01   -0.11011E-01  1824   0.124E+00    0.140E-01
DAV:   8    -0.107748698319E+02   -0.11333E-02   -0.24600E-03  1632   0.235E-01    0.712E-02
DAV:   9    -0.107751082905E+02   -0.23846E-03   -0.28204E-04  1992   0.823E-02    0.495E-02
DAV:  10    -0.107751182501E+02   -0.99595E-05   -0.78631E-06  1980   0.150E-02    0.720E-03
DAV:  11    -0.107751203376E+02   -0.20875E-05   -0.24353E-06  1884   0.723E-03    0.273E-03
DAV:  12    -0.107751206435E+02   -0.30591E-06   -0.52411E-07  1932   0.380E-03
   1 F= -.10775121E+02 E0= -.10775121E+02  d E =-.206017E-09
 writing wavefunctions
a= 5.7
 running on   12 total cores
 distrk:  each k-point on   12 cores,    1 groups
 distr:  one band on    1 cores,   12 groups
 using from now: INCAR     
 vasp.5.4.4.18Apr17-6-g9f103f2a35 (build Mar 30 2023 15:39:25) complex          
  
 POSCAR found :  1 types and       2 ions
 scaLAPACK will be used

 ----------------------------------------------------------------------------- 
|                                                                             |
|           W    W    AA    RRRRR   N    N  II  N    N   GGGG   !!!           |
|           W    W   A  A   R    R  NN   N  II  NN   N  G    G  !!!           |
|           W    W  A    A  R    R  N N  N  II  N N  N  G       !!!           |
|           W WW W  AAAAAA  RRRRR   N  N N  II  N  N N  G  GGG   !            |
|           WW  WW  A    A  R   R   N   NN  II  N   NN  G    G                |
|           W    W  A    A  R    R  N    N  II  N    N   GGGG   !!!           |
|                                                                             |
|      For optimal performance we recommend to set                            |
|        NCORE= 4 - approx SQRT( number of cores)                             |
|      NCORE specifies how many cores store one orbital (NPAR=cpu/NCORE).     |
|      This setting can  greatly improve the performance of VASP for DFT.     |
|      The default,   NCORE=1            might be grossly inefficient         |
|      on modern multi-core architectures or massively parallel machines.     |
|      Do your own testing !!!!                                               |
|      Unfortunately you need to use the default for GW and RPA calculations. |
|      (for HF NCORE is supported but not extensively tested yet)             |
|                                                                             |
 ----------------------------------------------------------------------------- 

 LDA part: xc-table for Pade appr. of Perdew
 POSCAR, INCAR and KPOINTS ok, starting setup
 FFT: planning ...
 WAVECAR not read
 entering main loop
       N       E                     dE             d eps       ncg     rms          rms(c)
DAV:   1    -0.513625371061E+01   -0.51363E+01   -0.21128E+03  1404   0.282E+02
DAV:   2    -0.107437317378E+02   -0.56075E+01   -0.55916E+01  2100   0.331E+01
DAV:   3    -0.107808354937E+02   -0.37104E-01   -0.37104E-01  1524   0.318E+00
DAV:   4    -0.107809463106E+02   -0.11082E-03   -0.11082E-03  2448   0.183E-01
DAV:   5    -0.107809463172E+02   -0.66319E-08   -0.69064E-08  1512   0.132E-03    0.448E+00
DAV:   6    -0.107093415540E+02    0.71605E-01   -0.41559E-02  1656   0.711E-01    0.270E+00
DAV:   7    -0.106721273953E+02    0.37214E-01   -0.89096E-02  1836   0.112E+00    0.149E-01
DAV:   8    -0.106733575525E+02   -0.12302E-02   -0.23061E-03  1584   0.222E-01    0.643E-02
DAV:   9    -0.106735953636E+02   -0.23781E-03   -0.28938E-04  2124   0.821E-02    0.401E-02
DAV:  10    -0.106736048932E+02   -0.95296E-05   -0.89667E-06  1800   0.156E-02    0.556E-03
DAV:  11    -0.106736067588E+02   -0.18656E-05   -0.18648E-06  2088   0.634E-03    0.287E-03
DAV:  12    -0.106736069918E+02   -0.23304E-06   -0.56879E-07  1776   0.386E-03
   1 F= -.10673607E+02 E0= -.10673607E+02  d E =-.979273E-11
 writing wavefunctions
a= 5.8
 running on   12 total cores
 distrk:  each k-point on   12 cores,    1 groups
 distr:  one band on    1 cores,   12 groups
 using from now: INCAR     
 vasp.5.4.4.18Apr17-6-g9f103f2a35 (build Mar 30 2023 15:39:25) complex          
  
 POSCAR found :  1 types and       2 ions
 scaLAPACK will be used

 ----------------------------------------------------------------------------- 
|                                                                             |
|           W    W    AA    RRRRR   N    N  II  N    N   GGGG   !!!           |
|           W    W   A  A   R    R  NN   N  II  NN   N  G    G  !!!           |
|           W    W  A    A  R    R  N N  N  II  N N  N  G       !!!           |
|           W WW W  AAAAAA  RRRRR   N  N N  II  N  N N  G  GGG   !            |
|           WW  WW  A    A  R   R   N   NN  II  N   NN  G    G                |
|           W    W  A    A  R    R  N    N  II  N    N   GGGG   !!!           |
|                                                                             |
|      For optimal performance we recommend to set                            |
|        NCORE= 4 - approx SQRT( number of cores)                             |
|      NCORE specifies how many cores store one orbital (NPAR=cpu/NCORE).     |
|      This setting can  greatly improve the performance of VASP for DFT.     |
|      The default,   NCORE=1            might be grossly inefficient         |
|      on modern multi-core architectures or massively parallel machines.     |
|      Do your own testing !!!!                                               |
|      Unfortunately you need to use the default for GW and RPA calculations. |
|      (for HF NCORE is supported but not extensively tested yet)             |
|                                                                             |
 ----------------------------------------------------------------------------- 

 LDA part: xc-table for Pade appr. of Perdew
 POSCAR, INCAR and KPOINTS ok, starting setup
 FFT: planning ...
 WAVECAR not read
 entering main loop
       N       E                     dE             d eps       ncg     rms          rms(c)
DAV:   1    -0.518022232439E+01   -0.51802E+01   -0.20486E+03  1368   0.278E+02
DAV:   2    -0.105794779492E+02   -0.53993E+01   -0.53794E+01  2052   0.322E+01
DAV:   3    -0.106157705777E+02   -0.36293E-01   -0.36293E-01  1632   0.316E+00
DAV:   4    -0.106158816473E+02   -0.11107E-03   -0.11107E-03  2340   0.172E-01
DAV:   5    -0.106158816574E+02   -0.10096E-07   -0.10082E-07  1608   0.153E-03    0.418E+00
DAV:   6    -0.105585068577E+02    0.57375E-01   -0.31380E-02  1716   0.626E-01    0.251E+00
DAV:   7    -0.105268652174E+02    0.31642E-01   -0.71130E-02  1764   0.102E+00    0.171E-01
DAV:   8    -0.105281998135E+02   -0.13346E-02   -0.22813E-03  1608   0.216E-01    0.556E-02
DAV:   9    -0.105284149112E+02   -0.21510E-03   -0.26508E-04  2112   0.780E-02    0.291E-02
DAV:  10    -0.105284254177E+02   -0.10507E-04   -0.11949E-05  1824   0.174E-02    0.325E-03
DAV:  11    -0.105284267483E+02   -0.13306E-05   -0.11805E-06  2088   0.508E-03    0.379E-03
DAV:  12    -0.105284268097E+02   -0.61412E-07   -0.52643E-07  1824   0.357E-03
   1 F= -.10528427E+02 E0= -.10528427E+02  d E =-.636791E-11
 writing wavefunctions
5.2 1 F= -.10528169E+02 E0= -.10528155E+02 d E =-.270123E-04
5.3 1 F= -.10713314E+02 E0= -.10713313E+02 d E =-.213191E-05
5.4 1 F= -.10806753E+02 E0= -.10806753E+02 d E =-.110562E-06
5.5 1 F= -.10823080E+02 E0= -.10823080E+02 d E =-.425307E-08
5.6 1 F= -.10775121E+02 E0= -.10775121E+02 d E =-.206017E-09
5.7 1 F= -.10673607E+02 E0= -.10673607E+02 d E =-.979273E-11
5.8 1 F= -.10528427E+02 E0= -.10528427E+02 d E =-.636791E-11
