   2   2   0   0
  0.2438900E+02  0.4101219E-09  0.4101219E-09  0.4101219E-09  0.5000000E-15
  1.000000000000000E-004
  CAR 
 cd Si                                   
     19.34268490     -7.95406564  301      4.42117212      1.00000000
     -7.954  0.0000E+00  0.0000E+00
     -7.863  0.0000E+00  0.0000E+00
     -7.772  0.0000E+00  0.0000E+00
     -7.681  0.0000E+00  0.0000E+00
     -7.590  0.0000E+00  0.0000E+00
     -7.499  0.0000E+00  0.0000E+00
     -7.408  0.0000E+00  0.0000E+00
     -7.317  0.0000E+00  0.0000E+00
     -7.226  0.3372E-14  0.3068E-15
     -7.135  0.2010E-10  0.1829E-11
     -7.044  0.2393E-07  0.2179E-08
     -6.953  0.5904E-05  0.5394E-06
     -6.862  0.3377E-03  0.3126E-04
     -6.771  0.5963E-02  0.5738E-03
     -6.680  0.4309E-01  0.4494E-02
     -6.589  0.1179E+00  0.1522E-01
     -6.498  0.1592E+00  0.2971E-01
     -6.407  0.2568E+00  0.5308E-01
     -6.316  0.2950E+00  0.7992E-01
     -6.225  0.2182E+00  0.9977E-01
     -6.134  0.3690E+00  0.1333E+00
     -6.043  0.4450E+00  0.1738E+00
     -5.952  0.4064E+00  0.2108E+00
     -5.861  0.3691E+00  0.2444E+00
     -5.770  0.3393E+00  0.2753E+00
     -5.679  0.6187E+00  0.3316E+00
     -5.588  0.6331E+00  0.3892E+00
     -5.497  0.5401E+00  0.4383E+00
     -5.406  0.5232E+00  0.4859E+00
     -5.315  0.4009E+00  0.5224E+00
     -5.224  0.6835E+00  0.5846E+00
     -5.133  0.9926E+00  0.6749E+00
     -5.042  0.8482E+00  0.7521E+00
     -4.951  0.7318E+00  0.8187E+00
     -4.860  0.6151E+00  0.8746E+00
     -4.769  0.8531E+00  0.9523E+00
     -4.678  0.1464E+01  0.1085E+01
     -4.587  0.1182E+01  0.1193E+01
     -4.496  0.8512E+00  0.1271E+01
     -4.405  0.7065E+00  0.1335E+01
     -4.314  0.6448E+00  0.1393E+01
     -4.224  0.1084E+01  0.1492E+01
     -4.133  0.1059E+01  0.1589E+01
     -4.042  0.5924E+00  0.1642E+01
     -3.951  0.4712E+00  0.1685E+01
     -3.860  0.5312E+00  0.1734E+01
     -3.769  0.8317E+00  0.1809E+01
     -3.678  0.6800E+00  0.1871E+01
     -3.587  0.3441E+00  0.1903E+01
     -3.496  0.2588E+00  0.1926E+01
     -3.405  0.3067E+00  0.1954E+01
     -3.314  0.3035E+00  0.1982E+01
     -3.223  0.2145E+00  0.2001E+01
     -3.132  0.1524E+00  0.2015E+01
     -3.041  0.1716E+00  0.2031E+01
     -2.950  0.2084E+00  0.2050E+01
     -2.859  0.1951E+00  0.2067E+01
     -2.768  0.2899E+00  0.2094E+01
     -2.677  0.5500E+00  0.2144E+01
     -2.586  0.8315E+00  0.2219E+01
     -2.495  0.6464E+00  0.2278E+01
     -2.404  0.3834E+00  0.2313E+01
     -2.313  0.5372E+00  0.2362E+01
     -2.222  0.1042E+01  0.2457E+01
     -2.131  0.1670E+01  0.2609E+01
     -2.040  0.1404E+01  0.2736E+01
     -1.949  0.1045E+01  0.2831E+01
     -1.858  0.7807E+00  0.2903E+01
     -1.767  0.7155E+00  0.2968E+01
     -1.676  0.7294E+00  0.3034E+01
     -1.585  0.8890E+00  0.3115E+01
     -1.494  0.7640E+00  0.3184E+01
     -1.403  0.4086E+00  0.3222E+01
     -1.312  0.2790E+00  0.3247E+01
     -1.221  0.5349E+00  0.3296E+01
     -1.130  0.6551E+00  0.3355E+01
     -1.039  0.3876E+00  0.3391E+01
     -0.948  0.2682E+00  0.3415E+01
     -0.857  0.5187E+00  0.3462E+01
     -0.766  0.5367E+00  0.3511E+01
     -0.675  0.2972E+00  0.3538E+01
     -0.584  0.2241E+00  0.3558E+01
     -0.493  0.2468E+00  0.3581E+01
     -0.402  0.2272E+00  0.3601E+01
     -0.311  0.1552E+00  0.3616E+01
     -0.220  0.2890E+00  0.3642E+01
     -0.129  0.4915E+00  0.3687E+01
     -0.038  0.3610E+00  0.3719E+01
      0.053  0.2286E+00  0.3740E+01
      0.144  0.1569E+00  0.3755E+01
      0.235  0.3868E-01  0.3758E+01
      0.326  0.4294E-01  0.3762E+01
      0.417  0.2278E+00  0.3783E+01
      0.508  0.5870E+00  0.3836E+01
      0.599  0.1003E+01  0.3927E+01
      0.690  0.1158E+01  0.4033E+01
      0.781  0.1070E+01  0.4130E+01
      0.872  0.1554E+01  0.4271E+01
      0.963  0.2012E+01  0.4455E+01
      1.054  0.1385E+01  0.4581E+01
      1.145  0.8119E+00  0.4654E+01
      1.236  0.8388E+00  0.4731E+01
      1.327  0.1303E+01  0.4849E+01
      1.418  0.1520E+01  0.4988E+01
      1.509  0.1497E+01  0.5124E+01
      1.600  0.1387E+01  0.5250E+01
      1.691  0.1807E+01  0.5414E+01
      1.782  0.2086E+01  0.5604E+01
      1.873  0.2023E+01  0.5788E+01
      1.964  0.1482E+01  0.5923E+01
      2.055  0.1450E+01  0.6055E+01
      2.146  0.1851E+01  0.6223E+01
      2.237  0.1652E+01  0.6374E+01
      2.328  0.1348E+01  0.6496E+01
      2.419  0.1549E+01  0.6637E+01
      2.510  0.1876E+01  0.6808E+01
      2.601  0.1549E+01  0.6949E+01
      2.692  0.1357E+01  0.7072E+01
      2.783  0.1600E+01  0.7218E+01
      2.874  0.1280E+01  0.7334E+01
      2.965  0.1019E+01  0.7427E+01
      3.056  0.1405E+01  0.7555E+01
      3.147  0.1072E+01  0.7653E+01
      3.238  0.5743E+00  0.7705E+01
      3.329  0.8532E+00  0.7782E+01
      3.420  0.7428E+00  0.7850E+01
      3.511  0.3083E+00  0.7878E+01
      3.602  0.3171E+00  0.7907E+01
      3.693  0.3748E+00  0.7941E+01
      3.784  0.1697E+00  0.7957E+01
      3.875  0.1964E+00  0.7974E+01
      3.966  0.1982E+00  0.7992E+01
      4.057  0.6804E-01  0.7999E+01
      4.147  0.1391E-01  0.8000E+01
      4.238  0.1319E-02  0.8000E+01
      4.329  0.3187E-04  0.8000E+01
      4.420  0.1644E-06  0.8000E+01
      4.511  0.7774E-08  0.8000E+01
      4.602  0.4459E-05  0.8000E+01
      4.693  0.5555E-03  0.8000E+01
      4.784  0.1537E-01  0.8001E+01
      4.875  0.1016E+00  0.8011E+01
      4.966  0.1980E+00  0.8029E+01
      5.057  0.2632E+00  0.8053E+01
      5.148  0.3846E+00  0.8088E+01
      5.239  0.4572E+00  0.8129E+01
      5.330  0.5264E+00  0.8177E+01
      5.421  0.4562E+00  0.8219E+01
      5.512  0.1053E+01  0.8315E+01
      5.603  0.1475E+01  0.8449E+01
      5.694  0.1188E+01  0.8557E+01
      5.785  0.1509E+01  0.8694E+01
      5.876  0.1971E+01  0.8873E+01
      5.967  0.1744E+01  0.9032E+01
      6.058  0.1496E+01  0.9168E+01
      6.149  0.1770E+01  0.9329E+01
      6.240  0.2011E+01  0.9512E+01
      6.331  0.1939E+01  0.9689E+01
      6.422  0.1488E+01  0.9824E+01
      6.513  0.8712E+00  0.9903E+01
      6.604  0.8349E+00  0.9979E+01
      6.695  0.7345E+00  0.1005E+02
      6.786  0.8716E+00  0.1013E+02
      6.877  0.1180E+01  0.1023E+02
      6.968  0.1441E+01  0.1036E+02
      7.059  0.1767E+01  0.1052E+02
      7.150  0.1974E+01  0.1070E+02
      7.241  0.2409E+01  0.1092E+02
      7.332  0.2097E+01  0.1111E+02
      7.423  0.1874E+01  0.1128E+02
      7.514  0.1942E+01  0.1146E+02
      7.605  0.1815E+01  0.1163E+02
      7.696  0.1451E+01  0.1176E+02
      7.787  0.1285E+01  0.1188E+02
      7.878  0.1632E+01  0.1202E+02
      7.969  0.1834E+01  0.1219E+02
      8.060  0.1214E+01  0.1230E+02
      8.151  0.4037E+00  0.1234E+02
      8.242  0.4600E+00  0.1238E+02
      8.333  0.1343E+01  0.1250E+02
      8.424  0.2404E+01  0.1272E+02
      8.515  0.2386E+01  0.1294E+02
      8.606  0.1588E+01  0.1308E+02
      8.697  0.1937E+01  0.1326E+02
      8.788  0.1853E+01  0.1343E+02
      8.879  0.1109E+01  0.1353E+02
      8.970  0.1077E+01  0.1363E+02
      9.061  0.1263E+01  0.1374E+02
      9.152  0.1155E+01  0.1385E+02
      9.243  0.9439E+00  0.1393E+02
      9.334  0.1078E+01  0.1403E+02
      9.425  0.1536E+01  0.1417E+02
      9.516  0.1412E+01  0.1430E+02
      9.607  0.1086E+01  0.1440E+02
      9.698  0.1367E+01  0.1452E+02
      9.789  0.1678E+01  0.1467E+02
      9.880  0.1151E+01  0.1478E+02
      9.971  0.6628E+00  0.1484E+02
     10.062  0.5724E+00  0.1489E+02
     10.153  0.6511E+00  0.1495E+02
     10.244  0.9270E+00  0.1503E+02
     10.335  0.1009E+01  0.1513E+02
     10.426  0.1162E+01  0.1523E+02
     10.517  0.1261E+01  0.1535E+02
     10.608  0.1196E+01  0.1546E+02
     10.699  0.1615E+01  0.1560E+02
     10.790  0.2216E+01  0.1580E+02
     10.881  0.2142E+01  0.1600E+02
     10.972  0.1731E+01  0.1616E+02
     11.063  0.1585E+01  0.1630E+02
     11.154  0.1253E+01  0.1642E+02
     11.245  0.7251E+00  0.1648E+02
     11.336  0.7654E+00  0.1655E+02
     11.427  0.1250E+01  0.1666E+02
     11.518  0.1132E+01  0.1677E+02
     11.609  0.7710E+00  0.1684E+02
     11.700  0.8094E+00  0.1691E+02
     11.791  0.1139E+01  0.1702E+02
     11.882  0.1321E+01  0.1714E+02
     11.973  0.1689E+01  0.1729E+02
     12.064  0.1908E+01  0.1746E+02
     12.155  0.1962E+01  0.1764E+02
     12.246  0.1821E+01  0.1781E+02
     12.337  0.1133E+01  0.1791E+02
     12.428  0.1266E+01  0.1803E+02
     12.518  0.1676E+01  0.1818E+02
     12.609  0.1938E+01  0.1835E+02
     12.700  0.1570E+01  0.1850E+02
     12.791  0.8504E+00  0.1857E+02
     12.882  0.1160E+01  0.1868E+02
     12.973  0.1339E+01  0.1880E+02
     13.064  0.1312E+01  0.1892E+02
     13.155  0.1906E+01  0.1909E+02
     13.246  0.2257E+01  0.1930E+02
     13.337  0.1661E+01  0.1945E+02
     13.428  0.9518E+00  0.1954E+02
     13.519  0.1011E+01  0.1963E+02
     13.610  0.1600E+01  0.1978E+02
     13.701  0.2052E+01  0.1996E+02
     13.792  0.1829E+01  0.2013E+02
     13.883  0.1383E+01  0.2025E+02
     13.974  0.1153E+01  0.2036E+02
     14.065  0.9980E+00  0.2045E+02
     14.156  0.9500E+00  0.2054E+02
     14.247  0.1219E+01  0.2065E+02
     14.338  0.1169E+01  0.2075E+02
     14.429  0.1004E+01  0.2084E+02
     14.520  0.1446E+01  0.2098E+02
     14.611  0.1723E+01  0.2113E+02
     14.702  0.1491E+01  0.2127E+02
     14.793  0.1572E+01  0.2141E+02
     14.884  0.1753E+01  0.2157E+02
     14.975  0.1680E+01  0.2172E+02
     15.066  0.1089E+01  0.2182E+02
     15.157  0.9341E+00  0.2191E+02
     15.248  0.1699E+01  0.2206E+02
     15.339  0.1888E+01  0.2223E+02
     15.430  0.1417E+01  0.2236E+02
     15.521  0.1448E+01  0.2250E+02
     15.612  0.1799E+01  0.2266E+02
     15.703  0.1903E+01  0.2283E+02
     15.794  0.1158E+01  0.2294E+02
     15.885  0.7412E+00  0.2300E+02
     15.976  0.5899E+00  0.2306E+02
     16.067  0.9248E+00  0.2314E+02
     16.158  0.1390E+01  0.2327E+02
     16.249  0.1608E+01  0.2342E+02
     16.340  0.1399E+01  0.2354E+02
     16.431  0.8503E+00  0.2362E+02
     16.522  0.4248E+00  0.2366E+02
     16.613  0.4746E+00  0.2370E+02
     16.704  0.6586E+00  0.2376E+02
     16.795  0.5421E+00  0.2381E+02
     16.886  0.2960E+00  0.2384E+02
     16.977  0.3087E+00  0.2387E+02
     17.068  0.5368E+00  0.2392E+02
     17.159  0.3878E+00  0.2395E+02
     17.250  0.2355E+00  0.2397E+02
     17.341  0.9872E-01  0.2398E+02
     17.432  0.1147E-01  0.2398E+02
     17.523  0.2980E-03  0.2398E+02
     17.614  0.1629E-05  0.2398E+02
     17.705  0.3758E-08  0.2398E+02
     17.796  0.1487E-05  0.2398E+02
     17.887  0.2318E-03  0.2398E+02
     17.978  0.7625E-02  0.2398E+02
     18.069  0.5554E-01  0.2399E+02
     18.160  0.9386E-01  0.2400E+02
     18.251  0.3742E-01  0.2400E+02
     18.342  0.3423E-02  0.2400E+02
     18.433  0.6836E-04  0.2400E+02
     18.524  0.2851E-06  0.2400E+02
     18.615  0.2409E-09  0.2400E+02
     18.706  0.4046E-13  0.2400E+02
     18.797  0.0000E+00  0.2400E+02
     18.888  0.0000E+00  0.2400E+02
     18.979  0.0000E+00  0.2400E+02
     19.070  0.0000E+00  0.2400E+02
     19.161  0.0000E+00  0.2400E+02
     19.252  0.0000E+00  0.2400E+02
     19.343  0.0000E+00  0.2400E+02
