    2    2    1    1
  0.2438900E+02  0.4101219E-09  0.4101219E-09  0.4101219E-09  0.5000000E-15
  1.000000000000000E-004
  CAR 
 cd Si                                   
      8     56     12
 
  0.0000000E+00  0.0000000E+00  0.0000000E+00  0.7513148E-03
    1       -6.713304   1.000000
    2        4.010933   1.000000
    3        4.010934   1.000000
    4        4.010934   1.000000
    5        5.259915   0.000000
    6        6.471479   0.000000
    7        6.471479   0.000000
    8        6.471479   0.000000
    9       11.233733   0.000000
   10       11.645414   0.000000
   11       11.645414   0.000000
   12       14.642604   0.000000
 
  0.9090909E-01  0.0000000E+00  0.0000000E+00  0.6010518E-02
    1       -6.622450   1.000000
    2        2.943128   1.000000
    3        3.874839   1.000000
    4        3.874839   1.000000
    5        5.715699   0.000000
    6        6.673726   0.000000
    7        6.673727   0.000000
    8        6.944068   0.000000
    9       11.387791   0.000000
   10       11.387791   0.000000
   11       11.622126   0.000000
   12       14.322702   0.000000
 
  0.1818182E+00  0.0000000E+00  0.0000000E+00  0.6010518E-02
    1       -6.354320   1.000000
    2        1.433287   1.000000
    3        3.586825   1.000000
    4        3.586826   1.000000
    5        5.553928   0.000000
    6        7.086701   0.000000
    7        7.086701   0.000000
    8        8.324618   0.000000
    9       11.079728   0.000000
   10       11.079728   0.000000
   11       12.371717   0.000000
   12       14.060796   0.000000
 
  0.2727273E+00  0.0000000E+00  0.0000000E+00  0.6010518E-02
    1       -5.926255   1.000000
    2        0.004514   1.000000
    3        3.305312   1.000000
    4        3.305312   1.000000
    5        5.252708   0.000000
    6        7.377921   0.000000
    7        7.377922   0.000000
    8        9.827064   0.000000
    9       11.262284   0.000000
   10       11.262284   0.000000
   11       12.363332   0.000000
   12       15.082449   0.000000
 
  0.3636364E+00  0.0000000E+00  0.0000000E+00  0.6010518E-02
    1       -5.390356   1.000000
    2       -1.219664   1.000000
    3        3.098387   1.000000
    4        3.098387   1.000000
    5        5.014681   0.000000
    6        7.430165   0.000000
    7        7.430166   0.000000
    8       11.121690   0.000000
    9       12.091320   0.000000
   10       12.091320   0.000000
   11       12.295425   0.000000
   12       16.077086   0.000000
 
  0.4545455E+00  0.0000000E+00  0.0000000E+00  0.6010518E-02
    1       -4.919859   1.000000
    2       -2.039647   1.000000
    3        2.991988   1.000000
    4        2.991988   1.000000
    5        4.888540   0.000000
    6        7.391593   0.000000
    7        7.391593   0.000000
    8       11.417141   0.000000
    9       13.377030   0.000000
   10       13.407597   0.000000
   11       13.407597   0.000000
   12       15.054737   0.000000
 
  0.9090909E-01  0.9090909E-01  0.0000000E+00  0.4507889E-02
    1       -6.591918   1.000000
    2        2.956968   1.000000
    3        3.621454   1.000000
    4        3.621454   1.000000
    5        6.206175   0.000000
    6        6.270132   0.000000
    7        7.012855   0.000000
    8        7.012855   0.000000
    9       10.881438   0.000000
   10       11.752427   0.000000
   11       11.786600   0.000000
   12       14.867470   0.000000
 
  0.1818182E+00  0.9090909E-01  0.0000000E+00  0.1803156E-01
    1       -6.382007   1.000000
    2        1.790312   1.000000
    3        3.289737   1.000000
    4        3.375274   1.000000
    5        6.151007   0.000000
    6        6.520749   0.000000
    7        7.518365   0.000000
    8        7.989616   0.000000
    9       10.470509   0.000000
   10       11.754000   0.000000
   11       12.472570   0.000000
   12       14.498215   0.000000
 
  0.2727273E+00  0.9090909E-01  0.0000000E+00  0.1803156E-01
    1       -6.004351   1.000000
    2        0.416282   1.000000
    3        3.012900   1.000000
    4        3.038184   1.000000
    5        5.949699   0.000000
    6        6.895766   0.000000
    7        7.878544   0.000000
    8        8.924183   0.000000
    9       10.839479   0.000000
   10       11.875702   0.000000
   11       12.886898   0.000000
   12       14.845492   0.000000
 
  0.3636364E+00  0.9090909E-01  0.0000000E+00  0.1803156E-01
    1       -5.494511   1.000000
    2       -0.849086   1.000000
    3        2.703090   1.000000
    4        2.843043   1.000000
    5        5.703006   0.000000
    6        7.171107   0.000000
    7        7.928034   0.000000
    8        9.728097   0.000000
    9       12.036815   0.000000
   10       12.580367   0.000000
   11       12.648768   0.000000
   12       15.878214   0.000000
 
  0.4545455E+00  0.9090909E-01  0.0000000E+00  0.1803156E-01
    1       -4.966403   1.000000
    2       -1.822951   1.000000
    3        2.449487   1.000000
    4        2.796382   1.000000
    5        5.538722   0.000000
    6        7.256765   0.000000
    7        7.794612   0.000000
    8       10.797867   0.000000
    9       12.403026   0.000000
   10       13.629877   0.000000
   11       13.805877   0.000000
   12       14.820343   0.000000
 
 -0.4545455E+00  0.9090909E-01  0.0000000E+00  0.1803156E-01
    1       -4.766070   1.000000
    2       -2.135158   1.000000
    3        2.308904   1.000000
    4        2.872125   1.000000
    5        5.489324   0.000000
    6        7.344352   0.000000
    7        7.654763   0.000000
    8       11.496840   0.000000
    9       12.663074   0.000000
   10       13.133942   0.000000
   11       13.850642   0.000000
   12       15.278682   0.000000
 
 -0.3636364E+00  0.9090909E-01  0.0000000E+00  0.1803156E-01
    1       -5.131603   1.000000
    2       -1.543533   1.000000
    3        2.297831   1.000000
    4        3.057986   1.000000
    5        5.558912   0.000000
    6        7.491788   0.000000
    7        7.555244   0.000000
    8       10.954942   0.000000
    9       11.733481   0.000000
   10       12.571136   0.000000
   11       14.015359   0.000000
   12       14.767258   0.000000
 
 -0.2727273E+00  0.9090909E-01  0.0000000E+00  0.1803156E-01
    1       -5.676641   1.000000
    2       -0.446595   1.000000
    3        2.428858   1.000000
    4        3.330147   1.000000
    5        5.739479   0.000000
    6        7.408212   0.000000
    7        7.588512   0.000000
    8        9.827877   0.000000
    9       10.795699   0.000000
   10       12.535549   0.000000
   11       12.882315   0.000000
   12       15.483370   0.000000
 
 -0.1818182E+00  0.9090909E-01  0.0000000E+00  0.1803156E-01
    1       -6.148690   1.000000
    2        0.856773   1.000000
    3        2.717950   1.000000
    4        3.638944   1.000000
    5        5.982669   0.000000
    6        7.088327   0.000000
    7        7.336294   0.000000
    8        8.819148   0.000000
    9       10.510563   0.000000
   10       11.702368   0.000000
   11       12.888165   0.000000
   12       14.541482   0.000000
 
 -0.9090909E-01  0.9090909E-01  0.0000000E+00  0.9015778E-02
    1       -6.472165   1.000000
    2        2.130800   1.000000
    3        3.222288   1.000000
    4        3.875813   1.000000
    5        6.061933   0.000000
    6        6.729514   0.000000
    7        6.825043   0.000000
    8        7.825779   0.000000
    9       10.808636   0.000000
   10       11.478703   0.000000
   11       12.180144   0.000000
   12       14.501455   0.000000
 
  0.1818182E+00  0.1818182E+00  0.0000000E+00  0.4507889E-02
    1       -6.230284   1.000000
    2        1.495763   1.000000
    3        2.932186   1.000000
    4        2.932186   1.000000
    5        5.669057   0.000000
    6        7.195308   0.000000
    7        8.149763   0.000000
    8        8.149763   0.000000
    9       10.100672   0.000000
   10       12.214478   0.000000
   11       13.027206   0.000000
   12       15.513192   0.000000
 
  0.2727273E+00  0.1818182E+00  0.0000000E+00  0.1803156E-01
    1       -5.906617   1.000000
    2        0.530681   1.000000
    3        2.543510   1.000000
    4        2.639322   1.000000
    5        5.708005   0.000000
    6        7.142265   0.000000
    7        8.530164   0.000000
    8        8.677970   0.000000
    9       10.733223   0.000000
   10       12.472526   0.000000
   11       13.755795   0.000000
   12       15.412948   0.000000
 
  0.3636364E+00  0.1818182E+00  0.0000000E+00  0.1803156E-01
    1       -5.434389   1.000000
    2       -0.588636   1.000000
    3        2.066180   1.000000
    4        2.465213   1.000000
    5        5.882795   0.000000
    6        7.441121   0.000000
    7        8.478548   0.000000
    8        8.847367   0.000000
    9       12.199018   0.000000
   10       13.098755   0.000000
   11       13.737733   0.000000
   12       16.019717   0.000000
 
  0.4545455E+00  0.1818182E+00  0.0000000E+00  0.1803156E-01
    1       -4.887173   1.000000
    2       -1.588965   1.000000
    3        1.651592   1.000000
    4        2.428545   1.000000
    5        5.876636   0.000000
    6        7.801878   0.000000
    7        8.715025   0.000000
    8        9.015449   0.000000
    9       13.161752   0.000000
   10       13.882604   0.000000
   11       14.255787   0.000000
   12       14.727871   0.000000
 
 -0.4545455E+00  0.1818182E+00  0.0000000E+00  0.1803156E-01
    1       -4.521284   1.000000
    2       -2.139294   1.000000
    3        1.374045   1.000000
    4        2.530261   1.000000
    5        5.905449   0.000000
    6        7.833366   0.000000
    7        8.493280   0.000000
    8       10.327359   0.000000
    9       12.196238   0.000000
   10       13.011693   0.000000
   11       14.609990   0.000000
   12       15.520685   0.000000
 
 -0.3636364E+00  0.1818182E+00  0.0000000E+00  0.1803156E-01
    1       -4.737449   1.000000
    2       -1.820776   1.000000
    3        1.269936   1.000000
    4        2.755776   1.000000
    5        6.036554   0.000000
    6        7.903610   0.000000
    7        8.268111   0.000000
    8       10.777851   0.000000
    9       11.558008   0.000000
   10       11.900796   0.000000
   11       14.581207   0.000000
   12       16.101974   0.000000
 
 -0.2727273E+00  0.1818182E+00  0.0000000E+00  0.1803156E-01
    1       -5.270543   1.000000
    2       -0.929059   1.000000
    3        1.386171   1.000000
    4        3.072799   1.000000
    5        6.238786   0.000000
    6        7.966873   0.000000
    7        8.000246   0.000000
    8        9.520133   0.000000
    9       10.574080   0.000000
   10       13.162988   0.000000
   11       14.377106   0.000000
   12       15.282119   0.000000
 
 -0.1818182E+00  0.1818182E+00  0.0000000E+00  0.9015778E-02
    1       -5.776441   1.000000
    2        0.065345   1.000000
    3        1.831230   1.000000
    4        3.413494   1.000000
    5        6.361366   0.000000
    6        7.496195   0.000000
    7        7.696371   0.000000
    8        8.945222   0.000000
    9       10.260177   0.000000
   10       12.862134   0.000000
   11       13.587193   0.000000
   12       15.051664   0.000000
 
  0.2727273E+00  0.2727273E+00  0.0000000E+00  0.4507889E-02
    1       -5.636235   1.000000
    2        0.050253   1.000000
    3        2.321934   1.000000
    4        2.321934   1.000000
    5        5.186636   0.000000
    6        6.744649   0.000000
    7        9.483857   0.000000
    8        9.483857   0.000000
    9       10.915960   0.000000
   10       12.911617   0.000000
   11       14.610428   0.000000
   12       16.385699   0.000000
 
  0.3636364E+00  0.2727273E+00  0.0000000E+00  0.1803156E-01
    1       -5.208321   1.000000
    2       -0.758278   1.000000
    3        1.882587   1.000000
    4        2.122341   1.000000
    5        5.306670   0.000000
    6        6.547297   0.000000
    7        9.643047   0.000000
    8        9.943681   0.000000
    9       12.198039   0.000000
   10       13.507864   0.000000
   11       14.885098   0.000000
   12       16.300782   0.000000
 
  0.4545455E+00  0.2727273E+00  0.0000000E+00  0.1803156E-01
    1       -4.668728   1.000000
    2       -1.604994   1.000000
    3        1.288462   1.000000
    4        2.064924   1.000000
    5        5.503096   0.000000
    6        7.166225   0.000000
    7        9.446084   0.000000
    8        9.933029   0.000000
    9       13.644790   0.000000
   10       14.180525   0.000000
   11       14.580394   0.000000
   12       14.810875   0.000000
 
 -0.4545455E+00  0.2727273E+00  0.0000000E+00  0.1803156E-01
    1       -4.190082   1.000000
    2       -2.236015   1.000000
    3        0.817712   1.000000
    4        2.154082   1.000000
    5        5.607488   0.000000
    6        8.448949   0.000000
    7        9.286147   0.000000
    8        9.686431   0.000000
    9       12.345253   0.000000
   10       13.053522   0.000000
   11       15.649788   0.000000
   12       16.151631   0.000000
 
 -0.3636364E+00  0.2727273E+00  0.0000000E+00  0.1803156E-01
    1       -4.243178   1.000000
    2       -2.165545   1.000000
    3        0.598796   1.000000
    4        2.378685   1.000000
    5        5.809384   0.000000
    6        9.175513   0.000000
    7        9.329349   0.000000
    8       10.084386   0.000000
    9       10.745516   0.000000
   10       11.618719   0.000000
   11       16.123334   0.000000
   12       16.981744   0.000000
 
 -0.2727273E+00  0.2727273E+00  0.0000000E+00  0.9015778E-02
    1       -4.747677   1.000000
    2       -1.540745   1.000000
    3        0.744980   1.000000
    4        2.708247   1.000000
    5        6.096093   0.000000
    6        8.743256   0.000000
    7        9.052854   0.000000
    8        9.421454   0.000000
    9       10.763932   0.000000
   10       11.821643   0.000000
   11       15.846312   0.000000
   12       16.650816   0.000000
 
  0.3636364E+00  0.3636364E+00  0.0000000E+00  0.4507889E-02
    1       -4.823905   1.000000
    2       -1.339571   1.000000
    3        1.889505   1.000000
    4        1.889505   1.000000
    5        4.911973   0.000000
    6        5.879598   0.000000
    7       10.894076   0.000000
    8       10.894077   0.000000
    9       12.474688   0.000000
   10       13.883884   0.000000
   11       15.810910   0.000000
   12       16.101107   0.000000
 
  0.4545455E+00  0.3636364E+00  0.0000000E+00  0.1803156E-01
    1       -4.307797   1.000000
    2       -2.030991   1.000000
    3        1.476602   1.000000
    4        1.798286   1.000000
    5        5.111519   0.000000
    6        5.859898   0.000000
    7       11.073238   0.000000
    8       11.246771   0.000000
    9       13.689333   0.000000
   10       14.601958   0.000000
   11       14.697676   0.000000
   12       15.006990   0.000000
 
 -0.4545455E+00  0.3636364E+00  0.0000000E+00  0.1803156E-01
    1       -3.767163   1.000000
    2       -2.629841   1.000000
    3        0.876983   1.000000
    4        1.856626   1.000000
    5        5.273524   0.000000
    6        6.832891   0.000000
    7       10.903894   0.000000
    8       11.035803   0.000000
    9       12.570639   0.000000
   10       13.291152   0.000000
   11       15.567325   0.000000
   12       16.331891   0.000000
 
 -0.3636364E+00  0.3636364E+00  0.0000000E+00  0.9015778E-02
    1       -3.748185   1.000000
    2       -2.628945   1.000000
    3        0.498352   1.000000
    4        2.058872   1.000000
    5        5.486501   0.000000
    6        8.332246   0.000000
    7       10.397801   0.000000
    8       10.667407   0.000000
    9       10.930061   0.000000
   10       12.105173   0.000000
   11       16.638648   0.000000
   12       18.101924   0.000000
 
  0.4545455E+00  0.4545455E+00  0.0000000E+00  0.4507889E-02
    1       -3.815397   1.000000
    2       -2.640828   1.000000
    3        1.667889   1.000000
    4        1.667890   1.000000
    5        4.916911   0.000000
    6        5.239193   0.000000
    7       12.210871   0.000000
    8       12.210871   0.000000
    9       14.096620   0.000000
   10       14.767867   0.000000
   11       14.767867   0.000000
   12       15.128933   0.000000
 
 -0.4545455E+00  0.4545455E+00  0.0000000E+00  0.9015778E-02
    1       -3.289175   1.000000
    2       -3.177965   1.000000
    3        1.340563   1.000000
    4        1.688195   1.000000
    5        5.088787   0.000000
    6        5.566536   0.000000
    7       12.124490   0.000000
    8       12.155854   0.000000
    9       13.278567   0.000000
   10       13.889708   0.000000
   11       15.197894   0.000000
   12       16.110243   0.000000
 
  0.2727273E+00  0.1818182E+00  0.9090909E-01  0.1803156E-01
    1       -6.115730   1.000000
    2        0.966478   1.000000
    3        2.526812   1.000000
    4        3.292330   1.000000
    5        6.281907   0.000000
    6        6.734149   0.000000
    7        7.982575   0.000000
    8        8.453802   0.000000
    9       10.435436   0.000000
   10       12.039358   0.000000
   11       13.210562   0.000000
   12       14.891831   0.000000
 
  0.3636364E+00  0.1818182E+00  0.9090909E-01  0.3606311E-01
    1       -5.689982   1.000000
    2       -0.142848   1.000000
    3        2.017147   1.000000
    4        3.034208   1.000000
    5        6.379638   0.000000
    6        7.001219   0.000000
    7        8.352359   0.000000
    8        8.693112   0.000000
    9       10.981483   0.000000
   10       12.868690   0.000000
   11       13.551988   0.000000
   12       15.340400   0.000000
 
  0.4545455E+00  0.1818182E+00  0.9090909E-01  0.3606311E-01
    1       -5.154268   1.000000
    2       -1.240004   1.000000
    3        1.749189   1.000000
    4        2.760837   1.000000
    5        6.235954   0.000000
    6        7.226724   0.000000
    7        8.418670   0.000000
    8        9.408861   0.000000
    9       11.959661   0.000000
   10       13.061175   0.000000
   11       14.286933   0.000000
   12       14.962308   0.000000
 
 -0.4545455E+00  0.1818182E+00  0.9090909E-01  0.3606311E-01
    1       -4.677358   1.000000
    2       -2.019117   1.000000
    3        1.635419   1.000000
    4        2.597190   1.000000
    5        6.140477   0.000000
    6        7.215458   0.000000
    7        8.405041   0.000000
    8       10.613033   0.000000
    9       12.033540   0.000000
   10       13.282422   0.000000
   11       14.175227   0.000000
   12       15.214993   0.000000
 
  0.3636364E+00  0.2727273E+00  0.9090909E-01  0.1803156E-01
    1       -5.531973   1.000000
    2       -0.235574   1.000000
    3        1.925954   1.000000
    4        2.486473   1.000000
    5        5.823309   0.000000
    6        7.042167   0.000000
    7        8.548223   0.000000
    8        9.392525   0.000000
    9       11.452044   0.000000
   10       13.160521   0.000000
   11       14.311822   0.000000
   12       15.789157   0.000000
 
  0.4545455E+00  0.2727273E+00  0.9090909E-01  0.3606311E-01
    1       -5.023744   1.000000
    2       -1.135608   1.000000
    3        1.427966   1.000000
    4        2.244891   1.000000
    5        6.131648   0.000000
    6        7.421380   0.000000
    7        8.303684   0.000000
    8        9.771748   0.000000
    9       12.404020   0.000000
   10       13.684041   0.000000
   11       14.485609   0.000000
   12       15.677413   0.000000
 
 -0.4545455E+00  0.2727273E+00  0.9090909E-01  0.3606311E-01
    1       -4.488044   1.000000
    2       -1.938477   1.000000
    3        1.080227   1.000000
    4        2.125087   1.000000
    5        6.226002   0.000000
    6        7.892974   0.000000
    7        8.703206   0.000000
    8        9.776140   0.000000
    9       12.190282   0.000000
   10       13.750087   0.000000
   11       14.720341   0.000000
   12       15.644941   0.000000
 
 -0.3636364E+00  0.2727273E+00  0.9090909E-01  0.3606311E-01
    1       -4.289181   1.000000
    2       -2.202056   1.000000
    3        0.892274   1.000000
    4        2.194842   1.000000
    5        6.360437   0.000000
    6        7.742217   0.000000
    7        9.529686   0.000000
    8       10.246920   0.000000
    9       10.689995   0.000000
   10       13.184056   0.000000
   11       15.233873   0.000000
   12       15.649535   0.000000
 
 -0.2727273E+00  0.2727273E+00  0.9090909E-01  0.3606311E-01
    1       -4.681097   1.000000
    2       -1.667238   1.000000
    3        0.916857   1.000000
    4        2.428660   1.000000
    5        6.584601   0.000000
    6        7.614743   0.000000
    7        8.994817   0.000000
    8        9.699024   0.000000
    9       11.801275   0.000000
   10       11.955739   0.000000
   11       15.495016   0.000000
   12       16.217397   0.000000
 
 -0.1818182E+00  0.2727273E+00  0.9090909E-01  0.1803156E-01
    1       -5.227223   1.000000
    2       -0.855607   1.000000
    3        1.257729   1.000000
    4        2.756965   1.000000
    5        6.804108   0.000000
    6        7.202251   0.000000
    7        8.440966   0.000000
    8        9.165922   0.000000
    9       11.079355   0.000000
   10       13.394494   0.000000
   11       14.457299   0.000000
   12       15.800705   0.000000
 
  0.4545455E+00  0.3636364E+00  0.9090909E-01  0.1803156E-01
    1       -4.738474   1.000000
    2       -1.453546   1.000000
    3        1.527310   1.000000
    4        1.852169   1.000000
    5        5.545181   0.000000
    6        6.355957   0.000000
    7        9.648704   0.000000
    8       10.864509   0.000000
    9       12.901509   0.000000
   10       14.173441   0.000000
   11       14.552538   0.000000
   12       16.222808   0.000000
 
 -0.4545455E+00  0.3636364E+00  0.9090909E-01  0.3606311E-01
    1       -4.184608   1.000000
    2       -2.147527   1.000000
    3        1.023046   1.000000
    4        1.711004   1.000000
    5        5.865595   0.000000
    6        7.021173   0.000000
    7        9.371830   0.000000
    8       11.121841   0.000000
    9       12.520620   0.000000
   10       13.978649   0.000000
   11       14.901136   0.000000
   12       16.240157   0.000000
 
 -0.3636364E+00  0.3636364E+00  0.9090909E-01  0.3606311E-01
    1       -3.827389   1.000000
    2       -2.540454   1.000000
    3        0.614719   1.000000
    4        1.801936   1.000000
    5        6.036403   0.000000
    6        8.413638   0.000000
    7        9.104977   0.000000
    8       10.423858   0.000000
    9       11.397955   0.000000
   10       13.225569   0.000000
   11       15.610522   0.000000
   12       17.046746   0.000000
 
 -0.2727273E+00  0.3636364E+00  0.9090909E-01  0.1803156E-01
    1       -4.142601   1.000000
    2       -2.198319   1.000000
    3        0.531509   1.000000
    4        2.062866   1.000000
    5        6.306769   0.000000
    6        8.701687   0.000000
    7        9.236821   0.000000
    8       10.059045   0.000000
    9       10.804300   0.000000
   10       12.105541   0.000000
   11       16.638989   0.000000
   12       17.207591   0.000000
 
 -0.4545455E+00  0.4545455E+00  0.9090909E-01  0.1803156E-01
    1       -3.763430   1.000000
    2       -2.649267   1.000000
    3        1.370419   1.000000
    4        1.475736   1.000000
    5        5.521919   0.000000
    6        5.791367   0.000000
    7       10.975864   0.000000
    8       11.948240   0.000000
    9       13.256976   0.000000
   10       14.019067   0.000000
   11       14.953141   0.000000
   12       16.083624   0.000000
 
 -0.3636364E+00  0.4545455E+00  0.9090909E-01  0.1803156E-01
    1       -3.373398   1.000000
    2       -3.015169   1.000000
    3        0.874566   1.000000
    4        1.532874   1.000000
    5        5.769370   0.000000
    6        6.839499   0.000000
    7       10.627707   0.000000
    8       10.772414   0.000000
    9       12.689290   0.000000
   10       13.481722   0.000000
   11       15.436268   0.000000
   12       16.386154   0.000000
 
 -0.4545455E+00  0.3636364E+00  0.1818182E+00  0.1803156E-01
    1       -4.496471   1.000000
    2       -1.770797   1.000000
    3        0.929044   1.000000
    4        1.888550   1.000000
    5        6.954183   0.000000
    6        7.476214   0.000000
    7        7.976870   0.000000
    8       10.767279   0.000000
    9       12.159335   0.000000
   10       12.611834   0.000000
   11       15.994508   0.000000
   12       16.606852   0.000000
 
 -0.3636364E+00  0.3636364E+00  0.1818182E+00  0.3606311E-01
    1       -3.990714   1.000000
    2       -2.352573   1.000000
    3        0.699842   1.000000
    4        1.638495   1.000000
    5        7.267342   0.000000
    6        7.584573   0.000000
    7        8.666536   0.000000
    8       10.210298   0.000000
    9       11.377480   0.000000
   10       13.608095   0.000000
   11       15.257256   0.000000
   12       16.767871   0.000000
 
 -0.3636364E+00  0.4545455E+00  0.1818182E+00  0.1803156E-01
    1       -3.632135   1.000000
    2       -2.701973   1.000000
    3        0.904352   1.000000
    4        1.225600   1.000000
    5        6.914987   0.000000
    6        7.124114   0.000000
    7        9.043492   0.000000
    8       10.419443   0.000000
    9       12.669444   0.000000
   10       13.870193   0.000000
   11       15.163204   0.000000
   12       16.300043   0.000000
 
 -0.2727273E+00  0.4545455E+00  0.1818182E+00  0.1803156E-01
    1       -3.483785   1.000000
    2       -2.833931   1.000000
    3        0.695338   1.000000
    4        1.252186   1.000000
    5        7.222207   0.000000
    6        8.522950   0.000000
    7        8.688859   0.000000
    8        8.868892   0.000000
    9       12.623376   0.000000
   10       13.658714   0.000000
   11       15.340327   0.000000
   12       16.440858   0.000000
