       N       E                     dE             d eps       ncg     rms          rms(c)
DAV:   1    -0.518022232439E+01   -0.51802E+01   -0.20486E+03  1368   0.278E+02
DAV:   2    -0.105794779492E+02   -0.53993E+01   -0.53794E+01  2052   0.322E+01
DAV:   3    -0.106157705777E+02   -0.36293E-01   -0.36293E-01  1632   0.316E+00
DAV:   4    -0.106158816473E+02   -0.11107E-03   -0.11107E-03  2340   0.172E-01
DAV:   5    -0.106158816574E+02   -0.10096E-07   -0.10082E-07  1608   0.153E-03    0.418E+00
DAV:   6    -0.105585068577E+02    0.57375E-01   -0.31380E-02  1716   0.626E-01    0.251E+00
DAV:   7    -0.105268652174E+02    0.31642E-01   -0.71130E-02  1764   0.102E+00    0.171E-01
DAV:   8    -0.105281998135E+02   -0.13346E-02   -0.22813E-03  1608   0.216E-01    0.556E-02
DAV:   9    -0.105284149112E+02   -0.21510E-03   -0.26508E-04  2112   0.780E-02    0.291E-02
DAV:  10    -0.105284254177E+02   -0.10507E-04   -0.11949E-05  1824   0.174E-02    0.325E-03
DAV:  11    -0.105284267483E+02   -0.13306E-05   -0.11805E-06  2088   0.508E-03    0.379E-03
DAV:  12    -0.105284268097E+02   -0.61412E-07   -0.52643E-07  1824   0.357E-03
   1 F= -.10528427E+02 E0= -.10528427E+02  d E =-.636791E-11
