 vasp.5.4.4.18Apr17-6-g9f103f2a35 (build Mar 30 2023 15:39:25) complex          
  
 executed on             LinuxIFC date 2023.05.02  16:58:19
 running on   12 total cores
 distrk:  each k-point on   12 cores,    1 groups
 distr:  one band on NCORES_PER_BAND=   1 cores,   12 groups


--------------------------------------------------------------------------------------------------------


 INCAR:
 POTCAR:    PAW_PBE Si 05Jan2001                  

 ----------------------------------------------------------------------------- 
|                                                                             |
|           W    W    AA    RRRRR   N    N  II  N    N   GGGG   !!!           |
|           W    W   A  A   R    R  NN   N  II  NN   N  G    G  !!!           |
|           W    W  A    A  R    R  N N  N  II  N N  N  G       !!!           |
|           W WW W  AAAAAA  RRRRR   N  N N  II  N  N N  G  GGG   !            |
|           WW  WW  A    A  R   R   N   NN  II  N   NN  G    G                |
|           W    W  A    A  R    R  N    N  II  N    N   GGGG   !!!           |
|                                                                             |
|      For optimal performance we recommend to set                            |
|        NCORE= 4 - approx SQRT( number of cores)                             |
|      NCORE specifies how many cores store one orbital (NPAR=cpu/NCORE).     |
|      This setting can  greatly improve the performance of VASP for DFT.     |
|      The default,   NCORE=1            might be grossly inefficient         |
|      on modern multi-core architectures or massively parallel machines.     |
|      Do your own testing !!!!                                               |
|      Unfortunately you need to use the default for GW and RPA calculations. |
|      (for HF NCORE is supported but not extensively tested yet)             |
|                                                                             |
 ----------------------------------------------------------------------------- 

 POTCAR:    PAW_PBE Si 05Jan2001                  
   SHA256 =  79d9987ad8750f624c4d6acb2a16d13abf6a777132adc04dc6c8399be72b42bb Si
   COPYR  = (c) Copyright 05Jan2001 Georg Kresse                                
   COPYR  = This file is part of the software VASP. Any use, copying, and all ot
   COPYR  = If you do not have a valid VASP license, you may not use, copy or di
   VRHFIN =Si: s2p2                                                             
   LEXCH  = PE                                                                  
   EATOM  =   103.0669 eV,    7.5752 Ry                                         
                                                                                
   TITEL  = PAW_PBE Si 05Jan2001                                                
   LULTRA =        F    use ultrasoft PP ?                                      
   IUNSCR =        1    unscreen: 0-lin 1-nonlin 2-no                           
   RPACOR =    1.500    partial core radius                                     
   POMASS =   28.085; ZVAL   =    4.000    mass and valenz                      
   RCORE  =    1.900    outmost cutoff radius                                   
   RWIGS  =    2.480; RWIGS  =    1.312    wigner-seitz radius (au A)           
   ENMAX  =  245.345; ENMIN  =  184.009 eV                                      
   ICORE  =        2    local potential                                         
   LCOR   =        T    correct aug charges                                     
   LPAW   =        T    paw PP                                                  
   EAUG   =  322.069                                                            
   DEXC   =    0.000                                                            
   RMAX   =    1.950    core radius for proj-oper                               
   RAUG   =    1.300    factor for augmentation sphere                          
   RDEP   =    1.993    radius for radial grids                                 
   RDEPT  =    1.837    core radius for aug-charge                              
                                                                                
   Atomic configuration                                                         
    6 entries                                                                   
     n  l   j            E        occ.                                          
     1  0  0.50     -1785.8828   2.0000                                         
     2  0  0.50      -139.4969   2.0000                                         
     2  1  1.50       -95.5546   6.0000                                         
     3  0  0.50       -10.8127   2.0000                                         
     3  1  0.50        -4.0811   2.0000                                         
     3  2  1.50        -4.0817   0.0000                                         
   Description                                                                  
     l       E           TYP  RCUT    TYP  RCUT                                 
     0    -10.8127223     23  1.900                                             
     0     -7.6451159     23  1.900                                             
     1     -4.0811372     23  1.900                                             
     1      2.4879257     23  1.900                                             
     2     -4.0817478      7  1.900                                             
  local pseudopotential read in
  partial core-charges read in
  partial kinetic energy density read in
  atomic valenz-charges read in
  non local Contribution for L=           0  read in
    real space projection operators read in
  non local Contribution for L=           0  read in
    real space projection operators read in
  non local Contribution for L=           1  read in
    real space projection operators read in
  non local Contribution for L=           1  read in
    real space projection operators read in
    PAW grid and wavefunctions read in
 
   number of l-projection  operators is LMAX  =           4
   number of lm-projection operators is LMMAX =           8
 
  PAW_PBE Si 05Jan2001                  :
 energy of atom  1       EATOM= -103.0669
 kinetic energy error for atom=    0.0061 (will be added to EATOM!!)
 
 
 POSCAR: cd:                                     
  positions in direct lattice
  No initial velocities read in
 exchange correlation table for  LEXCH =        8
   RHO(1)=    0.500       N(1)  =     2000
   RHO(2)=  100.500       N(2)  =     4000
 


--------------------------------------------------------------------------------------------------------


 ion  position               nearest neighbor table
   1  0.875  0.875  0.875-   2 2.51   2 2.51   2 2.51   2 2.51
   2  0.125  0.125  0.125-   1 2.51   1 2.51   1 2.51   1 2.51
 
  LATTYP: Found a face centered cubic cell.
 ALAT       =     5.8000000000
  
  Lattice vectors:
  
 A1 = (   0.0000000000,   2.9000000000,   2.9000000000)
 A2 = (   2.9000000000,   0.0000000000,   2.9000000000)
 A3 = (   2.9000000000,   2.9000000000,   0.0000000000)


Analysis of symmetry for initial positions (statically):
=====================================================================
 Subroutine PRICEL returns:
 Original cell was already a primitive cell.
 

 Routine SETGRP: Setting up the symmetry group for a 
 face centered cubic supercell.


 Subroutine GETGRP returns: Found 48 space group operations
 (whereof 12 operations were pure point group operations)
 out of a pool of 48 trial point group operations.


The static configuration has the point symmetry D_3d.
 The point group associated with its full space group is O_h .


Analysis of symmetry for dynamics (positions and initial velocities):
=====================================================================
 Subroutine PRICEL returns:
 Original cell was already a primitive cell.
 

 Routine SETGRP: Setting up the symmetry group for a 
 face centered cubic supercell.


 Subroutine GETGRP returns: Found 48 space group operations
 (whereof 12 operations were pure point group operations)
 out of a pool of 48 trial point group operations.


The dynamic configuration has the point symmetry D_3d.
 The point group associated with its full space group is O_h .


 Subroutine INISYM returns: Found 48 space group operations
 (whereof 12 operations are pure point group operations),
 and found     1 'primitive' translations

 
 
 KPOINTS: k-points                                

Automatic generation of k-mesh.
Space group operators:
 irot       det(A)        alpha          n_x          n_y          n_z        tau_x        tau_y        tau_z
    1     1.000000     0.000000     1.000000     0.000000     0.000000     0.000000     0.000000     0.000000
    2    -1.000000     0.000000     1.000000     0.000000     0.000000     0.000000     0.000000     0.000000
    3     1.000000   120.000000    -0.577350    -0.577350    -0.577350     0.000000     0.000000     0.000000
    4    -1.000000   120.000000    -0.577350    -0.577350    -0.577350     0.000000     0.000000     0.000000
    5     1.000000   120.000000     0.577350     0.577350     0.577350     0.000000     0.000000     0.000000
    6    -1.000000   120.000000     0.577350     0.577350     0.577350     0.000000     0.000000     0.000000
    7     1.000000   180.000000     0.000000    -0.707107     0.707107     0.000000     0.000000     0.000000
    8    -1.000000   180.000000     0.000000    -0.707107     0.707107     0.000000     0.000000     0.000000
    9     1.000000   180.000000     0.707107    -0.707107     0.000000     0.000000     0.000000     0.000000
   10    -1.000000   180.000000     0.707107    -0.707107     0.000000     0.000000     0.000000     0.000000
   11     1.000000   180.000000     0.707107     0.000000    -0.707107     0.000000     0.000000     0.000000
   12    -1.000000   180.000000     0.707107     0.000000    -0.707107     0.000000     0.000000     0.000000
   13     1.000000    90.000000     0.000000     0.000000    -1.000000     0.500000     0.000000     0.000000
   14    -1.000000    90.000000     0.000000     0.000000    -1.000000     0.500000     0.000000     0.000000
   15     1.000000   180.000000     0.000000     0.707107     0.707107     0.500000     0.000000     0.000000
   16    -1.000000   180.000000     0.000000     0.707107     0.707107     0.500000     0.000000     0.000000
   17     1.000000    90.000000     0.000000     1.000000     0.000000     0.500000     0.000000     0.000000
   18    -1.000000    90.000000     0.000000     1.000000     0.000000     0.500000     0.000000     0.000000
   19     1.000000   180.000000     0.000000     0.000000     1.000000     0.000000     0.000000     0.500000
   20    -1.000000   180.000000     0.000000     0.000000     1.000000     0.000000     0.000000     0.500000
   21     1.000000   120.000000    -0.577350     0.577350     0.577350     0.000000     0.000000     0.500000
   22    -1.000000   120.000000    -0.577350     0.577350     0.577350     0.000000     0.000000     0.500000
   23     1.000000   120.000000    -0.577350     0.577350    -0.577350     0.000000     0.000000     0.500000
   24    -1.000000   120.000000    -0.577350     0.577350    -0.577350     0.000000     0.000000     0.500000
   25     1.000000    90.000000     0.000000     0.000000     1.000000     0.000000     0.500000     0.000000
   26    -1.000000    90.000000     0.000000     0.000000     1.000000     0.000000     0.500000     0.000000
   27     1.000000    90.000000    -1.000000     0.000000     0.000000     0.000000     0.500000     0.000000
   28    -1.000000    90.000000    -1.000000     0.000000     0.000000     0.000000     0.500000     0.000000
   29     1.000000   180.000000     0.707107     0.000000     0.707107     0.000000     0.500000     0.000000
   30    -1.000000   180.000000     0.707107     0.000000     0.707107     0.000000     0.500000     0.000000
   31     1.000000   120.000000     0.577350    -0.577350     0.577350     0.500000     0.000000     0.000000
   32    -1.000000   120.000000     0.577350    -0.577350     0.577350     0.500000     0.000000     0.000000
   33     1.000000   120.000000    -0.577350    -0.577350     0.577350     0.500000     0.000000     0.000000
   34    -1.000000   120.000000    -0.577350    -0.577350     0.577350     0.500000     0.000000     0.000000
   35     1.000000   180.000000     1.000000     0.000000     0.000000     0.500000     0.000000     0.000000
   36    -1.000000   180.000000     1.000000     0.000000     0.000000     0.500000     0.000000     0.000000
   37     1.000000    90.000000     0.000000    -1.000000     0.000000     0.000000     0.000000     0.500000
   38    -1.000000    90.000000     0.000000    -1.000000     0.000000     0.000000     0.000000     0.500000
   39     1.000000   180.000000     0.707107     0.707107     0.000000     0.000000     0.000000     0.500000
   40    -1.000000   180.000000     0.707107     0.707107     0.000000     0.000000     0.000000     0.500000
   41     1.000000    90.000000     1.000000     0.000000     0.000000     0.000000     0.000000     0.500000
   42    -1.000000    90.000000     1.000000     0.000000     0.000000     0.000000     0.000000     0.500000
   43     1.000000   120.000000     0.577350    -0.577350    -0.577350     0.000000     0.500000     0.000000
   44    -1.000000   120.000000     0.577350    -0.577350    -0.577350     0.000000     0.500000     0.000000
   45     1.000000   180.000000     0.000000     1.000000     0.000000     0.000000     0.500000     0.000000
   46    -1.000000   180.000000     0.000000     1.000000     0.000000     0.000000     0.500000     0.000000
   47     1.000000   120.000000     0.577350     0.577350    -0.577350     0.000000     0.500000     0.000000
   48    -1.000000   120.000000     0.577350     0.577350    -0.577350     0.000000     0.500000     0.000000
 
 Subroutine IBZKPT returns following result:
 ===========================================
 
 Found     56 irreducible k-points:
 
 Following reciprocal coordinates:
            Coordinates               Weight
  0.000000  0.000000  0.000000      1.000000
  0.090909  0.000000  0.000000      8.000000
  0.181818  0.000000  0.000000      8.000000
  0.272727  0.000000  0.000000      8.000000
  0.363636  0.000000  0.000000      8.000000
  0.454545  0.000000  0.000000      8.000000
  0.090909  0.090909  0.000000      6.000000
  0.181818  0.090909  0.000000     24.000000
  0.272727  0.090909  0.000000     24.000000
  0.363636  0.090909  0.000000     24.000000
  0.454545  0.090909  0.000000     24.000000
 -0.454545  0.090909  0.000000     24.000000
 -0.363636  0.090909  0.000000     24.000000
 -0.272727  0.090909  0.000000     24.000000
 -0.181818  0.090909  0.000000     24.000000
 -0.090909  0.090909  0.000000     12.000000
  0.181818  0.181818  0.000000      6.000000
  0.272727  0.181818  0.000000     24.000000
  0.363636  0.181818  0.000000     24.000000
  0.454545  0.181818  0.000000     24.000000
 -0.454545  0.181818  0.000000     24.000000
 -0.363636  0.181818  0.000000     24.000000
 -0.272727  0.181818  0.000000     24.000000
 -0.181818  0.181818  0.000000     12.000000
  0.272727  0.272727  0.000000      6.000000
  0.363636  0.272727  0.000000     24.000000
  0.454545  0.272727  0.000000     24.000000
 -0.454545  0.272727  0.000000     24.000000
 -0.363636  0.272727  0.000000     24.000000
 -0.272727  0.272727  0.000000     12.000000
  0.363636  0.363636  0.000000      6.000000
  0.454545  0.363636  0.000000     24.000000
 -0.454545  0.363636  0.000000     24.000000
 -0.363636  0.363636  0.000000     12.000000
  0.454545  0.454545  0.000000      6.000000
 -0.454545  0.454545  0.000000     12.000000
  0.272727  0.181818  0.090909     24.000000
  0.363636  0.181818  0.090909     48.000000
  0.454545  0.181818  0.090909     48.000000
 -0.454545  0.181818  0.090909     48.000000
  0.363636  0.272727  0.090909     24.000000
  0.454545  0.272727  0.090909     48.000000
 -0.454545  0.272727  0.090909     48.000000
 -0.363636  0.272727  0.090909     48.000000
 -0.272727  0.272727  0.090909     48.000000
 -0.181818  0.272727  0.090909     24.000000
  0.454545  0.363636  0.090909     24.000000
 -0.454545  0.363636  0.090909     48.000000
 -0.363636  0.363636  0.090909     48.000000
 -0.272727  0.363636  0.090909     24.000000
 -0.454545  0.454545  0.090909     24.000000
 -0.363636  0.454545  0.090909     24.000000
 -0.454545  0.363636  0.181818     24.000000
 -0.363636  0.363636  0.181818     48.000000
 -0.363636  0.454545  0.181818     24.000000
 -0.272727  0.454545  0.181818     24.000000
 
 Following cartesian coordinates:
            Coordinates               Weight
  0.000000  0.000000  0.000000      1.000000
 -0.090909  0.090909  0.090909      8.000000
 -0.181818  0.181818  0.181818      8.000000
 -0.272727  0.272727  0.272727      8.000000
 -0.363636  0.363636  0.363636      8.000000
 -0.454545  0.454545  0.454545      8.000000
  0.000000  0.000000  0.181818      6.000000
 -0.090909  0.090909  0.272727     24.000000
 -0.181818  0.181818  0.363636     24.000000
 -0.272727  0.272727  0.454545     24.000000
 -0.363636  0.363636  0.545455     24.000000
  0.545455 -0.545455 -0.363636     24.000000
  0.454545 -0.454545 -0.272727     24.000000
  0.363636 -0.363636 -0.181818     24.000000
  0.272727 -0.272727 -0.090909     24.000000
  0.181818 -0.181818  0.000000     12.000000
  0.000000  0.000000  0.363636      6.000000
 -0.090909  0.090909  0.454545     24.000000
 -0.181818  0.181818  0.545455     24.000000
 -0.272727  0.272727  0.636364     24.000000
  0.636364 -0.636364 -0.272727     24.000000
  0.545455 -0.545455 -0.181818     24.000000
  0.454545 -0.454545 -0.090909     24.000000
  0.363636 -0.363636  0.000000     12.000000
  0.000000  0.000000  0.545455      6.000000
 -0.090909  0.090909  0.636364     24.000000
 -0.181818  0.181818  0.727273     24.000000
  0.727273 -0.727273 -0.181818     24.000000
  0.636364 -0.636364 -0.090909     24.000000
  0.545455 -0.545455  0.000000     12.000000
  0.000000  0.000000  0.727273      6.000000
 -0.090909  0.090909  0.818182     24.000000
  0.818182 -0.818182 -0.090909     24.000000
  0.727273 -0.727273  0.000000     12.000000
  0.000000  0.000000  0.909091      6.000000
  0.909091 -0.909091  0.000000     12.000000
  0.000000  0.181818  0.363636     24.000000
 -0.090909  0.272727  0.454545     48.000000
 -0.181818  0.363636  0.545455     48.000000
  0.727273 -0.545455 -0.363636     48.000000
  0.000000  0.181818  0.545455     24.000000
 -0.090909  0.272727  0.636364     48.000000
  0.818182 -0.636364 -0.272727     48.000000
  0.727273 -0.545455 -0.181818     48.000000
  0.636364 -0.454545 -0.090909     48.000000
  0.545455 -0.363636  0.000000     24.000000
  0.000000  0.181818  0.727273     24.000000
  0.909091 -0.727273 -0.181818     48.000000
  0.818182 -0.636364 -0.090909     48.000000
  0.727273 -0.545455 -0.000000     24.000000
  1.000000 -0.818182 -0.090909     24.000000
  0.909091 -0.727273  0.000000     24.000000
  1.000000 -0.636364 -0.272727     24.000000
  0.909091 -0.545455 -0.181818     48.000000
  1.000000 -0.636364 -0.090909     24.000000
  0.909091 -0.545455 -0.000000     24.000000
 


--------------------------------------------------------------------------------------------------------




 Dimension of arrays:
   k-points           NKPTS =     56   k-points in BZ     NKDIM =     56   number of bands    NBANDS=     12
   number of dos      NEDOS =    301   number of ions     NIONS =      2
   non local maximal  LDIM  =      4   non local SUM 2l+1 LMDIM =      8
   total plane-waves  NPLWV =  13824
   max r-space proj   IRMAX =      1   max aug-charges    IRDMAX=   9674
   dimension x,y,z NGX =    24 NGY =   24 NGZ =   24
   dimension x,y,z NGXF=    48 NGYF=   48 NGZF=   48
   support grid    NGXF=    48 NGYF=   48 NGZF=   48
   ions per type =               2
   NGX,Y,Z   is equivalent  to a cutoff of   9.73,  9.73,  9.73 a.u.
   NGXF,Y,Z  is equivalent  to a cutoff of  19.46, 19.46, 19.46 a.u.

 SYSTEM =  cd Si                                   
 POSCAR =  cd:                                     

 Startparameter for this run:
   NWRITE =      2    write-flag & timer
   PREC   = accura    normal or accurate (medium, high low for compatibility)
   ISTART =      0    job   : 0-new  1-cont  2-samecut
   ICHARG =      2    charge: 1-file 2-atom 10-const
   ISPIN  =      1    spin polarized calculation?
   LNONCOLLINEAR =      F non collinear calculations
   LSORBIT =      F    spin-orbit coupling
   INIWAV =      1    electr: 0-lowe 1-rand  2-diag
   LASPH  =      F    aspherical Exc in radial PAW
   METAGGA=      F    non-selfconsistent MetaGGA calc.

 Electronic Relaxation 1
   ENCUT  =  240.0 eV  17.64 Ry    4.20 a.u.   5.18  5.18  5.18*2*pi/ulx,y,z
   ENINI  =  240.0     initial cutoff
   ENAUG  =  322.1 eV  augmentation charge cutoff
   NELM   =     60;   NELMIN=  2; NELMDL= -5     # of ELM steps 
   EDIFF  = 0.1E-05   stopping-criterion for ELM
   LREAL  =      F    real-space projection
   NLSPLINE    = F    spline interpolate recip. space projectors
   LCOMPAT=      F    compatible to vasp.4.4
   GGA_COMPAT  = T    GGA compatible to vasp.4.4-vasp.4.6
   LMAXPAW     = -100 max onsite density
   LMAXMIX     =    2 max onsite mixed and CHGCAR
   VOSKOWN=      0    Vosko Wilk Nusair interpolation
   ROPT   =    0.00000
 Ionic relaxation
   EDIFFG = -.1E-05   stopping-criterion for IOM
   NSW    =      0    number of steps for IOM
   NBLOCK =      1;   KBLOCK =      1    inner block; outer block 
   IBRION =     -1    ionic relax: 0-MD 1-quasi-New 2-CG
   NFREE  =      0    steps in history (QN), initial steepest desc. (CG)
   ISIF   =      2    stress and relaxation
   IWAVPR =     10    prediction:  0-non 1-charg 2-wave 3-comb
   ISYM   =      2    0-nonsym 1-usesym 2-fastsym
   LCORR  =      T    Harris-Foulkes like correction to forces

   POTIM  = 0.5000    time-step for ionic-motion
   TEIN   =    0.0    initial temperature
   TEBEG  =    0.0;   TEEND  =   0.0 temperature during run
   SMASS  =  -3.00    Nose mass-parameter (am)
   estimated Nose-frequenzy (Omega)   =  0.10E-29 period in steps =****** mass=  -0.384E-27a.u.
   SCALEE = 1.0000    scale energy and forces
   NPACO  =    256;   APACO  = 16.0  distance and # of slots for P.C.
   PSTRESS=    0.0 pullay stress

  Mass of Ions in am
   POMASS =  28.09
  Ionic Valenz
   ZVAL   =   4.00
  Atomic Wigner-Seitz radii
   RWIGS  =  -1.00
  virtual crystal weights 
   VCA    =   1.00
   NELECT =       8.0000    total number of electrons
   NUPDOWN=      -1.0000    fix difference up-down

 DOS related values:
   EMIN   =  10.00;   EMAX   =-10.00  energy-range for DOS
   EFERMI =   0.00
   ISMEAR =     0;   SIGMA  =   0.10  broadening in eV -4-tet -1-fermi 0-gaus

 Electronic relaxation 2 (details)
   IALGO  =     38    algorithm
   LDIAG  =      T    sub-space diagonalisation (order eigenvalues)
   LSUBROT=      F    optimize rotation matrix (better conditioning)
   TURBO    =      0    0=normal 1=particle mesh
   IRESTART =      0    0=no restart 2=restart with 2 vectors
   NREBOOT  =      0    no. of reboots
   NMIN     =      0    reboot dimension
   EREF     =   0.00    reference energy to select bands
   IMIX   =      4    mixing-type and parameters
     AMIX     =   0.40;   BMIX     =  1.00
     AMIX_MAG =   1.60;   BMIX_MAG =  1.00
     AMIN     =   0.10
     WC   =   100.;   INIMIX=   1;  MIXPRE=   1;  MAXMIX= -45

 Intra band minimization:
   WEIMIN = 0.0000     energy-eigenvalue tresh-hold
   EBREAK =  0.21E-08  absolut break condition
   DEPER  =   0.30     relativ break condition  

   TIME   =   0.40     timestep for ELM

  volume/ion in A,a.u.               =      24.39       164.59
  Fermi-wavevector in a.u.,A,eV,Ry     =   0.896114  1.693411 10.925766  0.803021
  Thomas-Fermi vector in A             =   2.018532
 
 Write flags
   LWAVE        =      T    write WAVECAR
   LDOWNSAMPLE  =      F    k-point downsampling of WAVECAR
   LCHARG       =      T    write CHGCAR
   LVTOT        =      F    write LOCPOT, total local potential
   LVHAR        =      F    write LOCPOT, Hartree potential only
   LELF         =      F    write electronic localiz. function (ELF)
   LORBIT       =      0    0 simple, 1 ext, 2 COOP (PROOUT), +10 PAW based schemes


 Dipole corrections
   LMONO  =      F    monopole corrections only (constant potential shift)
   LDIPOL =      F    correct potential (dipole corrections)
   IDIPOL =      0    1-x, 2-y, 3-z, 4-all directions 
   EPSILON=  1.0000000 bulk dielectric constant

 Exchange correlation treatment:
   GGA     =    --    GGA type
   LEXCH   =     8    internal setting for exchange type
   VOSKOWN=      0    Vosko Wilk Nusair interpolation
   LHFCALC =     F    Hartree Fock is set to
   LHFONE  =     F    Hartree Fock one center treatment
   AEXX    =    0.0000 exact exchange contribution

 Linear response parameters
   LEPSILON=     F    determine dielectric tensor
   LRPA    =     F    only Hartree local field effects (RPA)
   LNABLA  =     F    use nabla operator in PAW spheres
   LVEL    =     F    velocity operator in full k-point grid
   LINTERFAST=   F  fast interpolation
   KINTER  =     0    interpolate to denser k-point grid
   CSHIFT  =0.1000    complex shift for real part using Kramers Kronig
   OMEGAMAX=  -1.0    maximum frequency
   DEG_THRESHOLD= 0.2000000E-02 threshold for treating states as degnerate
   RTIME   =   -0.100 relaxation time in fs
  (WPLASMAI=    0.000 imaginary part of plasma frequency in eV, 0.658/RTIME)
   DFIELD  = 0.0000000 0.0000000 0.0000000 field for delta impulse in time
 
 Orbital magnetization related:
   ORBITALMAG=     F  switch on orbital magnetization
   LCHIMAG   =     F  perturbation theory with respect to B field
   DQ        =  0.001000  dq finite difference perturbation B field
   LLRAUG    =     F  two centre corrections for induced B field



--------------------------------------------------------------------------------------------------------


 Static calculation
 charge density and potential will be updated during run
 non-spin polarized calculation
 Variant of blocked Davidson
 Davidson routine will perform the subspace rotation
 perform sub-space diagonalisation
    after iterative eigenvector-optimisation
 modified Broyden-mixing scheme, WC =      100.0
 initial mixing is a Kerker type mixing with AMIX =  0.4000 and BMIX =      1.0000
 Hartree-type preconditioning will be used
 using additional bands            8
 reciprocal scheme for non local part
 use partial core corrections
 calculate Harris-corrections to forces 
   (improved forces if not selfconsistent)
 use gradient corrections 
 use of overlap-Matrix (Vanderbilt PP)
 Gauss-broadening in eV      SIGMA  =   0.10


--------------------------------------------------------------------------------------------------------


  energy-cutoff  :      240.00
  volume of cell :       48.78
      direct lattice vectors                 reciprocal lattice vectors
     0.000000000  2.900000000  2.900000000    -0.172413793  0.172413793  0.172413793
     2.900000000  0.000000000  2.900000000     0.172413793 -0.172413793  0.172413793
     2.900000000  2.900000000  0.000000000     0.172413793  0.172413793 -0.172413793

  length of vectors
     4.101219331  4.101219331  4.101219331     0.298629450  0.298629450  0.298629450


 
 k-points in units of 2pi/SCALE and weight: k-points                                
   0.00000000  0.00000000  0.00000000       0.001
  -0.09090909  0.09090909  0.09090909       0.006
  -0.18181818  0.18181818  0.18181818       0.006
  -0.27272727  0.27272727  0.27272727       0.006
  -0.36363636  0.36363636  0.36363636       0.006
  -0.45454545  0.45454545  0.45454545       0.006
   0.00000000  0.00000000  0.18181818       0.005
  -0.09090909  0.09090909  0.27272727       0.018
  -0.18181818  0.18181818  0.36363636       0.018
  -0.27272727  0.27272727  0.45454545       0.018
  -0.36363636  0.36363636  0.54545455       0.018
   0.54545455 -0.54545455 -0.36363636       0.018
   0.45454545 -0.45454545 -0.27272727       0.018
   0.36363636 -0.36363636 -0.18181818       0.018
   0.27272727 -0.27272727 -0.09090909       0.018
   0.18181818 -0.18181818  0.00000000       0.009
   0.00000000  0.00000000  0.36363636       0.005
  -0.09090909  0.09090909  0.45454545       0.018
  -0.18181818  0.18181818  0.54545455       0.018
  -0.27272727  0.27272727  0.63636364       0.018
   0.63636364 -0.63636364 -0.27272727       0.018
   0.54545455 -0.54545455 -0.18181818       0.018
   0.45454545 -0.45454545 -0.09090909       0.018
   0.36363636 -0.36363636  0.00000000       0.009
   0.00000000  0.00000000  0.54545455       0.005
  -0.09090909  0.09090909  0.63636364       0.018
  -0.18181818  0.18181818  0.72727273       0.018
   0.72727273 -0.72727273 -0.18181818       0.018
   0.63636364 -0.63636364 -0.09090909       0.018
   0.54545455 -0.54545455  0.00000000       0.009
   0.00000000  0.00000000  0.72727273       0.005
  -0.09090909  0.09090909  0.81818182       0.018
   0.81818182 -0.81818182 -0.09090909       0.018
   0.72727273 -0.72727273  0.00000000       0.009
   0.00000000  0.00000000  0.90909091       0.005
   0.90909091 -0.90909091  0.00000000       0.009
   0.00000000  0.18181818  0.36363636       0.018
  -0.09090909  0.27272727  0.45454545       0.036
  -0.18181818  0.36363636  0.54545455       0.036
   0.72727273 -0.54545455 -0.36363636       0.036
   0.00000000  0.18181818  0.54545455       0.018
  -0.09090909  0.27272727  0.63636364       0.036
   0.81818182 -0.63636364 -0.27272727       0.036
   0.72727273 -0.54545455 -0.18181818       0.036
   0.63636364 -0.45454545 -0.09090909       0.036
   0.54545455 -0.36363636  0.00000000       0.018
   0.00000000  0.18181818  0.72727273       0.018
   0.90909091 -0.72727273 -0.18181818       0.036
   0.81818182 -0.63636364 -0.09090909       0.036
   0.72727273 -0.54545455 -0.00000000       0.018
   1.00000000 -0.81818182 -0.09090909       0.018
   0.90909091 -0.72727273  0.00000000       0.018
   1.00000000 -0.63636364 -0.27272727       0.018
   0.90909091 -0.54545455 -0.18181818       0.036
   1.00000000 -0.63636364 -0.09090909       0.018
   0.90909091 -0.54545455 -0.00000000       0.018
 
 k-points in reciprocal lattice and weights: k-points                                
   0.00000000  0.00000000  0.00000000       0.001
   0.09090909  0.00000000  0.00000000       0.006
   0.18181818  0.00000000  0.00000000       0.006
   0.27272727  0.00000000  0.00000000       0.006
   0.36363636  0.00000000  0.00000000       0.006
   0.45454545  0.00000000  0.00000000       0.006
   0.09090909  0.09090909  0.00000000       0.005
   0.18181818  0.09090909  0.00000000       0.018
   0.27272727  0.09090909  0.00000000       0.018
   0.36363636  0.09090909  0.00000000       0.018
   0.45454545  0.09090909  0.00000000       0.018
  -0.45454545  0.09090909  0.00000000       0.018
  -0.36363636  0.09090909  0.00000000       0.018
  -0.27272727  0.09090909  0.00000000       0.018
  -0.18181818  0.09090909  0.00000000       0.018
  -0.09090909  0.09090909  0.00000000       0.009
   0.18181818  0.18181818  0.00000000       0.005
   0.27272727  0.18181818  0.00000000       0.018
   0.36363636  0.18181818  0.00000000       0.018
   0.45454545  0.18181818  0.00000000       0.018
  -0.45454545  0.18181818  0.00000000       0.018
  -0.36363636  0.18181818  0.00000000       0.018
  -0.27272727  0.18181818  0.00000000       0.018
  -0.18181818  0.18181818  0.00000000       0.009
   0.27272727  0.27272727  0.00000000       0.005
   0.36363636  0.27272727  0.00000000       0.018
   0.45454545  0.27272727  0.00000000       0.018
  -0.45454545  0.27272727  0.00000000       0.018
  -0.36363636  0.27272727  0.00000000       0.018
  -0.27272727  0.27272727  0.00000000       0.009
   0.36363636  0.36363636  0.00000000       0.005
   0.45454545  0.36363636  0.00000000       0.018
  -0.45454545  0.36363636  0.00000000       0.018
  -0.36363636  0.36363636  0.00000000       0.009
   0.45454545  0.45454545  0.00000000       0.005
  -0.45454545  0.45454545  0.00000000       0.009
   0.27272727  0.18181818  0.09090909       0.018
   0.36363636  0.18181818  0.09090909       0.036
   0.45454545  0.18181818  0.09090909       0.036
  -0.45454545  0.18181818  0.09090909       0.036
   0.36363636  0.27272727  0.09090909       0.018
   0.45454545  0.27272727  0.09090909       0.036
  -0.45454545  0.27272727  0.09090909       0.036
  -0.36363636  0.27272727  0.09090909       0.036
  -0.27272727  0.27272727  0.09090909       0.036
  -0.18181818  0.27272727  0.09090909       0.018
   0.45454545  0.36363636  0.09090909       0.018
  -0.45454545  0.36363636  0.09090909       0.036
  -0.36363636  0.36363636  0.09090909       0.036
  -0.27272727  0.36363636  0.09090909       0.018
  -0.45454545  0.45454545  0.09090909       0.018
  -0.36363636  0.45454545  0.09090909       0.018
  -0.45454545  0.36363636  0.18181818       0.018
  -0.36363636  0.36363636  0.18181818       0.036
  -0.36363636  0.45454545  0.18181818       0.018
  -0.27272727  0.45454545  0.18181818       0.018
 
 position of ions in fractional coordinates (direct lattice) 
   0.87500000  0.87500000  0.87500000
   0.12500000  0.12500000  0.12500000
 
 position of ions in cartesian coordinates  (Angst):
   5.07500000  5.07500000  5.07500000
   0.72500000  0.72500000  0.72500000
 


--------------------------------------------------------------------------------------------------------


 k-point  1 :   0.0000 0.0000 0.0000  plane waves:     411
 k-point  2 :   0.0909 0.0000 0.0000  plane waves:     405
 k-point  3 :   0.1818 0.0000 0.0000  plane waves:     408
 k-point  4 :   0.2727 0.0000 0.0000  plane waves:     407
 k-point  5 :   0.3636 0.0000 0.0000  plane waves:     413
 k-point  6 :   0.4545 0.0000 0.0000  plane waves:     413
 k-point  7 :   0.0909 0.0909 0.0000  plane waves:     407
 k-point  8 :   0.1818 0.0909 0.0000  plane waves:     407
 k-point  9 :   0.2727 0.0909 0.0000  plane waves:     407
 k-point 10 :   0.3636 0.0909 0.0000  plane waves:     411
 k-point 11 :   0.4545 0.0909 0.0000  plane waves:     414
 k-point 12 :  -0.4545 0.0909 0.0000  plane waves:     408
 k-point 13 :  -0.3636 0.0909 0.0000  plane waves:     411
 k-point 14 :  -0.2727 0.0909 0.0000  plane waves:     405
 k-point 15 :  -0.1818 0.0909 0.0000  plane waves:     404
 k-point 16 :  -0.0909 0.0909 0.0000  plane waves:     407
 k-point 17 :   0.1818 0.1818 0.0000  plane waves:     407
 k-point 18 :   0.2727 0.1818 0.0000  plane waves:     414
 k-point 19 :   0.3636 0.1818 0.0000  plane waves:     415
 k-point 20 :   0.4545 0.1818 0.0000  plane waves:     418
 k-point 21 :  -0.4545 0.1818 0.0000  plane waves:     409
 k-point 22 :  -0.3636 0.1818 0.0000  plane waves:     408
 k-point 23 :  -0.2727 0.1818 0.0000  plane waves:     412
 k-point 24 :  -0.1818 0.1818 0.0000  plane waves:     409
 k-point 25 :   0.2727 0.2727 0.0000  plane waves:     415
 k-point 26 :   0.3636 0.2727 0.0000  plane waves:     417
 k-point 27 :   0.4545 0.2727 0.0000  plane waves:     417
 k-point 28 :  -0.4545 0.2727 0.0000  plane waves:     413
 k-point 29 :  -0.3636 0.2727 0.0000  plane waves:     410
 k-point 30 :  -0.2727 0.2727 0.0000  plane waves:     411
 k-point 31 :   0.3636 0.3636 0.0000  plane waves:     428
 k-point 32 :   0.4545 0.3636 0.0000  plane waves:     416
 k-point 33 :  -0.4545 0.3636 0.0000  plane waves:     416
 k-point 34 :  -0.3636 0.3636 0.0000  plane waves:     409
 k-point 35 :   0.4545 0.4545 0.0000  plane waves:     424
 k-point 36 :  -0.4545 0.4545 0.0000  plane waves:     420
 k-point 37 :   0.2727 0.1818 0.0909  plane waves:     406
 k-point 38 :   0.3636 0.1818 0.0909  plane waves:     410
 k-point 39 :   0.4545 0.1818 0.0909  plane waves:     416
 k-point 40 :  -0.4545 0.1818 0.0909  plane waves:     411
 k-point 41 :   0.3636 0.2727 0.0909  plane waves:     413
 k-point 42 :   0.4545 0.2727 0.0909  plane waves:     411
 k-point 43 :  -0.4545 0.2727 0.0909  plane waves:     413
 k-point 44 :  -0.3636 0.2727 0.0909  plane waves:     413
 k-point 45 :  -0.2727 0.2727 0.0909  plane waves:     414
 k-point 46 :  -0.1818 0.2727 0.0909  plane waves:     414
 k-point 47 :   0.4545 0.3636 0.0909  plane waves:     418
 k-point 48 :  -0.4545 0.3636 0.0909  plane waves:     409
 k-point 49 :  -0.3636 0.3636 0.0909  plane waves:     411
 k-point 50 :  -0.2727 0.3636 0.0909  plane waves:     413
 k-point 51 :  -0.4545 0.4545 0.0909  plane waves:     413
 k-point 52 :  -0.3636 0.4545 0.0909  plane waves:     415
 k-point 53 :  -0.4545 0.3636 0.1818  plane waves:     410
 k-point 54 :  -0.3636 0.3636 0.1818  plane waves:     409
 k-point 55 :  -0.3636 0.4545 0.1818  plane waves:     411
 k-point 56 :  -0.2727 0.4545 0.1818  plane waves:     406

 maximum and minimum number of plane-waves per node :       428      404

 maximum number of plane-waves:       428
 maximum index in each direction: 
   IXMAX=    5   IYMAX=    5   IZMAX=    5
   IXMIN=   -5   IYMIN=   -5   IZMIN=   -5


 serial   3D FFT for wavefunctions
 parallel 3D FFT for charge:
    minimum data exchange during FFTs selected (reduces bandwidth)


 total amount of memory used by VASP MPI-rank0    33371. kBytes
=======================================================================

   base      :      30000. kBytes
   nonl-proj :       1562. kBytes
   fftplans  :        379. kBytes
   grid      :       1016. kBytes
   one-center:          6. kBytes
   wavefun   :        408. kBytes
 
     INWAV:  cpu time    0.0000: real time    0.0000
 Broyden mixing: mesh for mixing (old mesh)
   NGX = 11   NGY = 11   NGZ = 11
  (NGX  = 48   NGY  = 48   NGZ  = 48)
  gives a total of   1331 points

 initial charge density was supplied:
 charge density of overlapping atoms calculated
 number of electron       8.0000000 magnetization 
 keeping initial charge density in first step


--------------------------------------------------------------------------------------------------------


 Maximum index for augmentation-charges          794 (set IRDMAX)


--------------------------------------------------------------------------------------------------------


 First call to EWALD:  gamma=   0.485
 Maximum number of real-space cells 3x 3x 3
 Maximum number of reciprocal cells 3x 3x 3

    FEWALD:  cpu time    0.0019: real time    0.0019


--------------------------------------- Iteration      1(   1)  ---------------------------------------


    POTLOK:  cpu time    0.0110: real time    0.0120
    SETDIJ:  cpu time    0.0020: real time    0.0020
     EDDAV:  cpu time    0.2169: real time    0.2170
       DOS:  cpu time    0.0006: real time    0.0006
    --------------------------------------------
      LOOP:  cpu time    0.2306: real time    0.2316

 eigenvalue-minimisations  :  1368
 total energy-change (2. order) :-0.5180222E+01  (-0.2048573E+03)
 number of electron       8.0000000 magnetization 
 augmentation part        8.0000000 magnetization 

 Free energy of the ion-electron system (eV)
  ---------------------------------------------------
  alpha Z        PSCENC =         2.76051751
  Ewald energy   TEWEN  =      -213.98274834
  -Hartree energ DENC   =       -14.16697612
  -exchange      EXHF   =         0.00000000
  -V(xc)+E(xc)   XCENC  =       -19.33179185
  PAW double counting   =       176.24759923     -141.06103558
  entropy T*S    EENTRO =        -0.00143480
  eigenvalues    EBANDS =        -1.76590554
  atomic energy  EATOM  =       206.12155316
  Solvation  Ediel_sol  =         0.00000000
  ---------------------------------------------------
  free energy    TOTEN  =        -5.18022232 eV

  energy without entropy =       -5.17878752  energy(sigma->0) =       -5.17950492


--------------------------------------------------------------------------------------------------------




--------------------------------------- Iteration      1(   2)  ---------------------------------------


     EDDAV:  cpu time    0.3380: real time    0.3383
       DOS:  cpu time    0.0003: real time    0.0003
    --------------------------------------------
      LOOP:  cpu time    0.3383: real time    0.3386

 eigenvalue-minimisations  :  2052
 total energy-change (2. order) :-0.5399256E+01  (-0.5379427E+01)
 number of electron       8.0000000 magnetization 
 augmentation part        8.0000000 magnetization 

 Free energy of the ion-electron system (eV)
  ---------------------------------------------------
  alpha Z        PSCENC =         2.76051751
  Ewald energy   TEWEN  =      -213.98274834
  -Hartree energ DENC   =       -14.16697612
  -exchange      EXHF   =         0.00000000
  -V(xc)+E(xc)   XCENC  =       -19.33179185
  PAW double counting   =       176.24759923     -141.06103558
  entropy T*S    EENTRO =        -0.00000000
  eigenvalues    EBANDS =        -7.16659596
  atomic energy  EATOM  =       206.12155316
  Solvation  Ediel_sol  =         0.00000000
  ---------------------------------------------------
  free energy    TOTEN  =       -10.57947795 eV

  energy without entropy =      -10.57947795  energy(sigma->0) =      -10.57947795


--------------------------------------------------------------------------------------------------------




--------------------------------------- Iteration      1(   3)  ---------------------------------------


     EDDAV:  cpu time    0.2666: real time    0.2669
       DOS:  cpu time    0.0003: real time    0.0003
    --------------------------------------------
      LOOP:  cpu time    0.2669: real time    0.2672

 eigenvalue-minimisations  :  1632
 total energy-change (2. order) :-0.3629263E-01  (-0.3629263E-01)
 number of electron       8.0000000 magnetization 
 augmentation part        8.0000000 magnetization 

 Free energy of the ion-electron system (eV)
  ---------------------------------------------------
  alpha Z        PSCENC =         2.76051751
  Ewald energy   TEWEN  =      -213.98274834
  -Hartree energ DENC   =       -14.16697612
  -exchange      EXHF   =         0.00000000
  -V(xc)+E(xc)   XCENC  =       -19.33179185
  PAW double counting   =       176.24759923     -141.06103558
  entropy T*S    EENTRO =        -0.00000000
  eigenvalues    EBANDS =        -7.20288859
  atomic energy  EATOM  =       206.12155316
  Solvation  Ediel_sol  =         0.00000000
  ---------------------------------------------------
  free energy    TOTEN  =       -10.61577058 eV

  energy without entropy =      -10.61577058  energy(sigma->0) =      -10.61577058


--------------------------------------------------------------------------------------------------------




--------------------------------------- Iteration      1(   4)  ---------------------------------------


     EDDAV:  cpu time    0.3866: real time    0.3869
       DOS:  cpu time    0.0003: real time    0.0003
    --------------------------------------------
      LOOP:  cpu time    0.3869: real time    0.3872

 eigenvalue-minimisations  :  2340
 total energy-change (2. order) :-0.1110696E-03  (-0.1110696E-03)
 number of electron       8.0000000 magnetization 
 augmentation part        8.0000000 magnetization 

 Free energy of the ion-electron system (eV)
  ---------------------------------------------------
  alpha Z        PSCENC =         2.76051751
  Ewald energy   TEWEN  =      -213.98274834
  -Hartree energ DENC   =       -14.16697612
  -exchange      EXHF   =         0.00000000
  -V(xc)+E(xc)   XCENC  =       -19.33179185
  PAW double counting   =       176.24759923     -141.06103558
  entropy T*S    EENTRO =        -0.00000000
  eigenvalues    EBANDS =        -7.20299966
  atomic energy  EATOM  =       206.12155316
  Solvation  Ediel_sol  =         0.00000000
  ---------------------------------------------------
  free energy    TOTEN  =       -10.61588165 eV

  energy without entropy =      -10.61588165  energy(sigma->0) =      -10.61588165


--------------------------------------------------------------------------------------------------------




--------------------------------------- Iteration      1(   5)  ---------------------------------------


     EDDAV:  cpu time    0.2440: real time    0.2443
       DOS:  cpu time    0.0003: real time    0.0003
    CHARGE:  cpu time    0.0193: real time    0.0193
    MIXING:  cpu time    0.0004: real time    0.0004
    --------------------------------------------
      LOOP:  cpu time    0.2640: real time    0.2644

 eigenvalue-minimisations  :  1608
 total energy-change (2. order) :-0.1009647E-07  (-0.1008207E-07)
 number of electron       7.9999996 magnetization 
 augmentation part       -0.4645449 magnetization 

 Broyden mixing:
  rms(total) = 0.41803E+00    rms(broyden)= 0.41802E+00
  rms(prec ) = 0.77136E+00
  weight for this iteration     100.00

 Free energy of the ion-electron system (eV)
  ---------------------------------------------------
  alpha Z        PSCENC =         2.76051751
  Ewald energy   TEWEN  =      -213.98274834
  -Hartree energ DENC   =       -14.16697612
  -exchange      EXHF   =         0.00000000
  -V(xc)+E(xc)   XCENC  =       -19.33179185
  PAW double counting   =       176.24759923     -141.06103558
  entropy T*S    EENTRO =        -0.00000000
  eigenvalues    EBANDS =        -7.20299967
  atomic energy  EATOM  =       206.12155316
  Solvation  Ediel_sol  =         0.00000000
  ---------------------------------------------------
  free energy    TOTEN  =       -10.61588166 eV

  energy without entropy =      -10.61588166  energy(sigma->0) =      -10.61588166


--------------------------------------------------------------------------------------------------------




--------------------------------------- Iteration      1(   6)  ---------------------------------------


    POTLOK:  cpu time    0.0078: real time    0.0078
    SETDIJ:  cpu time    0.0016: real time    0.0018
     EDDAV:  cpu time    0.2630: real time    0.2636
       DOS:  cpu time    0.0003: real time    0.0003
    CHARGE:  cpu time    0.0191: real time    0.0191
    MIXING:  cpu time    0.0004: real time    0.0004
    --------------------------------------------
      LOOP:  cpu time    0.2923: real time    0.2929

 eigenvalue-minimisations  :  1716
 total energy-change (2. order) : 0.5737480E-01  (-0.3138017E-02)
 number of electron       7.9999997 magnetization 
 augmentation part       -0.4615059 magnetization 

 Broyden mixing:
  rms(total) = 0.25055E+00    rms(broyden)= 0.25055E+00
  rms(prec ) = 0.46789E+00
  weight for this iteration     100.00

 eigenvalues of (default mixing * dielectric matrix)
  average eigenvalue GAMMA=   2.4873
  2.4873

 Free energy of the ion-electron system (eV)
  ---------------------------------------------------
  alpha Z        PSCENC =         2.76051751
  Ewald energy   TEWEN  =      -213.98274834
  -Hartree energ DENC   =       -15.31158785
  -exchange      EXHF   =         0.00000000
  -V(xc)+E(xc)   XCENC  =       -19.15212098
  PAW double counting   =       340.05846383     -304.91941891
  entropy T*S    EENTRO =        -0.00000000
  eigenvalues    EBANDS =        -6.13316527
  atomic energy  EATOM  =       206.12155316
  Solvation  Ediel_sol  =         0.00000000
  ---------------------------------------------------
  free energy    TOTEN  =       -10.55850686 eV

  energy without entropy =      -10.55850686  energy(sigma->0) =      -10.55850686


--------------------------------------------------------------------------------------------------------




--------------------------------------- Iteration      1(   7)  ---------------------------------------


    POTLOK:  cpu time    0.0076: real time    0.0077
    SETDIJ:  cpu time    0.0017: real time    0.0017
     EDDAV:  cpu time    0.2697: real time    0.2700
       DOS:  cpu time    0.0003: real time    0.0003
    CHARGE:  cpu time    0.0191: real time    0.0191
    MIXING:  cpu time    0.0003: real time    0.0003
    --------------------------------------------
      LOOP:  cpu time    0.2988: real time    0.2991

 eigenvalue-minimisations  :  1764
 total energy-change (2. order) : 0.3164164E-01  (-0.7112979E-02)
 number of electron       7.9999997 magnetization 
 augmentation part       -0.4580889 magnetization 

 Broyden mixing:
  rms(total) = 0.17145E-01    rms(broyden)= 0.17145E-01
  rms(prec ) = 0.30921E-01
  weight for this iteration     100.00

 eigenvalues of (default mixing * dielectric matrix)
  average eigenvalue GAMMA=   2.1763
  2.1763  2.1763

 Free energy of the ion-electron system (eV)
  ---------------------------------------------------
  alpha Z        PSCENC =         2.76051751
  Ewald energy   TEWEN  =      -213.98274834
  -Hartree energ DENC   =       -17.31662667
  -exchange      EXHF   =         0.00000000
  -V(xc)+E(xc)   XCENC  =       -18.83294143
  PAW double counting   =       710.84313452     -675.76251012
  entropy T*S    EENTRO =        -0.00000000
  eigenvalues    EBANDS =        -4.35724385
  atomic energy  EATOM  =       206.12155316
  Solvation  Ediel_sol  =         0.00000000
  ---------------------------------------------------
  free energy    TOTEN  =       -10.52686522 eV

  energy without entropy =      -10.52686522  energy(sigma->0) =      -10.52686522


--------------------------------------------------------------------------------------------------------




--------------------------------------- Iteration      1(   8)  ---------------------------------------


    POTLOK:  cpu time    0.0076: real time    0.0077
    SETDIJ:  cpu time    0.0017: real time    0.0017
     EDDAV:  cpu time    0.2404: real time    0.2405
       DOS:  cpu time    0.0003: real time    0.0003
    CHARGE:  cpu time    0.0191: real time    0.0191
    MIXING:  cpu time    0.0004: real time    0.0004
    --------------------------------------------
      LOOP:  cpu time    0.2695: real time    0.2697

 eigenvalue-minimisations  :  1608
 total energy-change (2. order) :-0.1334596E-02  (-0.2281280E-03)
 number of electron       7.9999997 magnetization 
 augmentation part       -0.4584302 magnetization 

 Broyden mixing:
  rms(total) = 0.55617E-02    rms(broyden)= 0.55616E-02
  rms(prec ) = 0.12074E-01
  weight for this iteration     100.00

 eigenvalues of (default mixing * dielectric matrix)
  average eigenvalue GAMMA=   2.2117
  1.3053  3.0813  2.2486

 Free energy of the ion-electron system (eV)
  ---------------------------------------------------
  alpha Z        PSCENC =         2.76051751
  Ewald energy   TEWEN  =      -213.98274834
  -Hartree energ DENC   =       -17.29010549
  -exchange      EXHF   =         0.00000000
  -V(xc)+E(xc)   XCENC  =       -18.83430373
  PAW double counting   =       682.06608372     -646.96718593
  entropy T*S    EENTRO =        -0.00000000
  eigenvalues    EBANDS =        -4.40201070
  atomic energy  EATOM  =       206.12155316
  Solvation  Ediel_sol  =         0.00000000
  ---------------------------------------------------
  free energy    TOTEN  =       -10.52819981 eV

  energy without entropy =      -10.52819981  energy(sigma->0) =      -10.52819981


--------------------------------------------------------------------------------------------------------




--------------------------------------- Iteration      1(   9)  ---------------------------------------


    POTLOK:  cpu time    0.0076: real time    0.0077
    SETDIJ:  cpu time    0.0017: real time    0.0017
     EDDAV:  cpu time    0.3291: real time    0.3293
       DOS:  cpu time    0.0003: real time    0.0003
    CHARGE:  cpu time    0.0191: real time    0.0191
    MIXING:  cpu time    0.0003: real time    0.0003
    --------------------------------------------
      LOOP:  cpu time    0.3580: real time    0.3584

 eigenvalue-minimisations  :  2112
 total energy-change (2. order) :-0.2150977E-03  (-0.2650828E-04)
 number of electron       7.9999997 magnetization 
 augmentation part       -0.4585142 magnetization 

 Broyden mixing:
  rms(total) = 0.29147E-02    rms(broyden)= 0.29146E-02
  rms(prec ) = 0.42453E-02
  weight for this iteration     100.00

 eigenvalues of (default mixing * dielectric matrix)
  average eigenvalue GAMMA=   2.0492
  3.0006  2.3582  1.9407  0.8973

 Free energy of the ion-electron system (eV)
  ---------------------------------------------------
  alpha Z        PSCENC =         2.76051751
  Ewald energy   TEWEN  =      -213.98274834
  -Hartree energ DENC   =       -17.34973431
  -exchange      EXHF   =         0.00000000
  -V(xc)+E(xc)   XCENC  =       -18.82463162
  PAW double counting   =       682.74608019     -647.64381698
  entropy T*S    EENTRO =        -0.00000000
  eigenvalues    EBANDS =        -4.35563451
  atomic energy  EATOM  =       206.12155316
  Solvation  Ediel_sol  =         0.00000000
  ---------------------------------------------------
  free energy    TOTEN  =       -10.52841491 eV

  energy without entropy =      -10.52841491  energy(sigma->0) =      -10.52841491


--------------------------------------------------------------------------------------------------------




--------------------------------------- Iteration      1(  10)  ---------------------------------------


    POTLOK:  cpu time    0.0076: real time    0.0077
    SETDIJ:  cpu time    0.0017: real time    0.0017
     EDDAV:  cpu time    0.2800: real time    0.2801
       DOS:  cpu time    0.0003: real time    0.0003
    CHARGE:  cpu time    0.0191: real time    0.0191
    MIXING:  cpu time    0.0004: real time    0.0004
    --------------------------------------------
      LOOP:  cpu time    0.3090: real time    0.3092

 eigenvalue-minimisations  :  1824
 total energy-change (2. order) :-0.1050656E-04  (-0.1194946E-05)
 number of electron       7.9999997 magnetization 
 augmentation part       -0.4584313 magnetization 

 Broyden mixing:
  rms(total) = 0.32491E-03    rms(broyden)= 0.32490E-03
  rms(prec ) = 0.76317E-03
  weight for this iteration     100.00

 eigenvalues of (default mixing * dielectric matrix)
  average eigenvalue GAMMA=   1.9812
  2.9056  2.7957  2.2064  1.1447  0.8537

 Free energy of the ion-electron system (eV)
  ---------------------------------------------------
  alpha Z        PSCENC =         2.76051751
  Ewald energy   TEWEN  =      -213.98274834
  -Hartree energ DENC   =       -17.35823132
  -exchange      EXHF   =         0.00000000
  -V(xc)+E(xc)   XCENC  =       -18.82456543
  PAW double counting   =       679.62365870     -644.52300774
  entropy T*S    EENTRO =        -0.00000000
  eigenvalues    EBANDS =        -4.34560196
  atomic energy  EATOM  =       206.12155316
  Solvation  Ediel_sol  =         0.00000000
  ---------------------------------------------------
  free energy    TOTEN  =       -10.52842542 eV

  energy without entropy =      -10.52842542  energy(sigma->0) =      -10.52842542


--------------------------------------------------------------------------------------------------------




--------------------------------------- Iteration      1(  11)  ---------------------------------------


    POTLOK:  cpu time    0.0076: real time    0.0077
    SETDIJ:  cpu time    0.0016: real time    0.0017
     EDDAV:  cpu time    0.3272: real time    0.3273
       DOS:  cpu time    0.0003: real time    0.0003
    CHARGE:  cpu time    0.0191: real time    0.0191
    MIXING:  cpu time    0.0004: real time    0.0004
    --------------------------------------------
      LOOP:  cpu time    0.3562: real time    0.3565

 eigenvalue-minimisations  :  2088
 total energy-change (2. order) :-0.1330562E-05  (-0.1180511E-06)
 number of electron       7.9999997 magnetization 
 augmentation part       -0.4584237 magnetization 

 Broyden mixing:
  rms(total) = 0.37916E-03    rms(broyden)= 0.37916E-03
  rms(prec ) = 0.43208E-03
  weight for this iteration     100.00

 eigenvalues of (default mixing * dielectric matrix)
  average eigenvalue GAMMA=   2.2149
  3.3573  3.0538  2.5984  2.3352  0.9945  0.9502

 Free energy of the ion-electron system (eV)
  ---------------------------------------------------
  alpha Z        PSCENC =         2.76051751
  Ewald energy   TEWEN  =      -213.98274834
  -Hartree energ DENC   =       -17.35864526
  -exchange      EXHF   =         0.00000000
  -V(xc)+E(xc)   XCENC  =       -18.82468555
  PAW double counting   =       678.99721579     -643.89650773
  entropy T*S    EENTRO =        -0.00000000
  eigenvalues    EBANDS =        -4.34512632
  atomic energy  EATOM  =       206.12155316
  Solvation  Ediel_sol  =         0.00000000
  ---------------------------------------------------
  free energy    TOTEN  =       -10.52842675 eV

  energy without entropy =      -10.52842675  energy(sigma->0) =      -10.52842675


--------------------------------------------------------------------------------------------------------




--------------------------------------- Iteration      1(  12)  ---------------------------------------


    POTLOK:  cpu time    0.0075: real time    0.0076
    SETDIJ:  cpu time    0.0017: real time    0.0017
     EDDAV:  cpu time    0.2809: real time    0.2810
       DOS:  cpu time    0.0003: real time    0.0003
    --------------------------------------------
      LOOP:  cpu time    0.2904: real time    0.2907

 eigenvalue-minimisations  :  1824
 total energy-change (2. order) :-0.6141221E-07  (-0.5264319E-07)
 number of electron       7.9999997 magnetization 
 augmentation part       -0.4584237 magnetization 

 Free energy of the ion-electron system (eV)
  ---------------------------------------------------
  alpha Z        PSCENC =         2.76051751
  Ewald energy   TEWEN  =      -213.98274834
  -Hartree energ DENC   =       -17.35977616
  -exchange      EXHF   =         0.00000000
  -V(xc)+E(xc)   XCENC  =       -18.82457710
  PAW double counting   =       679.69602444     -644.59517537
  entropy T*S    EENTRO =        -0.00000000
  eigenvalues    EBANDS =        -4.34424496
  atomic energy  EATOM  =       206.12155316
  Solvation  Ediel_sol  =         0.00000000
  ---------------------------------------------------
  free energy    TOTEN  =       -10.52842681 eV

  energy without entropy =      -10.52842681  energy(sigma->0) =      -10.52842681


--------------------------------------------------------------------------------------------------------




 average (electrostatic) potential at core
  the test charge radii are     0.9892
  (the norm of the test charge is              1.0000)
       1 -85.3239       2 -85.3239
 
 
 
 E-fermi :   4.4212     XC(G=0):  -8.6547     alpha+bet : -9.8341


 k-point     1 :       0.0000    0.0000    0.0000
  band No.  band energies     occupation 
      1      -6.7133      2.00000
      2       4.0109      2.00000
      3       4.0109      2.00000
      4       4.0109      2.00000
      5       5.2599      0.00000
      6       6.4715      0.00000
      7       6.4715      0.00000
      8       6.4715      0.00000
      9      11.2337      0.00000
     10      11.6454      0.00000
     11      11.6454      0.00000
     12      14.6426      0.00000

 k-point     2 :       0.0909    0.0000    0.0000
  band No.  band energies     occupation 
      1      -6.6225      2.00000
      2       2.9431      2.00000
      3       3.8748      2.00000
      4       3.8748      2.00000
      5       5.7157      0.00000
      6       6.6737      0.00000
      7       6.6737      0.00000
      8       6.9441      0.00000
      9      11.3878      0.00000
     10      11.3878      0.00000
     11      11.6221      0.00000
     12      14.3227      0.00000

 k-point     3 :       0.1818    0.0000    0.0000
  band No.  band energies     occupation 
      1      -6.3543      2.00000
      2       1.4333      2.00000
      3       3.5868      2.00000
      4       3.5868      2.00000
      5       5.5539      0.00000
      6       7.0867      0.00000
      7       7.0867      0.00000
      8       8.3246      0.00000
      9      11.0797      0.00000
     10      11.0797      0.00000
     11      12.3717      0.00000
     12      14.0608      0.00000

 k-point     4 :       0.2727    0.0000    0.0000
  band No.  band energies     occupation 
      1      -5.9263      2.00000
      2       0.0045      2.00000
      3       3.3053      2.00000
      4       3.3053      2.00000
      5       5.2527      0.00000
      6       7.3779      0.00000
      7       7.3779      0.00000
      8       9.8271      0.00000
      9      11.2623      0.00000
     10      11.2623      0.00000
     11      12.3633      0.00000
     12      15.0824      0.00000

 k-point     5 :       0.3636    0.0000    0.0000
  band No.  band energies     occupation 
      1      -5.3904      2.00000
      2      -1.2197      2.00000
      3       3.0984      2.00000
      4       3.0984      2.00000
      5       5.0147      0.00000
      6       7.4302      0.00000
      7       7.4302      0.00000
      8      11.1217      0.00000
      9      12.0913      0.00000
     10      12.0913      0.00000
     11      12.2954      0.00000
     12      16.0771      0.00000

 k-point     6 :       0.4545    0.0000    0.0000
  band No.  band energies     occupation 
      1      -4.9199      2.00000
      2      -2.0396      2.00000
      3       2.9920      2.00000
      4       2.9920      2.00000
      5       4.8885      0.00000
      6       7.3916      0.00000
      7       7.3916      0.00000
      8      11.4171      0.00000
      9      13.3770      0.00000
     10      13.4076      0.00000
     11      13.4076      0.00000
     12      15.0547      0.00000

 k-point     7 :       0.0909    0.0909    0.0000
  band No.  band energies     occupation 
      1      -6.5919      2.00000
      2       2.9570      2.00000
      3       3.6215      2.00000
      4       3.6215      2.00000
      5       6.2062      0.00000
      6       6.2701      0.00000
      7       7.0129      0.00000
      8       7.0129      0.00000
      9      10.8814      0.00000
     10      11.7524      0.00000
     11      11.7866      0.00000
     12      14.8675      0.00000

 k-point     8 :       0.1818    0.0909    0.0000
  band No.  band energies     occupation 
      1      -6.3820      2.00000
      2       1.7903      2.00000
      3       3.2897      2.00000
      4       3.3753      2.00000
      5       6.1510      0.00000
      6       6.5207      0.00000
      7       7.5184      0.00000
      8       7.9896      0.00000
      9      10.4705      0.00000
     10      11.7540      0.00000
     11      12.4726      0.00000
     12      14.4982      0.00000

 k-point     9 :       0.2727    0.0909    0.0000
  band No.  band energies     occupation 
      1      -6.0044      2.00000
      2       0.4163      2.00000
      3       3.0129      2.00000
      4       3.0382      2.00000
      5       5.9497      0.00000
      6       6.8958      0.00000
      7       7.8785      0.00000
      8       8.9242      0.00000
      9      10.8395      0.00000
     10      11.8757      0.00000
     11      12.8869      0.00000
     12      14.8455      0.00000

 k-point    10 :       0.3636    0.0909    0.0000
  band No.  band energies     occupation 
      1      -5.4945      2.00000
      2      -0.8491      2.00000
      3       2.7031      2.00000
      4       2.8430      2.00000
      5       5.7030      0.00000
      6       7.1711      0.00000
      7       7.9280      0.00000
      8       9.7281      0.00000
      9      12.0368      0.00000
     10      12.5804      0.00000
     11      12.6488      0.00000
     12      15.8782      0.00000

 k-point    11 :       0.4545    0.0909    0.0000
  band No.  band energies     occupation 
      1      -4.9664      2.00000
      2      -1.8230      2.00000
      3       2.4495      2.00000
      4       2.7964      2.00000
      5       5.5387      0.00000
      6       7.2568      0.00000
      7       7.7946      0.00000
      8      10.7979      0.00000
      9      12.4030      0.00000
     10      13.6299      0.00000
     11      13.8059      0.00000
     12      14.8203      0.00000

 k-point    12 :      -0.4545    0.0909    0.0000
  band No.  band energies     occupation 
      1      -4.7661      2.00000
      2      -2.1352      2.00000
      3       2.3089      2.00000
      4       2.8721      2.00000
      5       5.4893      0.00000
      6       7.3444      0.00000
      7       7.6548      0.00000
      8      11.4968      0.00000
      9      12.6631      0.00000
     10      13.1339      0.00000
     11      13.8506      0.00000
     12      15.2787      0.00000

 k-point    13 :      -0.3636    0.0909    0.0000
  band No.  band energies     occupation 
      1      -5.1316      2.00000
      2      -1.5435      2.00000
      3       2.2978      2.00000
      4       3.0580      2.00000
      5       5.5589      0.00000
      6       7.4918      0.00000
      7       7.5552      0.00000
      8      10.9549      0.00000
      9      11.7335      0.00000
     10      12.5711      0.00000
     11      14.0154      0.00000
     12      14.7673      0.00000

 k-point    14 :      -0.2727    0.0909    0.0000
  band No.  band energies     occupation 
      1      -5.6766      2.00000
      2      -0.4466      2.00000
      3       2.4289      2.00000
      4       3.3301      2.00000
      5       5.7395      0.00000
      6       7.4082      0.00000
      7       7.5885      0.00000
      8       9.8279      0.00000
      9      10.7957      0.00000
     10      12.5355      0.00000
     11      12.8823      0.00000
     12      15.4834      0.00000

 k-point    15 :      -0.1818    0.0909    0.0000
  band No.  band energies     occupation 
      1      -6.1487      2.00000
      2       0.8568      2.00000
      3       2.7179      2.00000
      4       3.6389      2.00000
      5       5.9827      0.00000
      6       7.0883      0.00000
      7       7.3363      0.00000
      8       8.8191      0.00000
      9      10.5106      0.00000
     10      11.7024      0.00000
     11      12.8882      0.00000
     12      14.5415      0.00000

 k-point    16 :      -0.0909    0.0909    0.0000
  band No.  band energies     occupation 
      1      -6.4722      2.00000
      2       2.1308      2.00000
      3       3.2223      2.00000
      4       3.8758      2.00000
      5       6.0619      0.00000
      6       6.7295      0.00000
      7       6.8250      0.00000
      8       7.8258      0.00000
      9      10.8086      0.00000
     10      11.4787      0.00000
     11      12.1801      0.00000
     12      14.5015      0.00000

 k-point    17 :       0.1818    0.1818    0.0000
  band No.  band energies     occupation 
      1      -6.2303      2.00000
      2       1.4958      2.00000
      3       2.9322      2.00000
      4       2.9322      2.00000
      5       5.6691      0.00000
      6       7.1953      0.00000
      7       8.1498      0.00000
      8       8.1498      0.00000
      9      10.1007      0.00000
     10      12.2145      0.00000
     11      13.0272      0.00000
     12      15.5132      0.00000

 k-point    18 :       0.2727    0.1818    0.0000
  band No.  band energies     occupation 
      1      -5.9066      2.00000
      2       0.5307      2.00000
      3       2.5435      2.00000
      4       2.6393      2.00000
      5       5.7080      0.00000
      6       7.1423      0.00000
      7       8.5302      0.00000
      8       8.6780      0.00000
      9      10.7332      0.00000
     10      12.4725      0.00000
     11      13.7558      0.00000
     12      15.4129      0.00000

 k-point    19 :       0.3636    0.1818    0.0000
  band No.  band energies     occupation 
      1      -5.4344      2.00000
      2      -0.5886      2.00000
      3       2.0662      2.00000
      4       2.4652      2.00000
      5       5.8828      0.00000
      6       7.4411      0.00000
      7       8.4785      0.00000
      8       8.8474      0.00000
      9      12.1990      0.00000
     10      13.0988      0.00000
     11      13.7377      0.00000
     12      16.0197      0.00000

 k-point    20 :       0.4545    0.1818    0.0000
  band No.  band energies     occupation 
      1      -4.8872      2.00000
      2      -1.5890      2.00000
      3       1.6516      2.00000
      4       2.4285      2.00000
      5       5.8766      0.00000
      6       7.8019      0.00000
      7       8.7150      0.00000
      8       9.0154      0.00000
      9      13.1618      0.00000
     10      13.8826      0.00000
     11      14.2558      0.00000
     12      14.7279      0.00000

 k-point    21 :      -0.4545    0.1818    0.0000
  band No.  band energies     occupation 
      1      -4.5213      2.00000
      2      -2.1393      2.00000
      3       1.3740      2.00000
      4       2.5303      2.00000
      5       5.9054      0.00000
      6       7.8334      0.00000
      7       8.4933      0.00000
      8      10.3274      0.00000
      9      12.1962      0.00000
     10      13.0117      0.00000
     11      14.6100      0.00000
     12      15.5207      0.00000

 k-point    22 :      -0.3636    0.1818    0.0000
  band No.  band energies     occupation 
      1      -4.7374      2.00000
      2      -1.8208      2.00000
      3       1.2699      2.00000
      4       2.7558      2.00000
      5       6.0366      0.00000
      6       7.9036      0.00000
      7       8.2681      0.00000
      8      10.7779      0.00000
      9      11.5580      0.00000
     10      11.9008      0.00000
     11      14.5812      0.00000
     12      16.1020      0.00000

 k-point    23 :      -0.2727    0.1818    0.0000
  band No.  band energies     occupation 
      1      -5.2705      2.00000
      2      -0.9291      2.00000
      3       1.3862      2.00000
      4       3.0728      2.00000
      5       6.2388      0.00000
      6       7.9669      0.00000
      7       8.0002      0.00000
      8       9.5201      0.00000
      9      10.5741      0.00000
     10      13.1630      0.00000
     11      14.3771      0.00000
     12      15.2821      0.00000

 k-point    24 :      -0.1818    0.1818    0.0000
  band No.  band energies     occupation 
      1      -5.7764      2.00000
      2       0.0653      2.00000
      3       1.8312      2.00000
      4       3.4135      2.00000
      5       6.3614      0.00000
      6       7.4962      0.00000
      7       7.6964      0.00000
      8       8.9452      0.00000
      9      10.2602      0.00000
     10      12.8621      0.00000
     11      13.5872      0.00000
     12      15.0517      0.00000

 k-point    25 :       0.2727    0.2727    0.0000
  band No.  band energies     occupation 
      1      -5.6362      2.00000
      2       0.0503      2.00000
      3       2.3219      2.00000
      4       2.3219      2.00000
      5       5.1866      0.00000
      6       6.7446      0.00000
      7       9.4839      0.00000
      8       9.4839      0.00000
      9      10.9160      0.00000
     10      12.9116      0.00000
     11      14.6104      0.00000
     12      16.3857      0.00000

 k-point    26 :       0.3636    0.2727    0.0000
  band No.  band energies     occupation 
      1      -5.2083      2.00000
      2      -0.7583      2.00000
      3       1.8826      2.00000
      4       2.1223      2.00000
      5       5.3067      0.00000
      6       6.5473      0.00000
      7       9.6430      0.00000
      8       9.9437      0.00000
      9      12.1980      0.00000
     10      13.5079      0.00000
     11      14.8851      0.00000
     12      16.3008      0.00000

 k-point    27 :       0.4545    0.2727    0.0000
  band No.  band energies     occupation 
      1      -4.6687      2.00000
      2      -1.6050      2.00000
      3       1.2885      2.00000
      4       2.0649      2.00000
      5       5.5031      0.00000
      6       7.1662      0.00000
      7       9.4461      0.00000
      8       9.9330      0.00000
      9      13.6448      0.00000
     10      14.1805      0.00000
     11      14.5804      0.00000
     12      14.8109      0.00000

 k-point    28 :      -0.4545    0.2727    0.0000
  band No.  band energies     occupation 
      1      -4.1901      2.00000
      2      -2.2360      2.00000
      3       0.8177      2.00000
      4       2.1541      2.00000
      5       5.6075      0.00000
      6       8.4489      0.00000
      7       9.2861      0.00000
      8       9.6864      0.00000
      9      12.3453      0.00000
     10      13.0535      0.00000
     11      15.6498      0.00000
     12      16.1516      0.00000

 k-point    29 :      -0.3636    0.2727    0.0000
  band No.  band energies     occupation 
      1      -4.2432      2.00000
      2      -2.1655      2.00000
      3       0.5988      2.00000
      4       2.3787      2.00000
      5       5.8094      0.00000
      6       9.1755      0.00000
      7       9.3293      0.00000
      8      10.0844      0.00000
      9      10.7455      0.00000
     10      11.6187      0.00000
     11      16.1233      0.00000
     12      16.9817      0.00000

 k-point    30 :      -0.2727    0.2727    0.0000
  band No.  band energies     occupation 
      1      -4.7477      2.00000
      2      -1.5407      2.00000
      3       0.7450      2.00000
      4       2.7082      2.00000
      5       6.0961      0.00000
      6       8.7433      0.00000
      7       9.0529      0.00000
      8       9.4215      0.00000
      9      10.7639      0.00000
     10      11.8216      0.00000
     11      15.8463      0.00000
     12      16.6508      0.00000

 k-point    31 :       0.3636    0.3636    0.0000
  band No.  band energies     occupation 
      1      -4.8239      2.00000
      2      -1.3396      2.00000
      3       1.8895      2.00000
      4       1.8895      2.00000
      5       4.9120      0.00000
      6       5.8796      0.00000
      7      10.8941      0.00000
      8      10.8941      0.00000
      9      12.4747      0.00000
     10      13.8839      0.00000
     11      15.8109      0.00000
     12      16.1011      0.00000

 k-point    32 :       0.4545    0.3636    0.0000
  band No.  band energies     occupation 
      1      -4.3078      2.00000
      2      -2.0310      2.00000
      3       1.4766      2.00000
      4       1.7983      2.00000
      5       5.1115      0.00000
      6       5.8599      0.00000
      7      11.0732      0.00000
      8      11.2468      0.00000
      9      13.6893      0.00000
     10      14.6020      0.00000
     11      14.6977      0.00000
     12      15.0070      0.00000

 k-point    33 :      -0.4545    0.3636    0.0000
  band No.  band energies     occupation 
      1      -3.7672      2.00000
      2      -2.6298      2.00000
      3       0.8770      2.00000
      4       1.8566      2.00000
      5       5.2735      0.00000
      6       6.8329      0.00000
      7      10.9039      0.00000
      8      11.0358      0.00000
      9      12.5706      0.00000
     10      13.2912      0.00000
     11      15.5673      0.00000
     12      16.3319      0.00000

 k-point    34 :      -0.3636    0.3636    0.0000
  band No.  band energies     occupation 
      1      -3.7482      2.00000
      2      -2.6289      2.00000
      3       0.4984      2.00000
      4       2.0589      2.00000
      5       5.4865      0.00000
      6       8.3322      0.00000
      7      10.3978      0.00000
      8      10.6674      0.00000
      9      10.9301      0.00000
     10      12.1052      0.00000
     11      16.6386      0.00000
     12      18.1019      0.00000

 k-point    35 :       0.4545    0.4545    0.0000
  band No.  band energies     occupation 
      1      -3.8154      2.00000
      2      -2.6408      2.00000
      3       1.6679      2.00000
      4       1.6679      2.00000
      5       4.9169      0.00000
      6       5.2392      0.00000
      7      12.2109      0.00000
      8      12.2109      0.00000
      9      14.0966      0.00000
     10      14.7679      0.00000
     11      14.7679      0.00000
     12      15.1289      0.00000

 k-point    36 :      -0.4545    0.4545    0.0000
  band No.  band energies     occupation 
      1      -3.2892      2.00000
      2      -3.1780      2.00000
      3       1.3406      2.00000
      4       1.6882      2.00000
      5       5.0888      0.00000
      6       5.5665      0.00000
      7      12.1245      0.00000
      8      12.1559      0.00000
      9      13.2786      0.00000
     10      13.8897      0.00000
     11      15.1979      0.00000
     12      16.1102      0.00000

 k-point    37 :       0.2727    0.1818    0.0909
  band No.  band energies     occupation 
      1      -6.1157      2.00000
      2       0.9665      2.00000
      3       2.5268      2.00000
      4       3.2923      2.00000
      5       6.2819      0.00000
      6       6.7341      0.00000
      7       7.9826      0.00000
      8       8.4538      0.00000
      9      10.4354      0.00000
     10      12.0394      0.00000
     11      13.2106      0.00000
     12      14.8918      0.00000

 k-point    38 :       0.3636    0.1818    0.0909
  band No.  band energies     occupation 
      1      -5.6900      2.00000
      2      -0.1428      2.00000
      3       2.0171      2.00000
      4       3.0342      2.00000
      5       6.3796      0.00000
      6       7.0012      0.00000
      7       8.3524      0.00000
      8       8.6931      0.00000
      9      10.9815      0.00000
     10      12.8687      0.00000
     11      13.5520      0.00000
     12      15.3404      0.00000

 k-point    39 :       0.4545    0.1818    0.0909
  band No.  band energies     occupation 
      1      -5.1543      2.00000
      2      -1.2400      2.00000
      3       1.7492      2.00000
      4       2.7608      2.00000
      5       6.2360      0.00000
      6       7.2267      0.00000
      7       8.4187      0.00000
      8       9.4089      0.00000
      9      11.9597      0.00000
     10      13.0612      0.00000
     11      14.2869      0.00000
     12      14.9623      0.00000

 k-point    40 :      -0.4545    0.1818    0.0909
  band No.  band energies     occupation 
      1      -4.6774      2.00000
      2      -2.0191      2.00000
      3       1.6354      2.00000
      4       2.5972      2.00000
      5       6.1405      0.00000
      6       7.2155      0.00000
      7       8.4050      0.00000
      8      10.6130      0.00000
      9      12.0335      0.00000
     10      13.2824      0.00000
     11      14.1752      0.00000
     12      15.2150      0.00000

 k-point    41 :       0.3636    0.2727    0.0909
  band No.  band energies     occupation 
      1      -5.5320      2.00000
      2      -0.2356      2.00000
      3       1.9260      2.00000
      4       2.4865      2.00000
      5       5.8233      0.00000
      6       7.0422      0.00000
      7       8.5482      0.00000
      8       9.3925      0.00000
      9      11.4520      0.00000
     10      13.1605      0.00000
     11      14.3118      0.00000
     12      15.7892      0.00000

 k-point    42 :       0.4545    0.2727    0.0909
  band No.  band energies     occupation 
      1      -5.0237      2.00000
      2      -1.1356      2.00000
      3       1.4280      2.00000
      4       2.2449      2.00000
      5       6.1316      0.00000
      6       7.4214      0.00000
      7       8.3037      0.00000
      8       9.7717      0.00000
      9      12.4040      0.00000
     10      13.6840      0.00000
     11      14.4856      0.00000
     12      15.6774      0.00000

 k-point    43 :      -0.4545    0.2727    0.0909
  band No.  band energies     occupation 
      1      -4.4880      2.00000
      2      -1.9385      2.00000
      3       1.0802      2.00000
      4       2.1251      2.00000
      5       6.2260      0.00000
      6       7.8930      0.00000
      7       8.7032      0.00000
      8       9.7761      0.00000
      9      12.1903      0.00000
     10      13.7501      0.00000
     11      14.7203      0.00000
     12      15.6449      0.00000

 k-point    44 :      -0.3636    0.2727    0.0909
  band No.  band energies     occupation 
      1      -4.2892      2.00000
      2      -2.2021      2.00000
      3       0.8923      2.00000
      4       2.1948      2.00000
      5       6.3604      0.00000
      6       7.7422      0.00000
      7       9.5297      0.00000
      8      10.2469      0.00000
      9      10.6900      0.00000
     10      13.1841      0.00000
     11      15.2339      0.00000
     12      15.6495      0.00000

 k-point    45 :      -0.2727    0.2727    0.0909
  band No.  band energies     occupation 
      1      -4.6811      2.00000
      2      -1.6672      2.00000
      3       0.9169      2.00000
      4       2.4287      2.00000
      5       6.5846      0.00000
      6       7.6147      0.00000
      7       8.9948      0.00000
      8       9.6990      0.00000
      9      11.8013      0.00000
     10      11.9557      0.00000
     11      15.4950      0.00000
     12      16.2174      0.00000

 k-point    46 :      -0.1818    0.2727    0.0909
  band No.  band energies     occupation 
      1      -5.2272      2.00000
      2      -0.8556      2.00000
      3       1.2577      2.00000
      4       2.7570      2.00000
      5       6.8041      0.00000
      6       7.2023      0.00000
      7       8.4410      0.00000
      8       9.1659      0.00000
      9      11.0794      0.00000
     10      13.3945      0.00000
     11      14.4573      0.00000
     12      15.8007      0.00000

 k-point    47 :       0.4545    0.3636    0.0909
  band No.  band energies     occupation 
      1      -4.7385      2.00000
      2      -1.4535      2.00000
      3       1.5273      2.00000
      4       1.8522      2.00000
      5       5.5452      0.00000
      6       6.3560      0.00000
      7       9.6487      0.00000
      8      10.8645      0.00000
      9      12.9015      0.00000
     10      14.1734      0.00000
     11      14.5525      0.00000
     12      16.2228      0.00000

 k-point    48 :      -0.4545    0.3636    0.0909
  band No.  band energies     occupation 
      1      -4.1846      2.00000
      2      -2.1475      2.00000
      3       1.0230      2.00000
      4       1.7110      2.00000
      5       5.8656      0.00000
      6       7.0212      0.00000
      7       9.3718      0.00000
      8      11.1218      0.00000
      9      12.5206      0.00000
     10      13.9786      0.00000
     11      14.9011      0.00000
     12      16.2402      0.00000

 k-point    49 :      -0.3636    0.3636    0.0909
  band No.  band energies     occupation 
      1      -3.8274      2.00000
      2      -2.5405      2.00000
      3       0.6147      2.00000
      4       1.8019      2.00000
      5       6.0364      0.00000
      6       8.4136      0.00000
      7       9.1050      0.00000
      8      10.4239      0.00000
      9      11.3980      0.00000
     10      13.2256      0.00000
     11      15.6105      0.00000
     12      17.0467      0.00000

 k-point    50 :      -0.2727    0.3636    0.0909
  band No.  band energies     occupation 
      1      -4.1426      2.00000
      2      -2.1983      2.00000
      3       0.5315      2.00000
      4       2.0629      2.00000
      5       6.3068      0.00000
      6       8.7017      0.00000
      7       9.2368      0.00000
      8      10.0590      0.00000
      9      10.8043      0.00000
     10      12.1055      0.00000
     11      16.6390      0.00000
     12      17.2076      0.00000

 k-point    51 :      -0.4545    0.4545    0.0909
  band No.  band energies     occupation 
      1      -3.7634      2.00000
      2      -2.6493      2.00000
      3       1.3704      2.00000
      4       1.4757      2.00000
      5       5.5219      0.00000
      6       5.7914      0.00000
      7      10.9759      0.00000
      8      11.9482      0.00000
      9      13.2570      0.00000
     10      14.0191      0.00000
     11      14.9531      0.00000
     12      16.0836      0.00000

 k-point    52 :      -0.3636    0.4545    0.0909
  band No.  band energies     occupation 
      1      -3.3734      2.00000
      2      -3.0152      2.00000
      3       0.8746      2.00000
      4       1.5329      2.00000
      5       5.7694      0.00000
      6       6.8395      0.00000
      7      10.6277      0.00000
      8      10.7724      0.00000
      9      12.6893      0.00000
     10      13.4817      0.00000
     11      15.4363      0.00000
     12      16.3862      0.00000

 k-point    53 :      -0.4545    0.3636    0.1818
  band No.  band energies     occupation 
      1      -4.4965      2.00000
      2      -1.7708      2.00000
      3       0.9290      2.00000
      4       1.8886      2.00000
      5       6.9542      0.00000
      6       7.4762      0.00000
      7       7.9769      0.00000
      8      10.7673      0.00000
      9      12.1593      0.00000
     10      12.6118      0.00000
     11      15.9945      0.00000
     12      16.6069      0.00000

 k-point    54 :      -0.3636    0.3636    0.1818
  band No.  band energies     occupation 
      1      -3.9907      2.00000
      2      -2.3526      2.00000
      3       0.6998      2.00000
      4       1.6385      2.00000
      5       7.2673      0.00000
      6       7.5846      0.00000
      7       8.6665      0.00000
      8      10.2103      0.00000
      9      11.3775      0.00000
     10      13.6081      0.00000
     11      15.2573      0.00000
     12      16.7679      0.00000

 k-point    55 :      -0.3636    0.4545    0.1818
  band No.  band energies     occupation 
      1      -3.6321      2.00000
      2      -2.7020      2.00000
      3       0.9044      2.00000
      4       1.2256      2.00000
      5       6.9150      0.00000
      6       7.1241      0.00000
      7       9.0435      0.00000
      8      10.4194      0.00000
      9      12.6694      0.00000
     10      13.8702      0.00000
     11      15.1632      0.00000
     12      16.3000      0.00000

 k-point    56 :      -0.2727    0.4545    0.1818
  band No.  band energies     occupation 
      1      -3.4838      2.00000
      2      -2.8339      2.00000
      3       0.6953      2.00000
      4       1.2522      2.00000
      5       7.2222      0.00000
      6       8.5229      0.00000
      7       8.6889      0.00000
      8       8.8689      0.00000
      9      12.6234      0.00000
     10      13.6587      0.00000
     11      15.3403      0.00000
     12      16.4409      0.00000


--------------------------------------------------------------------------------------------------------


 soft charge-density along one line, spin component           1
         0         1         2         3         4         5         6         7         8         9
 total charge-density along one line
 
 pseudopotential strength for first ion, spin component:           1
 18.628  25.991   0.000   0.000   0.000   0.000   0.000   0.000
 25.991  36.269   0.000   0.000   0.000   0.000   0.000   0.000
  0.000   0.000   4.201  -0.000  -0.000   7.830  -0.000  -0.000
  0.000   0.000  -0.000   4.201  -0.000  -0.000   7.830  -0.000
  0.000   0.000  -0.000  -0.000   4.201  -0.000  -0.000   7.830
  0.000   0.000   7.830  -0.000  -0.000  14.605  -0.000  -0.000
  0.000   0.000  -0.000   7.830  -0.000  -0.000  14.605  -0.000
  0.000   0.000  -0.000  -0.000   7.830  -0.000  -0.000  14.605
 total augmentation occupancy for first ion, spin component:           1
  4.667  -1.575  -0.000  -0.000   0.000   0.000   0.000   0.000
 -1.575   0.653  -0.000   0.000   0.000   0.000   0.000   0.000
  0.000   0.000   2.638   0.000   0.000  -0.597  -0.000  -0.000
  0.000   0.000   0.000   2.638   0.000  -0.000  -0.597   0.000
  0.000   0.000   0.000   0.000   2.638  -0.000   0.000  -0.597
 -0.000   0.000  -0.597  -0.000  -0.000   0.141  -0.000  -0.000
  0.000  -0.000  -0.000  -0.597  -0.000  -0.000   0.141   0.000
  0.000   0.000  -0.000   0.000  -0.597   0.000  -0.000   0.141


------------------------ aborting loop because EDIFF is reached ----------------------------------------


    CHARGE:  cpu time    0.0194: real time    0.0194
    FORLOC:  cpu time    0.0003: real time    0.0003
    FORNL :  cpu time    0.0075: real time    0.0075
    STRESS:  cpu time    0.0835: real time    0.0835
    FORCOR:  cpu time    0.0076: real time    0.0076
    FORHAR:  cpu time    0.0017: real time    0.0017
    MIXING:  cpu time    0.0004: real time    0.0004
    OFIELD:  cpu time    0.0000: real time    0.0000

  FORCE on cell =-STRESS in cart. coord.  units (eV):
  Direction    XX          YY          ZZ          XY          YZ          ZX
  --------------------------------------------------------------------------------------
  Alpha Z     2.76052     2.76052     2.76052
  Ewald     -71.32761   -71.32761   -71.32761    -0.00000    -0.00000    -0.00000
  Hartree     5.78662     5.78662     5.78662     0.00000     0.00000     0.00000
  E(xc)     -24.34261   -24.34261   -24.34261    -0.00000    -0.00000    -0.00000
  Local     -32.32738   -32.32738   -32.32738     0.00001     0.00001     0.00001
  n-local    76.28017    77.63893    72.01329     1.88576    -1.04573     0.40016
  augment   -11.69752   -11.69752   -11.69752    -0.00001    -0.00001    -0.00001
  Kinetic    54.70786    53.44053    49.59113     3.57508    -0.96206     1.02675
  Fock        0.00000     0.00000     0.00000     0.00000     0.00000     0.00000
  -------------------------------------------------------------------------------------
  Total      -3.25736    -3.25736    -3.25736    -0.00000    -0.00000     0.00000
  in kB    -106.99212  -106.99212  -106.99212    -0.00000    -0.00000     0.00000
  external pressure =     -106.99 kB  Pullay stress =        0.00 kB


 VOLUME and BASIS-vectors are now :
 -----------------------------------------------------------------------------
  energy-cutoff  :      240.00
  volume of cell :       48.78
      direct lattice vectors                 reciprocal lattice vectors
     0.000000000  2.900000000  2.900000000    -0.172413793  0.172413793  0.172413793
     2.900000000  0.000000000  2.900000000     0.172413793 -0.172413793  0.172413793
     2.900000000  2.900000000  0.000000000     0.172413793  0.172413793 -0.172413793

  length of vectors
     4.101219331  4.101219331  4.101219331     0.298629450  0.298629450  0.298629450


 FORCES acting on ions
    electron-ion (+dipol)            ewald-force                    non-local-force                 convergence-correction
 -----------------------------------------------------------------------------------------------
   0.105E-06 0.105E-06 0.892E-07   0.103E-13 0.934E-14 0.112E-13   -.243E-15 0.937E-16 0.867E-16   -.360E-08 -.360E-08 -.360E-08
   -.105E-06 -.105E-06 -.892E-07   -.104E-13 -.931E-14 -.113E-13   0.128E-15 0.694E-17 0.347E-17   0.360E-08 0.360E-08 0.360E-08
 -----------------------------------------------------------------------------------------------
   0.298E-13 0.141E-12 0.813E-14   -.132E-15 0.271E-16 -.909E-16   -.114E-15 0.101E-15 0.902E-16   0.131E-15 0.445E-15 0.324E-15
 
 
 POSITION                                       TOTAL-FORCE (eV/Angst)
 -----------------------------------------------------------------------------------
      5.07500      5.07500      5.07500        -0.000000      0.000000      0.000000
      0.72500      0.72500      0.72500         0.000000     -0.000000     -0.000000
 -----------------------------------------------------------------------------------
    total drift:                                0.000000      0.000000      0.000000


--------------------------------------------------------------------------------------------------------



  FREE ENERGIE OF THE ION-ELECTRON SYSTEM (eV)
  ---------------------------------------------------
  free  energy   TOTEN  =       -10.52842681 eV

  energy  without entropy=      -10.52842681  energy(sigma->0) =      -10.52842681
 


--------------------------------------------------------------------------------------------------------


    POTLOK:  cpu time    0.0095: real time    0.0095


--------------------------------------------------------------------------------------------------------


 writing wavefunctions
     LOOP+:  cpu time    3.9555: real time    4.5393
    4ORBIT:  cpu time    0.0000: real time    0.0000

 total amount of memory used by VASP MPI-rank0    33371. kBytes
=======================================================================

   base      :      30000. kBytes
   nonl-proj :       1562. kBytes
   fftplans  :        379. kBytes
   grid      :       1016. kBytes
   one-center:          6. kBytes
   wavefun   :        408. kBytes
 
  
  
 General timing and accounting informations for this job:
 ========================================================
  
                  Total CPU time used (sec):        5.320
                            User time (sec):        5.029
                          System time (sec):        0.291
                         Elapsed time (sec):        6.495
  
                   Maximum memory used (kb):       61920.
                   Average memory used (kb):           0.
  
                          Minor page faults:        18126
                          Major page faults:            0
                 Voluntary context switches:         1696
