<?xml version="1.0" encoding="ISO-8859-1"?>
<modeling>
 <generator>
  <i name="program" type="string">vasp </i>
  <i name="version" type="string">5.4.4.18Apr17-6-g9f103f2a35  </i>
  <i name="subversion" type="string">(build Mar 30 2023 15:39:25) complex            parallel </i>
  <i name="platform" type="string">LinuxIFC </i>
  <i name="date" type="string">2023 05 02 </i>
  <i name="time" type="string">16:58:19 </i>
 </generator>
 <incar>
  <i type="string" name="SYSTEM"> cd Si</i>
  <i type="int" name="ISTART">     0</i>
  <i type="string" name="PREC">accurate</i>
  <i type="int" name="ICHARG">     2</i>
  <i name="EDIFF">      0.00000100</i>
  <i name="EDIFFG">     -0.00000100</i>
  <i name="ENCUT">    240.00000000</i>
  <i type="int" name="ISMEAR">     0</i>
  <i name="SIGMA">      0.10000000</i>
  <v type="int" name="KPOINT_BSE">    -1     0     0     0</v>
 </incar>
 <structure name="primitive_cell" >
  <crystal>
   <varray name="basis" >
    <v>       0.00000000       2.90000000       2.90000000 </v>
    <v>       2.90000000       0.00000000       2.90000000 </v>
    <v>       2.90000000       2.90000000       0.00000000 </v>
   </varray>
   <i name="volume">     48.77800000 </i>
   <varray name="rec_basis" >
    <v>      -0.17241379       0.17241379       0.17241379 </v>
    <v>       0.17241379      -0.17241379       0.17241379 </v>
    <v>       0.17241379       0.17241379      -0.17241379 </v>
   </varray>
  </crystal>
  <varray name="positions" >
   <v>      -0.12500000      -0.12500000      -0.12500000 </v>
   <v>       0.12500000       0.12500000       0.12500000 </v>
  </varray>
 </structure>
 <varray name="primitive_index" >
  <v type="int" >        1 </v>
  <v type="int" >        2 </v>
 </varray>
 <kpoints>
  <generation param="Monkhorst-Pack">
   <v type="int" name="divisions">      11       11       11 </v>
   <v name="usershift">      0.00000000       0.00000000       0.00000000 </v>
   <v name="genvec1">      0.09090909       0.00000000       0.00000000 </v>
   <v name="genvec2">      0.00000000       0.09090909       0.00000000 </v>
   <v name="genvec3">      0.00000000       0.00000000       0.09090909 </v>
   <v name="shift">      0.00000000       0.00000000       0.00000000 </v>
  </generation>
  <varray name="kpointlist" >
   <v>       0.00000000       0.00000000       0.00000000 </v>
   <v>       0.09090909       0.00000000       0.00000000 </v>
   <v>       0.18181818       0.00000000       0.00000000 </v>
   <v>       0.27272727       0.00000000       0.00000000 </v>
   <v>       0.36363636       0.00000000       0.00000000 </v>
   <v>       0.45454545       0.00000000       0.00000000 </v>
   <v>       0.09090909       0.09090909       0.00000000 </v>
   <v>       0.18181818       0.09090909       0.00000000 </v>
   <v>       0.27272727       0.09090909       0.00000000 </v>
   <v>       0.36363636       0.09090909       0.00000000 </v>
   <v>       0.45454545       0.09090909       0.00000000 </v>
   <v>      -0.45454545       0.09090909       0.00000000 </v>
   <v>      -0.36363636       0.09090909       0.00000000 </v>
   <v>      -0.27272727       0.09090909       0.00000000 </v>
   <v>      -0.18181818       0.09090909       0.00000000 </v>
   <v>      -0.09090909       0.09090909       0.00000000 </v>
   <v>       0.18181818       0.18181818       0.00000000 </v>
   <v>       0.27272727       0.18181818       0.00000000 </v>
   <v>       0.36363636       0.18181818       0.00000000 </v>
   <v>       0.45454545       0.18181818       0.00000000 </v>
   <v>      -0.45454545       0.18181818       0.00000000 </v>
   <v>      -0.36363636       0.18181818       0.00000000 </v>
   <v>      -0.27272727       0.18181818       0.00000000 </v>
   <v>      -0.18181818       0.18181818       0.00000000 </v>
   <v>       0.27272727       0.27272727       0.00000000 </v>
   <v>       0.36363636       0.27272727       0.00000000 </v>
   <v>       0.45454545       0.27272727       0.00000000 </v>
   <v>      -0.45454545       0.27272727       0.00000000 </v>
   <v>      -0.36363636       0.27272727       0.00000000 </v>
   <v>      -0.27272727       0.27272727       0.00000000 </v>
   <v>       0.36363636       0.36363636       0.00000000 </v>
   <v>       0.45454545       0.36363636       0.00000000 </v>
   <v>      -0.45454545       0.36363636       0.00000000 </v>
   <v>      -0.36363636       0.36363636       0.00000000 </v>
   <v>       0.45454545       0.45454545       0.00000000 </v>
   <v>      -0.45454545       0.45454545       0.00000000 </v>
   <v>       0.27272727       0.18181818       0.09090909 </v>
   <v>       0.36363636       0.18181818       0.09090909 </v>
   <v>       0.45454545       0.18181818       0.09090909 </v>
   <v>      -0.45454545       0.18181818       0.09090909 </v>
   <v>       0.36363636       0.27272727       0.09090909 </v>
   <v>       0.45454545       0.27272727       0.09090909 </v>
   <v>      -0.45454545       0.27272727       0.09090909 </v>
   <v>      -0.36363636       0.27272727       0.09090909 </v>
   <v>      -0.27272727       0.27272727       0.09090909 </v>
   <v>      -0.18181818       0.27272727       0.09090909 </v>
   <v>       0.45454545       0.36363636       0.09090909 </v>
   <v>      -0.45454545       0.36363636       0.09090909 </v>
   <v>      -0.36363636       0.36363636       0.09090909 </v>
   <v>      -0.27272727       0.36363636       0.09090909 </v>
   <v>      -0.45454545       0.45454545       0.09090909 </v>
   <v>      -0.36363636       0.45454545       0.09090909 </v>
   <v>      -0.45454545       0.36363636       0.18181818 </v>
   <v>      -0.36363636       0.36363636       0.18181818 </v>
   <v>      -0.36363636       0.45454545       0.18181818 </v>
   <v>      -0.27272727       0.45454545       0.18181818 </v>
  </varray>
  <varray name="weights" >
   <v>       0.00075131 </v>
   <v>       0.00601052 </v>
   <v>       0.00601052 </v>
   <v>       0.00601052 </v>
   <v>       0.00601052 </v>
   <v>       0.00601052 </v>
   <v>       0.00450789 </v>
   <v>       0.01803156 </v>
   <v>       0.01803156 </v>
   <v>       0.01803156 </v>
   <v>       0.01803156 </v>
   <v>       0.01803156 </v>
   <v>       0.01803156 </v>
   <v>       0.01803156 </v>
   <v>       0.01803156 </v>
   <v>       0.00901578 </v>
   <v>       0.00450789 </v>
   <v>       0.01803156 </v>
   <v>       0.01803156 </v>
   <v>       0.01803156 </v>
   <v>       0.01803156 </v>
   <v>       0.01803156 </v>
   <v>       0.01803156 </v>
   <v>       0.00901578 </v>
   <v>       0.00450789 </v>
   <v>       0.01803156 </v>
   <v>       0.01803156 </v>
   <v>       0.01803156 </v>
   <v>       0.01803156 </v>
   <v>       0.00901578 </v>
   <v>       0.00450789 </v>
   <v>       0.01803156 </v>
   <v>       0.01803156 </v>
   <v>       0.00901578 </v>
   <v>       0.00450789 </v>
   <v>       0.00901578 </v>
   <v>       0.01803156 </v>
   <v>       0.03606311 </v>
   <v>       0.03606311 </v>
   <v>       0.03606311 </v>
   <v>       0.01803156 </v>
   <v>       0.03606311 </v>
   <v>       0.03606311 </v>
   <v>       0.03606311 </v>
   <v>       0.03606311 </v>
   <v>       0.01803156 </v>
   <v>       0.01803156 </v>
   <v>       0.03606311 </v>
   <v>       0.03606311 </v>
   <v>       0.01803156 </v>
   <v>       0.01803156 </v>
   <v>       0.01803156 </v>
   <v>       0.01803156 </v>
   <v>       0.03606311 </v>
   <v>       0.01803156 </v>
   <v>       0.01803156 </v>
  </varray>
 </kpoints>
 <parameters>
  <separator name="general" >
   <i type="string" name="SYSTEM">cd Si</i>
   <i type="logical" name="LCOMPAT"> F  </i>
  </separator>
  <separator name="electronic" >
   <i type="string" name="PREC">accura</i>
   <i name="ENMAX">    240.00000000</i>
   <i name="ENAUG">    322.06900000</i>
   <i name="EDIFF">      0.00000100</i>
   <i type="int" name="IALGO">    38</i>
   <i type="int" name="IWAVPR">    10</i>
   <i type="int" name="NBANDS">    12</i>
   <i name="NELECT">      8.00000000</i>
   <i type="int" name="TURBO">     0</i>
   <i type="int" name="IRESTART">     0</i>
   <i type="int" name="NREBOOT">     0</i>
   <i type="int" name="NMIN">     0</i>
   <i name="EREF">      0.00000000</i>
   <separator name="electronic smearing" >
    <i type="int" name="ISMEAR">     0</i>
    <i name="SIGMA">      0.10000000</i>
    <i name="KSPACING">      0.50000000</i>
    <i type="logical" name="KGAMMA"> T  </i>
   </separator>
   <separator name="electronic projectors" >
    <i type="logical" name="LREAL"> F  </i>
    <v name="ROPT">      0.00000000</v>
    <i type="int" name="LMAXPAW">  -100</i>
    <i type="int" name="LMAXMIX">     2</i>
    <i type="logical" name="NLSPLINE"> F  </i>
   </separator>
   <separator name="electronic startup" >
    <i type="int" name="ISTART">     0</i>
    <i type="int" name="ICHARG">     2</i>
    <i type="int" name="INIWAV">     1</i>
   </separator>
   <separator name="electronic spin" >
    <i type="int" name="ISPIN">     1</i>
    <i type="logical" name="LNONCOLLINEAR"> F  </i>
    <v name="MAGMOM">      1.00000000      1.00000000</v>
    <i name="NUPDOWN">     -1.00000000</i>
    <i type="logical" name="LSORBIT"> F  </i>
    <v name="SAXIS">      0.00000000      0.00000000      1.00000000</v>
    <i type="logical" name="LSPIRAL"> F  </i>
    <v name="QSPIRAL">      0.00000000      0.00000000      0.00000000</v>
    <i type="logical" name="LZEROZ"> F  </i>
   </separator>
   <separator name="electronic exchange-correlation" >
    <i type="logical" name="LASPH"> F  </i>
    <i type="logical" name="LMETAGGA"> F  </i>
   </separator>
   <separator name="electronic convergence" >
    <i type="int" name="NELM">    60</i>
    <i type="int" name="NELMDL">    -5</i>
    <i type="int" name="NELMIN">     2</i>
    <i name="ENINI">    240.00000000</i>
    <separator name="electronic convergence detail" >
     <i type="logical" name="LDIAG"> T  </i>
     <i type="logical" name="LSUBROT"> F  </i>
     <i name="WEIMIN">      0.00000000</i>
     <i name="EBREAK">      0.00000000</i>
     <i name="DEPER">      0.30000000</i>
     <i type="int" name="NRMM">     4</i>
     <i name="TIME">      0.40000000</i>
    </separator>
   </separator>
   <separator name="electronic mixer" >
    <i name="AMIX">      0.40000000</i>
    <i name="BMIX">      1.00000000</i>
    <i name="AMIN">      0.10000000</i>
    <i name="AMIX_MAG">      1.60000000</i>
    <i name="BMIX_MAG">      1.00000000</i>
    <separator name="electronic mixer details" >
     <i type="int" name="IMIX">     4</i>
     <i type="logical" name="MIXFIRST"> F  </i>
     <i type="int" name="MAXMIX">   -45</i>
     <i name="WC">    100.00000000</i>
     <i type="int" name="INIMIX">     1</i>
     <i type="int" name="MIXPRE">     1</i>
     <i type="int" name="MREMOVE">     5</i>
    </separator>
   </separator>
   <separator name="electronic dipolcorrection" >
    <i type="logical" name="LDIPOL"> F  </i>
    <i type="logical" name="LMONO"> F  </i>
    <i type="int" name="IDIPOL">     0</i>
    <i name="EPSILON">      1.00000000</i>
    <v name="DIPOL">   -100.00000000   -100.00000000   -100.00000000</v>
    <i name="EFIELD">      0.00000000</i>
   </separator>
  </separator>
  <separator name="grids" >
   <i type="int" name="NGX">    24</i>
   <i type="int" name="NGY">    24</i>
   <i type="int" name="NGZ">    24</i>
   <i type="int" name="NGXF">    48</i>
   <i type="int" name="NGYF">    48</i>
   <i type="int" name="NGZF">    48</i>
   <i type="logical" name="ADDGRID"> F  </i>
  </separator>
  <separator name="ionic" >
   <i type="int" name="NSW">     0</i>
   <i type="int" name="IBRION">    -1</i>
   <i type="int" name="MDALGO">     0</i>
   <i type="int" name="ISIF">     2</i>
   <i name="PSTRESS">      0.00000000</i>
   <i name="EDIFFG">     -0.00000100</i>
   <i type="int" name="NFREE">     0</i>
   <i name="POTIM">      0.50000000</i>
   <i name="SMASS">     -3.00000000</i>
   <i name="SCALEE">      1.00000000</i>
  </separator>
  <separator name="ionic md" >
   <i name="TEBEG">      0.00010000</i>
   <i name="TEEND">      0.00010000</i>
   <i type="int" name="NBLOCK">     1</i>
   <i type="int" name="KBLOCK">     1</i>
   <i type="int" name="NPACO">   256</i>
   <i name="APACO">     16.00000000</i>
  </separator>
  <separator name="symmetry" >
   <i type="int" name="ISYM">     2</i>
   <i name="SYMPREC">      0.00001000</i>
  </separator>
  <separator name="dos" >
   <i type="int" name="LORBIT">     0</i>
   <v name="RWIGS">     -1.00000000</v>
   <i type="int" name="NEDOS">   301</i>
   <i name="EMIN">     10.00000000</i>
   <i name="EMAX">    -10.00000000</i>
   <i name="EFERMI">      0.00000000</i>
  </separator>
  <separator name="writing" >
   <i type="int" name="NWRITE">     2</i>
   <i type="logical" name="LWAVE"> T  </i>
   <i type="logical" name="LDOWNSAMPLE"> F  </i>
   <i type="logical" name="LCHARG"> T  </i>
   <i type="logical" name="LPARD"> F  </i>
   <i type="logical" name="LVTOT"> F  </i>
   <i type="logical" name="LVHAR"> F  </i>
   <i type="logical" name="LELF"> F  </i>
   <i type="logical" name="LOPTICS"> F  </i>
   <v name="STM">      0.00000000      0.00000000      0.00000000      0.00000000      0.00000000      0.00000000      0.00000000</v>
  </separator>
  <separator name="performance" >
   <i type="int" name="NPAR">    12</i>
   <i type="int" name="NSIM">     4</i>
   <i type="int" name="NBLK">    -1</i>
   <i type="logical" name="LPLANE"> T  </i>
   <i type="logical" name="LSCALAPACK"> T  </i>
   <i type="logical" name="LSCAAWARE"> F  </i>
   <i type="logical" name="LSCALU"> F  </i>
   <i type="logical" name="LASYNC"> F  </i>
   <i type="logical" name="LORBITALREAL"> F  </i>
  </separator>
  <separator name="miscellaneous" >
   <i type="int" name="IDIOT">     3</i>
   <i type="int" name="ISPECIAL">     0</i>
   <i type="logical" name="LMUSIC"> F  </i>
   <v name="POMASS">     28.08500000</v>
   <v name="DARWINR">      0.00000000</v>
   <v name="DARWINV">      1.00000000</v>
   <i type="logical" name="LCORR"> T  </i>
  </separator>
  <i type="logical" name="GGA_COMPAT"> T  </i>
  <i type="logical" name="LBERRY"> F  </i>
  <i type="int" name="ICORELEVEL">     0</i>
  <i type="logical" name="LDAU"> F  </i>
  <i type="int" name="I_CONSTRAINED_M">     0</i>
  <separator name="electronic exchange-correlation" >
   <i type="string" name="GGA">--</i>
   <i type="int" name="VOSKOWN">     0</i>
   <i type="logical" name="LHFCALC"> F  </i>
   <i type="string" name="PRECFOCK"></i>
   <i type="logical" name="LSYMGRAD"> F  </i>
   <i type="logical" name="LHFONE"> F  </i>
   <i type="logical" name="LRHFCALC"> F  </i>
   <i type="logical" name="LTHOMAS"> F  </i>
   <i type="logical" name="LMODELHF"> F  </i>
   <i name="ENCUT4O">     -1.00000000</i>
   <i type="int" name="EXXOEP">     0</i>
   <i type="int" name="FOURORBIT">     0</i>
   <i name="AEXX">      0.00000000</i>
   <i name="HFALPHA">      0.00000000</i>
   <i name="MCALPHA">      0.00000000</i>
   <i name="ALDAX">      1.00000000</i>
   <i name="AGGAX">      1.00000000</i>
   <i name="ALDAC">      1.00000000</i>
   <i name="AGGAC">      1.00000000</i>
   <i type="int" name="NKREDX">     1</i>
   <i type="int" name="NKREDY">     1</i>
   <i type="int" name="NKREDZ">     1</i>
   <i type="logical" name="SHIFTRED"> F  </i>
   <i type="logical" name="ODDONLY"> F  </i>
   <i type="logical" name="EVENONLY"> F  </i>
   <i type="int" name="LMAXFOCK">     0</i>
   <i type="int" name="NMAXFOCKAE">     0</i>
   <i type="logical" name="LFOCKAEDFT"> F  </i>
   <i name="HFSCREEN">      0.00000000</i>
   <i name="HFSCREENC">      0.00000000</i>
   <i type="int" name="NBANDSGWLOW">     0</i>
  </separator>
  <separator name="vdW DFT" >
   <i type="logical" name="LUSE_VDW"> F  </i>
   <i name="Zab_VDW">     -0.84910000</i>
   <i name="PARAM1">      0.12340000</i>
   <i name="PARAM2">      1.00000000</i>
   <i name="PARAM3">      0.00000000</i>
  </separator>
  <separator name="model GW" >
   <i type="int" name="MODEL_GW">     0</i>
   <i name="MODEL_EPS0">     14.63340000</i>
   <i name="MODEL_ALPHA">      1.00000000</i>
  </separator>
  <separator name="linear response parameters" >
   <i type="logical" name="LEPSILON"> F  </i>
   <i type="logical" name="LRPA"> F  </i>
   <i type="logical" name="LNABLA"> F  </i>
   <i type="logical" name="LVEL"> F  </i>
   <i type="int" name="KINTER">     0</i>
   <i name="CSHIFT">      0.10000000</i>
   <i name="OMEGAMAX">     -1.00000000</i>
   <i name="DEG_THRESHOLD">      0.00200000</i>
   <i name="RTIME">     -0.10000000</i>
   <i name="WPLASMAI">      0.00000000</i>
   <v name="DFIELD">      0.00000000      0.00000000      0.00000000</v>
   <v name="WPLASMA">      0.00000000      0.00000000      0.00000000      0.00000000      0.00000000      0.00000000      0.00000000      0.00000000      0.00000000</v>
  </separator>
  <separator name="orbital magnetization" >
   <i type="logical" name="NUCIND"> F  </i>
   <v name="MAGPOS">      0.00000000      0.00000000      0.00000000</v>
   <i type="logical" name="LNICSALL"> T  </i>
   <i type="logical" name="ORBITALMAG"> F  </i>
   <i type="logical" name="LMAGBLOCH"> F  </i>
   <i type="logical" name="LCHIMAG"> F  </i>
   <i type="logical" name="LGAUGE"> T  </i>
   <i type="int" name="MAGATOM">     0</i>
   <v name="MAGDIPOL">      0.00000000      0.00000000      0.00000000</v>
   <v name="AVECCONST">      0.00000000      0.00000000      0.00000000</v>
  </separator>
  <separator name="response functions" >
   <i type="logical" name="LADDER"> F  </i>
   <i type="logical" name="LRPAFORCE"> F  </i>
   <i type="logical" name="LFXC"> F  </i>
   <i type="logical" name="LHARTREE"> T  </i>
   <i type="int" name="IBSE">     0</i>
   <v type="int" name="KPOINT">    -1     0     0     0</v>
   <i type="logical" name="LTCTE"> F  </i>
   <i type="logical" name="LTETE"> F  </i>
   <i type="logical" name="LTRIPLET"> F  </i>
   <i type="logical" name="LFXCEPS"> F  </i>
   <i type="logical" name="LFXHEG"> F  </i>
   <i type="int" name="NATURALO">     2</i>
   <i type="logical" name="L2ORDER"> F  </i>
   <i type="logical" name="LMP2LT"> F  </i>
   <i type="logical" name="LUSEW"> F  </i>
   <i name="ENCUTGW">     -2.00000000</i>
   <i name="ENCUTGWSOFT">     -2.00000000</i>
   <i name="ENCUTLF">     -1.00000000</i>
   <i type="int" name="LMAXMP2">    -1</i>
   <i name="SCISSOR">      0.00000000</i>
   <i type="int" name="NOMEGA">     0</i>
   <i type="int" name="NOMEGAR">     0</i>
   <i type="int" name="NBANDSGW">    -1</i>
   <i type="int" name="NBANDSO">    -1</i>
   <i type="int" name="NBANDSV">    -1</i>
   <i type="int" name="NELM">     1</i>
   <i type="int" name="NELMHF">     1</i>
   <i type="int" name="DIM">     3</i>
   <i type="int" name="ANTIRES">     0</i>
   <i name="OMEGAMAX">    -30.00000000</i>
   <i name="OMEGAMIN">    -30.00000000</i>
   <i name="OMEGATL">   -200.00000000</i>
   <i type="int" name="OMEGAGRID">   140</i>
   <i name="CSHIFT">     -0.10000000</i>
   <i type="logical" name="SELFENERGY"> F  </i>
   <i type="logical" name="LSPECTRAL"> F  </i>
   <i type="logical" name="LSPECTRALGW"> F  </i>
   <i type="logical" name="LSINGLES"> F  </i>
   <i type="logical" name="LFERMIGW"> F  </i>
   <i type="logical" name="ODDONLYGW"> F  </i>
   <i type="logical" name="EVENONLYGW"> F  </i>
   <i type="int" name="NKREDLFX">     1</i>
   <i type="int" name="NKREDLFY">     1</i>
   <i type="int" name="NKREDLFZ">     1</i>
   <i type="int" name="MAXMEM">  2800</i>
   <i type="int" name="TELESCOPE">     0</i>
   <i type="int" name="TAUPAR">     1</i>
   <i type="int" name="OMEGAPAR">    -1</i>
   <i name="LAMBDA">      1.00000000</i>
  </separator>
  <separator name="External order field" >
   <i name="OFIELD_KAPPA">      0.00000000</i>
   <v name="OFIELD_K">      0.00000000      0.00000000      0.00000000</v>
   <i name="OFIELD_Q6_NEAR">      0.00000000</i>
   <i name="OFIELD_Q6_FAR">      0.00000000</i>
   <i name="OFIELD_A">      0.00000000</i>
  </separator>
 </parameters>
 <atominfo>
  <atoms>       2 </atoms>
  <types>       1 </types>
  <array name="atoms" >
   <dimension dim="1">ion</dimension>
   <field type="string">element</field>
   <field type="int">atomtype</field>
   <set>
    <rc><c>Si</c><c>   1</c></rc>
    <rc><c>Si</c><c>   1</c></rc>
   </set>
  </array>
  <array name="atomtypes" >
   <dimension dim="1">type</dimension>
   <field type="int">atomspertype</field>
   <field type="string">element</field>
   <field>mass</field>
   <field>valence</field>
   <field type="string">pseudopotential</field>
   <set>
    <rc><c>   2</c><c>Si</c><c>     28.08500000</c><c>      4.00000000</c><c>  PAW_PBE Si 05Jan2001                  </c></rc>
   </set>
  </array>
 </atominfo>
 <structure name="initialpos" >
  <crystal>
   <varray name="basis" >
    <v>       0.00000000       2.90000000       2.90000000 </v>
    <v>       2.90000000       0.00000000       2.90000000 </v>
    <v>       2.90000000       2.90000000       0.00000000 </v>
   </varray>
   <i name="volume">     48.77800000 </i>
   <varray name="rec_basis" >
    <v>      -0.17241379       0.17241379       0.17241379 </v>
    <v>       0.17241379      -0.17241379       0.17241379 </v>
    <v>       0.17241379       0.17241379      -0.17241379 </v>
   </varray>
  </crystal>
  <varray name="positions" >
   <v>       0.87500000       0.87500000       0.87500000 </v>
   <v>       0.12500000       0.12500000       0.12500000 </v>
  </varray>
 </structure>
 <calculation>
  <scstep>
   <time name="dav">    0.22    0.22</time>
   <time name="total">    0.23    0.23</time>
   <energy>
    <i name="alphaZ">      2.76051751 </i>
    <i name="ewald">   -213.98274834 </i>
    <i name="hartreedc">    -14.16697612 </i>
    <i name="XCdc">    -19.33179185 </i>
    <i name="pawpsdc">    176.24759923 </i>
    <i name="pawaedc">   -141.06103558 </i>
    <i name="eentropy">     -0.00143480 </i>
    <i name="bandstr">     -1.76590554 </i>
    <i name="atom">    206.12155316 </i>
    <i name="e_fr_energy">     -5.18022232 </i>
    <i name="e_wo_entrp">     -5.17878752 </i>
    <i name="e_0_energy">     -5.17950492 </i>
   </energy>
  </scstep>
  <scstep>
   <time name="dav">    0.34    0.34</time>
   <time name="total">    0.34    0.34</time>
   <energy>
    <i name="e_fr_energy">    -10.57947795 </i>
    <i name="e_wo_entrp">    -10.57947795 </i>
    <i name="e_0_energy">    -10.57947795 </i>
   </energy>
  </scstep>
  <scstep>
   <time name="dav">    0.27    0.27</time>
   <time name="total">    0.27    0.27</time>
   <energy>
    <i name="e_fr_energy">    -10.61577058 </i>
    <i name="e_wo_entrp">    -10.61577058 </i>
    <i name="e_0_energy">    -10.61577058 </i>
   </energy>
  </scstep>
  <scstep>
   <time name="dav">    0.39    0.39</time>
   <time name="total">    0.39    0.39</time>
   <energy>
    <i name="e_fr_energy">    -10.61588165 </i>
    <i name="e_wo_entrp">    -10.61588165 </i>
    <i name="e_0_energy">    -10.61588165 </i>
   </energy>
  </scstep>
  <scstep>
   <time name="dav">    0.24    0.24</time>
   <time name="total">    0.26    0.26</time>
   <energy>
    <i name="e_fr_energy">    -10.61588166 </i>
    <i name="e_wo_entrp">    -10.61588166 </i>
    <i name="e_0_energy">    -10.61588166 </i>
   </energy>
  </scstep>
  <scstep>
   <time name="dav">    0.26    0.26</time>
   <time name="total">    0.29    0.29</time>
   <energy>
    <i name="e_fr_energy">    -10.55850686 </i>
    <i name="e_wo_entrp">    -10.55850686 </i>
    <i name="e_0_energy">    -10.55850686 </i>
   </energy>
  </scstep>
  <scstep>
   <time name="dav">    0.27    0.27</time>
   <time name="total">    0.30    0.30</time>
   <energy>
    <i name="e_fr_energy">    -10.52686522 </i>
    <i name="e_wo_entrp">    -10.52686522 </i>
    <i name="e_0_energy">    -10.52686522 </i>
   </energy>
  </scstep>
  <scstep>
   <time name="dav">    0.24    0.24</time>
   <time name="total">    0.27    0.27</time>
   <energy>
    <i name="e_fr_energy">    -10.52819981 </i>
    <i name="e_wo_entrp">    -10.52819981 </i>
    <i name="e_0_energy">    -10.52819981 </i>
   </energy>
  </scstep>
  <scstep>
   <time name="dav">    0.33    0.33</time>
   <time name="total">    0.36    0.36</time>
   <energy>
    <i name="e_fr_energy">    -10.52841491 </i>
    <i name="e_wo_entrp">    -10.52841491 </i>
    <i name="e_0_energy">    -10.52841491 </i>
   </energy>
  </scstep>
  <scstep>
   <time name="dav">    0.28    0.28</time>
   <time name="total">    0.31    0.31</time>
   <energy>
    <i name="e_fr_energy">    -10.52842542 </i>
    <i name="e_wo_entrp">    -10.52842542 </i>
    <i name="e_0_energy">    -10.52842542 </i>
   </energy>
  </scstep>
  <scstep>
   <time name="dav">    0.33    0.33</time>
   <time name="total">    0.36    0.36</time>
   <energy>
    <i name="e_fr_energy">    -10.52842675 </i>
    <i name="e_wo_entrp">    -10.52842675 </i>
    <i name="e_0_energy">    -10.52842675 </i>
   </energy>
  </scstep>
  <scstep>
   <time name="dav">    0.28    0.28</time>
   <time name="total">    0.29    0.29</time>
   <energy>
    <i name="alphaZ">      2.76051751 </i>
    <i name="ewald">   -213.98274834 </i>
    <i name="hartreedc">    -17.35977616 </i>
    <i name="XCdc">    -18.82457710 </i>
    <i name="pawpsdc">    679.69602444 </i>
    <i name="pawaedc">   -644.59517537 </i>
    <i name="eentropy">     -0.00000000 </i>
    <i name="bandstr">     -4.34424496 </i>
    <i name="atom">    206.12155316 </i>
    <i name="e_fr_energy">    -10.52842681 </i>
    <i name="e_wo_entrp">    -10.52842681 </i>
    <i name="e_0_energy">    -10.52842681 </i>
   </energy>
  </scstep>
  <structure>
   <crystal>
    <varray name="basis" >
     <v>       0.00000000       2.90000000       2.90000000 </v>
     <v>       2.90000000       0.00000000       2.90000000 </v>
     <v>       2.90000000       2.90000000       0.00000000 </v>
    </varray>
    <i name="volume">     48.77800000 </i>
    <varray name="rec_basis" >
     <v>      -0.17241379       0.17241379       0.17241379 </v>
     <v>       0.17241379      -0.17241379       0.17241379 </v>
     <v>       0.17241379       0.17241379      -0.17241379 </v>
    </varray>
   </crystal>
   <varray name="positions" >
    <v>       0.87500000       0.87500000       0.87500000 </v>
    <v>       0.12500000       0.12500000       0.12500000 </v>
   </varray>
  </structure>
  <varray name="forces" >
   <v>      -0.00000000       0.00000000       0.00000000 </v>
   <v>       0.00000000      -0.00000000      -0.00000000 </v>
  </varray>
  <varray name="stress" >
   <v>    -106.99211607      -0.00000000       0.00000000 </v>
   <v>      -0.00000000    -106.99211607      -0.00000000 </v>
   <v>       0.00000000      -0.00000000    -106.99211607 </v>
  </varray>
  <energy>
   <i name="e_fr_energy">    -10.52842681 </i>
   <i name="e_wo_entrp">    -10.52842681 </i>
   <i name="e_0_energy">     -0.00000000 </i>
  </energy>
  <time name="totalsc">    3.96    4.54</time>
  <eigenvalues>
   <array>
    <dimension dim="1">band</dimension>
    <dimension dim="2">kpoint</dimension>
    <dimension dim="3">spin</dimension>
    <field>eigene</field>
    <field>occ</field>
    <set>
     <set comment="spin 1">
      <set comment="kpoint 1">
       <r>   -6.7133    1.0000 </r>
       <r>    4.0109    1.0000 </r>
       <r>    4.0109    1.0000 </r>
       <r>    4.0109    1.0000 </r>
       <r>    5.2599    0.0000 </r>
       <r>    6.4715    0.0000 </r>
       <r>    6.4715    0.0000 </r>
       <r>    6.4715    0.0000 </r>
       <r>   11.2337    0.0000 </r>
       <r>   11.6454    0.0000 </r>
       <r>   11.6454    0.0000 </r>
       <r>   14.6426    0.0000 </r>
      </set>
      <set comment="kpoint 2">
       <r>   -6.6225    1.0000 </r>
       <r>    2.9431    1.0000 </r>
       <r>    3.8748    1.0000 </r>
       <r>    3.8748    1.0000 </r>
       <r>    5.7157    0.0000 </r>
       <r>    6.6737    0.0000 </r>
       <r>    6.6737    0.0000 </r>
       <r>    6.9441    0.0000 </r>
       <r>   11.3878    0.0000 </r>
       <r>   11.3878    0.0000 </r>
       <r>   11.6221    0.0000 </r>
       <r>   14.3227    0.0000 </r>
      </set>
      <set comment="kpoint 3">
       <r>   -6.3543    1.0000 </r>
       <r>    1.4333    1.0000 </r>
       <r>    3.5868    1.0000 </r>
       <r>    3.5868    1.0000 </r>
       <r>    5.5539    0.0000 </r>
       <r>    7.0867    0.0000 </r>
       <r>    7.0867    0.0000 </r>
       <r>    8.3246    0.0000 </r>
       <r>   11.0797    0.0000 </r>
       <r>   11.0797    0.0000 </r>
       <r>   12.3717    0.0000 </r>
       <r>   14.0608    0.0000 </r>
      </set>
      <set comment="kpoint 4">
       <r>   -5.9263    1.0000 </r>
       <r>    0.0045    1.0000 </r>
       <r>    3.3053    1.0000 </r>
       <r>    3.3053    1.0000 </r>
       <r>    5.2527    0.0000 </r>
       <r>    7.3779    0.0000 </r>
       <r>    7.3779    0.0000 </r>
       <r>    9.8271    0.0000 </r>
       <r>   11.2623    0.0000 </r>
       <r>   11.2623    0.0000 </r>
       <r>   12.3633    0.0000 </r>
       <r>   15.0824    0.0000 </r>
      </set>
      <set comment="kpoint 5">
       <r>   -5.3904    1.0000 </r>
       <r>   -1.2197    1.0000 </r>
       <r>    3.0984    1.0000 </r>
       <r>    3.0984    1.0000 </r>
       <r>    5.0147    0.0000 </r>
       <r>    7.4302    0.0000 </r>
       <r>    7.4302    0.0000 </r>
       <r>   11.1217    0.0000 </r>
       <r>   12.0913    0.0000 </r>
       <r>   12.0913    0.0000 </r>
       <r>   12.2954    0.0000 </r>
       <r>   16.0771    0.0000 </r>
      </set>
      <set comment="kpoint 6">
       <r>   -4.9199    1.0000 </r>
       <r>   -2.0396    1.0000 </r>
       <r>    2.9920    1.0000 </r>
       <r>    2.9920    1.0000 </r>
       <r>    4.8885    0.0000 </r>
       <r>    7.3916    0.0000 </r>
       <r>    7.3916    0.0000 </r>
       <r>   11.4171    0.0000 </r>
       <r>   13.3770    0.0000 </r>
       <r>   13.4076    0.0000 </r>
       <r>   13.4076    0.0000 </r>
       <r>   15.0547    0.0000 </r>
      </set>
      <set comment="kpoint 7">
       <r>   -6.5919    1.0000 </r>
       <r>    2.9570    1.0000 </r>
       <r>    3.6215    1.0000 </r>
       <r>    3.6215    1.0000 </r>
       <r>    6.2062    0.0000 </r>
       <r>    6.2701    0.0000 </r>
       <r>    7.0129    0.0000 </r>
       <r>    7.0129    0.0000 </r>
       <r>   10.8814    0.0000 </r>
       <r>   11.7524    0.0000 </r>
       <r>   11.7866    0.0000 </r>
       <r>   14.8675    0.0000 </r>
      </set>
      <set comment="kpoint 8">
       <r>   -6.3820    1.0000 </r>
       <r>    1.7903    1.0000 </r>
       <r>    3.2897    1.0000 </r>
       <r>    3.3753    1.0000 </r>
       <r>    6.1510    0.0000 </r>
       <r>    6.5207    0.0000 </r>
       <r>    7.5184    0.0000 </r>
       <r>    7.9896    0.0000 </r>
       <r>   10.4705    0.0000 </r>
       <r>   11.7540    0.0000 </r>
       <r>   12.4726    0.0000 </r>
       <r>   14.4982    0.0000 </r>
      </set>
      <set comment="kpoint 9">
       <r>   -6.0044    1.0000 </r>
       <r>    0.4163    1.0000 </r>
       <r>    3.0129    1.0000 </r>
       <r>    3.0382    1.0000 </r>
       <r>    5.9497    0.0000 </r>
       <r>    6.8958    0.0000 </r>
       <r>    7.8785    0.0000 </r>
       <r>    8.9242    0.0000 </r>
       <r>   10.8395    0.0000 </r>
       <r>   11.8757    0.0000 </r>
       <r>   12.8869    0.0000 </r>
       <r>   14.8455    0.0000 </r>
      </set>
      <set comment="kpoint 10">
       <r>   -5.4945    1.0000 </r>
       <r>   -0.8491    1.0000 </r>
       <r>    2.7031    1.0000 </r>
       <r>    2.8430    1.0000 </r>
       <r>    5.7030    0.0000 </r>
       <r>    7.1711    0.0000 </r>
       <r>    7.9280    0.0000 </r>
       <r>    9.7281    0.0000 </r>
       <r>   12.0368    0.0000 </r>
       <r>   12.5804    0.0000 </r>
       <r>   12.6488    0.0000 </r>
       <r>   15.8782    0.0000 </r>
      </set>
      <set comment="kpoint 11">
       <r>   -4.9664    1.0000 </r>
       <r>   -1.8230    1.0000 </r>
       <r>    2.4495    1.0000 </r>
       <r>    2.7964    1.0000 </r>
       <r>    5.5387    0.0000 </r>
       <r>    7.2568    0.0000 </r>
       <r>    7.7946    0.0000 </r>
       <r>   10.7979    0.0000 </r>
       <r>   12.4030    0.0000 </r>
       <r>   13.6299    0.0000 </r>
       <r>   13.8059    0.0000 </r>
       <r>   14.8203    0.0000 </r>
      </set>
      <set comment="kpoint 12">
       <r>   -4.7661    1.0000 </r>
       <r>   -2.1352    1.0000 </r>
       <r>    2.3089    1.0000 </r>
       <r>    2.8721    1.0000 </r>
       <r>    5.4893    0.0000 </r>
       <r>    7.3444    0.0000 </r>
       <r>    7.6548    0.0000 </r>
       <r>   11.4968    0.0000 </r>
       <r>   12.6631    0.0000 </r>
       <r>   13.1339    0.0000 </r>
       <r>   13.8506    0.0000 </r>
       <r>   15.2787    0.0000 </r>
      </set>
      <set comment="kpoint 13">
       <r>   -5.1316    1.0000 </r>
       <r>   -1.5435    1.0000 </r>
       <r>    2.2978    1.0000 </r>
       <r>    3.0580    1.0000 </r>
       <r>    5.5589    0.0000 </r>
       <r>    7.4918    0.0000 </r>
       <r>    7.5552    0.0000 </r>
       <r>   10.9549    0.0000 </r>
       <r>   11.7335    0.0000 </r>
       <r>   12.5711    0.0000 </r>
       <r>   14.0154    0.0000 </r>
       <r>   14.7673    0.0000 </r>
      </set>
      <set comment="kpoint 14">
       <r>   -5.6766    1.0000 </r>
       <r>   -0.4466    1.0000 </r>
       <r>    2.4289    1.0000 </r>
       <r>    3.3301    1.0000 </r>
       <r>    5.7395    0.0000 </r>
       <r>    7.4082    0.0000 </r>
       <r>    7.5885    0.0000 </r>
       <r>    9.8279    0.0000 </r>
       <r>   10.7957    0.0000 </r>
       <r>   12.5355    0.0000 </r>
       <r>   12.8823    0.0000 </r>
       <r>   15.4834    0.0000 </r>
      </set>
      <set comment="kpoint 15">
       <r>   -6.1487    1.0000 </r>
       <r>    0.8568    1.0000 </r>
       <r>    2.7179    1.0000 </r>
       <r>    3.6389    1.0000 </r>
       <r>    5.9827    0.0000 </r>
       <r>    7.0883    0.0000 </r>
       <r>    7.3363    0.0000 </r>
       <r>    8.8191    0.0000 </r>
       <r>   10.5106    0.0000 </r>
       <r>   11.7024    0.0000 </r>
       <r>   12.8882    0.0000 </r>
       <r>   14.5415    0.0000 </r>
      </set>
      <set comment="kpoint 16">
       <r>   -6.4722    1.0000 </r>
       <r>    2.1308    1.0000 </r>
       <r>    3.2223    1.0000 </r>
       <r>    3.8758    1.0000 </r>
       <r>    6.0619    0.0000 </r>
       <r>    6.7295    0.0000 </r>
       <r>    6.8250    0.0000 </r>
       <r>    7.8258    0.0000 </r>
       <r>   10.8086    0.0000 </r>
       <r>   11.4787    0.0000 </r>
       <r>   12.1801    0.0000 </r>
       <r>   14.5015    0.0000 </r>
      </set>
      <set comment="kpoint 17">
       <r>   -6.2303    1.0000 </r>
       <r>    1.4958    1.0000 </r>
       <r>    2.9322    1.0000 </r>
       <r>    2.9322    1.0000 </r>
       <r>    5.6691    0.0000 </r>
       <r>    7.1953    0.0000 </r>
       <r>    8.1498    0.0000 </r>
       <r>    8.1498    0.0000 </r>
       <r>   10.1007    0.0000 </r>
       <r>   12.2145    0.0000 </r>
       <r>   13.0272    0.0000 </r>
       <r>   15.5132    0.0000 </r>
      </set>
      <set comment="kpoint 18">
       <r>   -5.9066    1.0000 </r>
       <r>    0.5307    1.0000 </r>
       <r>    2.5435    1.0000 </r>
       <r>    2.6393    1.0000 </r>
       <r>    5.7080    0.0000 </r>
       <r>    7.1423    0.0000 </r>
       <r>    8.5302    0.0000 </r>
       <r>    8.6780    0.0000 </r>
       <r>   10.7332    0.0000 </r>
       <r>   12.4725    0.0000 </r>
       <r>   13.7558    0.0000 </r>
       <r>   15.4129    0.0000 </r>
      </set>
      <set comment="kpoint 19">
       <r>   -5.4344    1.0000 </r>
       <r>   -0.5886    1.0000 </r>
       <r>    2.0662    1.0000 </r>
       <r>    2.4652    1.0000 </r>
       <r>    5.8828    0.0000 </r>
       <r>    7.4411    0.0000 </r>
       <r>    8.4785    0.0000 </r>
       <r>    8.8474    0.0000 </r>
       <r>   12.1990    0.0000 </r>
       <r>   13.0988    0.0000 </r>
       <r>   13.7377    0.0000 </r>
       <r>   16.0197    0.0000 </r>
      </set>
      <set comment="kpoint 20">
       <r>   -4.8872    1.0000 </r>
       <r>   -1.5890    1.0000 </r>
       <r>    1.6516    1.0000 </r>
       <r>    2.4285    1.0000 </r>
       <r>    5.8766    0.0000 </r>
       <r>    7.8019    0.0000 </r>
       <r>    8.7150    0.0000 </r>
       <r>    9.0154    0.0000 </r>
       <r>   13.1618    0.0000 </r>
       <r>   13.8826    0.0000 </r>
       <r>   14.2558    0.0000 </r>
       <r>   14.7279    0.0000 </r>
      </set>
      <set comment="kpoint 21">
       <r>   -4.5213    1.0000 </r>
       <r>   -2.1393    1.0000 </r>
       <r>    1.3740    1.0000 </r>
       <r>    2.5303    1.0000 </r>
       <r>    5.9054    0.0000 </r>
       <r>    7.8334    0.0000 </r>
       <r>    8.4933    0.0000 </r>
       <r>   10.3274    0.0000 </r>
       <r>   12.1962    0.0000 </r>
       <r>   13.0117    0.0000 </r>
       <r>   14.6100    0.0000 </r>
       <r>   15.5207    0.0000 </r>
      </set>
      <set comment="kpoint 22">
       <r>   -4.7374    1.0000 </r>
       <r>   -1.8208    1.0000 </r>
       <r>    1.2699    1.0000 </r>
       <r>    2.7558    1.0000 </r>
       <r>    6.0366    0.0000 </r>
       <r>    7.9036    0.0000 </r>
       <r>    8.2681    0.0000 </r>
       <r>   10.7779    0.0000 </r>
       <r>   11.5580    0.0000 </r>
       <r>   11.9008    0.0000 </r>
       <r>   14.5812    0.0000 </r>
       <r>   16.1020    0.0000 </r>
      </set>
      <set comment="kpoint 23">
       <r>   -5.2705    1.0000 </r>
       <r>   -0.9291    1.0000 </r>
       <r>    1.3862    1.0000 </r>
       <r>    3.0728    1.0000 </r>
       <r>    6.2388    0.0000 </r>
       <r>    7.9669    0.0000 </r>
       <r>    8.0002    0.0000 </r>
       <r>    9.5201    0.0000 </r>
       <r>   10.5741    0.0000 </r>
       <r>   13.1630    0.0000 </r>
       <r>   14.3771    0.0000 </r>
       <r>   15.2821    0.0000 </r>
      </set>
      <set comment="kpoint 24">
       <r>   -5.7764    1.0000 </r>
       <r>    0.0653    1.0000 </r>
       <r>    1.8312    1.0000 </r>
       <r>    3.4135    1.0000 </r>
       <r>    6.3614    0.0000 </r>
       <r>    7.4962    0.0000 </r>
       <r>    7.6964    0.0000 </r>
       <r>    8.9452    0.0000 </r>
       <r>   10.2602    0.0000 </r>
       <r>   12.8621    0.0000 </r>
       <r>   13.5872    0.0000 </r>
       <r>   15.0517    0.0000 </r>
      </set>
      <set comment="kpoint 25">
       <r>   -5.6362    1.0000 </r>
       <r>    0.0503    1.0000 </r>
       <r>    2.3219    1.0000 </r>
       <r>    2.3219    1.0000 </r>
       <r>    5.1866    0.0000 </r>
       <r>    6.7446    0.0000 </r>
       <r>    9.4839    0.0000 </r>
       <r>    9.4839    0.0000 </r>
       <r>   10.9160    0.0000 </r>
       <r>   12.9116    0.0000 </r>
       <r>   14.6104    0.0000 </r>
       <r>   16.3857    0.0000 </r>
      </set>
      <set comment="kpoint 26">
       <r>   -5.2083    1.0000 </r>
       <r>   -0.7583    1.0000 </r>
       <r>    1.8826    1.0000 </r>
       <r>    2.1223    1.0000 </r>
       <r>    5.3067    0.0000 </r>
       <r>    6.5473    0.0000 </r>
       <r>    9.6430    0.0000 </r>
       <r>    9.9437    0.0000 </r>
       <r>   12.1980    0.0000 </r>
       <r>   13.5079    0.0000 </r>
       <r>   14.8851    0.0000 </r>
       <r>   16.3008    0.0000 </r>
      </set>
      <set comment="kpoint 27">
       <r>   -4.6687    1.0000 </r>
       <r>   -1.6050    1.0000 </r>
       <r>    1.2885    1.0000 </r>
       <r>    2.0649    1.0000 </r>
       <r>    5.5031    0.0000 </r>
       <r>    7.1662    0.0000 </r>
       <r>    9.4461    0.0000 </r>
       <r>    9.9330    0.0000 </r>
       <r>   13.6448    0.0000 </r>
       <r>   14.1805    0.0000 </r>
       <r>   14.5804    0.0000 </r>
       <r>   14.8109    0.0000 </r>
      </set>
      <set comment="kpoint 28">
       <r>   -4.1901    1.0000 </r>
       <r>   -2.2360    1.0000 </r>
       <r>    0.8177    1.0000 </r>
       <r>    2.1541    1.0000 </r>
       <r>    5.6075    0.0000 </r>
       <r>    8.4489    0.0000 </r>
       <r>    9.2861    0.0000 </r>
       <r>    9.6864    0.0000 </r>
       <r>   12.3453    0.0000 </r>
       <r>   13.0535    0.0000 </r>
       <r>   15.6498    0.0000 </r>
       <r>   16.1516    0.0000 </r>
      </set>
      <set comment="kpoint 29">
       <r>   -4.2432    1.0000 </r>
       <r>   -2.1655    1.0000 </r>
       <r>    0.5988    1.0000 </r>
       <r>    2.3787    1.0000 </r>
       <r>    5.8094    0.0000 </r>
       <r>    9.1755    0.0000 </r>
       <r>    9.3293    0.0000 </r>
       <r>   10.0844    0.0000 </r>
       <r>   10.7455    0.0000 </r>
       <r>   11.6187    0.0000 </r>
       <r>   16.1233    0.0000 </r>
       <r>   16.9817    0.0000 </r>
      </set>
      <set comment="kpoint 30">
       <r>   -4.7477    1.0000 </r>
       <r>   -1.5407    1.0000 </r>
       <r>    0.7450    1.0000 </r>
       <r>    2.7082    1.0000 </r>
       <r>    6.0961    0.0000 </r>
       <r>    8.7433    0.0000 </r>
       <r>    9.0529    0.0000 </r>
       <r>    9.4215    0.0000 </r>
       <r>   10.7639    0.0000 </r>
       <r>   11.8216    0.0000 </r>
       <r>   15.8463    0.0000 </r>
       <r>   16.6508    0.0000 </r>
      </set>
      <set comment="kpoint 31">
       <r>   -4.8239    1.0000 </r>
       <r>   -1.3396    1.0000 </r>
       <r>    1.8895    1.0000 </r>
       <r>    1.8895    1.0000 </r>
       <r>    4.9120    0.0000 </r>
       <r>    5.8796    0.0000 </r>
       <r>   10.8941    0.0000 </r>
       <r>   10.8941    0.0000 </r>
       <r>   12.4747    0.0000 </r>
       <r>   13.8839    0.0000 </r>
       <r>   15.8109    0.0000 </r>
       <r>   16.1011    0.0000 </r>
      </set>
      <set comment="kpoint 32">
       <r>   -4.3078    1.0000 </r>
       <r>   -2.0310    1.0000 </r>
       <r>    1.4766    1.0000 </r>
       <r>    1.7983    1.0000 </r>
       <r>    5.1115    0.0000 </r>
       <r>    5.8599    0.0000 </r>
       <r>   11.0732    0.0000 </r>
       <r>   11.2468    0.0000 </r>
       <r>   13.6893    0.0000 </r>
       <r>   14.6020    0.0000 </r>
       <r>   14.6977    0.0000 </r>
       <r>   15.0070    0.0000 </r>
      </set>
      <set comment="kpoint 33">
       <r>   -3.7672    1.0000 </r>
       <r>   -2.6298    1.0000 </r>
       <r>    0.8770    1.0000 </r>
       <r>    1.8566    1.0000 </r>
       <r>    5.2735    0.0000 </r>
       <r>    6.8329    0.0000 </r>
       <r>   10.9039    0.0000 </r>
       <r>   11.0358    0.0000 </r>
       <r>   12.5706    0.0000 </r>
       <r>   13.2912    0.0000 </r>
       <r>   15.5673    0.0000 </r>
       <r>   16.3319    0.0000 </r>
      </set>
      <set comment="kpoint 34">
       <r>   -3.7482    1.0000 </r>
       <r>   -2.6289    1.0000 </r>
       <r>    0.4984    1.0000 </r>
       <r>    2.0589    1.0000 </r>
       <r>    5.4865    0.0000 </r>
       <r>    8.3322    0.0000 </r>
       <r>   10.3978    0.0000 </r>
       <r>   10.6674    0.0000 </r>
       <r>   10.9301    0.0000 </r>
       <r>   12.1052    0.0000 </r>
       <r>   16.6386    0.0000 </r>
       <r>   18.1019    0.0000 </r>
      </set>
      <set comment="kpoint 35">
       <r>   -3.8154    1.0000 </r>
       <r>   -2.6408    1.0000 </r>
       <r>    1.6679    1.0000 </r>
       <r>    1.6679    1.0000 </r>
       <r>    4.9169    0.0000 </r>
       <r>    5.2392    0.0000 </r>
       <r>   12.2109    0.0000 </r>
       <r>   12.2109    0.0000 </r>
       <r>   14.0966    0.0000 </r>
       <r>   14.7679    0.0000 </r>
       <r>   14.7679    0.0000 </r>
       <r>   15.1289    0.0000 </r>
      </set>
      <set comment="kpoint 36">
       <r>   -3.2892    1.0000 </r>
       <r>   -3.1780    1.0000 </r>
       <r>    1.3406    1.0000 </r>
       <r>    1.6882    1.0000 </r>
       <r>    5.0888    0.0000 </r>
       <r>    5.5665    0.0000 </r>
       <r>   12.1245    0.0000 </r>
       <r>   12.1559    0.0000 </r>
       <r>   13.2786    0.0000 </r>
       <r>   13.8897    0.0000 </r>
       <r>   15.1979    0.0000 </r>
       <r>   16.1102    0.0000 </r>
      </set>
      <set comment="kpoint 37">
       <r>   -6.1157    1.0000 </r>
       <r>    0.9665    1.0000 </r>
       <r>    2.5268    1.0000 </r>
       <r>    3.2923    1.0000 </r>
       <r>    6.2819    0.0000 </r>
       <r>    6.7341    0.0000 </r>
       <r>    7.9826    0.0000 </r>
       <r>    8.4538    0.0000 </r>
       <r>   10.4354    0.0000 </r>
       <r>   12.0394    0.0000 </r>
       <r>   13.2106    0.0000 </r>
       <r>   14.8918    0.0000 </r>
      </set>
      <set comment="kpoint 38">
       <r>   -5.6900    1.0000 </r>
       <r>   -0.1428    1.0000 </r>
       <r>    2.0171    1.0000 </r>
       <r>    3.0342    1.0000 </r>
       <r>    6.3796    0.0000 </r>
       <r>    7.0012    0.0000 </r>
       <r>    8.3524    0.0000 </r>
       <r>    8.6931    0.0000 </r>
       <r>   10.9815    0.0000 </r>
       <r>   12.8687    0.0000 </r>
       <r>   13.5520    0.0000 </r>
       <r>   15.3404    0.0000 </r>
      </set>
      <set comment="kpoint 39">
       <r>   -5.1543    1.0000 </r>
       <r>   -1.2400    1.0000 </r>
       <r>    1.7492    1.0000 </r>
       <r>    2.7608    1.0000 </r>
       <r>    6.2360    0.0000 </r>
       <r>    7.2267    0.0000 </r>
       <r>    8.4187    0.0000 </r>
       <r>    9.4089    0.0000 </r>
       <r>   11.9597    0.0000 </r>
       <r>   13.0612    0.0000 </r>
       <r>   14.2869    0.0000 </r>
       <r>   14.9623    0.0000 </r>
      </set>
      <set comment="kpoint 40">
       <r>   -4.6774    1.0000 </r>
       <r>   -2.0191    1.0000 </r>
       <r>    1.6354    1.0000 </r>
       <r>    2.5972    1.0000 </r>
       <r>    6.1405    0.0000 </r>
       <r>    7.2155    0.0000 </r>
       <r>    8.4050    0.0000 </r>
       <r>   10.6130    0.0000 </r>
       <r>   12.0335    0.0000 </r>
       <r>   13.2824    0.0000 </r>
       <r>   14.1752    0.0000 </r>
       <r>   15.2150    0.0000 </r>
      </set>
      <set comment="kpoint 41">
       <r>   -5.5320    1.0000 </r>
       <r>   -0.2356    1.0000 </r>
       <r>    1.9260    1.0000 </r>
       <r>    2.4865    1.0000 </r>
       <r>    5.8233    0.0000 </r>
       <r>    7.0422    0.0000 </r>
       <r>    8.5482    0.0000 </r>
       <r>    9.3925    0.0000 </r>
       <r>   11.4520    0.0000 </r>
       <r>   13.1605    0.0000 </r>
       <r>   14.3118    0.0000 </r>
       <r>   15.7892    0.0000 </r>
      </set>
      <set comment="kpoint 42">
       <r>   -5.0237    1.0000 </r>
       <r>   -1.1356    1.0000 </r>
       <r>    1.4280    1.0000 </r>
       <r>    2.2449    1.0000 </r>
       <r>    6.1316    0.0000 </r>
       <r>    7.4214    0.0000 </r>
       <r>    8.3037    0.0000 </r>
       <r>    9.7717    0.0000 </r>
       <r>   12.4040    0.0000 </r>
       <r>   13.6840    0.0000 </r>
       <r>   14.4856    0.0000 </r>
       <r>   15.6774    0.0000 </r>
      </set>
      <set comment="kpoint 43">
       <r>   -4.4880    1.0000 </r>
       <r>   -1.9385    1.0000 </r>
       <r>    1.0802    1.0000 </r>
       <r>    2.1251    1.0000 </r>
       <r>    6.2260    0.0000 </r>
       <r>    7.8930    0.0000 </r>
       <r>    8.7032    0.0000 </r>
       <r>    9.7761    0.0000 </r>
       <r>   12.1903    0.0000 </r>
       <r>   13.7501    0.0000 </r>
       <r>   14.7203    0.0000 </r>
       <r>   15.6449    0.0000 </r>
      </set>
      <set comment="kpoint 44">
       <r>   -4.2892    1.0000 </r>
       <r>   -2.2021    1.0000 </r>
       <r>    0.8923    1.0000 </r>
       <r>    2.1948    1.0000 </r>
       <r>    6.3604    0.0000 </r>
       <r>    7.7422    0.0000 </r>
       <r>    9.5297    0.0000 </r>
       <r>   10.2469    0.0000 </r>
       <r>   10.6900    0.0000 </r>
       <r>   13.1841    0.0000 </r>
       <r>   15.2339    0.0000 </r>
       <r>   15.6495    0.0000 </r>
      </set>
      <set comment="kpoint 45">
       <r>   -4.6811    1.0000 </r>
       <r>   -1.6672    1.0000 </r>
       <r>    0.9169    1.0000 </r>
       <r>    2.4287    1.0000 </r>
       <r>    6.5846    0.0000 </r>
       <r>    7.6147    0.0000 </r>
       <r>    8.9948    0.0000 </r>
       <r>    9.6990    0.0000 </r>
       <r>   11.8013    0.0000 </r>
       <r>   11.9557    0.0000 </r>
       <r>   15.4950    0.0000 </r>
       <r>   16.2174    0.0000 </r>
      </set>
      <set comment="kpoint 46">
       <r>   -5.2272    1.0000 </r>
       <r>   -0.8556    1.0000 </r>
       <r>    1.2577    1.0000 </r>
       <r>    2.7570    1.0000 </r>
       <r>    6.8041    0.0000 </r>
       <r>    7.2023    0.0000 </r>
       <r>    8.4410    0.0000 </r>
       <r>    9.1659    0.0000 </r>
       <r>   11.0794    0.0000 </r>
       <r>   13.3945    0.0000 </r>
       <r>   14.4573    0.0000 </r>
       <r>   15.8007    0.0000 </r>
      </set>
      <set comment="kpoint 47">
       <r>   -4.7385    1.0000 </r>
       <r>   -1.4535    1.0000 </r>
       <r>    1.5273    1.0000 </r>
       <r>    1.8522    1.0000 </r>
       <r>    5.5452    0.0000 </r>
       <r>    6.3560    0.0000 </r>
       <r>    9.6487    0.0000 </r>
       <r>   10.8645    0.0000 </r>
       <r>   12.9015    0.0000 </r>
       <r>   14.1734    0.0000 </r>
       <r>   14.5525    0.0000 </r>
       <r>   16.2228    0.0000 </r>
      </set>
      <set comment="kpoint 48">
       <r>   -4.1846    1.0000 </r>
       <r>   -2.1475    1.0000 </r>
       <r>    1.0230    1.0000 </r>
       <r>    1.7110    1.0000 </r>
       <r>    5.8656    0.0000 </r>
       <r>    7.0212    0.0000 </r>
       <r>    9.3718    0.0000 </r>
       <r>   11.1218    0.0000 </r>
       <r>   12.5206    0.0000 </r>
       <r>   13.9786    0.0000 </r>
       <r>   14.9011    0.0000 </r>
       <r>   16.2402    0.0000 </r>
      </set>
      <set comment="kpoint 49">
       <r>   -3.8274    1.0000 </r>
       <r>   -2.5405    1.0000 </r>
       <r>    0.6147    1.0000 </r>
       <r>    1.8019    1.0000 </r>
       <r>    6.0364    0.0000 </r>
       <r>    8.4136    0.0000 </r>
       <r>    9.1050    0.0000 </r>
       <r>   10.4239    0.0000 </r>
       <r>   11.3980    0.0000 </r>
       <r>   13.2256    0.0000 </r>
       <r>   15.6105    0.0000 </r>
       <r>   17.0467    0.0000 </r>
      </set>
      <set comment="kpoint 50">
       <r>   -4.1426    1.0000 </r>
       <r>   -2.1983    1.0000 </r>
       <r>    0.5315    1.0000 </r>
       <r>    2.0629    1.0000 </r>
       <r>    6.3068    0.0000 </r>
       <r>    8.7017    0.0000 </r>
       <r>    9.2368    0.0000 </r>
       <r>   10.0590    0.0000 </r>
       <r>   10.8043    0.0000 </r>
       <r>   12.1055    0.0000 </r>
       <r>   16.6390    0.0000 </r>
       <r>   17.2076    0.0000 </r>
      </set>
      <set comment="kpoint 51">
       <r>   -3.7634    1.0000 </r>
       <r>   -2.6493    1.0000 </r>
       <r>    1.3704    1.0000 </r>
       <r>    1.4757    1.0000 </r>
       <r>    5.5219    0.0000 </r>
       <r>    5.7914    0.0000 </r>
       <r>   10.9759    0.0000 </r>
       <r>   11.9482    0.0000 </r>
       <r>   13.2570    0.0000 </r>
       <r>   14.0191    0.0000 </r>
       <r>   14.9531    0.0000 </r>
       <r>   16.0836    0.0000 </r>
      </set>
      <set comment="kpoint 52">
       <r>   -3.3734    1.0000 </r>
       <r>   -3.0152    1.0000 </r>
       <r>    0.8746    1.0000 </r>
       <r>    1.5329    1.0000 </r>
       <r>    5.7694    0.0000 </r>
       <r>    6.8395    0.0000 </r>
       <r>   10.6277    0.0000 </r>
       <r>   10.7724    0.0000 </r>
       <r>   12.6893    0.0000 </r>
       <r>   13.4817    0.0000 </r>
       <r>   15.4363    0.0000 </r>
       <r>   16.3862    0.0000 </r>
      </set>
      <set comment="kpoint 53">
       <r>   -4.4965    1.0000 </r>
       <r>   -1.7708    1.0000 </r>
       <r>    0.9290    1.0000 </r>
       <r>    1.8886    1.0000 </r>
       <r>    6.9542    0.0000 </r>
       <r>    7.4762    0.0000 </r>
       <r>    7.9769    0.0000 </r>
       <r>   10.7673    0.0000 </r>
       <r>   12.1593    0.0000 </r>
       <r>   12.6118    0.0000 </r>
       <r>   15.9945    0.0000 </r>
       <r>   16.6069    0.0000 </r>
      </set>
      <set comment="kpoint 54">
       <r>   -3.9907    1.0000 </r>
       <r>   -2.3526    1.0000 </r>
       <r>    0.6998    1.0000 </r>
       <r>    1.6385    1.0000 </r>
       <r>    7.2673    0.0000 </r>
       <r>    7.5846    0.0000 </r>
       <r>    8.6665    0.0000 </r>
       <r>   10.2103    0.0000 </r>
       <r>   11.3775    0.0000 </r>
       <r>   13.6081    0.0000 </r>
       <r>   15.2573    0.0000 </r>
       <r>   16.7679    0.0000 </r>
      </set>
      <set comment="kpoint 55">
       <r>   -3.6321    1.0000 </r>
       <r>   -2.7020    1.0000 </r>
       <r>    0.9044    1.0000 </r>
       <r>    1.2256    1.0000 </r>
       <r>    6.9150    0.0000 </r>
       <r>    7.1241    0.0000 </r>
       <r>    9.0435    0.0000 </r>
       <r>   10.4194    0.0000 </r>
       <r>   12.6694    0.0000 </r>
       <r>   13.8702    0.0000 </r>
       <r>   15.1632    0.0000 </r>
       <r>   16.3000    0.0000 </r>
      </set>
      <set comment="kpoint 56">
       <r>   -3.4838    1.0000 </r>
       <r>   -2.8339    1.0000 </r>
       <r>    0.6953    1.0000 </r>
       <r>    1.2522    1.0000 </r>
       <r>    7.2222    0.0000 </r>
       <r>    8.5229    0.0000 </r>
       <r>    8.6889    0.0000 </r>
       <r>    8.8689    0.0000 </r>
       <r>   12.6234    0.0000 </r>
       <r>   13.6587    0.0000 </r>
       <r>   15.3403    0.0000 </r>
       <r>   16.4409    0.0000 </r>
      </set>
     </set>
    </set>
   </array>
  </eigenvalues>
  <separator name="orbital magnetization" >
   <v name="MAGDIPOLOUT">      0.00000000      0.00000000      0.00000000</v>
  </separator>
  <dos>
   <i name="efermi">      4.42117212 </i>
   <total>
    <array>
     <dimension dim="1">gridpoints</dimension>
     <dimension dim="2">spin</dimension>
     <field>energy</field>
     <field>total</field>
     <field>integrated</field>
     <set>
      <set comment="spin 1">
       <r>    -7.9541     0.0000     0.0000 </r>
       <r>    -7.8631     0.0000     0.0000 </r>
       <r>    -7.7721     0.0000     0.0000 </r>
       <r>    -7.6811     0.0000     0.0000 </r>
       <r>    -7.5901     0.0000     0.0000 </r>
       <r>    -7.4991     0.0000     0.0000 </r>
       <r>    -7.4081     0.0000     0.0000 </r>
       <r>    -7.3171     0.0000     0.0000 </r>
       <r>    -7.2262     0.0000     0.0000 </r>
       <r>    -7.1352     0.0000     0.0000 </r>
       <r>    -7.0442     0.0000     0.0000 </r>
       <r>    -6.9532     0.0000     0.0000 </r>
       <r>    -6.8622     0.0003     0.0000 </r>
       <r>    -6.7712     0.0060     0.0006 </r>
       <r>    -6.6802     0.0431     0.0045 </r>
       <r>    -6.5892     0.1179     0.0152 </r>
       <r>    -6.4982     0.1592     0.0297 </r>
       <r>    -6.4072     0.2568     0.0531 </r>
       <r>    -6.3163     0.2950     0.0799 </r>
       <r>    -6.2253     0.2182     0.0998 </r>
       <r>    -6.1343     0.3690     0.1333 </r>
       <r>    -6.0433     0.4450     0.1738 </r>
       <r>    -5.9523     0.4064     0.2108 </r>
       <r>    -5.8613     0.3691     0.2444 </r>
       <r>    -5.7703     0.3393     0.2753 </r>
       <r>    -5.6793     0.6187     0.3316 </r>
       <r>    -5.5883     0.6331     0.3892 </r>
       <r>    -5.4974     0.5401     0.4383 </r>
       <r>    -5.4064     0.5232     0.4859 </r>
       <r>    -5.3154     0.4009     0.5224 </r>
       <r>    -5.2244     0.6835     0.5846 </r>
       <r>    -5.1334     0.9926     0.6749 </r>
       <r>    -5.0424     0.8482     0.7521 </r>
       <r>    -4.9514     0.7318     0.8187 </r>
       <r>    -4.8604     0.6151     0.8746 </r>
       <r>    -4.7694     0.8531     0.9523 </r>
       <r>    -4.6785     1.4644     1.0855 </r>
       <r>    -4.5875     1.1821     1.1931 </r>
       <r>    -4.4965     0.8512     1.2705 </r>
       <r>    -4.4055     0.7065     1.3348 </r>
       <r>    -4.3145     0.6448     1.3935 </r>
       <r>    -4.2235     1.0844     1.4921 </r>
       <r>    -4.1325     1.0594     1.5885 </r>
       <r>    -4.0415     0.5924     1.6424 </r>
       <r>    -3.9505     0.4712     1.6853 </r>
       <r>    -3.8596     0.5312     1.7336 </r>
       <r>    -3.7686     0.8317     1.8093 </r>
       <r>    -3.6776     0.6800     1.8712 </r>
       <r>    -3.5866     0.3441     1.9025 </r>
       <r>    -3.4956     0.2588     1.9261 </r>
       <r>    -3.4046     0.3067     1.9540 </r>
       <r>    -3.3136     0.3035     1.9816 </r>
       <r>    -3.2226     0.2145     2.0011 </r>
       <r>    -3.1316     0.1524     2.0150 </r>
       <r>    -3.0407     0.1716     2.0306 </r>
       <r>    -2.9497     0.2084     2.0495 </r>
       <r>    -2.8587     0.1951     2.0673 </r>
       <r>    -2.7677     0.2899     2.0937 </r>
       <r>    -2.6767     0.5500     2.1437 </r>
       <r>    -2.5857     0.8315     2.2194 </r>
       <r>    -2.4947     0.6464     2.2782 </r>
       <r>    -2.4037     0.3834     2.3131 </r>
       <r>    -2.3127     0.5372     2.3619 </r>
       <r>    -2.2217     1.0420     2.4567 </r>
       <r>    -2.1308     1.6701     2.6087 </r>
       <r>    -2.0398     1.4039     2.7364 </r>
       <r>    -1.9488     1.0445     2.8315 </r>
       <r>    -1.8578     0.7807     2.9025 </r>
       <r>    -1.7668     0.7155     2.9676 </r>
       <r>    -1.6758     0.7294     3.0340 </r>
       <r>    -1.5848     0.8890     3.1149 </r>
       <r>    -1.4938     0.7640     3.1844 </r>
       <r>    -1.4028     0.4086     3.2216 </r>
       <r>    -1.3119     0.2790     3.2470 </r>
       <r>    -1.2209     0.5349     3.2956 </r>
       <r>    -1.1299     0.6551     3.3552 </r>
       <r>    -1.0389     0.3876     3.3905 </r>
       <r>    -0.9479     0.2682     3.4149 </r>
       <r>    -0.8569     0.5187     3.4621 </r>
       <r>    -0.7659     0.5367     3.5109 </r>
       <r>    -0.6749     0.2972     3.5380 </r>
       <r>    -0.5839     0.2241     3.5584 </r>
       <r>    -0.4930     0.2468     3.5808 </r>
       <r>    -0.4020     0.2272     3.6015 </r>
       <r>    -0.3110     0.1552     3.6156 </r>
       <r>    -0.2200     0.2890     3.6419 </r>
       <r>    -0.1290     0.4915     3.6866 </r>
       <r>    -0.0380     0.3610     3.7195 </r>
       <r>     0.0530     0.2286     3.7403 </r>
       <r>     0.1440     0.1569     3.7546 </r>
       <r>     0.2350     0.0387     3.7581 </r>
       <r>     0.3259     0.0429     3.7620 </r>
       <r>     0.4169     0.2278     3.7827 </r>
       <r>     0.5079     0.5870     3.8361 </r>
       <r>     0.5989     1.0026     3.9273 </r>
       <r>     0.6899     1.1575     4.0327 </r>
       <r>     0.7809     1.0701     4.1300 </r>
       <r>     0.8719     1.5544     4.2715 </r>
       <r>     0.9629     2.0121     4.4545 </r>
       <r>     1.0539     1.3846     4.5805 </r>
       <r>     1.1449     0.8119     4.6544 </r>
       <r>     1.2358     0.8388     4.7307 </r>
       <r>     1.3268     1.3029     4.8493 </r>
       <r>     1.4178     1.5197     4.9875 </r>
       <r>     1.5088     1.4973     5.1238 </r>
       <r>     1.5998     1.3866     5.2500 </r>
       <r>     1.6908     1.8073     5.4144 </r>
       <r>     1.7818     2.0858     5.6042 </r>
       <r>     1.8728     2.0232     5.7883 </r>
       <r>     1.9638     1.4820     5.9231 </r>
       <r>     2.0547     1.4500     6.0550 </r>
       <r>     2.1457     1.8509     6.2235 </r>
       <r>     2.2367     1.6517     6.3738 </r>
       <r>     2.3277     1.3475     6.4964 </r>
       <r>     2.4187     1.5489     6.6373 </r>
       <r>     2.5097     1.8756     6.8080 </r>
       <r>     2.6007     1.5489     6.9489 </r>
       <r>     2.6917     1.3575     7.0724 </r>
       <r>     2.7827     1.5999     7.2180 </r>
       <r>     2.8736     1.2799     7.3344 </r>
       <r>     2.9646     1.0189     7.4271 </r>
       <r>     3.0556     1.4053     7.5550 </r>
       <r>     3.1466     1.0725     7.6526 </r>
       <r>     3.2376     0.5743     7.7049 </r>
       <r>     3.3286     0.8532     7.7825 </r>
       <r>     3.4196     0.7428     7.8501 </r>
       <r>     3.5106     0.3083     7.8781 </r>
       <r>     3.6016     0.3171     7.9070 </r>
       <r>     3.6925     0.3748     7.9411 </r>
       <r>     3.7835     0.1697     7.9565 </r>
       <r>     3.8745     0.1964     7.9744 </r>
       <r>     3.9655     0.1982     7.9924 </r>
       <r>     4.0565     0.0680     7.9986 </r>
       <r>     4.1475     0.0139     7.9999 </r>
       <r>     4.2385     0.0013     8.0000 </r>
       <r>     4.3295     0.0000     8.0000 </r>
       <r>     4.4205     0.0000     8.0000 </r>
       <r>     4.5115     0.0000     8.0000 </r>
       <r>     4.6024     0.0000     8.0000 </r>
       <r>     4.6934     0.0006     8.0001 </r>
       <r>     4.7844     0.0154     8.0014 </r>
       <r>     4.8754     0.1016     8.0107 </r>
       <r>     4.9664     0.1980     8.0287 </r>
       <r>     5.0574     0.2632     8.0527 </r>
       <r>     5.1484     0.3846     8.0877 </r>
       <r>     5.2394     0.4572     8.1293 </r>
       <r>     5.3304     0.5264     8.1772 </r>
       <r>     5.4213     0.4562     8.2187 </r>
       <r>     5.5123     1.0532     8.3145 </r>
       <r>     5.6033     1.4752     8.4487 </r>
       <r>     5.6943     1.1884     8.5569 </r>
       <r>     5.7853     1.5086     8.6941 </r>
       <r>     5.8763     1.9710     8.8735 </r>
       <r>     5.9673     1.7445     9.0322 </r>
       <r>     6.0583     1.4961     9.1683 </r>
       <r>     6.1493     1.7699     9.3294 </r>
       <r>     6.2402     2.0109     9.5123 </r>
       <r>     6.3312     1.9387     9.6887 </r>
       <r>     6.4222     1.4880     9.8241 </r>
       <r>     6.5132     0.8712     9.9034 </r>
       <r>     6.6042     0.8349     9.9794 </r>
       <r>     6.6952     0.7345    10.0462 </r>
       <r>     6.7862     0.8716    10.1255 </r>
       <r>     6.8772     1.1805    10.2329 </r>
       <r>     6.9682     1.4407    10.3640 </r>
       <r>     7.0591     1.7666    10.5248 </r>
       <r>     7.1501     1.9737    10.7043 </r>
       <r>     7.2411     2.4091    10.9235 </r>
       <r>     7.3321     2.0966    11.1143 </r>
       <r>     7.4231     1.8736    11.2848 </r>
       <r>     7.5141     1.9420    11.4615 </r>
       <r>     7.6051     1.8154    11.6267 </r>
       <r>     7.6961     1.4511    11.7587 </r>
       <r>     7.7871     1.2853    11.8756 </r>
       <r>     7.8780     1.6323    12.0242 </r>
       <r>     7.9690     1.8339    12.1910 </r>
       <r>     8.0600     1.2136    12.3014 </r>
       <r>     8.1510     0.4037    12.3382 </r>
       <r>     8.2420     0.4600    12.3800 </r>
       <r>     8.3330     1.3429    12.5022 </r>
       <r>     8.4240     2.4035    12.7209 </r>
       <r>     8.5150     2.3856    12.9380 </r>
       <r>     8.6060     1.5877    13.0825 </r>
       <r>     8.6970     1.9374    13.2587 </r>
       <r>     8.7879     1.8528    13.4273 </r>
       <r>     8.8789     1.1094    13.5283 </r>
       <r>     8.9699     1.0772    13.6263 </r>
       <r>     9.0609     1.2627    13.7412 </r>
       <r>     9.1519     1.1548    13.8462 </r>
       <r>     9.2429     0.9439    13.9321 </r>
       <r>     9.3339     1.0784    14.0302 </r>
       <r>     9.4249     1.5362    14.1700 </r>
       <r>     9.5159     1.4120    14.2985 </r>
       <r>     9.6068     1.0855    14.3973 </r>
       <r>     9.6978     1.3669    14.5217 </r>
       <r>     9.7888     1.6778    14.6743 </r>
       <r>     9.8798     1.1507    14.7790 </r>
       <r>     9.9708     0.6628    14.8393 </r>
       <r>    10.0618     0.5724    14.8914 </r>
       <r>    10.1528     0.6511    14.9506 </r>
       <r>    10.2438     0.9270    15.0350 </r>
       <r>    10.3348     1.0090    15.1268 </r>
       <r>    10.4257     1.1620    15.2325 </r>
       <r>    10.5167     1.2612    15.3473 </r>
       <r>    10.6077     1.1964    15.4562 </r>
       <r>    10.6987     1.6146    15.6031 </r>
       <r>    10.7897     2.2165    15.8047 </r>
       <r>    10.8807     2.1423    15.9997 </r>
       <r>    10.9717     1.7312    16.1572 </r>
       <r>    11.0627     1.5855    16.3014 </r>
       <r>    11.1537     1.2531    16.4155 </r>
       <r>    11.2446     0.7251    16.4814 </r>
       <r>    11.3356     0.7654    16.5511 </r>
       <r>    11.4266     1.2502    16.6648 </r>
       <r>    11.5176     1.1319    16.7678 </r>
       <r>    11.6086     0.7710    16.8380 </r>
       <r>    11.6996     0.8094    16.9116 </r>
       <r>    11.7906     1.1394    17.0153 </r>
       <r>    11.8816     1.3208    17.1355 </r>
       <r>    11.9726     1.6890    17.2892 </r>
       <r>    12.0636     1.9076    17.4627 </r>
       <r>    12.1545     1.9620    17.6413 </r>
       <r>    12.2455     1.8210    17.8069 </r>
       <r>    12.3365     1.1327    17.9100 </r>
       <r>    12.4275     1.2660    18.0252 </r>
       <r>    12.5185     1.6765    18.1778 </r>
       <r>    12.6095     1.9384    18.3541 </r>
       <r>    12.7005     1.5699    18.4970 </r>
       <r>    12.7915     0.8504    18.5743 </r>
       <r>    12.8825     1.1602    18.6799 </r>
       <r>    12.9734     1.3393    18.8018 </r>
       <r>    13.0644     1.3119    18.9211 </r>
       <r>    13.1554     1.9058    19.0945 </r>
       <r>    13.2464     2.2567    19.2999 </r>
       <r>    13.3374     1.6611    19.4510 </r>
       <r>    13.4284     0.9518    19.5376 </r>
       <r>    13.5194     1.0115    19.6297 </r>
       <r>    13.6104     1.5996    19.7752 </r>
       <r>    13.7014     2.0522    19.9619 </r>
       <r>    13.7923     1.8293    20.1284 </r>
       <r>    13.8833     1.3826    20.2542 </r>
       <r>    13.9743     1.1531    20.3591 </r>
       <r>    14.0653     0.9980    20.4499 </r>
       <r>    14.1563     0.9500    20.5363 </r>
       <r>    14.2473     1.2187    20.6472 </r>
       <r>    14.3383     1.1686    20.7536 </r>
       <r>    14.4293     1.0038    20.8449 </r>
       <r>    14.5203     1.4464    20.9765 </r>
       <r>    14.6112     1.7228    21.1333 </r>
       <r>    14.7022     1.4911    21.2689 </r>
       <r>    14.7932     1.5718    21.4120 </r>
       <r>    14.8842     1.7527    21.5714 </r>
       <r>    14.9752     1.6797    21.7243 </r>
       <r>    15.0662     1.0892    21.8234 </r>
       <r>    15.1572     0.9341    21.9084 </r>
       <r>    15.2482     1.6986    22.0629 </r>
       <r>    15.3392     1.8875    22.2347 </r>
       <r>    15.4302     1.4167    22.3636 </r>
       <r>    15.5211     1.4481    22.4953 </r>
       <r>    15.6121     1.7992    22.6590 </r>
       <r>    15.7031     1.9029    22.8322 </r>
       <r>    15.7941     1.1580    22.9375 </r>
       <r>    15.8851     0.7412    23.0050 </r>
       <r>    15.9761     0.5899    23.0586 </r>
       <r>    16.0671     0.9248    23.1428 </r>
       <r>    16.1581     1.3904    23.2693 </r>
       <r>    16.2491     1.6076    23.4156 </r>
       <r>    16.3400     1.3991    23.5429 </r>
       <r>    16.4310     0.8503    23.6202 </r>
       <r>    16.5220     0.4248    23.6589 </r>
       <r>    16.6130     0.4746    23.7021 </r>
       <r>    16.7040     0.6586    23.7620 </r>
       <r>    16.7950     0.5421    23.8113 </r>
       <r>    16.8860     0.2960    23.8383 </r>
       <r>    16.9770     0.3087    23.8664 </r>
       <r>    17.0680     0.5368    23.9152 </r>
       <r>    17.1589     0.3878    23.9505 </r>
       <r>    17.2499     0.2355    23.9719 </r>
       <r>    17.3409     0.0987    23.9809 </r>
       <r>    17.4319     0.0115    23.9819 </r>
       <r>    17.5229     0.0003    23.9820 </r>
       <r>    17.6139     0.0000    23.9820 </r>
       <r>    17.7049     0.0000    23.9820 </r>
       <r>    17.7959     0.0000    23.9820 </r>
       <r>    17.8869     0.0002    23.9820 </r>
       <r>    17.9778     0.0076    23.9827 </r>
       <r>    18.0688     0.0555    23.9877 </r>
       <r>    18.1598     0.0939    23.9963 </r>
       <r>    18.2508     0.0374    23.9997 </r>
       <r>    18.3418     0.0034    24.0000 </r>
       <r>    18.4328     0.0001    24.0000 </r>
       <r>    18.5238     0.0000    24.0000 </r>
       <r>    18.6148     0.0000    24.0000 </r>
       <r>    18.7058     0.0000    24.0000 </r>
       <r>    18.7967     0.0000    24.0000 </r>
       <r>    18.8877     0.0000    24.0000 </r>
       <r>    18.9787     0.0000    24.0000 </r>
       <r>    19.0697     0.0000    24.0000 </r>
       <r>    19.1607     0.0000    24.0000 </r>
       <r>    19.2517     0.0000    24.0000 </r>
       <r>    19.3427     0.0000    24.0000 </r>
      </set>
     </set>
    </array>
   </total>
  </dos>
 </calculation>
 <structure name="finalpos" >
  <crystal>
   <varray name="basis" >
    <v>       0.00000000       2.90000000       2.90000000 </v>
    <v>       2.90000000       0.00000000       2.90000000 </v>
    <v>       2.90000000       2.90000000       0.00000000 </v>
   </varray>
   <i name="volume">     48.77800000 </i>
   <varray name="rec_basis" >
    <v>      -0.17241379       0.17241379       0.17241379 </v>
    <v>       0.17241379      -0.17241379       0.17241379 </v>
    <v>       0.17241379       0.17241379      -0.17241379 </v>
   </varray>
  </crystal>
  <varray name="positions" >
   <v>       0.87500000       0.87500000       0.87500000 </v>
   <v>       0.12500000       0.12500000       0.12500000 </v>
  </varray>
 </structure>
</modeling>
