 vasp.5.4.4.18Apr17-6-g9f103f2a35 (build Mar 30 2023 15:39:25) complex          
  
 executed on             LinuxIFC date 2023.05.27  00:29:56
 running on   12 total cores
 distrk:  each k-point on   12 cores,    1 groups
 distr:  one band on NCORES_PER_BAND=   1 cores,   12 groups


--------------------------------------------------------------------------------------------------------


 INCAR:
 POTCAR:    PAW_PBE B 06Sep2000                   
 POTCAR:    PAW_PBE C 08Apr2002                   

 ----------------------------------------------------------------------------- 
|                                                                             |
|           W    W    AA    RRRRR   N    N  II  N    N   GGGG   !!!           |
|           W    W   A  A   R    R  NN   N  II  NN   N  G    G  !!!           |
|           W    W  A    A  R    R  N N  N  II  N N  N  G       !!!           |
|           W WW W  AAAAAA  RRRRR   N  N N  II  N  N N  G  GGG   !            |
|           WW  WW  A    A  R   R   N   NN  II  N   NN  G    G                |
|           W    W  A    A  R    R  N    N  II  N    N   GGGG   !!!           |
|                                                                             |
|      For optimal performance we recommend to set                            |
|        NCORE= 4 - approx SQRT( number of cores)                             |
|      NCORE specifies how many cores store one orbital (NPAR=cpu/NCORE).     |
|      This setting can  greatly improve the performance of VASP for DFT.     |
|      The default,   NCORE=1            might be grossly inefficient         |
|      on modern multi-core architectures or massively parallel machines.     |
|      Do your own testing !!!!                                               |
|      Unfortunately you need to use the default for GW and RPA calculations. |
|      (for HF NCORE is supported but not extensively tested yet)             |
|                                                                             |
 ----------------------------------------------------------------------------- 

 POTCAR:    PAW_PBE B 06Sep2000                   
   SHA256 =  a32ced30f5ae56fd4d10b4325ff17eb3e4e38ee0f4288bc219fb012fddfa6e97 B/
   COPYR  = (c) Copyright 06Sep2000 Georg Kresse                                
   COPYR  = This file is part of the software VASP. Any use, copying, and all ot
   COPYR  = If you do not have a valid VASP license, you may not use, copy or di
   VRHFIN =B: s2p1                                                              
   LEXCH  = PE                                                                  
   EATOM  =    71.1703 eV,    5.2309 Ry                                         
                                                                                
   TITEL  = PAW_PBE B 06Sep2000                                                 
   LULTRA =        F    use ultrasoft PP ?                                      
   IUNSCR =        1    unscreen: 0-lin 1-nonlin 2-no                           
   RPACOR =    1.200    partial core radius                                     
   POMASS =   10.811; ZVAL   =    3.000    mass and valenz                      
   RCORE  =    1.700    outmost cutoff radius                                   
   RWIGS  =    1.710; RWIGS  =    0.905    wigner-seitz radius (au A)           
   ENMAX  =  318.614; ENMIN  =  238.960 eV                                      
   ICORE  =        2    local potential                                         
   LCOR   =        T    correct aug charges                                     
   LPAW   =        T    paw PP                                                  
   EAUG   =  535.514                                                            
   DEXC   =    0.000                                                            
   RMAX   =    1.732    core radius for proj-oper                               
   RAUG   =    1.300    factor for augmentation sphere                          
   RDEP   =    1.757    radius for radial grids                                 
   RDEPT  =    1.436    core radius for aug-charge                              
                                                                                
   Atomic configuration                                                         
    4 entries                                                                   
     n  l   j            E        occ.                                          
     1  0  0.50      -180.5896   2.0000                                         
     2  0  0.50        -9.4431   2.0000                                         
     2  1  0.50        -3.6068   1.0000                                         
     3  2  1.50        -4.0817   0.0000                                         
   Description                                                                  
     l       E           TYP  RCUT    TYP  RCUT                                 
     0     -9.4430752     23  1.500                                             
     0      0.8675899     23  1.500                                             
     1     -3.6067955     23  1.700                                             
     1      6.1086146     23  1.700                                             
     2     -4.0817478      7  1.700                                             
  local pseudopotential read in
  partial core-charges read in
  partial kinetic energy density read in
  atomic valenz-charges read in
  non local Contribution for L=           0  read in
    real space projection operators read in
  non local Contribution for L=           0  read in
    real space projection operators read in
  non local Contribution for L=           1  read in
    real space projection operators read in
  non local Contribution for L=           1  read in
    real space projection operators read in
    PAW grid and wavefunctions read in
 
   number of l-projection  operators is LMAX  =           4
   number of lm-projection operators is LMMAX =           8
 
 POTCAR:    PAW_PBE C 08Apr2002                   
   SHA256 =  253f7b50bb8d59471dbedb8285d89021f4a42ed1a2c5d38a03a736e69125dd95 C/
   COPYR  = (c) Copyright 08Apr2002 Georg Kresse                                
   COPYR  = This file is part of the software VASP. Any use, copying, and all ot
   COPYR  = If you do not have a valid VASP license, you may not use, copy or di
   VRHFIN =C: s2p2                                                              
   LEXCH  = PE                                                                  
   EATOM  =   147.1560 eV,   10.8157 Ry                                         
                                                                                
   TITEL  = PAW_PBE C 08Apr2002                                                 
   LULTRA =        F    use ultrasoft PP ?                                      
   IUNSCR =        1    unscreen: 0-lin 1-nonlin 2-no                           
   RPACOR =    1.200    partial core radius                                     
   POMASS =   12.011; ZVAL   =    4.000    mass and valenz                      
   RCORE  =    1.500    outmost cutoff radius                                   
   RWIGS  =    1.630; RWIGS  =    0.863    wigner-seitz radius (au A)           
   ENMAX  =  400.000; ENMIN  =  300.000 eV                                      
   ICORE  =        2    local potential                                         
   LCOR   =        T    correct aug charges                                     
   LPAW   =        T    paw PP                                                  
   EAUG   =  644.873                                                            
   DEXC   =    0.000                                                            
   RMAX   =    1.529    core radius for proj-oper                               
   RAUG   =    1.300    factor for augmentation sphere                          
   RDEP   =    1.501    radius for radial grids                                 
   RDEPT  =    1.300    core radius for aug-charge                              
                                                                                
   Atomic configuration                                                         
    4 entries                                                                   
     n  l   j            E        occ.                                          
     1  0  0.50      -273.3789   2.0000                                         
     2  0  0.50       -13.7508   2.0000                                         
     2  1  0.50        -5.2854   2.0000                                         
     3  2  1.50        -5.4423   0.0000                                         
   Description                                                                  
     l       E           TYP  RCUT    TYP  RCUT                                 
     0    -13.7508458     23  1.200                                             
     0     -8.2022199     23  1.200                                             
     1     -5.2854383     23  1.500                                             
     1     34.0145650     23  1.500                                             
     2     -5.4423304      7  1.500                                             
  local pseudopotential read in
  partial core-charges read in
  partial kinetic energy density read in
  atomic valenz-charges read in
  non local Contribution for L=           0  read in
    real space projection operators read in
  non local Contribution for L=           0  read in
    real space projection operators read in
  non local Contribution for L=           1  read in
    real space projection operators read in
  non local Contribution for L=           1  read in
    real space projection operators read in
    PAW grid and wavefunctions read in
 
   number of l-projection  operators is LMAX  =           4
   number of lm-projection operators is LMMAX =           8
 
  PAW_PBE B 06Sep2000                   :
 energy of atom  1       EATOM=  -71.1703
 kinetic energy error for atom=    0.0015 (will be added to EATOM!!)
  PAW_PBE C 08Apr2002                   :
 energy of atom  2       EATOM= -147.1560
 kinetic energy error for atom=    0.0116 (will be added to EATOM!!)
 
 
 POSCAR: BC3 with lattice parameter 5.174Ang, len
  positions in direct lattice
  velocities in cartesian coordinates
 exchange correlation table for  LEXCH =        8
   RHO(1)=    0.500       N(1)  =     2000
   RHO(2)=  100.500       N(2)  =     4000
 


--------------------------------------------------------------------------------------------------------


 ion  position               nearest neighbor table
   1  0.175  0.175  0.000-   6 1.56   3 1.57   4 1.57
   2  0.508  0.508  0.000-   5 1.56   8 1.57   7 1.57
   3  1.000  1.000  0.000-   5 1.42   7 1.42   1 1.57
   4  0.524  1.000  0.000-   5 1.42   8 1.42   1 1.57
   5  0.683  0.159  0.000-   4 1.42   3 1.42   2 1.56
   6  1.000  0.524  0.000-   8 1.42   7 1.42   1 1.56
   7  0.159  0.683  0.000-   6 1.42   3 1.42   2 1.57
   8  0.683  0.683  0.000-   6 1.42   4 1.42   2 1.57
 
  LATTYP: Found a base centered orthorhombic cell.
 ALAT       =     5.1747137496
 B/A-ratio  =     1.7315605478
 C/A-ratio  =     2.1343039342
  
  Lattice vectors:
  
 A1 = (  -2.5873568748,  -4.4801650874,   0.0000000000)
 A2 = (  -2.5873568748,   4.4801650874,   0.0000000000)
 A3 = (   0.0000000000,   0.0000000000, -11.0444119143)


Analysis of symmetry for initial positions (statically):
=====================================================================
 Subroutine PRICEL returns:
 Original cell was already a primitive cell.
 

 Routine SETGRP: Setting up the symmetry group for a 
 base centered orthorhombic supercell.


 Subroutine GETGRP returns: Found  8 space group operations
 (whereof  2 operations were pure point group operations)
 out of a pool of  8 trial point group operations.


The static configuration has the point symmetry C_1h.
 The point group associated with its full space group is D_2h.


Analysis of symmetry for dynamics (positions and initial velocities):
=====================================================================
 Subroutine PRICEL returns:
 Original cell was already a primitive cell.
 

 Routine SETGRP: Setting up the symmetry group for a 
 base centered orthorhombic supercell.


 Subroutine GETGRP returns: Found  8 space group operations
 (whereof  2 operations were pure point group operations)
 out of a pool of  8 trial point group operations.


The dynamic configuration has the point symmetry C_1h.
 The point group associated with its full space group is D_2h.


 Subroutine INISYM returns: Found  8 space group operations
 (whereof  2 operations are pure point group operations),
 and found     1 'primitive' translations

 
 
 KPOINTS: K-points for BC3                        
  interpolating k-points between supplied coordinates
  k-points in reciprocal lattice
Space group operators:
 irot       det(A)        alpha          n_x          n_y          n_z        tau_x        tau_y        tau_z
    1     1.000000     0.000000     1.000000     0.000000     0.000000     0.000000     0.000000     0.000000
    2    -1.000000   180.000000     0.000000     0.000000     1.000000     0.000000     0.000000     0.000000
    3    -1.000000     0.000000     1.000000     0.000000     0.000000    -0.317502    -0.317451     0.000000
    4     1.000000   180.000000     0.000000     0.000000     1.000000    -0.317502    -0.317451     0.000000
    5     1.000000   180.000000    -0.000000     1.000000     0.000000    -0.476227    -0.000000     0.000000
    6    -1.000000   180.000000    -0.000000     1.000000     0.000000    -0.841274     0.682549     0.000000
    7     1.000000   180.000000     1.000000     0.000000     0.000000    -0.841274     0.682549     0.000000
    8    -1.000000   180.000000     1.000000     0.000000     0.000000    -0.476227    -0.000000     0.000000


--------------------------------------------------------------------------------------------------------




 Dimension of arrays:
   k-points           NKPTS =    120   k-points in BZ     NKDIM =    120   number of bands    NBANDS=     24
   number of dos      NEDOS =    301   number of ions     NIONS =      8
   non local maximal  LDIM  =      4   non local SUM 2l+1 LMDIM =      8
   total plane-waves  NPLWV = 103680
   max r-space proj   IRMAX =      1   max aug-charges    IRDMAX=   6513
   dimension x,y,z NGX =    36 NGY =   36 NGZ =   80
   dimension x,y,z NGXF=    72 NGYF=   72 NGZF=  160
   support grid    NGXF=    72 NGYF=   72 NGZF=  160
   ions per type =               2   6
   NGX,Y,Z   is equivalent  to a cutoff of  11.57, 11.57, 12.04 a.u.
   NGXF,Y,Z  is equivalent  to a cutoff of  23.13, 23.14, 24.08 a.u.

 SYSTEM =  BC3                                     
 POSCAR =  BC3 with lattice parameter 5.174Ang, len

 Startparameter for this run:
   NWRITE =      2    write-flag & timer
   PREC   = accura    normal or accurate (medium, high low for compatibility)
   ISTART =      0    job   : 0-new  1-cont  2-samecut
   ICHARG =     11    charge: 1-file 2-atom 10-const
   ISPIN  =      1    spin polarized calculation?
   LNONCOLLINEAR =      F non collinear calculations
   LSORBIT =      F    spin-orbit coupling
   INIWAV =      1    electr: 0-lowe 1-rand  2-diag
   LASPH  =      F    aspherical Exc in radial PAW
   METAGGA=      F    non-selfconsistent MetaGGA calc.

 Electronic Relaxation 1
   ENCUT  =  450.0 eV  33.07 Ry    5.75 a.u.   8.95  8.95 19.10*2*pi/ulx,y,z
   ENINI  =  450.0     initial cutoff
   ENAUG  =  644.9 eV  augmentation charge cutoff
   NELM   =     60;   NELMIN=  2; NELMDL= -5     # of ELM steps 
   EDIFF  = 0.1E-05   stopping-criterion for ELM
   LREAL  =      F    real-space projection
   NLSPLINE    = F    spline interpolate recip. space projectors
   LCOMPAT=      F    compatible to vasp.4.4
   GGA_COMPAT  = T    GGA compatible to vasp.4.4-vasp.4.6
   LMAXPAW     = -100 max onsite density
   LMAXMIX     =    2 max onsite mixed and CHGCAR
   VOSKOWN=      0    Vosko Wilk Nusair interpolation
   ROPT   =    0.00000   0.00000
 Ionic relaxation
   EDIFFG = -.1E-02   stopping-criterion for IOM
   NSW    =      0    number of steps for IOM
   NBLOCK =      1;   KBLOCK =      1    inner block; outer block 
   IBRION =     -1    ionic relax: 0-MD 1-quasi-New 2-CG
   NFREE  =      0    steps in history (QN), initial steepest desc. (CG)
   ISIF   =      2    stress and relaxation
   IWAVPR =     10    prediction:  0-non 1-charg 2-wave 3-comb
   ISYM   =      2    0-nonsym 1-usesym 2-fastsym
   LCORR  =      T    Harris-Foulkes like correction to forces

   POTIM  = 0.5000    time-step for ionic-motion
   TEIN   =    0.0    initial temperature
   TEBEG  =    0.0;   TEEND  =   0.0 temperature during run
   SMASS  =  -3.00    Nose mass-parameter (am)
   estimated Nose-frequenzy (Omega)   =  0.10E-29 period in steps =****** mass=  -0.612E-27a.u.
   SCALEE = 1.0000    scale energy and forces
   NPACO  =    256;   APACO  = 16.0  distance and # of slots for P.C.
   PSTRESS=    0.0 pullay stress

  Mass of Ions in am
   POMASS =  10.81 12.01
  Ionic Valenz
   ZVAL   =   3.00  4.00
  Atomic Wigner-Seitz radii
   RWIGS  =  -1.00 -1.00
  virtual crystal weights 
   VCA    =   1.00  1.00
   NELECT =      30.0000    total number of electrons
   NUPDOWN=      -1.0000    fix difference up-down

 DOS related values:
   EMIN   =  10.00;   EMAX   =-10.00  energy-range for DOS
   EFERMI =   0.00
   ISMEAR =     0;   SIGMA  =   0.10  broadening in eV -4-tet -1-fermi 0-gaus

 Electronic relaxation 2 (details)
   IALGO  =     38    algorithm
   LDIAG  =      T    sub-space diagonalisation (order eigenvalues)
   LSUBROT=      F    optimize rotation matrix (better conditioning)
   TURBO    =      0    0=normal 1=particle mesh
   IRESTART =      0    0=no restart 2=restart with 2 vectors
   NREBOOT  =      0    no. of reboots
   NMIN     =      0    reboot dimension
   EREF     =   0.00    reference energy to select bands
   IMIX   =      4    mixing-type and parameters
     AMIX     =   0.40;   BMIX     =  1.00
     AMIX_MAG =   1.60;   BMIX_MAG =  1.00
     AMIN     =   0.10
     WC   =   100.;   INIMIX=   1;  MIXPRE=   1;  MAXMIX= -45

 Intra band minimization:
   WEIMIN = 0.0000     energy-eigenvalue tresh-hold
   EBREAK =  0.10E-07  absolut break condition
   DEPER  =   0.30     relativ break condition  

   TIME   =   0.40     timestep for ELM

  volume/ion in A,a.u.               =      32.01       215.99
  Fermi-wavevector in a.u.,A,eV,Ry     =   0.801077  1.513816  8.731190  0.641724
  Thomas-Fermi vector in A             =   1.908495
 
 Write flags
   LWAVE        =      T    write WAVECAR
   LDOWNSAMPLE  =      F    k-point downsampling of WAVECAR
   LCHARG       =      T    write CHGCAR
   LVTOT        =      F    write LOCPOT, total local potential
   LVHAR        =      F    write LOCPOT, Hartree potential only
   LELF         =      F    write electronic localiz. function (ELF)
   LORBIT       =     11    0 simple, 1 ext, 2 COOP (PROOUT), +10 PAW based schemes


 Dipole corrections
   LMONO  =      F    monopole corrections only (constant potential shift)
   LDIPOL =      F    correct potential (dipole corrections)
   IDIPOL =      0    1-x, 2-y, 3-z, 4-all directions 
   EPSILON=  1.0000000 bulk dielectric constant

 Exchange correlation treatment:
   GGA     =    --    GGA type
   LEXCH   =     8    internal setting for exchange type
   VOSKOWN=      0    Vosko Wilk Nusair interpolation
   LHFCALC =     F    Hartree Fock is set to
   LHFONE  =     F    Hartree Fock one center treatment
   AEXX    =    0.0000 exact exchange contribution

 Linear response parameters
   LEPSILON=     F    determine dielectric tensor
   LRPA    =     F    only Hartree local field effects (RPA)
   LNABLA  =     F    use nabla operator in PAW spheres
   LVEL    =     F    velocity operator in full k-point grid
   LINTERFAST=   F  fast interpolation
   KINTER  =     0    interpolate to denser k-point grid
   CSHIFT  =0.1000    complex shift for real part using Kramers Kronig
   OMEGAMAX=  -1.0    maximum frequency
   DEG_THRESHOLD= 0.2000000E-02 threshold for treating states as degnerate
   RTIME   =   -0.100 relaxation time in fs
  (WPLASMAI=    0.000 imaginary part of plasma frequency in eV, 0.658/RTIME)
   DFIELD  = 0.0000000 0.0000000 0.0000000 field for delta impulse in time
 
 Orbital magnetization related:
   ORBITALMAG=     F  switch on orbital magnetization
   LCHIMAG   =     F  perturbation theory with respect to B field
   DQ        =  0.001000  dq finite difference perturbation B field
   LLRAUG    =     F  two centre corrections for induced B field



--------------------------------------------------------------------------------------------------------


 Static calculation
 charge density and potential remain constant during run
 non-spin polarized calculation
 Variant of blocked Davidson
 Davidson routine will perform the subspace rotation
 perform sub-space diagonalisation
    after iterative eigenvector-optimisation
 no mixing
 using additional bands            9
 reciprocal scheme for non local part
 use partial core corrections
 calculate Harris-corrections to forces 
   (improved forces if not selfconsistent)
 use gradient corrections 
 WARNING: stress and forces are not correct
  (second derivative of E(xc) not defined)
 use of overlap-Matrix (Vanderbilt PP)
 Gauss-broadening in eV      SIGMA  =   0.10


--------------------------------------------------------------------------------------------------------


  energy-cutoff  :      450.00
  volume of cell :      256.05
      direct lattice vectors                 reciprocal lattice vectors
     5.174713750  0.000000000  0.000000000     0.193247404 -0.111603030  0.000000000
     2.587356875  4.480165087  0.000000000    -0.000000000  0.223206061  0.000000000
     0.000000000  0.000000000 11.044411914     0.000000000  0.000000000  0.090543526

  length of vectors
     5.174713750  5.173615255 11.044411914     0.223158678  0.223206061  0.090543526


 
 k-points in units of 2pi/SCALE and weight: K-points for BC3                        
  -0.06435139  0.18604225  0.00000000       0.008
  -0.06270135  0.18127194  0.00000000       0.008
  -0.06105131  0.17650162  0.00000000       0.008
  -0.05940128  0.17173131  0.00000000       0.008
  -0.05775124  0.16696099  0.00000000       0.008
  -0.05610121  0.16219068  0.00000000       0.008
  -0.05445117  0.15742037  0.00000000       0.008
  -0.05280114  0.15265005  0.00000000       0.008
  -0.05115110  0.14787974  0.00000000       0.008
  -0.04950107  0.14310942  0.00000000       0.008
  -0.04785103  0.13833911  0.00000000       0.008
  -0.04620099  0.13356880  0.00000000       0.008
  -0.04455096  0.12879848  0.00000000       0.008
  -0.04290092  0.12402817  0.00000000       0.008
  -0.04125089  0.11925785  0.00000000       0.008
  -0.03960085  0.11448754  0.00000000       0.008
  -0.03795082  0.10971723  0.00000000       0.008
  -0.03630078  0.10494691  0.00000000       0.008
  -0.03465075  0.10017660  0.00000000       0.008
  -0.03300071  0.09540628  0.00000000       0.008
  -0.03135068  0.09063597  0.00000000       0.008
  -0.02970064  0.08586565  0.00000000       0.008
  -0.02805060  0.08109534  0.00000000       0.008
  -0.02640057  0.07632503  0.00000000       0.008
  -0.02475053  0.07155471  0.00000000       0.008
  -0.02310050  0.06678440  0.00000000       0.008
  -0.02145046  0.06201408  0.00000000       0.008
  -0.01980043  0.05724377  0.00000000       0.008
  -0.01815039  0.05247346  0.00000000       0.008
  -0.01650036  0.04770314  0.00000000       0.008
  -0.01485032  0.04293283  0.00000000       0.008
  -0.01320028  0.03816251  0.00000000       0.008
  -0.01155025  0.03339220  0.00000000       0.008
  -0.00990021  0.02862188  0.00000000       0.008
  -0.00825018  0.02385157  0.00000000       0.008
  -0.00660014  0.01908126  0.00000000       0.008
  -0.00495011  0.01431094  0.00000000       0.008
  -0.00330007  0.00954063  0.00000000       0.008
  -0.00165004  0.00477031  0.00000000       0.008
  -0.00000000  0.00000000  0.00000000       0.008
   0.00000000  0.00000000  0.00000000       0.008
   0.00247753 -0.00143081  0.00000000       0.008
   0.00495506 -0.00286162  0.00000000       0.008
   0.00743259 -0.00429242  0.00000000       0.008
   0.00991012 -0.00572323  0.00000000       0.008
   0.01238765 -0.00715404  0.00000000       0.008
   0.01486518 -0.00858485  0.00000000       0.008
   0.01734272 -0.01001566  0.00000000       0.008
   0.01982025 -0.01144646  0.00000000       0.008
   0.02229778 -0.01287727  0.00000000       0.008
   0.02477531 -0.01430808  0.00000000       0.008
   0.02725284 -0.01573889  0.00000000       0.008
   0.02973037 -0.01716970  0.00000000       0.008
   0.03220790 -0.01860051  0.00000000       0.008
   0.03468543 -0.02003131  0.00000000       0.008
   0.03716296 -0.02146212  0.00000000       0.008
   0.03964049 -0.02289293  0.00000000       0.008
   0.04211802 -0.02432374  0.00000000       0.008
   0.04459555 -0.02575455  0.00000000       0.008
   0.04707309 -0.02718535  0.00000000       0.008
   0.04955062 -0.02861616  0.00000000       0.008
   0.05202815 -0.03004697  0.00000000       0.008
   0.05450568 -0.03147778  0.00000000       0.008
   0.05698321 -0.03290859  0.00000000       0.008
   0.05946074 -0.03433939  0.00000000       0.008
   0.06193827 -0.03577020  0.00000000       0.008
   0.06441580 -0.03720101  0.00000000       0.008
   0.06689333 -0.03863182  0.00000000       0.008
   0.06937086 -0.04006263  0.00000000       0.008
   0.07184839 -0.04149343  0.00000000       0.008
   0.07432592 -0.04292424  0.00000000       0.008
   0.07680346 -0.04435505  0.00000000       0.008
   0.07928099 -0.04578586  0.00000000       0.008
   0.08175852 -0.04721667  0.00000000       0.008
   0.08423605 -0.04864747  0.00000000       0.008
   0.08671358 -0.05007828  0.00000000       0.008
   0.08919111 -0.05150909  0.00000000       0.008
   0.09166864 -0.05293990  0.00000000       0.008
   0.09414617 -0.05437071  0.00000000       0.008
   0.09662370 -0.05580152  0.00000000       0.008
   0.09662370 -0.05580152  0.00000000       0.008
   0.09249614 -0.04960039  0.00000000       0.008
   0.08836857 -0.04339927  0.00000000       0.008
   0.08424100 -0.03719815  0.00000000       0.008
   0.08011344 -0.03099703  0.00000000       0.008
   0.07598587 -0.02479590  0.00000000       0.008
   0.07185830 -0.01859478  0.00000000       0.008
   0.06773074 -0.01239366  0.00000000       0.008
   0.06360317 -0.00619254  0.00000000       0.008
   0.05947560  0.00000858  0.00000000       0.008
   0.05534804  0.00620971  0.00000000       0.008
   0.05122047  0.01241083  0.00000000       0.008
   0.04709291  0.01861195  0.00000000       0.008
   0.04296534  0.02481307  0.00000000       0.008
   0.03883777  0.03101420  0.00000000       0.008
   0.03471021  0.03721532  0.00000000       0.008
   0.03058264  0.04341644  0.00000000       0.008
   0.02645507  0.04961756  0.00000000       0.008
   0.02232751  0.05581868  0.00000000       0.008
   0.01819994  0.06201981  0.00000000       0.008
   0.01407238  0.06822093  0.00000000       0.008
   0.00994481  0.07442205  0.00000000       0.008
   0.00581724  0.08062317  0.00000000       0.008
   0.00168968  0.08682430  0.00000000       0.008
  -0.00243789  0.09302542  0.00000000       0.008
  -0.00656546  0.09922654  0.00000000       0.008
  -0.01069302  0.10542766  0.00000000       0.008
  -0.01482059  0.11162878  0.00000000       0.008
  -0.01894816  0.11782991  0.00000000       0.008
  -0.02307572  0.12403103  0.00000000       0.008
  -0.02720329  0.13023215  0.00000000       0.008
  -0.03133085  0.13643327  0.00000000       0.008
  -0.03545842  0.14263440  0.00000000       0.008
  -0.03958599  0.14883552  0.00000000       0.008
  -0.04371355  0.15503664  0.00000000       0.008
  -0.04784112  0.16123776  0.00000000       0.008
  -0.05196869  0.16743888  0.00000000       0.008
  -0.05609625  0.17364001  0.00000000       0.008
  -0.06022382  0.17984113  0.00000000       0.008
  -0.06435139  0.18604225  0.00000000       0.008
 
 k-points in reciprocal lattice and weights: K-points for BC3                        
  -0.33300000  0.66700000  0.00000000       0.008
  -0.32446154  0.64989744  0.00000000       0.008
  -0.31592308  0.63279487  0.00000000       0.008
  -0.30738462  0.61569231  0.00000000       0.008
  -0.29884615  0.59858974  0.00000000       0.008
  -0.29030769  0.58148718  0.00000000       0.008
  -0.28176923  0.56438462  0.00000000       0.008
  -0.27323077  0.54728205  0.00000000       0.008
  -0.26469231  0.53017949  0.00000000       0.008
  -0.25615385  0.51307692  0.00000000       0.008
  -0.24761538  0.49597436  0.00000000       0.008
  -0.23907692  0.47887179  0.00000000       0.008
  -0.23053846  0.46176923  0.00000000       0.008
  -0.22200000  0.44466667  0.00000000       0.008
  -0.21346154  0.42756410  0.00000000       0.008
  -0.20492308  0.41046154  0.00000000       0.008
  -0.19638462  0.39335897  0.00000000       0.008
  -0.18784615  0.37625641  0.00000000       0.008
  -0.17930769  0.35915385  0.00000000       0.008
  -0.17076923  0.34205128  0.00000000       0.008
  -0.16223077  0.32494872  0.00000000       0.008
  -0.15369231  0.30784615  0.00000000       0.008
  -0.14515385  0.29074359  0.00000000       0.008
  -0.13661538  0.27364103  0.00000000       0.008
  -0.12807692  0.25653846  0.00000000       0.008
  -0.11953846  0.23943590  0.00000000       0.008
  -0.11100000  0.22233333  0.00000000       0.008
  -0.10246154  0.20523077  0.00000000       0.008
  -0.09392308  0.18812821  0.00000000       0.008
  -0.08538462  0.17102564  0.00000000       0.008
  -0.07684615  0.15392308  0.00000000       0.008
  -0.06830769  0.13682051  0.00000000       0.008
  -0.05976923  0.11971795  0.00000000       0.008
  -0.05123077  0.10261538  0.00000000       0.008
  -0.04269231  0.08551282  0.00000000       0.008
  -0.03415385  0.06841026  0.00000000       0.008
  -0.02561538  0.05130769  0.00000000       0.008
  -0.01707692  0.03420513  0.00000000       0.008
  -0.00853846  0.01710256  0.00000000       0.008
  -0.00000000  0.00000000  0.00000000       0.008
   0.00000000  0.00000000  0.00000000       0.008
   0.01282051  0.00000000  0.00000000       0.008
   0.02564103  0.00000000  0.00000000       0.008
   0.03846154  0.00000000  0.00000000       0.008
   0.05128205  0.00000000  0.00000000       0.008
   0.06410256  0.00000000  0.00000000       0.008
   0.07692308  0.00000000  0.00000000       0.008
   0.08974359  0.00000000  0.00000000       0.008
   0.10256410  0.00000000  0.00000000       0.008
   0.11538462  0.00000000  0.00000000       0.008
   0.12820513  0.00000000  0.00000000       0.008
   0.14102564  0.00000000  0.00000000       0.008
   0.15384615  0.00000000  0.00000000       0.008
   0.16666667  0.00000000  0.00000000       0.008
   0.17948718  0.00000000  0.00000000       0.008
   0.19230769  0.00000000  0.00000000       0.008
   0.20512821  0.00000000  0.00000000       0.008
   0.21794872  0.00000000  0.00000000       0.008
   0.23076923  0.00000000  0.00000000       0.008
   0.24358974  0.00000000  0.00000000       0.008
   0.25641026  0.00000000  0.00000000       0.008
   0.26923077  0.00000000  0.00000000       0.008
   0.28205128  0.00000000  0.00000000       0.008
   0.29487179  0.00000000  0.00000000       0.008
   0.30769231  0.00000000  0.00000000       0.008
   0.32051282  0.00000000  0.00000000       0.008
   0.33333333  0.00000000  0.00000000       0.008
   0.34615385  0.00000000  0.00000000       0.008
   0.35897436  0.00000000  0.00000000       0.008
   0.37179487  0.00000000  0.00000000       0.008
   0.38461538  0.00000000  0.00000000       0.008
   0.39743590  0.00000000  0.00000000       0.008
   0.41025641  0.00000000  0.00000000       0.008
   0.42307692  0.00000000  0.00000000       0.008
   0.43589744  0.00000000  0.00000000       0.008
   0.44871795  0.00000000  0.00000000       0.008
   0.46153846  0.00000000  0.00000000       0.008
   0.47435897  0.00000000  0.00000000       0.008
   0.48717949  0.00000000  0.00000000       0.008
   0.50000000  0.00000000  0.00000000       0.008
   0.50000000  0.00000000  0.00000000       0.008
   0.47864103  0.01710256  0.00000000       0.008
   0.45728205  0.03420513  0.00000000       0.008
   0.43592308  0.05130769  0.00000000       0.008
   0.41456410  0.06841026  0.00000000       0.008
   0.39320513  0.08551282  0.00000000       0.008
   0.37184615  0.10261538  0.00000000       0.008
   0.35048718  0.11971795  0.00000000       0.008
   0.32912821  0.13682051  0.00000000       0.008
   0.30776923  0.15392308  0.00000000       0.008
   0.28641026  0.17102564  0.00000000       0.008
   0.26505128  0.18812821  0.00000000       0.008
   0.24369231  0.20523077  0.00000000       0.008
   0.22233333  0.22233333  0.00000000       0.008
   0.20097436  0.23943590  0.00000000       0.008
   0.17961538  0.25653846  0.00000000       0.008
   0.15825641  0.27364103  0.00000000       0.008
   0.13689744  0.29074359  0.00000000       0.008
   0.11553846  0.30784615  0.00000000       0.008
   0.09417949  0.32494872  0.00000000       0.008
   0.07282051  0.34205128  0.00000000       0.008
   0.05146154  0.35915385  0.00000000       0.008
   0.03010256  0.37625641  0.00000000       0.008
   0.00874359  0.39335897  0.00000000       0.008
  -0.01261538  0.41046154  0.00000000       0.008
  -0.03397436  0.42756410  0.00000000       0.008
  -0.05533333  0.44466667  0.00000000       0.008
  -0.07669231  0.46176923  0.00000000       0.008
  -0.09805128  0.47887179  0.00000000       0.008
  -0.11941026  0.49597436  0.00000000       0.008
  -0.14076923  0.51307692  0.00000000       0.008
  -0.16212821  0.53017949  0.00000000       0.008
  -0.18348718  0.54728205  0.00000000       0.008
  -0.20484615  0.56438462  0.00000000       0.008
  -0.22620513  0.58148718  0.00000000       0.008
  -0.24756410  0.59858974  0.00000000       0.008
  -0.26892308  0.61569231  0.00000000       0.008
  -0.29028205  0.63279487  0.00000000       0.008
  -0.31164103  0.64989744  0.00000000       0.008
  -0.33300000  0.66700000  0.00000000       0.008
 
 position of ions in fractional coordinates (direct lattice) 
   0.17460303  0.17456665  0.00000000
   0.50789541  0.50798189  0.00000000
   0.99988063  0.99998941  0.00000000
   0.52390268  0.99998941  0.00000000
   0.68254532  0.15868208  0.00000000
   0.99995312  0.52386646  0.00000000
   0.15859576  0.68255913  0.00000000
   0.68261781  0.68255913  0.00000000
 
 position of ions in cartesian coordinates  (Angst):
   1.35518692  0.78208741  0.00000000
   3.94254380  2.27584272  0.00000000
   7.76142549  4.48011762  0.00000000
   5.29837586  4.48011762  0.00000000
   3.94254380  0.71092190  0.00000000
   6.52990067  2.34700823  0.00000000
   2.58671174  3.05797760  0.00000000
   5.29837586  3.05797760  0.00000000
 


--------------------------------------------------------------------------------------------------------


 k-point  1 :  -0.3330 0.6670 0.0000  plane waves:    5532
 k-point  2 :  -0.3245 0.6499 0.0000  plane waves:    5537
 k-point  3 :  -0.3159 0.6328 0.0000  plane waves:    5537
 k-point  4 :  -0.3074 0.6157 0.0000  plane waves:    5541
 k-point  5 :  -0.2988 0.5986 0.0000  plane waves:    5543
 k-point  6 :  -0.2903 0.5815 0.0000  plane waves:    5549
 k-point  7 :  -0.2818 0.5644 0.0000  plane waves:    5555
 k-point  8 :  -0.2732 0.5473 0.0000  plane waves:    5567
 k-point  9 :  -0.2647 0.5302 0.0000  plane waves:    5575
 k-point 10 :  -0.2562 0.5131 0.0000  plane waves:    5579
 k-point 11 :  -0.2476 0.4960 0.0000  plane waves:    5579
 k-point 12 :  -0.2391 0.4789 0.0000  plane waves:    5579
 k-point 13 :  -0.2305 0.4618 0.0000  plane waves:    5580
 k-point 14 :  -0.2220 0.4447 0.0000  plane waves:    5580
 k-point 15 :  -0.2135 0.4276 0.0000  plane waves:    5576
 k-point 16 :  -0.2049 0.4105 0.0000  plane waves:    5578
 k-point 17 :  -0.1964 0.3934 0.0000  plane waves:    5577
 k-point 18 :  -0.1878 0.3763 0.0000  plane waves:    5577
 k-point 19 :  -0.1793 0.3592 0.0000  plane waves:    5575
 k-point 20 :  -0.1708 0.3421 0.0000  plane waves:    5573
 k-point 21 :  -0.1622 0.3249 0.0000  plane waves:    5576
 k-point 22 :  -0.1537 0.3078 0.0000  plane waves:    5562
 k-point 23 :  -0.1452 0.2907 0.0000  plane waves:    5552
 k-point 24 :  -0.1366 0.2736 0.0000  plane waves:    5550
 k-point 25 :  -0.1281 0.2565 0.0000  plane waves:    5544
 k-point 26 :  -0.1195 0.2394 0.0000  plane waves:    5547
 k-point 27 :  -0.1110 0.2223 0.0000  plane waves:    5541
 k-point 28 :  -0.1025 0.2052 0.0000  plane waves:    5542
 k-point 29 :  -0.0939 0.1881 0.0000  plane waves:    5537
 k-point 30 :  -0.0854 0.1710 0.0000  plane waves:    5528
 k-point 31 :  -0.0768 0.1539 0.0000  plane waves:    5522
 k-point 32 :  -0.0683 0.1368 0.0000  plane waves:    5524
 k-point 33 :  -0.0598 0.1197 0.0000  plane waves:    5522
 k-point 34 :  -0.0512 0.1026 0.0000  plane waves:    5521
 k-point 35 :  -0.0427 0.0855 0.0000  plane waves:    5521
 k-point 36 :  -0.0342 0.0684 0.0000  plane waves:    5522
 k-point 37 :  -0.0256 0.0513 0.0000  plane waves:    5511
 k-point 38 :  -0.0171 0.0342 0.0000  plane waves:    5509
 k-point 39 :  -0.0085 0.0171 0.0000  plane waves:    5521
 k-point 40 :  -0.0000 0.0000 0.0000  plane waves:    5521
 k-point 41 :   0.0000 0.0000 0.0000  plane waves:    5521
 k-point 42 :   0.0128 0.0000 0.0000  plane waves:    5517
 k-point 43 :   0.0256 0.0000 0.0000  plane waves:    5525
 k-point 44 :   0.0385 0.0000 0.0000  plane waves:    5517
 k-point 45 :   0.0513 0.0000 0.0000  plane waves:    5501
 k-point 46 :   0.0641 0.0000 0.0000  plane waves:    5507
 k-point 47 :   0.0769 0.0000 0.0000  plane waves:    5513
 k-point 48 :   0.0897 0.0000 0.0000  plane waves:    5513
 k-point 49 :   0.1026 0.0000 0.0000  plane waves:    5511
 k-point 50 :   0.1154 0.0000 0.0000  plane waves:    5517
 k-point 51 :   0.1282 0.0000 0.0000  plane waves:    5513
 k-point 52 :   0.1410 0.0000 0.0000  plane waves:    5517
 k-point 53 :   0.1538 0.0000 0.0000  plane waves:    5513
 k-point 54 :   0.1667 0.0000 0.0000  plane waves:    5515
 k-point 55 :   0.1795 0.0000 0.0000  plane waves:    5521
 k-point 56 :   0.1923 0.0000 0.0000  plane waves:    5523
 k-point 57 :   0.2051 0.0000 0.0000  plane waves:    5531
 k-point 58 :   0.2179 0.0000 0.0000  plane waves:    5533
 k-point 59 :   0.2308 0.0000 0.0000  plane waves:    5533
 k-point 60 :   0.2436 0.0000 0.0000  plane waves:    5531
 k-point 61 :   0.2564 0.0000 0.0000  plane waves:    5534
 k-point 62 :   0.2692 0.0000 0.0000  plane waves:    5536
 k-point 63 :   0.2821 0.0000 0.0000  plane waves:    5526
 k-point 64 :   0.2949 0.0000 0.0000  plane waves:    5526
 k-point 65 :   0.3077 0.0000 0.0000  plane waves:    5538
 k-point 66 :   0.3205 0.0000 0.0000  plane waves:    5536
 k-point 67 :   0.3333 0.0000 0.0000  plane waves:    5532
 k-point 68 :   0.3462 0.0000 0.0000  plane waves:    5536
 k-point 69 :   0.3590 0.0000 0.0000  plane waves:    5538
 k-point 70 :   0.3718 0.0000 0.0000  plane waves:    5542
 k-point 71 :   0.3846 0.0000 0.0000  plane waves:    5540
 k-point 72 :   0.3974 0.0000 0.0000  plane waves:    5544
 k-point 73 :   0.4103 0.0000 0.0000  plane waves:    5542
 k-point 74 :   0.4231 0.0000 0.0000  plane waves:    5544
 k-point 75 :   0.4359 0.0000 0.0000  plane waves:    5548
 k-point 76 :   0.4487 0.0000 0.0000  plane waves:    5542
 k-point 77 :   0.4615 0.0000 0.0000  plane waves:    5542
 k-point 78 :   0.4744 0.0000 0.0000  plane waves:    5543
 k-point 79 :   0.4872 0.0000 0.0000  plane waves:    5532
 k-point 80 :   0.5000 0.0000 0.0000  plane waves:    5536
 k-point 81 :   0.5000 0.0000 0.0000  plane waves:    5536
 k-point 82 :   0.4786 0.0171 0.0000  plane waves:    5549
 k-point 83 :   0.4573 0.0342 0.0000  plane waves:    5544
 k-point 84 :   0.4359 0.0513 0.0000  plane waves:    5543
 k-point 85 :   0.4146 0.0684 0.0000  plane waves:    5543
 k-point 86 :   0.3932 0.0855 0.0000  plane waves:    5547
 k-point 87 :   0.3718 0.1026 0.0000  plane waves:    5527
 k-point 88 :   0.3505 0.1197 0.0000  plane waves:    5547
 k-point 89 :   0.3291 0.1368 0.0000  plane waves:    5547
 k-point 90 :   0.3078 0.1539 0.0000  plane waves:    5545
 k-point 91 :   0.2864 0.1710 0.0000  plane waves:    5542
 k-point 92 :   0.2651 0.1881 0.0000  plane waves:    5533
 k-point 93 :   0.2437 0.2052 0.0000  plane waves:    5528
 k-point 94 :   0.2223 0.2223 0.0000  plane waves:    5529
 k-point 95 :   0.2010 0.2394 0.0000  plane waves:    5525
 k-point 96 :   0.1796 0.2565 0.0000  plane waves:    5534
 k-point 97 :   0.1583 0.2736 0.0000  plane waves:    5540
 k-point 98 :   0.1369 0.2907 0.0000  plane waves:    5548
 k-point 99 :   0.1155 0.3078 0.0000  plane waves:    5539
 k-point ** :   0.0942 0.3249 0.0000  plane waves:    5531
 k-point ** :   0.0728 0.3421 0.0000  plane waves:    5533
 k-point ** :   0.0515 0.3592 0.0000  plane waves:    5541
 k-point ** :   0.0301 0.3763 0.0000  plane waves:    5539
 k-point ** :   0.0087 0.3934 0.0000  plane waves:    5544
 k-point ** :  -0.0126 0.4105 0.0000  plane waves:    5548
 k-point ** :  -0.0340 0.4276 0.0000  plane waves:    5546
 k-point ** :  -0.0553 0.4447 0.0000  plane waves:    5553
 k-point ** :  -0.0767 0.4618 0.0000  plane waves:    5559
 k-point ** :  -0.0981 0.4789 0.0000  plane waves:    5569
 k-point ** :  -0.1194 0.4960 0.0000  plane waves:    5558
 k-point ** :  -0.1408 0.5131 0.0000  plane waves:    5560
 k-point ** :  -0.1621 0.5302 0.0000  plane waves:    5570
 k-point ** :  -0.1835 0.5473 0.0000  plane waves:    5569
 k-point ** :  -0.2048 0.5644 0.0000  plane waves:    5565
 k-point ** :  -0.2262 0.5815 0.0000  plane waves:    5561
 k-point ** :  -0.2476 0.5986 0.0000  plane waves:    5562
 k-point ** :  -0.2689 0.6157 0.0000  plane waves:    5543
 k-point ** :  -0.2903 0.6328 0.0000  plane waves:    5536
 k-point ** :  -0.3116 0.6499 0.0000  plane waves:    5537
 k-point ** :  -0.3330 0.6670 0.0000  plane waves:    5532

 maximum and minimum number of plane-waves per node :      5580     5501

 maximum number of plane-waves:      5580
 maximum index in each direction: 
   IXMAX=    9   IYMAX=    8   IZMAX=   19
   IXMIN=   -9   IYMIN=   -9   IZMIN=  -19


 serial   3D FFT for wavefunctions
 parallel 3D FFT for charge:
    minimum data exchange during FFTs selected (reduces bandwidth)


 total amount of memory used by VASP MPI-rank0   148993. kBytes
=======================================================================

   base      :      30000. kBytes
   nonl-proj :      86423. kBytes
   fftplans  :       2770. kBytes
   grid      :       8073. kBytes
   one-center:         24. kBytes
   wavefun   :      21703. kBytes
 
     INWAV:  cpu time    0.0000: real time    0.0000
 initial charge density was supplied:
 number of electron      30.0000001 magnetization 
 keeping initial charge density in first step


--------------------------------------------------------------------------------------------------------


 Maximum index for augmentation-charges          427 (set IRDMAX)


--------------------------------------------------------------------------------------------------------


 First call to EWALD:  gamma=   0.279
 Maximum number of real-space cells 4x 4x 2
 Maximum number of reciprocal cells 2x 2x 4

    FEWALD:  cpu time    0.0019: real time    0.0021


--------------------------------------- Iteration      1(   1)  ---------------------------------------


    POTLOK:  cpu time    0.0803: real time    0.0811
    SETDIJ:  cpu time    0.0030: real time    0.0030
