<?xml version="1.0" encoding="ISO-8859-1"?>
<modeling>
 <generator>
  <i name="program" type="string">vasp </i>
  <i name="version" type="string">5.4.4.18Apr17-6-g9f103f2a35  </i>
  <i name="subversion" type="string">(build Mar 30 2023 15:39:25) complex            parallel </i>
  <i name="platform" type="string">LinuxIFC </i>
  <i name="date" type="string">2023 05 27 </i>
  <i name="time" type="string">00:29:56 </i>
 </generator>
 <incar>
  <i type="string" name="SYSTEM"> BC3</i>
  <i type="int" name="ISTART">     0</i>
  <i type="string" name="PREC">accurate</i>
  <i type="string" name="ALGO"> Normal</i>
  <i type="int" name="ICHARG">    11</i>
  <i type="int" name="IBRION">    -1</i>
  <i name="EDIFF">      0.00000100</i>
  <i name="EDIFFG">     -0.00100000</i>
  <i type="int" name="NSW">     0</i>
  <i name="ENCUT">    450.00000000</i>
  <i type="int" name="ISMEAR">     0</i>
  <i name="SIGMA">      0.10000000</i>
  <i type="int" name="LORBIT">    11</i>
  <v type="int" name="KPOINT_BSE">    -1     0     0     0</v>
 </incar>
 <structure name="primitive_cell" >
  <crystal>
   <varray name="basis" >
    <v>       5.17471375       0.00000000       0.00000000 </v>
    <v>       2.58735687       4.48016509       0.00000000 </v>
    <v>       0.00000000       0.00000000      11.04441191 </v>
   </varray>
   <i name="volume">    256.04891747 </i>
   <varray name="rec_basis" >
    <v>       0.19324740      -0.11160303       0.00000000 </v>
    <v>      -0.00000000       0.22320606       0.00000000 </v>
    <v>       0.00000000       0.00000000       0.09054353 </v>
   </varray>
  </crystal>
  <varray name="positions" >
   <v>       0.17460303       0.17456665       0.00000000 </v>
   <v>      -0.00004688      -0.47613354       0.00000000 </v>
   <v>      -0.00011937      -0.00001059       0.00000000 </v>
   <v>      -0.47609732      -0.00001059       0.00000000 </v>
   <v>       0.15859576      -0.31744087       0.00000000 </v>
   <v>      -0.31738219      -0.31744087       0.00000000 </v>
   <v>      -0.31745468       0.15868208       0.00000000 </v>
   <v>      -0.49210459      -0.49201811       0.00000000 </v>
  </varray>
 </structure>
 <varray name="primitive_index" >
  <v type="int" >        1 </v>
  <v type="int" >        6 </v>
  <v type="int" >        3 </v>
  <v type="int" >        4 </v>
  <v type="int" >        7 </v>
  <v type="int" >        8 </v>
  <v type="int" >        5 </v>
  <v type="int" >        2 </v>
 </varray>
 <kpoints>
  <generation param="listgenerated">
   <i name="divisions" type="int">      40 </i>
   <v>      -0.33300000       0.66700000       0.00000000 </v>
   <v>       0.00000000       0.00000000       0.00000000 </v>
   <v>       0.50000000       0.00000000       0.00000000 </v>
   <v>      -0.33300000       0.66700000       0.00000000 </v>
  </generation>
  <varray name="kpointlist" >
   <v>      -0.33300000       0.66700000       0.00000000 </v>
   <v>      -0.32446154       0.64989744       0.00000000 </v>
   <v>      -0.31592308       0.63279487       0.00000000 </v>
   <v>      -0.30738462       0.61569231       0.00000000 </v>
   <v>      -0.29884615       0.59858974       0.00000000 </v>
   <v>      -0.29030769       0.58148718       0.00000000 </v>
   <v>      -0.28176923       0.56438462       0.00000000 </v>
   <v>      -0.27323077       0.54728205       0.00000000 </v>
   <v>      -0.26469231       0.53017949       0.00000000 </v>
   <v>      -0.25615385       0.51307692       0.00000000 </v>
   <v>      -0.24761538       0.49597436       0.00000000 </v>
   <v>      -0.23907692       0.47887179       0.00000000 </v>
   <v>      -0.23053846       0.46176923       0.00000000 </v>
   <v>      -0.22200000       0.44466667       0.00000000 </v>
   <v>      -0.21346154       0.42756410       0.00000000 </v>
   <v>      -0.20492308       0.41046154       0.00000000 </v>
   <v>      -0.19638462       0.39335897       0.00000000 </v>
   <v>      -0.18784615       0.37625641       0.00000000 </v>
   <v>      -0.17930769       0.35915385       0.00000000 </v>
   <v>      -0.17076923       0.34205128       0.00000000 </v>
   <v>      -0.16223077       0.32494872       0.00000000 </v>
   <v>      -0.15369231       0.30784615       0.00000000 </v>
   <v>      -0.14515385       0.29074359       0.00000000 </v>
   <v>      -0.13661538       0.27364103       0.00000000 </v>
   <v>      -0.12807692       0.25653846       0.00000000 </v>
   <v>      -0.11953846       0.23943590       0.00000000 </v>
   <v>      -0.11100000       0.22233333       0.00000000 </v>
   <v>      -0.10246154       0.20523077       0.00000000 </v>
   <v>      -0.09392308       0.18812821       0.00000000 </v>
   <v>      -0.08538462       0.17102564       0.00000000 </v>
   <v>      -0.07684615       0.15392308       0.00000000 </v>
   <v>      -0.06830769       0.13682051       0.00000000 </v>
   <v>      -0.05976923       0.11971795       0.00000000 </v>
   <v>      -0.05123077       0.10261538       0.00000000 </v>
   <v>      -0.04269231       0.08551282       0.00000000 </v>
   <v>      -0.03415385       0.06841026       0.00000000 </v>
   <v>      -0.02561538       0.05130769       0.00000000 </v>
   <v>      -0.01707692       0.03420513       0.00000000 </v>
   <v>      -0.00853846       0.01710256       0.00000000 </v>
   <v>      -0.00000000       0.00000000       0.00000000 </v>
   <v>       0.00000000       0.00000000       0.00000000 </v>
   <v>       0.01282051       0.00000000       0.00000000 </v>
   <v>       0.02564103       0.00000000       0.00000000 </v>
   <v>       0.03846154       0.00000000       0.00000000 </v>
   <v>       0.05128205       0.00000000       0.00000000 </v>
   <v>       0.06410256       0.00000000       0.00000000 </v>
   <v>       0.07692308       0.00000000       0.00000000 </v>
   <v>       0.08974359       0.00000000       0.00000000 </v>
   <v>       0.10256410       0.00000000       0.00000000 </v>
   <v>       0.11538462       0.00000000       0.00000000 </v>
   <v>       0.12820513       0.00000000       0.00000000 </v>
   <v>       0.14102564       0.00000000       0.00000000 </v>
   <v>       0.15384615       0.00000000       0.00000000 </v>
   <v>       0.16666667       0.00000000       0.00000000 </v>
   <v>       0.17948718       0.00000000       0.00000000 </v>
   <v>       0.19230769       0.00000000       0.00000000 </v>
   <v>       0.20512821       0.00000000       0.00000000 </v>
   <v>       0.21794872       0.00000000       0.00000000 </v>
   <v>       0.23076923       0.00000000       0.00000000 </v>
   <v>       0.24358974       0.00000000       0.00000000 </v>
   <v>       0.25641026       0.00000000       0.00000000 </v>
   <v>       0.26923077       0.00000000       0.00000000 </v>
   <v>       0.28205128       0.00000000       0.00000000 </v>
   <v>       0.29487179       0.00000000       0.00000000 </v>
   <v>       0.30769231       0.00000000       0.00000000 </v>
   <v>       0.32051282       0.00000000       0.00000000 </v>
   <v>       0.33333333       0.00000000       0.00000000 </v>
   <v>       0.34615385       0.00000000       0.00000000 </v>
   <v>       0.35897436       0.00000000       0.00000000 </v>
   <v>       0.37179487       0.00000000       0.00000000 </v>
   <v>       0.38461538       0.00000000       0.00000000 </v>
   <v>       0.39743590       0.00000000       0.00000000 </v>
   <v>       0.41025641       0.00000000       0.00000000 </v>
   <v>       0.42307692       0.00000000       0.00000000 </v>
   <v>       0.43589744       0.00000000       0.00000000 </v>
   <v>       0.44871795       0.00000000       0.00000000 </v>
   <v>       0.46153846       0.00000000       0.00000000 </v>
   <v>       0.47435897       0.00000000       0.00000000 </v>
   <v>       0.48717949       0.00000000       0.00000000 </v>
   <v>       0.50000000       0.00000000       0.00000000 </v>
   <v>       0.50000000       0.00000000       0.00000000 </v>
   <v>       0.47864103       0.01710256       0.00000000 </v>
   <v>       0.45728205       0.03420513       0.00000000 </v>
   <v>       0.43592308       0.05130769       0.00000000 </v>
   <v>       0.41456410       0.06841026       0.00000000 </v>
   <v>       0.39320513       0.08551282       0.00000000 </v>
   <v>       0.37184615       0.10261538       0.00000000 </v>
   <v>       0.35048718       0.11971795       0.00000000 </v>
   <v>       0.32912821       0.13682051       0.00000000 </v>
   <v>       0.30776923       0.15392308       0.00000000 </v>
   <v>       0.28641026       0.17102564       0.00000000 </v>
   <v>       0.26505128       0.18812821       0.00000000 </v>
   <v>       0.24369231       0.20523077       0.00000000 </v>
   <v>       0.22233333       0.22233333       0.00000000 </v>
   <v>       0.20097436       0.23943590       0.00000000 </v>
   <v>       0.17961538       0.25653846       0.00000000 </v>
   <v>       0.15825641       0.27364103       0.00000000 </v>
   <v>       0.13689744       0.29074359       0.00000000 </v>
   <v>       0.11553846       0.30784615       0.00000000 </v>
   <v>       0.09417949       0.32494872       0.00000000 </v>
   <v>       0.07282051       0.34205128       0.00000000 </v>
   <v>       0.05146154       0.35915385       0.00000000 </v>
   <v>       0.03010256       0.37625641       0.00000000 </v>
   <v>       0.00874359       0.39335897       0.00000000 </v>
   <v>      -0.01261538       0.41046154       0.00000000 </v>
   <v>      -0.03397436       0.42756410       0.00000000 </v>
   <v>      -0.05533333       0.44466667       0.00000000 </v>
   <v>      -0.07669231       0.46176923       0.00000000 </v>
   <v>      -0.09805128       0.47887179       0.00000000 </v>
   <v>      -0.11941026       0.49597436       0.00000000 </v>
   <v>      -0.14076923       0.51307692       0.00000000 </v>
   <v>      -0.16212821       0.53017949       0.00000000 </v>
   <v>      -0.18348718       0.54728205       0.00000000 </v>
   <v>      -0.20484615       0.56438462       0.00000000 </v>
   <v>      -0.22620513       0.58148718       0.00000000 </v>
   <v>      -0.24756410       0.59858974       0.00000000 </v>
   <v>      -0.26892308       0.61569231       0.00000000 </v>
   <v>      -0.29028205       0.63279487       0.00000000 </v>
   <v>      -0.31164103       0.64989744       0.00000000 </v>
   <v>      -0.33300000       0.66700000       0.00000000 </v>
  </varray>
  <varray name="weights" >
   <v>       0.00833333 </v>
   <v>       0.00833333 </v>
   <v>       0.00833333 </v>
   <v>       0.00833333 </v>
   <v>       0.00833333 </v>
   <v>       0.00833333 </v>
   <v>       0.00833333 </v>
   <v>       0.00833333 </v>
   <v>       0.00833333 </v>
   <v>       0.00833333 </v>
   <v>       0.00833333 </v>
   <v>       0.00833333 </v>
   <v>       0.00833333 </v>
   <v>       0.00833333 </v>
   <v>       0.00833333 </v>
   <v>       0.00833333 </v>
   <v>       0.00833333 </v>
   <v>       0.00833333 </v>
   <v>       0.00833333 </v>
   <v>       0.00833333 </v>
   <v>       0.00833333 </v>
   <v>       0.00833333 </v>
   <v>       0.00833333 </v>
   <v>       0.00833333 </v>
   <v>       0.00833333 </v>
   <v>       0.00833333 </v>
   <v>       0.00833333 </v>
   <v>       0.00833333 </v>
   <v>       0.00833333 </v>
   <v>       0.00833333 </v>
   <v>       0.00833333 </v>
   <v>       0.00833333 </v>
   <v>       0.00833333 </v>
   <v>       0.00833333 </v>
   <v>       0.00833333 </v>
   <v>       0.00833333 </v>
   <v>       0.00833333 </v>
   <v>       0.00833333 </v>
   <v>       0.00833333 </v>
   <v>       0.00833333 </v>
   <v>       0.00833333 </v>
   <v>       0.00833333 </v>
   <v>       0.00833333 </v>
   <v>       0.00833333 </v>
   <v>       0.00833333 </v>
   <v>       0.00833333 </v>
   <v>       0.00833333 </v>
   <v>       0.00833333 </v>
   <v>       0.00833333 </v>
   <v>       0.00833333 </v>
   <v>       0.00833333 </v>
   <v>       0.00833333 </v>
   <v>       0.00833333 </v>
   <v>       0.00833333 </v>
   <v>       0.00833333 </v>
   <v>       0.00833333 </v>
   <v>       0.00833333 </v>
   <v>       0.00833333 </v>
   <v>       0.00833333 </v>
   <v>       0.00833333 </v>
   <v>       0.00833333 </v>
   <v>       0.00833333 </v>
   <v>       0.00833333 </v>
   <v>       0.00833333 </v>
   <v>       0.00833333 </v>
   <v>       0.00833333 </v>
   <v>       0.00833333 </v>
   <v>       0.00833333 </v>
   <v>       0.00833333 </v>
   <v>       0.00833333 </v>
   <v>       0.00833333 </v>
   <v>       0.00833333 </v>
   <v>       0.00833333 </v>
   <v>       0.00833333 </v>
   <v>       0.00833333 </v>
   <v>       0.00833333 </v>
   <v>       0.00833333 </v>
   <v>       0.00833333 </v>
   <v>       0.00833333 </v>
   <v>       0.00833333 </v>
   <v>       0.00833333 </v>
   <v>       0.00833333 </v>
   <v>       0.00833333 </v>
   <v>       0.00833333 </v>
   <v>       0.00833333 </v>
   <v>       0.00833333 </v>
   <v>       0.00833333 </v>
   <v>       0.00833333 </v>
   <v>       0.00833333 </v>
   <v>       0.00833333 </v>
   <v>       0.00833333 </v>
   <v>       0.00833333 </v>
   <v>       0.00833333 </v>
   <v>       0.00833333 </v>
   <v>       0.00833333 </v>
   <v>       0.00833333 </v>
   <v>       0.00833333 </v>
   <v>       0.00833333 </v>
   <v>       0.00833333 </v>
   <v>       0.00833333 </v>
   <v>       0.00833333 </v>
   <v>       0.00833333 </v>
   <v>       0.00833333 </v>
   <v>       0.00833333 </v>
   <v>       0.00833333 </v>
   <v>       0.00833333 </v>
   <v>       0.00833333 </v>
   <v>       0.00833333 </v>
   <v>       0.00833333 </v>
   <v>       0.00833333 </v>
   <v>       0.00833333 </v>
   <v>       0.00833333 </v>
   <v>       0.00833333 </v>
   <v>       0.00833333 </v>
   <v>       0.00833333 </v>
   <v>       0.00833333 </v>
   <v>       0.00833333 </v>
   <v>       0.00833333 </v>
   <v>       0.00833333 </v>
   <v>       0.00833333 </v>
  </varray>
 </kpoints>
 <parameters>
  <separator name="general" >
   <i type="string" name="SYSTEM">BC3</i>
   <i type="logical" name="LCOMPAT"> F  </i>
  </separator>
  <separator name="electronic" >
   <i type="string" name="PREC">accura</i>
   <i name="ENMAX">    450.00000000</i>
   <i name="ENAUG">    644.87300000</i>
   <i name="EDIFF">      0.00000100</i>
   <i type="int" name="IALGO">    38</i>
   <i type="int" name="IWAVPR">    10</i>
   <i type="int" name="NBANDS">    24</i>
   <i name="NELECT">     30.00000000</i>
   <i type="int" name="TURBO">     0</i>
   <i type="int" name="IRESTART">     0</i>
   <i type="int" name="NREBOOT">     0</i>
   <i type="int" name="NMIN">     0</i>
   <i name="EREF">      0.00000000</i>
   <separator name="electronic smearing" >
    <i type="int" name="ISMEAR">     0</i>
    <i name="SIGMA">      0.10000000</i>
    <i name="KSPACING">      0.50000000</i>
    <i type="logical" name="KGAMMA"> T  </i>
   </separator>
   <separator name="electronic projectors" >
    <i type="logical" name="LREAL"> F  </i>
    <v name="ROPT">      0.00000000      0.00000000</v>
    <i type="int" name="LMAXPAW">  -100</i>
    <i type="int" name="LMAXMIX">     2</i>
    <i type="logical" name="NLSPLINE"> F  </i>
   </separator>
   <separator name="electronic startup" >
    <i type="int" name="ISTART">     0</i>
    <i type="int" name="ICHARG">    11</i>
    <i type="int" name="INIWAV">     1</i>
   </separator>
   <separator name="electronic spin" >
    <i type="int" name="ISPIN">     1</i>
    <i type="logical" name="LNONCOLLINEAR"> F  </i>
    <v name="MAGMOM">      1.00000000      1.00000000      1.00000000      1.00000000      1.00000000      1.00000000      1.00000000      1.00000000</v>
    <i name="NUPDOWN">     -1.00000000</i>
    <i type="logical" name="LSORBIT"> F  </i>
    <v name="SAXIS">      0.00000000      0.00000000      1.00000000</v>
    <i type="logical" name="LSPIRAL"> F  </i>
    <v name="QSPIRAL">      0.00000000      0.00000000      0.00000000</v>
    <i type="logical" name="LZEROZ"> F  </i>
   </separator>
   <separator name="electronic exchange-correlation" >
    <i type="logical" name="LASPH"> F  </i>
    <i type="logical" name="LMETAGGA"> F  </i>
   </separator>
   <separator name="electronic convergence" >
    <i type="int" name="NELM">    60</i>
    <i type="int" name="NELMDL">    -5</i>
    <i type="int" name="NELMIN">     2</i>
    <i name="ENINI">    450.00000000</i>
    <separator name="electronic convergence detail" >
     <i type="logical" name="LDIAG"> T  </i>
     <i type="logical" name="LSUBROT"> F  </i>
     <i name="WEIMIN">      0.00000000</i>
     <i name="EBREAK">      0.00000001</i>
     <i name="DEPER">      0.30000000</i>
     <i type="int" name="NRMM">     4</i>
     <i name="TIME">      0.40000000</i>
    </separator>
   </separator>
   <separator name="electronic mixer" >
    <i name="AMIX">      0.40000000</i>
    <i name="BMIX">      1.00000000</i>
    <i name="AMIN">      0.10000000</i>
    <i name="AMIX_MAG">      1.60000000</i>
    <i name="BMIX_MAG">      1.00000000</i>
    <separator name="electronic mixer details" >
     <i type="int" name="IMIX">     4</i>
     <i type="logical" name="MIXFIRST"> F  </i>
     <i type="int" name="MAXMIX">   -45</i>
     <i name="WC">    100.00000000</i>
     <i type="int" name="INIMIX">     1</i>
     <i type="int" name="MIXPRE">     1</i>
     <i type="int" name="MREMOVE">     5</i>
    </separator>
   </separator>
   <separator name="electronic dipolcorrection" >
    <i type="logical" name="LDIPOL"> F  </i>
    <i type="logical" name="LMONO"> F  </i>
    <i type="int" name="IDIPOL">     0</i>
    <i name="EPSILON">      1.00000000</i>
    <v name="DIPOL">   -100.00000000   -100.00000000   -100.00000000</v>
    <i name="EFIELD">      0.00000000</i>
   </separator>
  </separator>
  <separator name="grids" >
   <i type="int" name="NGX">    36</i>
   <i type="int" name="NGY">    36</i>
   <i type="int" name="NGZ">    80</i>
   <i type="int" name="NGXF">    72</i>
   <i type="int" name="NGYF">    72</i>
   <i type="int" name="NGZF">   160</i>
   <i type="logical" name="ADDGRID"> F  </i>
  </separator>
  <separator name="ionic" >
   <i type="int" name="NSW">     0</i>
   <i type="int" name="IBRION">    -1</i>
   <i type="int" name="MDALGO">     0</i>
   <i type="int" name="ISIF">     2</i>
   <i name="PSTRESS">      0.00000000</i>
   <i name="EDIFFG">     -0.00100000</i>
   <i type="int" name="NFREE">     0</i>
   <i name="POTIM">      0.50000000</i>
   <i name="SMASS">     -3.00000000</i>
   <i name="SCALEE">      1.00000000</i>
  </separator>
  <separator name="ionic md" >
   <i name="TEBEG">      0.00010000</i>
   <i name="TEEND">      0.00010000</i>
   <i type="int" name="NBLOCK">     1</i>
   <i type="int" name="KBLOCK">     1</i>
   <i type="int" name="NPACO">   256</i>
   <i name="APACO">     16.00000000</i>
  </separator>
  <separator name="symmetry" >
   <i type="int" name="ISYM">     2</i>
   <i name="SYMPREC">      0.00001000</i>
  </separator>
  <separator name="dos" >
   <i type="int" name="LORBIT">    11</i>
   <v name="RWIGS">     -1.00000000     -1.00000000</v>
   <i type="int" name="NEDOS">   301</i>
   <i name="EMIN">     10.00000000</i>
   <i name="EMAX">    -10.00000000</i>
   <i name="EFERMI">      0.00000000</i>
  </separator>
  <separator name="writing" >
   <i type="int" name="NWRITE">     2</i>
   <i type="logical" name="LWAVE"> T  </i>
   <i type="logical" name="LDOWNSAMPLE"> F  </i>
   <i type="logical" name="LCHARG"> T  </i>
   <i type="logical" name="LPARD"> F  </i>
   <i type="logical" name="LVTOT"> F  </i>
   <i type="logical" name="LVHAR"> F  </i>
   <i type="logical" name="LELF"> F  </i>
   <i type="logical" name="LOPTICS"> F  </i>
   <v name="STM">      0.00000000      0.00000000      0.00000000      0.00000000      0.00000000      0.00000000      0.00000000</v>
  </separator>
  <separator name="performance" >
   <i type="int" name="NPAR">    12</i>
   <i type="int" name="NSIM">     4</i>
   <i type="int" name="NBLK">    -1</i>
   <i type="logical" name="LPLANE"> T  </i>
   <i type="logical" name="LSCALAPACK"> T  </i>
   <i type="logical" name="LSCAAWARE"> F  </i>
   <i type="logical" name="LSCALU"> F  </i>
   <i type="logical" name="LASYNC"> F  </i>
   <i type="logical" name="LORBITALREAL"> F  </i>
  </separator>
  <separator name="miscellaneous" >
   <i type="int" name="IDIOT">     3</i>
   <i type="int" name="ISPECIAL">     0</i>
   <i type="logical" name="LMUSIC"> F  </i>
   <v name="POMASS">     10.81100000     12.01100000</v>
   <v name="DARWINR">      0.00000000      0.00000000</v>
   <v name="DARWINV">      1.00000000      1.00000000</v>
   <i type="logical" name="LCORR"> T  </i>
  </separator>
  <i type="logical" name="GGA_COMPAT"> T  </i>
  <i type="logical" name="LBERRY"> F  </i>
  <i type="int" name="ICORELEVEL">     0</i>
  <i type="logical" name="LDAU"> F  </i>
  <i type="int" name="I_CONSTRAINED_M">     0</i>
  <separator name="electronic exchange-correlation" >
   <i type="string" name="GGA">--</i>
   <i type="int" name="VOSKOWN">     0</i>
   <i type="logical" name="LHFCALC"> F  </i>
   <i type="string" name="PRECFOCK"></i>
   <i type="logical" name="LSYMGRAD"> F  </i>
   <i type="logical" name="LHFONE"> F  </i>
   <i type="logical" name="LRHFCALC"> F  </i>
   <i type="logical" name="LTHOMAS"> F  </i>
   <i type="logical" name="LMODELHF"> F  </i>
   <i name="ENCUT4O">     -1.00000000</i>
   <i type="int" name="EXXOEP">     0</i>
   <i type="int" name="FOURORBIT">     0</i>
   <i name="AEXX">      0.00000000</i>
   <i name="HFALPHA">      0.00000000</i>
   <i name="MCALPHA">      0.00000000</i>
   <i name="ALDAX">      1.00000000</i>
   <i name="AGGAX">      1.00000000</i>
   <i name="ALDAC">      1.00000000</i>
   <i name="AGGAC">      1.00000000</i>
   <i type="int" name="NKREDX">     1</i>
   <i type="int" name="NKREDY">     1</i>
   <i type="int" name="NKREDZ">     1</i>
   <i type="logical" name="SHIFTRED"> F  </i>
   <i type="logical" name="ODDONLY"> F  </i>
   <i type="logical" name="EVENONLY"> F  </i>
   <i type="int" name="LMAXFOCK">     0</i>
   <i type="int" name="NMAXFOCKAE">     0</i>
   <i type="logical" name="LFOCKAEDFT"> F  </i>
   <i name="HFSCREEN">      0.00000000</i>
   <i name="HFSCREENC">      0.00000000</i>
   <i type="int" name="NBANDSGWLOW">     0</i>
  </separator>
  <separator name="vdW DFT" >
   <i type="logical" name="LUSE_VDW"> F  </i>
   <i name="Zab_VDW">     -0.84910000</i>
   <i name="PARAM1">      0.12340000</i>
   <i name="PARAM2">      1.00000000</i>
   <i name="PARAM3">      0.00000000</i>
  </separator>
  <separator name="model GW" >
   <i type="int" name="MODEL_GW">     0</i>
   <i name="MODEL_EPS0">     19.20366881</i>
   <i name="MODEL_ALPHA">      1.00000000</i>
  </separator>
  <separator name="linear response parameters" >
   <i type="logical" name="LEPSILON"> F  </i>
   <i type="logical" name="LRPA"> F  </i>
   <i type="logical" name="LNABLA"> F  </i>
   <i type="logical" name="LVEL"> F  </i>
   <i type="int" name="KINTER">     0</i>
   <i name="CSHIFT">      0.10000000</i>
   <i name="OMEGAMAX">     -1.00000000</i>
   <i name="DEG_THRESHOLD">      0.00200000</i>
   <i name="RTIME">     -0.10000000</i>
   <i name="WPLASMAI">      0.00000000</i>
   <v name="DFIELD">      0.00000000      0.00000000      0.00000000</v>
   <v name="WPLASMA">      0.00000000      0.00000000      0.00000000      0.00000000      0.00000000      0.00000000      0.00000000      0.00000000      0.00000000</v>
  </separator>
  <separator name="orbital magnetization" >
   <i type="logical" name="NUCIND"> F  </i>
   <v name="MAGPOS">      0.00000000      0.00000000      0.00000000</v>
   <i type="logical" name="LNICSALL"> T  </i>
   <i type="logical" name="ORBITALMAG"> F  </i>
   <i type="logical" name="LMAGBLOCH"> F  </i>
   <i type="logical" name="LCHIMAG"> F  </i>
   <i type="logical" name="LGAUGE"> T  </i>
   <i type="int" name="MAGATOM">     0</i>
   <v name="MAGDIPOL">      0.00000000      0.00000000      0.00000000</v>
   <v name="AVECCONST">      0.00000000      0.00000000      0.00000000</v>
  </separator>
  <separator name="response functions" >
   <i type="logical" name="LADDER"> F  </i>
   <i type="logical" name="LRPAFORCE"> F  </i>
   <i type="logical" name="LFXC"> F  </i>
   <i type="logical" name="LHARTREE"> T  </i>
   <i type="int" name="IBSE">     0</i>
   <v type="int" name="KPOINT">    -1     0     0     0</v>
   <i type="logical" name="LTCTE"> F  </i>
   <i type="logical" name="LTETE"> F  </i>
   <i type="logical" name="LTRIPLET"> F  </i>
   <i type="logical" name="LFXCEPS"> F  </i>
   <i type="logical" name="LFXHEG"> F  </i>
   <i type="int" name="NATURALO">     2</i>
   <i type="logical" name="L2ORDER"> F  </i>
   <i type="logical" name="LMP2LT"> F  </i>
   <i type="logical" name="LUSEW"> F  </i>
   <i name="ENCUTGW">     -2.00000000</i>
   <i name="ENCUTGWSOFT">     -2.00000000</i>
   <i name="ENCUTLF">     -1.00000000</i>
   <i type="int" name="LMAXMP2">    -1</i>
   <i name="SCISSOR">      0.00000000</i>
   <i type="int" name="NOMEGA">     0</i>
   <i type="int" name="NOMEGAR">     0</i>
   <i type="int" name="NBANDSGW">    -1</i>
   <i type="int" name="NBANDSO">    -1</i>
   <i type="int" name="NBANDSV">    -1</i>
   <i type="int" name="NELM">     1</i>
   <i type="int" name="NELMHF">     1</i>
   <i type="int" name="DIM">     3</i>
   <i type="int" name="ANTIRES">     0</i>
   <i name="OMEGAMAX">    -30.00000000</i>
   <i name="OMEGAMIN">    -30.00000000</i>
   <i name="OMEGATL">   -200.00000000</i>
   <i type="int" name="OMEGAGRID">   140</i>
   <i name="CSHIFT">     -0.10000000</i>
   <i type="logical" name="SELFENERGY"> F  </i>
   <i type="logical" name="LSPECTRAL"> F  </i>
   <i type="logical" name="LSPECTRALGW"> F  </i>
   <i type="logical" name="LSINGLES"> F  </i>
   <i type="logical" name="LFERMIGW"> F  </i>
   <i type="logical" name="ODDONLYGW"> F  </i>
   <i type="logical" name="EVENONLYGW"> F  </i>
   <i type="int" name="NKREDLFX">     1</i>
   <i type="int" name="NKREDLFY">     1</i>
   <i type="int" name="NKREDLFZ">     1</i>
   <i type="int" name="MAXMEM">  2800</i>
   <i type="int" name="TELESCOPE">     0</i>
   <i type="int" name="TAUPAR">     1</i>
   <i type="int" name="OMEGAPAR">    -1</i>
   <i name="LAMBDA">      1.00000000</i>
  </separator>
  <separator name="External order field" >
   <i name="OFIELD_KAPPA">      0.00000000</i>
   <v name="OFIELD_K">      0.00000000      0.00000000      0.00000000</v>
   <i name="OFIELD_Q6_NEAR">      0.00000000</i>
   <i name="OFIELD_Q6_FAR">      0.00000000</i>
   <i name="OFIELD_A">      0.00000000</i>
  </separator>
 </parameters>
 <atominfo>
  <atoms>       8 </atoms>
  <types>       2 </types>
  <array name="atoms" >
   <dimension dim="1">ion</dimension>
   <field type="string">element</field>
   <field type="int">atomtype</field>
   <set>
    <rc><c>B </c><c>   1</c></rc>
    <rc><c>B </c><c>   1</c></rc>
    <rc><c>C </c><c>   2</c></rc>
    <rc><c>C </c><c>   2</c></rc>
    <rc><c>C </c><c>   2</c></rc>
    <rc><c>C </c><c>   2</c></rc>
    <rc><c>C </c><c>   2</c></rc>
    <rc><c>C </c><c>   2</c></rc>
   </set>
  </array>
  <array name="atomtypes" >
   <dimension dim="1">type</dimension>
   <field type="int">atomspertype</field>
   <field type="string">element</field>
   <field>mass</field>
   <field>valence</field>
   <field type="string">pseudopotential</field>
   <set>
    <rc><c>   2</c><c>B </c><c>     10.81100000</c><c>      3.00000000</c><c>  PAW_PBE B 06Sep2000                   </c></rc>
    <rc><c>   6</c><c>C </c><c>     12.01100000</c><c>      4.00000000</c><c>  PAW_PBE C 08Apr2002                   </c></rc>
   </set>
  </array>
 </atominfo>
 <structure name="initialpos" >
  <crystal>
   <varray name="basis" >
    <v>       5.17471375       0.00000000       0.00000000 </v>
    <v>       2.58735687       4.48016509       0.00000000 </v>
    <v>       0.00000000       0.00000000      11.04441191 </v>
   </varray>
   <i name="volume">    256.04891747 </i>
   <varray name="rec_basis" >
    <v>       0.19324740      -0.11160303       0.00000000 </v>
    <v>      -0.00000000       0.22320606       0.00000000 </v>
    <v>       0.00000000       0.00000000       0.09054353 </v>
   </varray>
  </crystal>
  <varray name="positions" >
   <v>       0.17460303       0.17456665       0.00000000 </v>
   <v>       0.50789541       0.50798189       0.00000000 </v>
   <v>       0.99988063       0.99998941       0.00000000 </v>
   <v>       0.52390268       0.99998941       0.00000000 </v>
   <v>       0.68254532       0.15868208       0.00000000 </v>
   <v>       0.99995312       0.52386646       0.00000000 </v>
   <v>       0.15859576       0.68255913       0.00000000 </v>
   <v>       0.68261781       0.68255913       0.00000000 </v>
  </varray>
 </structure>
 <calculation>
  <scstep>
   <time name="dav">    9.63    9.64</time>
   <time name="total">    9.72    9.73</time>
   <energy>
    <i name="alphaZ">     19.81068387 </i>
    <i name="ewald">   1439.15139366 </i>
    <i name="hartreedc">  -2358.51759210 </i>
    <i name="XCdc">     96.02370229 </i>
    <i name="pawpsdc">   2894.69470930 </i>
    <i name="pawaedc">  -2897.22195439 </i>
    <i name="eentropy">     -0.01280848 </i>
    <i name="bandstr">    -79.79547141 </i>
    <i name="atom">   1025.20389953 </i>
    <i name="e_fr_energy">    139.33656228 </i>
    <i name="e_wo_entrp">    139.34937076 </i>
    <i name="e_0_energy">    139.34296652 </i>
   </energy>
  </scstep>
  <scstep>
   <time name="dav">   13.24   13.24</time>
   <time name="total">   13.24   13.24</time>
   <energy>
    <i name="e_fr_energy">    -46.31512278 </i>
    <i name="e_wo_entrp">    -46.30703283 </i>
    <i name="e_0_energy">    -46.31107781 </i>
   </energy>
  </scstep>
  <scstep>
   <time name="dav">   10.95   10.96</time>
   <time name="total">   10.95   10.96</time>
   <energy>
    <i name="e_fr_energy">    -65.90382241 </i>
    <i name="e_wo_entrp">    -65.90382220 </i>
    <i name="e_0_energy">    -65.90382230 </i>
   </energy>
  </scstep>
  <scstep>
   <time name="dav">   12.28   12.29</time>
   <time name="total">   12.28   12.29</time>
   <energy>
    <i name="e_fr_energy">    -66.25960084 </i>
    <i name="e_wo_entrp">    -66.25960064 </i>
    <i name="e_0_energy">    -66.25960074 </i>
   </energy>
  </scstep>
  <scstep>
   <time name="dav">   11.69   11.69</time>
   <time name="total">   11.69   11.69</time>
   <energy>
    <i name="e_fr_energy">    -66.26840160 </i>
    <i name="e_wo_entrp">    -66.26840139 </i>
    <i name="e_0_energy">    -66.26840149 </i>
   </energy>
  </scstep>
  <scstep>
   <time name="dav">   13.50   13.50</time>
   <time name="total">   13.50   13.50</time>
   <energy>
    <i name="e_fr_energy">    -66.26880882 </i>
    <i name="e_wo_entrp">    -66.26880862 </i>
    <i name="e_0_energy">    -66.26880872 </i>
   </energy>
  </scstep>
  <scstep>
   <time name="dav">   12.46   12.46</time>
   <time name="total">   12.46   12.47</time>
   <energy>
    <i name="e_fr_energy">    -66.26881723 </i>
    <i name="e_wo_entrp">    -66.26881702 </i>
    <i name="e_0_energy">    -66.26881712 </i>
   </energy>
  </scstep>
  <scstep>
   <time name="dav">   12.00   12.01</time>
   <time name="total">   12.00   12.01</time>
   <energy>
    <i name="alphaZ">     19.81068387 </i>
    <i name="ewald">   1439.15139366 </i>
    <i name="hartreedc">  -2358.51759210 </i>
    <i name="XCdc">     96.02370229 </i>
    <i name="pawpsdc">   2894.69470930 </i>
    <i name="pawaedc">  -2897.22195439 </i>
    <i name="eentropy">     -0.00000021 </i>
    <i name="bandstr">   -285.41365946 </i>
    <i name="atom">   1025.20389953 </i>
    <i name="e_fr_energy">    -66.26881749 </i>
    <i name="e_wo_entrp">    -66.26881729 </i>
    <i name="e_0_energy">    -66.26881739 </i>
   </energy>
  </scstep>
  <structure>
   <crystal>
    <varray name="basis" >
     <v>       5.17471375       0.00000000       0.00000000 </v>
     <v>       2.58735687       4.48016509       0.00000000 </v>
     <v>       0.00000000       0.00000000      11.04441191 </v>
    </varray>
    <i name="volume">    256.04891747 </i>
    <varray name="rec_basis" >
     <v>       0.19324740      -0.11160303       0.00000000 </v>
     <v>      -0.00000000       0.22320606       0.00000000 </v>
     <v>       0.00000000       0.00000000       0.09054353 </v>
    </varray>
   </crystal>
   <varray name="positions" >
    <v>       0.17460303       0.17456665       0.00000000 </v>
    <v>       0.50789541       0.50798189       0.00000000 </v>
    <v>       0.99988063       0.99998941       0.00000000 </v>
    <v>       0.52390268       0.99998941       0.00000000 </v>
    <v>       0.68254532       0.15868208       0.00000000 </v>
    <v>       0.99995312       0.52386646       0.00000000 </v>
    <v>       0.15859576       0.68255913       0.00000000 </v>
    <v>       0.68261781       0.68255913       0.00000000 </v>
   </varray>
  </structure>
  <varray name="forces" >
   <v>      -0.00000000      -0.02876422       0.00000000 </v>
   <v>      -0.00000000       0.02876422      -0.00000000 </v>
   <v>      -0.38357196      -0.15120783       0.00000000 </v>
   <v>       0.38357196      -0.15120783       0.00000000 </v>
   <v>      -0.00000000      -0.47866922       0.00000000 </v>
   <v>       0.00000000       0.47866922       0.00000000 </v>
   <v>      -0.38357196       0.15120783       0.00000000 </v>
   <v>       0.38357196       0.15120783       0.00000000 </v>
  </varray>
  <varray name="stress" >
   <v>       8.85698231       0.00000000       0.00000000 </v>
   <v>       0.00000000      10.24881458       0.00000000 </v>
   <v>       0.00000000       0.00000000       9.11956767 </v>
  </varray>
  <energy>
   <i name="e_fr_energy">    -66.26881749 </i>
   <i name="e_wo_entrp">    -66.26881739 </i>
   <i name="e_0_energy">     -0.00000021 </i>
  </energy>
  <time name="totalsc">  106.20  107.48</time>
  <eigenvalues>
   <array>
    <dimension dim="1">band</dimension>
    <dimension dim="2">kpoint</dimension>
    <dimension dim="3">spin</dimension>
    <field>eigene</field>
    <field>occ</field>
    <set>
     <set comment="spin 1">
      <set comment="kpoint 1">
       <r>  -18.8723    1.0000 </r>
       <r>  -16.5867    1.0000 </r>
       <r>  -15.7319    1.0000 </r>
       <r>  -13.4389    1.0000 </r>
       <r>  -11.8194    1.0000 </r>
       <r>  -10.2602    1.0000 </r>
       <r>   -8.7925    1.0000 </r>
       <r>   -8.7222    1.0000 </r>
       <r>   -7.4276    1.0000 </r>
       <r>   -7.2306    1.0000 </r>
       <r>   -5.6492    1.0000 </r>
       <r>   -5.3166    1.0000 </r>
       <r>   -5.1011    1.0000 </r>
       <r>   -4.0679    1.0000 </r>
       <r>   -4.0125    1.0000 </r>
       <r>   -2.3755    0.0000 </r>
       <r>    1.0809    0.0000 </r>
       <r>    1.8426    0.0000 </r>
       <r>    2.2004    0.0000 </r>
       <r>    3.3697    0.0000 </r>
       <r>    3.9318    0.0000 </r>
       <r>    4.5047    0.0000 </r>
       <r>    4.6352    0.0000 </r>
       <r>    5.9423    0.0000 </r>
      </set>
      <set comment="kpoint 2">
       <r>  -18.8631    1.0000 </r>
       <r>  -16.6035    1.0000 </r>
       <r>  -15.7462    1.0000 </r>
       <r>  -13.4310    1.0000 </r>
       <r>  -11.8091    1.0000 </r>
       <r>  -10.2125    1.0000 </r>
       <r>   -8.8251    1.0000 </r>
       <r>   -8.6799    1.0000 </r>
       <r>   -7.4101    1.0000 </r>
       <r>   -7.2499    1.0000 </r>
       <r>   -5.6553    1.0000 </r>
       <r>   -5.3410    1.0000 </r>
       <r>   -5.1430    1.0000 </r>
       <r>   -4.0893    1.0000 </r>
       <r>   -4.0371    1.0000 </r>
       <r>   -2.3657    0.0000 </r>
       <r>    1.0462    0.0000 </r>
       <r>    1.9112    0.0000 </r>
       <r>    2.2252    0.0000 </r>
       <r>    3.4064    0.0000 </r>
       <r>    3.9709    0.0000 </r>
       <r>    4.5295    0.0000 </r>
       <r>    4.5977    0.0000 </r>
       <r>    5.9058    0.0000 </r>
      </set>
      <set comment="kpoint 3">
       <r>  -18.8511    1.0000 </r>
       <r>  -16.6184    1.0000 </r>
       <r>  -15.7790    1.0000 </r>
       <r>  -13.3967    1.0000 </r>
       <r>  -11.8214    1.0000 </r>
       <r>  -10.1382    1.0000 </r>
       <r>   -8.8767    1.0000 </r>
       <r>   -8.6276    1.0000 </r>
       <r>   -7.3872    1.0000 </r>
       <r>   -7.2501    1.0000 </r>
       <r>   -5.6846    1.0000 </r>
       <r>   -5.3618    1.0000 </r>
       <r>   -5.1843    1.0000 </r>
       <r>   -4.1453    1.0000 </r>
       <r>   -4.0800    1.0000 </r>
       <r>   -2.3213    0.0000 </r>
       <r>    0.9455    0.0000 </r>
       <r>    2.0593    0.0000 </r>
       <r>    2.2575    0.0000 </r>
       <r>    3.4473    0.0000 </r>
       <r>    4.0116    0.0000 </r>
       <r>    4.5620    0.0000 </r>
       <r>    4.5677    0.0000 </r>
       <r>    5.8751    0.0000 </r>
      </set>
      <set comment="kpoint 4">
       <r>  -18.8364    1.0000 </r>
       <r>  -16.6313    1.0000 </r>
       <r>  -15.8279    1.0000 </r>
       <r>  -13.3385    1.0000 </r>
       <r>  -11.8522    1.0000 </r>
       <r>  -10.0421    1.0000 </r>
       <r>   -8.9435    1.0000 </r>
       <r>   -8.5668    1.0000 </r>
       <r>   -7.3591    1.0000 </r>
       <r>   -7.2334    1.0000 </r>
       <r>   -5.7359    1.0000 </r>
       <r>   -5.3790    1.0000 </r>
       <r>   -5.2250    1.0000 </r>
       <r>   -4.2300    1.0000 </r>
       <r>   -4.1405    1.0000 </r>
       <r>   -2.2483    0.0000 </r>
       <r>    0.8158    0.0000 </r>
       <r>    2.2491    0.0000 </r>
       <r>    2.2975    0.0000 </r>
       <r>    3.4931    0.0000 </r>
       <r>    4.0533    0.0000 </r>
       <r>    4.5453    0.0000 </r>
       <r>    4.6023    0.0000 </r>
       <r>    5.8500    0.0000 </r>
      </set>
      <set comment="kpoint 5">
       <r>  -18.8193    1.0000 </r>
       <r>  -16.6424    1.0000 </r>
       <r>  -15.8894    1.0000 </r>
       <r>  -13.2604    1.0000 </r>
       <r>  -11.8960    1.0000 </r>
       <r>   -9.9311    1.0000 </r>
       <r>   -9.0203    1.0000 </r>
       <r>   -8.4981    1.0000 </r>
       <r>   -7.3260    1.0000 </r>
       <r>   -7.2033    1.0000 </r>
       <r>   -5.8065    1.0000 </r>
       <r>   -5.3930    1.0000 </r>
       <r>   -5.2658    1.0000 </r>
       <r>   -4.3352    1.0000 </r>
       <r>   -4.2172    1.0000 </r>
       <r>   -2.1547    0.0000 </r>
       <r>    0.6773    0.0000 </r>
       <r>    2.3450    0.0000 </r>
       <r>    2.4597    0.0000 </r>
       <r>    3.5441    0.0000 </r>
       <r>    4.0953    0.0000 </r>
       <r>    4.5303    0.0000 </r>
       <r>    4.6501    0.0000 </r>
       <r>    5.8471    0.0000 </r>
      </set>
      <set comment="kpoint 6">
       <r>  -18.8000    1.0000 </r>
       <r>  -16.6519    1.0000 </r>
       <r>  -15.9594    1.0000 </r>
       <r>  -13.1672    1.0000 </r>
       <r>  -11.9473    1.0000 </r>
       <r>   -9.8140    1.0000 </r>
       <r>   -9.1000    1.0000 </r>
       <r>   -8.4217    1.0000 </r>
       <r>   -7.2881    1.0000 </r>
       <r>   -7.1648    1.0000 </r>
       <r>   -5.8921    1.0000 </r>
       <r>   -5.4044    1.0000 </r>
       <r>   -5.3083    1.0000 </r>
       <r>   -4.4530    1.0000 </r>
       <r>   -4.3077    1.0000 </r>
       <r>   -2.0485    0.0000 </r>
       <r>    0.5396    0.0000 </r>
       <r>    2.4000    0.0000 </r>
       <r>    2.6805    0.0000 </r>
       <r>    3.6008    0.0000 </r>
       <r>    4.1378    0.0000 </r>
       <r>    4.5228    0.0000 </r>
       <r>    4.7056    0.0000 </r>
       <r>    5.6810    0.0000 </r>
      </set>
      <set comment="kpoint 7">
       <r>  -18.7789    1.0000 </r>
       <r>  -16.6605    1.0000 </r>
       <r>  -16.0336    1.0000 </r>
       <r>  -13.0644    1.0000 </r>
       <r>  -12.0005    1.0000 </r>
       <r>   -9.7049    1.0000 </r>
       <r>   -9.1694    1.0000 </r>
       <r>   -8.3376    1.0000 </r>
       <r>   -7.2458    1.0000 </r>
       <r>   -7.1238    1.0000 </r>
       <r>   -5.9874    1.0000 </r>
       <r>   -5.4145    1.0000 </r>
       <r>   -5.3541    1.0000 </r>
       <r>   -4.5761    1.0000 </r>
       <r>   -4.4089    1.0000 </r>
       <r>   -1.9367    0.0000 </r>
       <r>    0.4081    0.0000 </r>
       <r>    2.4625    0.0000 </r>
       <r>    2.9048    0.0000 </r>
       <r>    3.6639    0.0000 </r>
       <r>    4.1813    0.0000 </r>
       <r>    4.5227    0.0000 </r>
       <r>    4.7685    0.0000 </r>
       <r>    5.4432    0.0000 </r>
      </set>
      <set comment="kpoint 8">
       <r>  -18.7565    1.0000 </r>
       <r>  -16.6693    1.0000 </r>
       <r>  -16.1075    1.0000 </r>
       <r>  -12.9588    1.0000 </r>
       <r>  -12.0498    1.0000 </r>
       <r>   -9.6317    1.0000 </r>
       <r>   -9.2014    1.0000 </r>
       <r>   -8.2461    1.0000 </r>
       <r>   -7.1994    1.0000 </r>
       <r>   -7.0877    1.0000 </r>
       <r>   -6.0857    1.0000 </r>
       <r>   -5.4253    1.0000 </r>
       <r>   -5.4044    1.0000 </r>
       <r>   -4.6981    1.0000 </r>
       <r>   -4.5168    1.0000 </r>
       <r>   -1.8259    0.0000 </r>
       <r>    0.2870    0.0000 </r>
       <r>    2.5325    0.0000 </r>
       <r>    3.1255    0.0000 </r>
       <r>    3.7347    0.0000 </r>
       <r>    4.2275    0.0000 </r>
       <r>    4.5300    0.0000 </r>
       <r>    4.8388    0.0000 </r>
       <r>    5.2078    0.0000 </r>
      </set>
      <set comment="kpoint 9">
       <r>  -18.7334    1.0000 </r>
       <r>  -16.6799    1.0000 </r>
       <r>  -16.1768    1.0000 </r>
       <r>  -12.8590    1.0000 </r>
       <r>  -12.0874    1.0000 </r>
       <r>   -9.6278    1.0000 </r>
       <r>   -9.1631    1.0000 </r>
       <r>   -8.1477    1.0000 </r>
       <r>   -7.1496    1.0000 </r>
       <r>   -7.0655    1.0000 </r>
       <r>   -6.1783    1.0000 </r>
       <r>   -5.4606    1.0000 </r>
       <r>   -5.4405    1.0000 </r>
       <r>   -4.8116    1.0000 </r>
       <r>   -4.6262    1.0000 </r>
       <r>   -1.7220    0.0000 </r>
       <r>    0.1801    0.0000 </r>
       <r>    2.6100    0.0000 </r>
       <r>    3.3326    0.0000 </r>
       <r>    3.8169    0.0000 </r>
       <r>    4.2800    0.0000 </r>
       <r>    4.5446    0.0000 </r>
       <r>    4.9163    0.0000 </r>
       <r>    4.9776    0.0000 </r>
      </set>
      <set comment="kpoint 10">
       <r>  -18.7101    1.0000 </r>
       <r>  -16.6942    1.0000 </r>
       <r>  -16.2369    1.0000 </r>
       <r>  -12.7770    1.0000 </r>
       <r>  -12.1035    1.0000 </r>
       <r>   -9.6808    1.0000 </r>
       <r>   -9.0666    1.0000 </r>
       <r>   -8.0440    1.0000 </r>
       <r>   -7.0973    1.0000 </r>
       <r>   -7.0674    1.0000 </r>
       <r>   -6.2556    1.0000 </r>
       <r>   -5.5237    1.0000 </r>
       <r>   -5.4655    1.0000 </r>
       <r>   -4.9084    1.0000 </r>
       <r>   -4.7313    1.0000 </r>
       <r>   -1.6313    0.0000 </r>
       <r>    0.0916    0.0000 </r>
       <r>    2.6949    0.0000 </r>
       <r>    3.5094    0.0000 </r>
       <r>    3.9168    0.0000 </r>
       <r>    4.3459    0.0000 </r>
       <r>    4.5662    0.0000 </r>
       <r>    4.7530    0.0000 </r>
       <r>    5.0018    0.0000 </r>
      </set>
      <set comment="kpoint 11">
       <r>  -18.6876    1.0000 </r>
       <r>  -16.7140    1.0000 </r>
       <r>  -16.2838    1.0000 </r>
       <r>  -12.7255    1.0000 </r>
       <r>  -12.0875    1.0000 </r>
       <r>   -9.7559    1.0000 </r>
       <r>   -8.9466    1.0000 </r>
       <r>   -7.9388    1.0000 </r>
       <r>   -7.0991    1.0000 </r>
       <r>   -7.0436    1.0000 </r>
       <r>   -6.3115    1.0000 </r>
       <r>   -5.5930    1.0000 </r>
       <r>   -5.5063    1.0000 </r>
       <r>   -4.9798    1.0000 </r>
       <r>   -4.8255    1.0000 </r>
       <r>   -1.5596    0.0000 </r>
       <r>    0.0260    0.0000 </r>
       <r>    2.7872    0.0000 </r>
       <r>    3.6372    0.0000 </r>
       <r>    4.0379    0.0000 </r>
       <r>    4.4373    0.0000 </r>
       <r>    4.5322    0.0000 </r>
       <r>    4.5983    0.0000 </r>
       <r>    5.0940    0.0000 </r>
      </set>
      <set comment="kpoint 12">
       <r>  -18.6668    1.0000 </r>
       <r>  -16.7401    1.0000 </r>
       <r>  -16.3148    1.0000 </r>
       <r>  -12.7100    1.0000 </r>
       <r>  -12.0368    1.0000 </r>
       <r>   -9.8335    1.0000 </r>
       <r>   -8.8220    1.0000 </r>
       <r>   -7.8419    1.0000 </r>
       <r>   -7.1522    1.0000 </r>
       <r>   -6.9903    1.0000 </r>
       <r>   -6.3508    1.0000 </r>
       <r>   -5.6647    1.0000 </r>
       <r>   -5.5649    1.0000 </r>
       <r>   -5.0209    1.0000 </r>
       <r>   -4.9025    1.0000 </r>
       <r>   -1.5118    0.0000 </r>
       <r>   -0.0135    0.0000 </r>
       <r>    2.8869    0.0000 </r>
       <r>    3.7125    0.0000 </r>
       <r>    4.1668    0.0000 </r>
       <r>    4.3226    0.0000 </r>
       <r>    4.5676    0.0000 </r>
       <r>    4.6334    0.0000 </r>
       <r>    5.1936    0.0000 </r>
      </set>
      <set comment="kpoint 13">
       <r>  -18.6486    1.0000 </r>
       <r>  -16.7706    1.0000 </r>
       <r>  -16.3296    1.0000 </r>
       <r>  -12.7241    1.0000 </r>
       <r>  -11.9620    1.0000 </r>
       <r>   -9.9033    1.0000 </r>
       <r>   -8.7022    1.0000 </r>
       <r>   -7.7760    1.0000 </r>
       <r>   -7.1963    1.0000 </r>
       <r>   -6.9398    1.0000 </r>
       <r>   -6.3900    1.0000 </r>
       <r>   -5.7297    1.0000 </r>
       <r>   -5.6360    1.0000 </r>
       <r>   -5.0339    1.0000 </r>
       <r>   -4.9580    1.0000 </r>
       <r>   -1.4909    0.0000 </r>
       <r>   -0.0253    0.0000 </r>
       <r>    2.9940    0.0000 </r>
       <r>    3.7449    0.0000 </r>
       <r>    4.1184    0.0000 </r>
       <r>    4.2876    0.0000 </r>
       <r>    4.6771    0.0000 </r>
       <r>    4.7356    0.0000 </r>
       <r>    5.3003    0.0000 </r>
      </set>
      <set comment="kpoint 14">
       <r>  -18.6343    1.0000 </r>
       <r>  -16.8022    1.0000 </r>
       <r>  -16.3302    1.0000 </r>
       <r>  -12.7562    1.0000 </r>
       <r>  -11.8792    1.0000 </r>
       <r>   -9.9578    1.0000 </r>
       <r>   -8.5948    1.0000 </r>
       <r>   -7.7747    1.0000 </r>
       <r>   -7.1868    1.0000 </r>
       <r>   -6.8959    1.0000 </r>
       <r>   -6.4474    1.0000 </r>
       <r>   -5.7765    1.0000 </r>
       <r>   -5.7090    1.0000 </r>
       <r>   -5.0252    1.0000 </r>
       <r>   -4.9896    1.0000 </r>
       <r>   -1.4960    0.0000 </r>
       <r>   -0.0111    0.0000 </r>
       <r>    3.1085    0.0000 </r>
       <r>    3.7436    0.0000 </r>
       <r>    3.9212    0.0000 </r>
       <r>    4.4015    0.0000 </r>
       <r>    4.7282    0.0000 </r>
       <r>    4.9059    0.0000 </r>
       <r>    5.2564    0.0000 </r>
      </set>
      <set comment="kpoint 15">
       <r>  -18.6248    1.0000 </r>
       <r>  -16.8304    1.0000 </r>
       <r>  -16.3193    1.0000 </r>
       <r>  -12.7976    1.0000 </r>
       <r>  -11.8029    1.0000 </r>
       <r>   -9.9904    1.0000 </r>
       <r>   -8.5109    1.0000 </r>
       <r>   -7.8367    1.0000 </r>
       <r>   -7.1139    1.0000 </r>
       <r>   -6.8634    1.0000 </r>
       <r>   -6.5290    1.0000 </r>
       <r>   -5.7995    1.0000 </r>
       <r>   -5.7727    1.0000 </r>
       <r>   -5.0009    1.0000 </r>
       <r>   -4.9965    1.0000 </r>
       <r>   -1.5234    0.0000 </r>
       <r>    0.0243    0.0000 </r>
       <r>    3.2303    0.0000 </r>
       <r>    3.7147    0.0000 </r>
       <r>    3.7312    0.0000 </r>
       <r>    4.5146    0.0000 </r>
       <r>    4.7866    0.0000 </r>
       <r>    4.9346    0.0000 </r>
       <r>    5.2716    0.0000 </r>
      </set>
      <set comment="kpoint 16">
       <r>  -18.6212    1.0000 </r>
       <r>  -16.8515    1.0000 </r>
       <r>  -16.2994    1.0000 </r>
       <r>  -12.8427    1.0000 </r>
       <r>  -11.7440    1.0000 </r>
       <r>   -9.9956    1.0000 </r>
       <r>   -8.4728    1.0000 </r>
       <r>   -7.9118    1.0000 </r>
       <r>   -7.0219    1.0000 </r>
       <r>   -6.8479    1.0000 </r>
       <r>   -6.6131    1.0000 </r>
       <r>   -5.8172    1.0000 </r>
       <r>   -5.8027    1.0000 </r>
       <r>   -4.9792    1.0000 </r>
       <r>   -4.9652    1.0000 </r>
       <r>   -1.5674    0.0000 </r>
       <r>    0.0743    0.0000 </r>
       <r>    3.3594    0.0000 </r>
       <r>    3.5484    0.0000 </r>
       <r>    3.6618    0.0000 </r>
       <r>    4.6261    0.0000 </r>
       <r>    4.8126    0.0000 </r>
       <r>    4.8522    0.0000 </r>
       <r>    5.4466    0.0000 </r>
      </set>
      <set comment="kpoint 17">
       <r>  -18.6242    1.0000 </r>
       <r>  -16.8629    1.0000 </r>
       <r>  -16.2723    1.0000 </r>
       <r>  -12.8884    1.0000 </r>
       <r>  -11.7095    1.0000 </r>
       <r>   -9.9697    1.0000 </r>
       <r>   -8.5108    1.0000 </r>
       <r>   -7.9478    1.0000 </r>
       <r>   -6.9954    1.0000 </r>
       <r>   -6.8542    1.0000 </r>
       <r>   -6.6265    1.0000 </r>
       <r>   -5.8352    1.0000 </r>
       <r>   -5.7940    1.0000 </r>
       <r>   -4.9393    1.0000 </r>
       <r>   -4.9208    1.0000 </r>
       <r>   -1.6224    0.0000 </r>
       <r>    0.1329    0.0000 </r>
       <r>    3.3724    0.0000 </r>
       <r>    3.4962    0.0000 </r>
       <r>    3.5884    0.0000 </r>
       <r>    4.6340    0.0000 </r>
       <r>    4.7709    0.0000 </r>
       <r>    4.9250    0.0000 </r>
       <r>    5.5134    0.0000 </r>
      </set>
      <set comment="kpoint 18">
       <r>  -18.6343    1.0000 </r>
       <r>  -16.8626    1.0000 </r>
       <r>  -16.2394    1.0000 </r>
       <r>  -12.9328    1.0000 </r>
       <r>  -11.7019    1.0000 </r>
       <r>   -9.9129    1.0000 </r>
       <r>   -8.6250    1.0000 </r>
       <r>   -7.9375    1.0000 </r>
       <r>   -7.0756    1.0000 </r>
       <r>   -6.8837    1.0000 </r>
       <r>   -6.5260    1.0000 </r>
       <r>   -5.8235    1.0000 </r>
       <r>   -5.7780    1.0000 </r>
       <r>   -4.8793    1.0000 </r>
       <r>   -4.8694    1.0000 </r>
       <r>   -1.6836    0.0000 </r>
       <r>    0.1949    0.0000 </r>
       <r>    3.2042    0.0000 </r>
       <r>    3.4970    0.0000 </r>
       <r>    3.6398    0.0000 </r>
       <r>    4.4887    0.0000 </r>
       <r>    4.8713    0.0000 </r>
       <r>    5.0050    0.0000 </r>
       <r>    5.4475    0.0000 </r>
      </set>
      <set comment="kpoint 19">
       <r>  -18.6513    1.0000 </r>
       <r>  -16.8497    1.0000 </r>
       <r>  -16.2017    1.0000 </r>
       <r>  -12.9748    1.0000 </r>
       <r>  -11.7195    1.0000 </r>
       <r>   -9.8301    1.0000 </r>
       <r>   -8.7826    1.0000 </r>
       <r>   -7.9190    1.0000 </r>
       <r>   -7.1844    1.0000 </r>
       <r>   -6.9339    1.0000 </r>
       <r>   -6.3794    1.0000 </r>
       <r>   -5.7840    1.0000 </r>
       <r>   -5.7540    1.0000 </r>
       <r>   -4.8122    1.0000 </r>
       <r>   -4.8029    1.0000 </r>
       <r>   -1.7470    0.0000 </r>
       <r>    0.2563    0.0000 </r>
       <r>    3.0432    0.0000 </r>
       <r>    3.3900    0.0000 </r>
       <r>    3.7909    0.0000 </r>
       <r>    4.3355    0.0000 </r>
       <r>    4.9184    0.0000 </r>
       <r>    5.0920    0.0000 </r>
       <r>    5.3309    0.0000 </r>
      </set>
      <set comment="kpoint 20">
       <r>  -18.6749    1.0000 </r>
       <r>  -16.8241    1.0000 </r>
       <r>  -16.1600    1.0000 </r>
       <r>  -13.0133    1.0000 </r>
       <r>  -11.7583    1.0000 </r>
       <r>   -9.7307    1.0000 </r>
       <r>   -8.9560    1.0000 </r>
       <r>   -7.9356    1.0000 </r>
       <r>   -7.2625    1.0000 </r>
       <r>   -6.9995    1.0000 </r>
       <r>   -6.2295    1.0000 </r>
       <r>   -5.7213    1.0000 </r>
       <r>   -5.7148    1.0000 </r>
       <r>   -4.7502    1.0000 </r>
       <r>   -4.7136    1.0000 </r>
       <r>   -1.8099    0.0000 </r>
       <r>    0.3145    0.0000 </r>
       <r>    2.8896    0.0000 </r>
       <r>    3.2699    0.0000 </r>
       <r>    3.9492    0.0000 </r>
       <r>    4.1811    0.0000 </r>
       <r>    4.8098    0.0000 </r>
       <r>    5.1832    0.0000 </r>
       <r>    5.1978    0.0000 </r>
      </set>
      <set comment="kpoint 21">
       <r>  -18.7043    1.0000 </r>
       <r>  -16.7863    1.0000 </r>
       <r>  -16.1149    1.0000 </r>
       <r>  -13.0480    1.0000 </r>
       <r>  -11.8130    1.0000 </r>
       <r>   -9.6348    1.0000 </r>
       <r>   -9.1199    1.0000 </r>
       <r>   -8.0154    1.0000 </r>
       <r>   -7.2790    1.0000 </r>
       <r>   -7.0751    1.0000 </r>
       <r>   -6.1009    1.0000 </r>
       <r>   -5.6460    1.0000 </r>
       <r>   -5.6408    1.0000 </r>
       <r>   -4.6843    1.0000 </r>
       <r>   -4.6148    1.0000 </r>
       <r>   -1.8699    0.0000 </r>
       <r>    0.3675    0.0000 </r>
       <r>    2.7433    0.0000 </r>
       <r>    3.1389    0.0000 </r>
       <r>    4.0244    0.0000 </r>
       <r>    4.1147    0.0000 </r>
       <r>    4.6221    0.0000 </r>
       <r>    5.0484    0.0000 </r>
       <r>    5.2875    0.0000 </r>
      </set>
      <set comment="kpoint 22">
       <r>  -18.7384    1.0000 </r>
       <r>  -16.7369    1.0000 </r>
       <r>  -16.0670    1.0000 </r>
       <r>  -13.0785    1.0000 </r>
       <r>  -11.8791    1.0000 </r>
       <r>   -9.6013    1.0000 </r>
       <r>   -9.2156    1.0000 </r>
       <r>   -8.1510    1.0000 </r>
       <r>   -7.2398    1.0000 </r>
       <r>   -7.1561    1.0000 </r>
       <r>   -6.0113    1.0000 </r>
       <r>   -5.5469    1.0000 </r>
       <r>   -5.5338    1.0000 </r>
       <r>   -4.6153    1.0000 </r>
       <r>   -4.5096    1.0000 </r>
       <r>   -1.9250    0.0000 </r>
       <r>    0.4145    0.0000 </r>
       <r>    2.6044    0.0000 </r>
       <r>    2.9988    0.0000 </r>
       <r>    3.8624    0.0000 </r>
       <r>    4.2874    0.0000 </r>
       <r>    4.4196    0.0000 </r>
       <r>    4.9098    0.0000 </r>
       <r>    5.3953    0.0000 </r>
      </set>
      <set comment="kpoint 23">
       <r>  -18.7761    1.0000 </r>
       <r>  -16.6770    1.0000 </r>
       <r>  -16.0168    1.0000 </r>
       <r>  -13.1044    1.0000 </r>
       <r>  -11.9527    1.0000 </r>
       <r>   -9.7023    1.0000 </r>
       <r>   -9.1728    1.0000 </r>
       <r>   -8.3188    1.0000 </r>
       <r>   -7.2393    1.0000 </r>
       <r>   -7.1671    1.0000 </r>
       <r>   -5.9580    1.0000 </r>
       <r>   -5.4430    1.0000 </r>
       <r>   -5.3823    1.0000 </r>
       <r>   -4.5442    1.0000 </r>
       <r>   -4.4004    1.0000 </r>
       <r>   -1.9738    0.0000 </r>
       <r>    0.4546    0.0000 </r>
       <r>    2.4728    0.0000 </r>
       <r>    2.8515    0.0000 </r>
       <r>    3.6910    0.0000 </r>
       <r>    4.2209    0.0000 </r>
       <r>    4.4672    0.0000 </r>
       <r>    4.7785    0.0000 </r>
       <r>    5.5095    0.0000 </r>
      </set>
      <set comment="kpoint 24">
       <r>  -18.8163    1.0000 </r>
       <r>  -16.6079    1.0000 </r>
       <r>  -15.9648    1.0000 </r>
       <r>  -13.1254    1.0000 </r>
       <r>  -12.0311    1.0000 </r>
       <r>   -9.8745    1.0000 </r>
       <r>   -9.0570    1.0000 </r>
       <r>   -8.5018    1.0000 </r>
       <r>   -7.3224    1.0000 </r>
       <r>   -7.0766    1.0000 </r>
       <r>   -5.9262    1.0000 </r>
       <r>   -5.3317    1.0000 </r>
       <r>   -5.2078    1.0000 </r>
       <r>   -4.4719    1.0000 </r>
       <r>   -4.2892    1.0000 </r>
       <r>   -2.0146    0.0000 </r>
       <r>    0.4876    0.0000 </r>
       <r>    2.3487    0.0000 </r>
       <r>    2.6985    0.0000 </r>
       <r>    3.5062    0.0000 </r>
       <r>    4.0355    0.0000 </r>
       <r>    4.6528    0.0000 </r>
       <r>    4.6559    0.0000 </r>
       <r>    5.6297    0.0000 </r>
      </set>
      <set comment="kpoint 25">
       <r>  -18.8579    1.0000 </r>
       <r>  -16.5306    1.0000 </r>
       <r>  -15.9115    1.0000 </r>
       <r>  -13.1416    1.0000 </r>
       <r>  -12.1119    1.0000 </r>
       <r>  -10.0652    1.0000 </r>
       <r>   -8.9239    1.0000 </r>
       <r>   -8.6900    1.0000 </r>
       <r>   -7.4038    1.0000 </r>
       <r>   -6.9758    1.0000 </r>
       <r>   -5.9043    1.0000 </r>
       <r>   -5.2149    1.0000 </r>
       <r>   -5.0230    1.0000 </r>
       <r>   -4.3994    1.0000 </r>
       <r>   -4.1777    1.0000 </r>
       <r>   -2.0462    0.0000 </r>
       <r>    0.5136    0.0000 </r>
       <r>    2.2321    0.0000 </r>
       <r>    2.5415    0.0000 </r>
       <r>    3.3055    0.0000 </r>
       <r>    3.8687    0.0000 </r>
       <r>    4.5380    0.0000 </r>
       <r>    4.8478    0.0000 </r>
       <r>    5.7549    0.0000 </r>
      </set>
      <set comment="kpoint 26">
       <r>  -18.9001    1.0000 </r>
       <r>  -16.4464    1.0000 </r>
       <r>  -15.8574    1.0000 </r>
       <r>  -13.1527    1.0000 </r>
       <r>  -12.1938    1.0000 </r>
       <r>  -10.2598    1.0000 </r>
       <r>   -8.8910    1.0000 </r>
       <r>   -8.7772    1.0000 </r>
       <r>   -7.4824    1.0000 </r>
       <r>   -6.8686    1.0000 </r>
       <r>   -5.8864    1.0000 </r>
       <r>   -5.0943    1.0000 </r>
       <r>   -4.8347    1.0000 </r>
       <r>   -4.3281    1.0000 </r>
       <r>   -4.0676    1.0000 </r>
       <r>   -2.0672    0.0000 </r>
       <r>    0.5329    0.0000 </r>
       <r>    2.1228    0.0000 </r>
       <r>    2.3816    0.0000 </r>
       <r>    3.0905    0.0000 </r>
       <r>    3.7213    0.0000 </r>
       <r>    4.4289    0.0000 </r>
       <r>    5.0483    0.0000 </r>
       <r>    5.8827    0.0000 </r>
      </set>
      <set comment="kpoint 27">
       <r>  -18.9419    1.0000 </r>
       <r>  -16.3564    1.0000 </r>
       <r>  -15.8032    1.0000 </r>
       <r>  -13.1589    1.0000 </r>
       <r>  -12.2754    1.0000 </r>
       <r>  -10.4530    1.0000 </r>
       <r>   -9.0764    1.0000 </r>
       <r>   -8.6484    1.0000 </r>
       <r>   -7.5573    1.0000 </r>
       <r>   -6.7572    1.0000 </r>
       <r>   -5.8698    1.0000 </r>
       <r>   -4.9714    1.0000 </r>
       <r>   -4.6471    1.0000 </r>
       <r>   -4.2589    1.0000 </r>
       <r>   -3.9598    1.0000 </r>
       <r>   -2.0763    0.0000 </r>
       <r>    0.5460    0.0000 </r>
       <r>    2.0210    0.0000 </r>
       <r>    2.2204    0.0000 </r>
       <r>    2.8650    0.0000 </r>
       <r>    3.5915    0.0000 </r>
       <r>    4.3271    0.0000 </r>
       <r>    5.2553    0.0000 </r>
       <r>    6.0057    0.0000 </r>
      </set>
      <set comment="kpoint 28">
       <r>  -18.9826    1.0000 </r>
       <r>  -16.2619    1.0000 </r>
       <r>  -15.7494    1.0000 </r>
       <r>  -13.1601    1.0000 </r>
       <r>  -12.3559    1.0000 </r>
       <r>  -10.6420    1.0000 </r>
       <r>   -9.2623    1.0000 </r>
       <r>   -8.5227    1.0000 </r>
       <r>   -7.6280    1.0000 </r>
       <r>   -6.6429    1.0000 </r>
       <r>   -5.8529    1.0000 </r>
       <r>   -4.8475    1.0000 </r>
       <r>   -4.4628    1.0000 </r>
       <r>   -4.1933    1.0000 </r>
       <r>   -3.8557    1.0000 </r>
       <r>   -2.0724    0.0000 </r>
       <r>    0.5533    0.0000 </r>
       <r>    1.9266    0.0000 </r>
       <r>    2.0591    0.0000 </r>
       <r>    2.6337    0.0000 </r>
       <r>    3.4766    0.0000 </r>
       <r>    4.2327    0.0000 </r>
       <r>    5.4682    0.0000 </r>
       <r>    6.0966    0.0000 </r>
      </set>
      <set comment="kpoint 29">
       <r>  -19.0217    1.0000 </r>
       <r>  -16.1639    1.0000 </r>
       <r>  -15.6966    1.0000 </r>
       <r>  -13.1565    1.0000 </r>
       <r>  -12.4348    1.0000 </r>
       <r>  -10.8248    1.0000 </r>
       <r>   -9.4434    1.0000 </r>
       <r>   -8.4061    1.0000 </r>
       <r>   -7.6940    1.0000 </r>
       <r>   -6.5272    1.0000 </r>
       <r>   -5.8353    1.0000 </r>
       <r>   -4.7239    1.0000 </r>
       <r>   -4.2843    1.0000 </r>
       <r>   -4.1325    1.0000 </r>
       <r>   -3.7563    1.0000 </r>
       <r>   -2.0546    0.0000 </r>
       <r>    0.5552    0.0000 </r>
       <r>    1.8398    0.0000 </r>
       <r>    1.8992    0.0000 </r>
       <r>    2.4011    0.0000 </r>
       <r>    3.3745    0.0000 </r>
       <r>    4.1457    0.0000 </r>
       <r>    5.6860    0.0000 </r>
       <r>    6.1047    0.0000 </r>
      </set>
      <set comment="kpoint 30">
       <r>  -19.0587    1.0000 </r>
       <r>  -16.0638    1.0000 </r>
       <r>  -15.6455    1.0000 </r>
       <r>  -13.1485    1.0000 </r>
       <r>  -12.5115    1.0000 </r>
       <r>  -10.9997    1.0000 </r>
       <r>   -9.6177    1.0000 </r>
       <r>   -8.3000    1.0000 </r>
       <r>   -7.7551    1.0000 </r>
       <r>   -6.4113    1.0000 </r>
       <r>   -5.8168    1.0000 </r>
       <r>   -4.6021    1.0000 </r>
       <r>   -4.1132    1.0000 </r>
       <r>   -4.0773    1.0000 </r>
       <r>   -3.6624    1.0000 </r>
       <r>   -2.0222    0.0000 </r>
       <r>    0.5521    0.0000 </r>
       <r>    1.7412    0.0000 </r>
       <r>    1.7603    0.0000 </r>
       <r>    2.1713    0.0000 </r>
       <r>    3.2835    0.0000 </r>
       <r>    4.0661    0.0000 </r>
       <r>    5.9023    0.0000 </r>
       <r>    6.0638    0.0000 </r>
      </set>
      <set comment="kpoint 31">
       <r>  -19.0932    1.0000 </r>
       <r>  -15.9629    1.0000 </r>
       <r>  -15.5966    1.0000 </r>
       <r>  -13.1366    1.0000 </r>
       <r>  -12.5856    1.0000 </r>
       <r>  -11.1648    1.0000 </r>
       <r>   -9.7838    1.0000 </r>
       <r>   -8.2054    1.0000 </r>
       <r>   -7.8109    1.0000 </r>
       <r>   -6.2970    1.0000 </r>
       <r>   -5.7976    1.0000 </r>
       <r>   -4.4836    1.0000 </r>
       <r>   -4.0287    1.0000 </r>
       <r>   -3.9513    1.0000 </r>
       <r>   -3.5749    1.0000 </r>
       <r>   -1.9752    0.0000 </r>
       <r>    0.5444    0.0000 </r>
       <r>    1.5850    0.0000 </r>
       <r>    1.6884    0.0000 </r>
       <r>    1.9495    0.0000 </r>
       <r>    3.2027    0.0000 </r>
       <r>    3.9940    0.0000 </r>
       <r>    5.9768    0.0000 </r>
       <r>    6.1504    0.0000 </r>
      </set>
      <set comment="kpoint 32">
       <r>  -19.1247    1.0000 </r>
       <r>  -15.8627    1.0000 </r>
       <r>  -15.5508    1.0000 </r>
       <r>  -13.1213    1.0000 </r>
       <r>  -12.6568    1.0000 </r>
       <r>  -11.3183    1.0000 </r>
       <r>   -9.9400    1.0000 </r>
       <r>   -8.1224    1.0000 </r>
       <r>   -7.8612    1.0000 </r>
       <r>   -6.1861    1.0000 </r>
       <r>   -5.7780    1.0000 </r>
       <r>   -4.3700    1.0000 </r>
       <r>   -3.9870    1.0000 </r>
       <r>   -3.8005    1.0000 </r>
       <r>   -3.4947    1.0000 </r>
       <r>   -1.9141    0.0000 </r>
       <r>    0.5322    0.0000 </r>
       <r>    1.4286    0.0000 </r>
       <r>    1.6240    0.0000 </r>
       <r>    1.7422    0.0000 </r>
       <r>    3.1314    0.0000 </r>
       <r>    3.9293    0.0000 </r>
       <r>    5.9164    0.0000 </r>
       <r>    6.2785    0.0000 </r>
      </set>
      <set comment="kpoint 33">
       <r>  -19.1531    1.0000 </r>
       <r>  -15.7651    1.0000 </r>
       <r>  -15.5085    1.0000 </r>
       <r>  -13.1034    1.0000 </r>
       <r>  -12.7246    1.0000 </r>
       <r>  -11.4583    1.0000 </r>
       <r>  -10.0849    1.0000 </r>
       <r>   -8.0510    1.0000 </r>
       <r>   -7.9059    1.0000 </r>
       <r>   -6.0807    1.0000 </r>
       <r>   -5.7588    1.0000 </r>
       <r>   -4.2629    1.0000 </r>
       <r>   -3.9521    1.0000 </r>
       <r>   -3.6623    1.0000 </r>
       <r>   -3.4224    1.0000 </r>
       <r>   -1.8402    0.0000 </r>
       <r>    0.5161    0.0000 </r>
       <r>    1.2679    0.0000 </r>
       <r>    1.5586    0.0000 </r>
       <r>    1.5671    0.0000 </r>
       <r>    3.0691    0.0000 </r>
       <r>    3.8721    0.0000 </r>
       <r>    5.8530    0.0000 </r>
       <r>    6.1568    0.0000 </r>
      </set>
      <set comment="kpoint 34">
       <r>  -19.1782    1.0000 </r>
       <r>  -15.6722    1.0000 </r>
       <r>  -15.4704    1.0000 </r>
       <r>  -13.0841    1.0000 </r>
       <r>  -12.7885    1.0000 </r>
       <r>  -11.5831    1.0000 </r>
       <r>  -10.2166    1.0000 </r>
       <r>   -7.9908    1.0000 </r>
       <r>   -7.9449    1.0000 </r>
       <r>   -5.9832    1.0000 </r>
       <r>   -5.7403    1.0000 </r>
       <r>   -4.1644    1.0000 </r>
       <r>   -3.9237    1.0000 </r>
       <r>   -3.5384    1.0000 </r>
       <r>   -3.3585    1.0000 </r>
       <r>   -1.7560    0.0000 </r>
       <r>    0.4965    0.0000 </r>
       <r>    1.0997    0.0000 </r>
       <r>    1.4067    0.0000 </r>
       <r>    1.5177    0.0000 </r>
       <r>    3.0156    0.0000 </r>
       <r>    3.8224    0.0000 </r>
       <r>    5.7928    0.0000 </r>
       <r>    6.0064    0.0000 </r>
      </set>
      <set comment="kpoint 35">
       <r>  -19.1996    1.0000 </r>
       <r>  -15.5862    1.0000 </r>
       <r>  -15.4371    1.0000 </r>
       <r>  -13.0645    1.0000 </r>
       <r>  -12.8475    1.0000 </r>
       <r>  -11.6908    1.0000 </r>
       <r>  -10.3332    1.0000 </r>
       <r>   -7.9780    1.0000 </r>
       <r>   -7.9412    1.0000 </r>
       <r>   -5.8957    1.0000 </r>
       <r>   -5.7234    1.0000 </r>
       <r>   -4.0763    1.0000 </r>
       <r>   -3.9014    1.0000 </r>
       <r>   -3.4304    1.0000 </r>
       <r>   -3.3036    1.0000 </r>
       <r>   -1.6649    0.0000 </r>
       <r>    0.4740    0.0000 </r>
       <r>    0.9282    0.0000 </r>
       <r>    1.2880    0.0000 </r>
       <r>    1.4759    0.0000 </r>
       <r>    2.9705    0.0000 </r>
       <r>    3.7803    0.0000 </r>
       <r>    5.7387    0.0000 </r>
       <r>    5.8938    0.0000 </r>
      </set>
      <set comment="kpoint 36">
       <r>  -19.2173    1.0000 </r>
       <r>  -15.5099    1.0000 </r>
       <r>  -15.4091    1.0000 </r>
       <r>  -13.0460    1.0000 </r>
       <r>  -12.9002    1.0000 </r>
       <r>  -11.7800    1.0000 </r>
       <r>  -10.4327    1.0000 </r>
       <r>   -8.0052    1.0000 </r>
       <r>   -7.9017    1.0000 </r>
       <r>   -5.8205    1.0000 </r>
       <r>   -5.7085    1.0000 </r>
       <r>   -4.0007    1.0000 </r>
       <r>   -3.8843    1.0000 </r>
       <r>   -3.3398    1.0000 </r>
       <r>   -3.2582    1.0000 </r>
       <r>   -1.5717    0.0000 </r>
       <r>    0.4505    0.0000 </r>
       <r>    0.7633    0.0000 </r>
       <r>    1.1981    0.0000 </r>
       <r>    1.4416    0.0000 </r>
       <r>    2.9339    0.0000 </r>
       <r>    3.7457    0.0000 </r>
       <r>    5.6927    0.0000 </r>
       <r>    5.7964    0.0000 </r>
      </set>
      <set comment="kpoint 37">
       <r>  -19.2312    1.0000 </r>
       <r>  -15.4462    1.0000 </r>
       <r>  -15.3868    1.0000 </r>
       <r>  -13.0299    1.0000 </r>
       <r>  -12.9448    1.0000 </r>
       <r>  -11.8497    1.0000 </r>
       <r>  -10.5130    1.0000 </r>
       <r>   -8.0264    1.0000 </r>
       <r>   -7.8716    1.0000 </r>
       <r>   -5.7596    1.0000 </r>
       <r>   -5.6963    1.0000 </r>
       <r>   -3.9394    1.0000 </r>
       <r>   -3.8718    1.0000 </r>
       <r>   -3.2677    1.0000 </r>
       <r>   -3.2225    1.0000 </r>
       <r>   -1.4833    0.0000 </r>
       <r>    0.4280    0.0000 </r>
       <r>    0.6163    0.0000 </r>
       <r>    1.1327    0.0000 </r>
       <r>    1.4150    0.0000 </r>
       <r>    2.9054    0.0000 </r>
       <r>    3.7188    0.0000 </r>
       <r>    5.6557    0.0000 </r>
       <r>    5.7172    0.0000 </r>
      </set>
      <set comment="kpoint 38">
       <r>  -19.2412    1.0000 </r>
       <r>  -15.3979    1.0000 </r>
       <r>  -15.3707    1.0000 </r>
       <r>  -13.0174    1.0000 </r>
       <r>  -12.9789    1.0000 </r>
       <r>  -11.8995    1.0000 </r>
       <r>  -10.5722    1.0000 </r>
       <r>   -8.0416    1.0000 </r>
       <r>   -7.8505    1.0000 </r>
       <r>   -5.7148    1.0000 </r>
       <r>   -5.6872    1.0000 </r>
       <r>   -3.8941    1.0000 </r>
       <r>   -3.8634    1.0000 </r>
       <r>   -3.2154    1.0000 </r>
       <r>   -3.1968    1.0000 </r>
       <r>   -1.4083    0.0000 </r>
       <r>    0.4092    0.0000 </r>
       <r>    0.4984    0.0000 </r>
       <r>    1.0883    0.0000 </r>
       <r>    1.3959    0.0000 </r>
       <r>    2.8852    0.0000 </r>
       <r>    3.6995    0.0000 </r>
       <r>    5.6286    0.0000 </r>
       <r>    5.6586    0.0000 </r>
      </set>
      <set comment="kpoint 39">
       <r>  -19.2472    1.0000 </r>
       <r>  -15.3678    1.0000 </r>
       <r>  -15.3608    1.0000 </r>
       <r>  -13.0095    1.0000 </r>
       <r>  -13.0005    1.0000 </r>
       <r>  -11.9293    1.0000 </r>
       <r>  -10.6084    1.0000 </r>
       <r>   -8.0507    1.0000 </r>
       <r>   -7.8380    1.0000 </r>
       <r>   -5.6875    1.0000 </r>
       <r>   -5.6816    1.0000 </r>
       <r>   -3.8664    1.0000 </r>
       <r>   -3.8586    1.0000 </r>
       <r>   -3.1842    1.0000 </r>
       <r>   -3.1807    1.0000 </r>
       <r>   -1.3570    0.0000 </r>
       <r>    0.3967    0.0000 </r>
       <r>    0.4211    0.0000 </r>
       <r>    1.0627    0.0000 </r>
       <r>    1.3844    0.0000 </r>
       <r>    2.8731    0.0000 </r>
       <r>    3.6879    0.0000 </r>
       <r>    5.6121    0.0000 </r>
       <r>    5.6228    0.0000 </r>
      </set>
      <set comment="kpoint 40">
       <r>  -19.2493    1.0000 </r>
       <r>  -15.3576    1.0000 </r>
       <r>  -15.3575    1.0000 </r>
       <r>  -13.0080    1.0000 </r>
       <r>  -13.0066    1.0000 </r>
       <r>  -11.9392    1.0000 </r>
       <r>  -10.6206    1.0000 </r>
       <r>   -8.0537    1.0000 </r>
       <r>   -7.8339    1.0000 </r>
       <r>   -5.6800    1.0000 </r>
       <r>   -5.6780    1.0000 </r>
       <r>   -3.8571    1.0000 </r>
       <r>   -3.8570    1.0000 </r>
       <r>   -3.1768    1.0000 </r>
       <r>   -3.1723    1.0000 </r>
       <r>   -1.3387    0.0000 </r>
       <r>    0.3920    0.0000 </r>
       <r>    0.3943    0.0000 </r>
       <r>    1.0543    0.0000 </r>
       <r>    1.3806    0.0000 </r>
       <r>    2.8690    0.0000 </r>
       <r>    3.6840    0.0000 </r>
       <r>    5.6063    0.0000 </r>
       <r>    5.6110    0.0000 </r>
      </set>
      <set comment="kpoint 41">
       <r>  -19.2493    1.0000 </r>
       <r>  -15.3576    1.0000 </r>
       <r>  -15.3575    1.0000 </r>
       <r>  -13.0080    1.0000 </r>
       <r>  -13.0066    1.0000 </r>
       <r>  -11.9392    1.0000 </r>
       <r>  -10.6206    1.0000 </r>
       <r>   -8.0537    1.0000 </r>
       <r>   -7.8339    1.0000 </r>
       <r>   -5.6800    1.0000 </r>
       <r>   -5.6780    1.0000 </r>
       <r>   -3.8571    1.0000 </r>
       <r>   -3.8570    1.0000 </r>
       <r>   -3.1768    1.0000 </r>
       <r>   -3.1723    1.0000 </r>
       <r>   -1.3387    0.0000 </r>
       <r>    0.3920    0.0000 </r>
       <r>    0.3943    0.0000 </r>
       <r>    1.0543    0.0000 </r>
       <r>    1.3806    0.0000 </r>
       <r>    2.8690    0.0000 </r>
       <r>    3.6840    0.0000 </r>
       <r>    5.6063    0.0000 </r>
       <r>    5.6110    0.0000 </r>
      </set>
      <set comment="kpoint 42">
       <r>  -19.2486    1.0000 </r>
       <r>  -15.3609    1.0000 </r>
       <r>  -15.3586    1.0000 </r>
       <r>  -13.0086    1.0000 </r>
       <r>  -13.0045    1.0000 </r>
       <r>  -11.9360    1.0000 </r>
       <r>  -10.6167    1.0000 </r>
       <r>   -8.0528    1.0000 </r>
       <r>   -7.8352    1.0000 </r>
       <r>   -5.6827    1.0000 </r>
       <r>   -5.6789    1.0000 </r>
       <r>   -3.8601    1.0000 </r>
       <r>   -3.8575    1.0000 </r>
       <r>   -3.1798    1.0000 </r>
       <r>   -3.1743    1.0000 </r>
       <r>   -1.3446    0.0000 </r>
       <r>    0.3950    0.0000 </r>
       <r>    0.4015    0.0000 </r>
       <r>    1.0570    0.0000 </r>
       <r>    1.3819    0.0000 </r>
       <r>    2.8703    0.0000 </r>
       <r>    3.6853    0.0000 </r>
       <r>    5.6094    0.0000 </r>
       <r>    5.6135    0.0000 </r>
      </set>
      <set comment="kpoint 43">
       <r>  -19.2467    1.0000 </r>
       <r>  -15.3707    1.0000 </r>
       <r>  -15.3617    1.0000 </r>
       <r>  -13.0112    1.0000 </r>
       <r>  -12.9974    1.0000 </r>
       <r>  -11.9265    1.0000 </r>
       <r>  -10.6050    1.0000 </r>
       <r>   -8.0498    1.0000 </r>
       <r>   -7.8392    1.0000 </r>
       <r>   -5.6915    1.0000 </r>
       <r>   -5.6808    1.0000 </r>
       <r>   -3.8691    1.0000 </r>
       <r>   -3.8590    1.0000 </r>
       <r>   -3.1898    1.0000 </r>
       <r>   -3.1797    1.0000 </r>
       <r>   -1.3622    0.0000 </r>
       <r>    0.3994    0.0000 </r>
       <r>    0.4272    0.0000 </r>
       <r>    1.0651    0.0000 </r>
       <r>    1.3855    0.0000 </r>
       <r>    2.8742    0.0000 </r>
       <r>    3.6890    0.0000 </r>
       <r>    5.6163    0.0000 </r>
       <r>    5.6236    0.0000 </r>
      </set>
      <set comment="kpoint 44">
       <r>  -19.2435    1.0000 </r>
       <r>  -15.3870    1.0000 </r>
       <r>  -15.3669    1.0000 </r>
       <r>  -13.0156    1.0000 </r>
       <r>  -12.9856    1.0000 </r>
       <r>  -11.9105    1.0000 </r>
       <r>  -10.5855    1.0000 </r>
       <r>   -8.0450    1.0000 </r>
       <r>   -7.8459    1.0000 </r>
       <r>   -5.7062    1.0000 </r>
       <r>   -5.6837    1.0000 </r>
       <r>   -3.8841    1.0000 </r>
       <r>   -3.8615    1.0000 </r>
       <r>   -3.2066    1.0000 </r>
       <r>   -3.1881    1.0000 </r>
       <r>   -1.3900    0.0000 </r>
       <r>    0.4065    0.0000 </r>
       <r>    0.4686    0.0000 </r>
       <r>    1.0788    0.0000 </r>
       <r>    1.3917    0.0000 </r>
       <r>    2.8807    0.0000 </r>
       <r>    3.6952    0.0000 </r>
       <r>    5.6254    0.0000 </r>
       <r>    5.6427    0.0000 </r>
      </set>
      <set comment="kpoint 45">
       <r>  -19.2390    1.0000 </r>
       <r>  -15.4094    1.0000 </r>
       <r>  -15.3741    1.0000 </r>
       <r>  -13.0220    1.0000 </r>
       <r>  -12.9691    1.0000 </r>
       <r>  -11.8882    1.0000 </r>
       <r>  -10.5586    1.0000 </r>
       <r>   -8.0381    1.0000 </r>
       <r>   -7.8553    1.0000 </r>
       <r>   -5.7267    1.0000 </r>
       <r>   -5.6876    1.0000 </r>
       <r>   -3.9049    1.0000 </r>
       <r>   -3.8649    1.0000 </r>
       <r>   -3.2303    1.0000 </r>
       <r>   -3.1997    1.0000 </r>
       <r>   -1.4264    0.0000 </r>
       <r>    0.4165    0.0000 </r>
       <r>    0.5236    0.0000 </r>
       <r>    1.0984    0.0000 </r>
       <r>    1.4002    0.0000 </r>
       <r>    2.8898    0.0000 </r>
       <r>    3.7039    0.0000 </r>
       <r>    5.6375    0.0000 </r>
       <r>    5.6697    0.0000 </r>
      </set>
      <set comment="kpoint 46">
       <r>  -19.2332    1.0000 </r>
       <r>  -15.4376    1.0000 </r>
       <r>  -15.3831    1.0000 </r>
       <r>  -13.0304    1.0000 </r>
       <r>  -12.9482    1.0000 </r>
       <r>  -11.8595    1.0000 </r>
       <r>  -10.5245    1.0000 </r>
       <r>   -8.0293    1.0000 </r>
       <r>   -7.8676    1.0000 </r>
       <r>   -5.7530    1.0000 </r>
       <r>   -5.6924    1.0000 </r>
       <r>   -3.9315    1.0000 </r>
       <r>   -3.8694    1.0000 </r>
       <r>   -3.2608    1.0000 </r>
       <r>   -3.2144    1.0000 </r>
       <r>   -1.4697    0.0000 </r>
       <r>    0.4290    0.0000 </r>
       <r>    0.5895    0.0000 </r>
       <r>    1.1244    0.0000 </r>
       <r>    1.4113    0.0000 </r>
       <r>    2.9015    0.0000 </r>
       <r>    3.7150    0.0000 </r>
       <r>    5.6525    0.0000 </r>
       <r>    5.7044    0.0000 </r>
      </set>
      <set comment="kpoint 47">
       <r>  -19.2261    1.0000 </r>
       <r>  -15.4711    1.0000 </r>
       <r>  -15.3939    1.0000 </r>
       <r>  -13.0408    1.0000 </r>
       <r>  -12.9229    1.0000 </r>
       <r>  -11.8245    1.0000 </r>
       <r>  -10.4834    1.0000 </r>
       <r>   -8.0186    1.0000 </r>
       <r>   -7.8827    1.0000 </r>
       <r>   -5.7849    1.0000 </r>
       <r>   -5.6979    1.0000 </r>
       <r>   -3.9637    1.0000 </r>
       <r>   -3.8747    1.0000 </r>
       <r>   -3.2977    1.0000 </r>
       <r>   -3.2322    1.0000 </r>
       <r>   -1.5180    0.0000 </r>
       <r>    0.4443    0.0000 </r>
       <r>    0.6634    0.0000 </r>
       <r>    1.1578    0.0000 </r>
       <r>    1.4247    0.0000 </r>
       <r>    2.9159    0.0000 </r>
       <r>    3.7286    0.0000 </r>
       <r>    5.6701    0.0000 </r>
       <r>    5.7466    0.0000 </r>
      </set>
      <set comment="kpoint 48">
       <r>  -19.2179    1.0000 </r>
       <r>  -15.5094    1.0000 </r>
       <r>  -15.4062    1.0000 </r>
       <r>  -13.0532    1.0000 </r>
       <r>  -12.8934    1.0000 </r>
       <r>  -11.7833    1.0000 </r>
       <r>  -10.4358    1.0000 </r>
       <r>   -8.0059    1.0000 </r>
       <r>   -7.9007    1.0000 </r>
       <r>   -5.8222    1.0000 </r>
       <r>   -5.7038    1.0000 </r>
       <r>   -4.0012    1.0000 </r>
       <r>   -3.8808    1.0000 </r>
       <r>   -3.3411    1.0000 </r>
       <r>   -3.2530    1.0000 </r>
       <r>   -1.5697    0.0000 </r>
       <r>    0.4623    0.0000 </r>
       <r>    0.7425    0.0000 </r>
       <r>    1.1997    0.0000 </r>
       <r>    1.4406    0.0000 </r>
       <r>    2.9328    0.0000 </r>
       <r>    3.7447    0.0000 </r>
       <r>    5.6899    0.0000 </r>
       <r>    5.7963    0.0000 </r>
      </set>
      <set comment="kpoint 49">
       <r>  -19.2083    1.0000 </r>
       <r>  -15.5522    1.0000 </r>
       <r>  -15.4200    1.0000 </r>
       <r>  -13.0676    1.0000 </r>
       <r>  -12.8599    1.0000 </r>
       <r>  -11.7362    1.0000 </r>
       <r>  -10.3819    1.0000 </r>
       <r>   -7.9914    1.0000 </r>
       <r>   -7.9217    1.0000 </r>
       <r>   -5.8647    1.0000 </r>
       <r>   -5.7101    1.0000 </r>
       <r>   -4.0439    1.0000 </r>
       <r>   -3.8877    1.0000 </r>
       <r>   -3.3906    1.0000 </r>
       <r>   -3.2767    1.0000 </r>
       <r>   -1.6234    0.0000 </r>
       <r>    0.4826    0.0000 </r>
       <r>    0.8231    0.0000 </r>
       <r>    1.2517    0.0000 </r>
       <r>    1.4590    0.0000 </r>
       <r>    2.9525    0.0000 </r>
       <r>    3.7632    0.0000 </r>
       <r>    5.7116    0.0000 </r>
       <r>    5.8530    0.0000 </r>
      </set>
      <set comment="kpoint 50">
       <r>  -19.1976    1.0000 </r>
       <r>  -15.5988    1.0000 </r>
       <r>  -15.4350    1.0000 </r>
       <r>  -13.0838    1.0000 </r>
       <r>  -12.8226    1.0000 </r>
       <r>  -11.6835    1.0000 </r>
       <r>  -10.3222    1.0000 </r>
       <r>   -7.9749    1.0000 </r>
       <r>   -7.9457    1.0000 </r>
       <r>   -5.9123    1.0000 </r>
       <r>   -5.7164    1.0000 </r>
       <r>   -4.0914    1.0000 </r>
       <r>   -3.8954    1.0000 </r>
       <r>   -3.4463    1.0000 </r>
       <r>   -3.3032    1.0000 </r>
       <r>   -1.6780    0.0000 </r>
       <r>    0.5052    0.0000 </r>
       <r>    0.9021    0.0000 </r>
       <r>    1.3156    0.0000 </r>
       <r>    1.4798    0.0000 </r>
       <r>    2.9748    0.0000 </r>
       <r>    3.7842    0.0000 </r>
       <r>    5.7348    0.0000 </r>
       <r>    5.9168    0.0000 </r>
      </set>
      <set comment="kpoint 51">
       <r>  -19.1857    1.0000 </r>
       <r>  -15.6489    1.0000 </r>
       <r>  -15.4510    1.0000 </r>
       <r>  -13.1017    1.0000 </r>
       <r>  -12.7817    1.0000 </r>
       <r>  -11.6255    1.0000 </r>
       <r>  -10.2569    1.0000 </r>
       <r>   -7.9729    1.0000 </r>
[...]
        <r>  0.0000  0.0000  0.0039  0.0000  0.0000  0.0000  0.0000  0.0000  0.0000 </r>
        <r>  0.0000  0.0000  0.0130  0.0000  0.0000  0.0000  0.0000  0.0000  0.0000 </r>
        <r>  0.0000  0.0000  0.0120  0.0000  0.0000  0.0000  0.0000  0.0000  0.0000 </r>
        <r>  0.0000  0.0000  0.0120  0.0000  0.0000  0.0000  0.0000  0.0000  0.0000 </r>
        <r>  0.0000  0.0000  0.0130  0.0000  0.0000  0.0000  0.0000  0.0000  0.0000 </r>
        <r>  0.0000  0.0000  0.0039  0.0000  0.0000  0.0000  0.0000  0.0000  0.0000 </r>
       </set>
      </set>
      <set comment="kpoint 120">
       <set comment="band 1">
        <r>  0.0149  0.0012  0.0000  0.0037  0.0000  0.0000  0.0000  0.0000  0.0000 </r>
        <r>  0.0149  0.0012  0.0000  0.0037  0.0000  0.0000  0.0000  0.0000  0.0000 </r>
        <r>  0.0866  0.0022  0.0000  0.0066  0.0000  0.0000  0.0000  0.0000  0.0000 </r>
        <r>  0.0976  0.0012  0.0000  0.0063  0.0000  0.0000  0.0000  0.0000  0.0000 </r>
        <r>  0.0977  0.0070  0.0000  0.0005  0.0000  0.0000  0.0000  0.0000  0.0000 </r>
        <r>  0.0977  0.0070  0.0000  0.0005  0.0000  0.0000  0.0000  0.0000  0.0000 </r>
        <r>  0.0976  0.0012  0.0000  0.0063  0.0000  0.0000  0.0000  0.0000  0.0000 </r>
        <r>  0.0866  0.0022  0.0000  0.0066  0.0000  0.0000  0.0000  0.0000  0.0000 </r>
       </set>
       <set comment="band 2">
        <r>  0.0362  0.0020  0.0000  0.0060  0.0000  0.0000  0.0000  0.0000  0.0000 </r>
        <r>  0.0362  0.0020  0.0000  0.0060  0.0000  0.0000  0.0000  0.0000  0.0000 </r>
        <r>  0.1562  0.0009  0.0000  0.0026  0.0000  0.0000  0.0000  0.0000  0.0000 </r>
        <r>  0.0471  0.0125  0.0000  0.0056  0.0000  0.0000  0.0000  0.0000  0.0000 </r>
        <r>  0.0473  0.0016  0.0000  0.0164  0.0000  0.0000  0.0000  0.0000  0.0000 </r>
        <r>  0.0473  0.0016  0.0000  0.0164  0.0000  0.0000  0.0000  0.0000  0.0000 </r>
        <r>  0.0471  0.0125  0.0000  0.0056  0.0000  0.0000  0.0000  0.0000  0.0000 </r>
        <r>  0.1562  0.0009  0.0000  0.0026  0.0000  0.0000  0.0000  0.0000  0.0000 </r>
       </set>
       <set comment="band 3">
        <r>  0.0000  0.0173  0.0000  0.0057  0.0000  0.0000  0.0000  0.0000  0.0000 </r>
        <r>  0.0000  0.0173  0.0000  0.0057  0.0000  0.0000  0.0000  0.0000  0.0000 </r>
        <r>  0.0000  0.0265  0.0000  0.0088  0.0000  0.0000  0.0000  0.0000  0.0000 </r>
        <r>  0.1390  0.0007  0.0000  0.0057  0.0000  0.0000  0.0000  0.0000  0.0000 </r>
        <r>  0.1388  0.0028  0.0000  0.0036  0.0000  0.0000  0.0000  0.0000  0.0000 </r>
        <r>  0.1388  0.0028  0.0000  0.0036  0.0000  0.0000  0.0000  0.0000  0.0000 </r>
        <r>  0.1390  0.0007  0.0000  0.0057  0.0000  0.0000  0.0000  0.0000  0.0000 </r>
        <r>  0.0000  0.0265  0.0000  0.0088  0.0000  0.0000  0.0000  0.0000  0.0000 </r>
       </set>
       <set comment="band 4">
        <r>  0.0806  0.0019  0.0000  0.0058  0.0000  0.0000  0.0000  0.0000  0.0000 </r>
        <r>  0.0806  0.0019  0.0000  0.0058  0.0000  0.0000  0.0000  0.0000  0.0000 </r>
        <r>  0.1020  0.0000  0.0000  0.0001  0.0000  0.0000  0.0000  0.0000  0.0000 </r>
        <r>  0.0151  0.0554  0.0000  0.0003  0.0000  0.0000  0.0000  0.0000  0.0000 </r>
        <r>  0.0152  0.0145  0.0000  0.0412  0.0000  0.0000  0.0000  0.0000  0.0000 </r>
        <r>  0.0152  0.0145  0.0000  0.0412  0.0000  0.0000  0.0000  0.0000  0.0000 </r>
        <r>  0.0151  0.0554  0.0000  0.0003  0.0000  0.0000  0.0000  0.0000  0.0000 </r>
        <r>  0.1020  0.0000  0.0000  0.0001  0.0000  0.0000  0.0000  0.0000  0.0000 </r>
       </set>
       <set comment="band 5">
        <r>  0.0000  0.0286  0.0000  0.0096  0.0000  0.0000  0.0000  0.0000  0.0000 </r>
        <r>  0.0000  0.0286  0.0000  0.0096  0.0000  0.0000  0.0000  0.0000  0.0000 </r>
        <r>  0.0000  0.0659  0.0000  0.0220  0.0000  0.0000  0.0000  0.0000  0.0000 </r>
        <r>  0.0816  0.0141  0.0000  0.0180  0.0000  0.0000  0.0000  0.0000  0.0000 </r>
        <r>  0.0815  0.0034  0.0000  0.0287  0.0000  0.0000  0.0000  0.0000  0.0000 </r>
        <r>  0.0815  0.0034  0.0000  0.0287  0.0000  0.0000  0.0000  0.0000  0.0000 </r>
        <r>  0.0816  0.0141  0.0000  0.0180  0.0000  0.0000  0.0000  0.0000  0.0000 </r>
        <r>  0.0000  0.0659  0.0000  0.0220  0.0000  0.0000  0.0000  0.0000  0.0000 </r>
       </set>
       <set comment="band 6">
        <r>  0.0950  0.0043  0.0000  0.0129  0.0000  0.0000  0.0000  0.0000  0.0000 </r>
        <r>  0.0950  0.0043  0.0000  0.0129  0.0000  0.0000  0.0000  0.0000  0.0000 </r>
        <r>  0.0374  0.0172  0.0000  0.0515  0.0000  0.0000  0.0000  0.0000  0.0000 </r>
        <r>  0.0007  0.0192  0.0000  0.0388  0.0000  0.0000  0.0000  0.0000  0.0000 </r>
        <r>  0.0007  0.0517  0.0000  0.0065  0.0000  0.0000  0.0000  0.0000  0.0000 </r>
        <r>  0.0007  0.0517  0.0000  0.0065  0.0000  0.0000  0.0000  0.0000  0.0000 </r>
        <r>  0.0007  0.0192  0.0000  0.0388  0.0000  0.0000  0.0000  0.0000  0.0000 </r>
        <r>  0.0374  0.0172  0.0000  0.0515  0.0000  0.0000  0.0000  0.0000  0.0000 </r>
       </set>
       <set comment="band 7">
        <r>  0.0000  0.0112  0.0000  0.0039  0.0000  0.0000  0.0000  0.0000  0.0000 </r>
        <r>  0.0000  0.0112  0.0000  0.0039  0.0000  0.0000  0.0000  0.0000  0.0000 </r>
        <r>  0.0000  0.0654  0.0000  0.0217  0.0000  0.0000  0.0000  0.0000  0.0000 </r>
        <r>  0.0091  0.0590  0.0000  0.0603  0.0000  0.0000  0.0000  0.0000  0.0000 </r>
        <r>  0.0093  0.0082  0.0000  0.1107  0.0000  0.0000  0.0000  0.0000  0.0000 </r>
        <r>  0.0093  0.0082  0.0000  0.1107  0.0000  0.0000  0.0000  0.0000  0.0000 </r>
        <r>  0.0091  0.0590  0.0000  0.0603  0.0000  0.0000  0.0000  0.0000  0.0000 </r>
        <r>  0.0000  0.0654  0.0000  0.0217  0.0000  0.0000  0.0000  0.0000  0.0000 </r>
       </set>
       <set comment="band 8">
        <r>  0.0970  0.0120  0.0000  0.0355  0.0000  0.0000  0.0000  0.0000  0.0000 </r>
        <r>  0.0970  0.0120  0.0000  0.0355  0.0000  0.0000  0.0000  0.0000  0.0000 </r>
        <r>  0.0310  0.0030  0.0000  0.0097  0.0000  0.0000  0.0000  0.0000  0.0000 </r>
        <r>  0.0264  0.0161  0.0000  0.0455  0.0000  0.0000  0.0000  0.0000  0.0000 </r>
        <r>  0.0261  0.0302  0.0000  0.0318  0.0000  0.0000  0.0000  0.0000  0.0000 </r>
        <r>  0.0261  0.0302  0.0000  0.0318  0.0000  0.0000  0.0000  0.0000  0.0000 </r>
        <r>  0.0264  0.0161  0.0000  0.0455  0.0000  0.0000  0.0000  0.0000  0.0000 </r>
        <r>  0.0310  0.0030  0.0000  0.0097  0.0000  0.0000  0.0000  0.0000  0.0000 </r>
       </set>
       <set comment="band 9">
        <r>  0.0000  0.0000  0.0242  0.0000  0.0000  0.0000  0.0000  0.0000  0.0000 </r>
        <r>  0.0000  0.0000  0.0242  0.0000  0.0000  0.0000  0.0000  0.0000  0.0000 </r>
        <r>  0.0000  0.0000  0.0588  0.0000  0.0000  0.0000  0.0000  0.0000  0.0000 </r>
        <r>  0.0000  0.0000  0.0643  0.0000  0.0000  0.0000  0.0000  0.0000  0.0000 </r>
        <r>  0.0000  0.0000  0.0643  0.0000  0.0000  0.0000  0.0000  0.0000  0.0000 </r>
        <r>  0.0000  0.0000  0.0643  0.0000  0.0000  0.0000  0.0000  0.0000  0.0000 </r>
        <r>  0.0000  0.0000  0.0643  0.0000  0.0000  0.0000  0.0000  0.0000  0.0000 </r>
        <r>  0.0000  0.0000  0.0588  0.0000  0.0000  0.0000  0.0000  0.0000  0.0000 </r>
       </set>
       <set comment="band 10">
        <r>  0.0307  0.0237  0.0000  0.0710  0.0000  0.0000  0.0000  0.0000  0.0000 </r>
        <r>  0.0307  0.0237  0.0000  0.0710  0.0000  0.0000  0.0000  0.0000  0.0000 </r>
        <r>  0.0155  0.0361  0.0000  0.1077  0.0000  0.0000  0.0000  0.0000  0.0000 </r>
        <r>  0.0013  0.0233  0.0000  0.0116  0.0000  0.0000  0.0000  0.0000  0.0000 </r>
        <r>  0.0013  0.0287  0.0000  0.0062  0.0000  0.0000  0.0000  0.0000  0.0000 </r>
        <r>  0.0013  0.0287  0.0000  0.0062  0.0000  0.0000  0.0000  0.0000  0.0000 </r>
        <r>  0.0013  0.0233  0.0000  0.0116  0.0000  0.0000  0.0000  0.0000  0.0000 </r>
        <r>  0.0155  0.0361  0.0000  0.1077  0.0000  0.0000  0.0000  0.0000  0.0000 </r>
       </set>
       <set comment="band 11">
        <r>  0.0000  0.0799  0.0000  0.0268  0.0000  0.0000  0.0000  0.0000  0.0000 </r>
        <r>  0.0000  0.0799  0.0000  0.0267  0.0000  0.0000  0.0000  0.0000  0.0000 </r>
        <r>  0.0000  0.0309  0.0000  0.0103  0.0000  0.0000  0.0000  0.0000  0.0000 </r>
        <r>  0.0015  0.0550  0.0000  0.0592  0.0000  0.0000  0.0000  0.0000  0.0000 </r>
        <r>  0.0015  0.1074  0.0000  0.0066  0.0000  0.0000  0.0000  0.0000  0.0000 </r>
        <r>  0.0015  0.1074  0.0000  0.0066  0.0000  0.0000  0.0000  0.0000  0.0000 </r>
        <r>  0.0015  0.0550  0.0000  0.0592  0.0000  0.0000  0.0000  0.0000  0.0000 </r>
        <r>  0.0000  0.0309  0.0000  0.0103  0.0000  0.0000  0.0000  0.0000  0.0000 </r>
       </set>
       <set comment="band 12">
        <r>  0.0000  0.0000  0.0317  0.0000  0.0000  0.0000  0.0000  0.0000  0.0000 </r>
        <r>  0.0000  0.0000  0.0317  0.0000  0.0000  0.0000  0.0000  0.0000  0.0000 </r>
        <r>  0.0000  0.0000  0.1031  0.0000  0.0000  0.0000  0.0000  0.0000  0.0000 </r>
        <r>  0.0000  0.0000  0.0436  0.0000  0.0000  0.0000  0.0000  0.0000  0.0000 </r>
        <r>  0.0000  0.0000  0.0437  0.0000  0.0000  0.0000  0.0000  0.0000  0.0000 </r>
        <r>  0.0000  0.0000  0.0437  0.0000  0.0000  0.0000  0.0000  0.0000  0.0000 </r>
        <r>  0.0000  0.0000  0.0436  0.0000  0.0000  0.0000  0.0000  0.0000  0.0000 </r>
        <r>  0.0000  0.0000  0.1031  0.0000  0.0000  0.0000  0.0000  0.0000  0.0000 </r>
       </set>
       <set comment="band 13">
        <r>  0.0228  0.0245  0.0000  0.0733  0.0000  0.0000  0.0000  0.0000  0.0000 </r>
        <r>  0.0228  0.0245  0.0000  0.0733  0.0000  0.0000  0.0000  0.0000  0.0000 </r>
        <r>  0.0094  0.0214  0.0000  0.0643  0.0000  0.0000  0.0000  0.0000  0.0000 </r>
        <r>  0.0158  0.0188  0.0000  0.0501  0.0000  0.0000  0.0000  0.0000  0.0000 </r>
        <r>  0.0158  0.0169  0.0000  0.0520  0.0000  0.0000  0.0000  0.0000  0.0000 </r>
        <r>  0.0158  0.0169  0.0000  0.0520  0.0000  0.0000  0.0000  0.0000  0.0000 </r>
        <r>  0.0158  0.0188  0.0000  0.0501  0.0000  0.0000  0.0000  0.0000  0.0000 </r>
        <r>  0.0094  0.0214  0.0000  0.0643  0.0000  0.0000  0.0000  0.0000  0.0000 </r>
       </set>
       <set comment="band 14">
        <r>  0.0000  0.0000  0.0000  0.0000  0.0000  0.0000  0.0000  0.0000  0.0000 </r>
        <r>  0.0000  0.0000  0.0000  0.0000  0.0000  0.0000  0.0000  0.0000  0.0000 </r>
        <r>  0.0000  0.0000  0.0000  0.0000  0.0000  0.0000  0.0000  0.0000  0.0000 </r>
        <r>  0.0000  0.0000  0.1184  0.0000  0.0000  0.0000  0.0000  0.0000  0.0000 </r>
        <r>  0.0000  0.0000  0.1183  0.0000  0.0000  0.0000  0.0000  0.0000  0.0000 </r>
        <r>  0.0000  0.0000  0.1183  0.0000  0.0000  0.0000  0.0000  0.0000  0.0000 </r>
        <r>  0.0000  0.0000  0.1184  0.0000  0.0000  0.0000  0.0000  0.0000  0.0000 </r>
        <r>  0.0000  0.0000  0.0000  0.0000  0.0000  0.0000  0.0000  0.0000  0.0000 </r>
       </set>
       <set comment="band 15">
        <r>  0.0000  0.0926  0.0000  0.0308  0.0000  0.0000  0.0000  0.0000  0.0000 </r>
        <r>  0.0000  0.0926  0.0000  0.0308  0.0000  0.0000  0.0000  0.0000  0.0000 </r>
        <r>  0.0000  0.0659  0.0000  0.0219  0.0000  0.0000  0.0000  0.0000  0.0000 </r>
        <r>  0.0026  0.0633  0.0000  0.0262  0.0000  0.0000  0.0000  0.0000  0.0000 </r>
        <r>  0.0026  0.0707  0.0000  0.0188  0.0000  0.0000  0.0000  0.0000  0.0000 </r>
        <r>  0.0026  0.0706  0.0000  0.0188  0.0000  0.0000  0.0000  0.0000  0.0000 </r>
        <r>  0.0026  0.0633  0.0000  0.0262  0.0000  0.0000  0.0000  0.0000  0.0000 </r>
        <r>  0.0000  0.0659  0.0000  0.0219  0.0000  0.0000  0.0000  0.0000  0.0000 </r>
       </set>
       <set comment="band 16">
        <r>  0.0000  0.0000  0.1165  0.0000  0.0000  0.0000  0.0000  0.0000  0.0000 </r>
        <r>  0.0000  0.0000  0.1165  0.0000  0.0000  0.0000  0.0000  0.0000  0.0000 </r>
        <r>  0.0000  0.0000  0.0991  0.0000  0.0000  0.0000  0.0000  0.0000  0.0000 </r>
        <r>  0.0000  0.0000  0.0062  0.0000  0.0000  0.0000  0.0000  0.0000  0.0000 </r>
        <r>  0.0000  0.0000  0.0062  0.0000  0.0000  0.0000  0.0000  0.0000  0.0000 </r>
        <r>  0.0000  0.0000  0.0062  0.0000  0.0000  0.0000  0.0000  0.0000  0.0000 </r>
        <r>  0.0000  0.0000  0.0062  0.0000  0.0000  0.0000  0.0000  0.0000  0.0000 </r>
        <r>  0.0000  0.0000  0.0991  0.0000  0.0000  0.0000  0.0000  0.0000  0.0000 </r>
       </set>
       <set comment="band 17">
        <r>  0.0000  0.0000  0.0000  0.0000  0.0000  0.0000  0.0000  0.0000  0.0000 </r>
        <r>  0.0000  0.0000  0.0000  0.0000  0.0000  0.0000  0.0000  0.0000  0.0000 </r>
        <r>  0.0000  0.0000  0.0000  0.0000  0.0000  0.0000  0.0000  0.0000  0.0000 </r>
        <r>  0.0000  0.0000  0.1237  0.0000  0.0000  0.0000  0.0000  0.0000  0.0000 </r>
        <r>  0.0000  0.0000  0.1237  0.0000  0.0000  0.0000  0.0000  0.0000  0.0000 </r>
        <r>  0.0000  0.0000  0.1237  0.0000  0.0000  0.0000  0.0000  0.0000  0.0000 </r>
        <r>  0.0000  0.0000  0.1237  0.0000  0.0000  0.0000  0.0000  0.0000  0.0000 </r>
        <r>  0.0000  0.0000  0.0000  0.0000  0.0000  0.0000  0.0000  0.0000  0.0000 </r>
       </set>
       <set comment="band 18">
        <r>  0.0000  0.0000  0.1158  0.0000  0.0000  0.0000  0.0000  0.0000  0.0000 </r>
        <r>  0.0000  0.0000  0.1158  0.0000  0.0000  0.0000  0.0000  0.0000  0.0000 </r>
        <r>  0.0000  0.0000  0.1154  0.0000  0.0000  0.0000  0.0000  0.0000  0.0000 </r>
        <r>  0.0000  0.0000  0.0004  0.0000  0.0000  0.0000  0.0000  0.0000  0.0000 </r>
        <r>  0.0000  0.0000  0.0004  0.0000  0.0000  0.0000  0.0000  0.0000  0.0000 </r>
        <r>  0.0000  0.0000  0.0004  0.0000  0.0000  0.0000  0.0000  0.0000  0.0000 </r>
        <r>  0.0000  0.0000  0.0004  0.0000  0.0000  0.0000  0.0000  0.0000  0.0000 </r>
        <r>  0.0000  0.0000  0.1154  0.0000  0.0000  0.0000  0.0000  0.0000  0.0000 </r>
       </set>
       <set comment="band 19">
        <r>  0.0007  0.0000  0.0000  0.0000  0.0000  0.0000  0.0000  0.0000  0.0000 </r>
        <r>  0.0007  0.0000  0.0000  0.0000  0.0000  0.0000  0.0000  0.0000  0.0000 </r>
        <r>  0.0018  0.0002  0.0000  0.0007  0.0000  0.0000  0.0000  0.0000  0.0000 </r>
        <r>  0.0029  0.0000  0.0000  0.0007  0.0000  0.0000  0.0000  0.0000  0.0000 </r>
        <r>  0.0029  0.0005  0.0000  0.0002  0.0000  0.0000  0.0000  0.0000  0.0000 </r>
        <r>  0.0029  0.0005  0.0000  0.0002  0.0000  0.0000  0.0000  0.0000  0.0000 </r>
        <r>  0.0029  0.0000  0.0000  0.0007  0.0000  0.0000  0.0000  0.0000  0.0000 </r>
        <r>  0.0018  0.0002  0.0000  0.0007  0.0000  0.0000  0.0000  0.0000  0.0000 </r>
       </set>
       <set comment="band 20">
        <r>  0.0000  0.0000  0.0159  0.0000  0.0000  0.0000  0.0000  0.0000  0.0000 </r>
        <r>  0.0000  0.0000  0.0159  0.0000  0.0000  0.0000  0.0000  0.0000  0.0000 </r>
        <r>  0.0000  0.0000  0.0207  0.0000  0.0000  0.0000  0.0000  0.0000  0.0000 </r>
        <r>  0.0000  0.0000  0.0470  0.0000  0.0000  0.0000  0.0000  0.0000  0.0000 </r>
        <r>  0.0000  0.0000  0.0470  0.0000  0.0000  0.0000  0.0000  0.0000  0.0000 </r>
        <r>  0.0000  0.0000  0.0470  0.0000  0.0000  0.0000  0.0000  0.0000  0.0000 </r>
        <r>  0.0000  0.0000  0.0470  0.0000  0.0000  0.0000  0.0000  0.0000  0.0000 </r>
        <r>  0.0000  0.0000  0.0207  0.0000  0.0000  0.0000  0.0000  0.0000  0.0000 </r>
       </set>
       <set comment="band 21">
        <r>  0.0000  0.0000  0.0717  0.0000  0.0000  0.0000  0.0000  0.0000  0.0000 </r>
        <r>  0.0000  0.0000  0.0717  0.0000  0.0000  0.0000  0.0000  0.0000  0.0000 </r>
        <r>  0.0000  0.0000  0.0345  0.0000  0.0000  0.0000  0.0000  0.0000  0.0000 </r>
        <r>  0.0000  0.0000  0.0240  0.0000  0.0000  0.0000  0.0000  0.0000  0.0000 </r>
        <r>  0.0000  0.0000  0.0240  0.0000  0.0000  0.0000  0.0000  0.0000  0.0000 </r>
        <r>  0.0000  0.0000  0.0240  0.0000  0.0000  0.0000  0.0000  0.0000  0.0000 </r>
        <r>  0.0000  0.0000  0.0240  0.0000  0.0000  0.0000  0.0000  0.0000  0.0000 </r>
        <r>  0.0000  0.0000  0.0345  0.0000  0.0000  0.0000  0.0000  0.0000  0.0000 </r>
       </set>
       <set comment="band 22">
        <r>  0.0000  0.0000  0.0000  0.0000  0.0000  0.0000  0.0000  0.0000  0.0000 </r>
        <r>  0.0000  0.0000  0.0000  0.0000  0.0000  0.0000  0.0000  0.0000  0.0000 </r>
        <r>  0.0013  0.0003  0.0000  0.0009  0.0000  0.0000  0.0000  0.0000  0.0000 </r>
        <r>  0.0039  0.0001  0.0000  0.0012  0.0000  0.0000  0.0000  0.0000  0.0000 </r>
        <r>  0.0039  0.0008  0.0000  0.0004  0.0000  0.0000  0.0000  0.0000  0.0000 </r>
        <r>  0.0039  0.0008  0.0000  0.0004  0.0000  0.0000  0.0000  0.0000  0.0000 </r>
        <r>  0.0039  0.0001  0.0000  0.0012  0.0000  0.0000  0.0000  0.0000  0.0000 </r>
        <r>  0.0013  0.0003  0.0000  0.0009  0.0000  0.0000  0.0000  0.0000  0.0000 </r>
       </set>
       <set comment="band 23">
        <r>  0.0004  0.0001  0.0000  0.0004  0.0000  0.0000  0.0000  0.0000  0.0000 </r>
        <r>  0.0004  0.0001  0.0000  0.0004  0.0000  0.0000  0.0000  0.0000  0.0000 </r>
        <r>  0.0010  0.0005  0.0000  0.0015  0.0000  0.0000  0.0000  0.0000  0.0000 </r>
        <r>  0.0026  0.0001  0.0000  0.0018  0.0000  0.0000  0.0000  0.0000  0.0000 </r>
        <r>  0.0026  0.0010  0.0000  0.0008  0.0000  0.0000  0.0000  0.0000  0.0000 </r>
        <r>  0.0026  0.0010  0.0000  0.0008  0.0000  0.0000  0.0000  0.0000  0.0000 </r>
        <r>  0.0026  0.0001  0.0000  0.0018  0.0000  0.0000  0.0000  0.0000  0.0000 </r>
        <r>  0.0010  0.0005  0.0000  0.0015  0.0000  0.0000  0.0000  0.0000  0.0000 </r>
       </set>
       <set comment="band 24">
        <r>  0.0000  0.0000  0.0082  0.0000  0.0000  0.0000  0.0000  0.0000  0.0000 </r>
        <r>  0.0000  0.0000  0.0082  0.0000  0.0000  0.0000  0.0000  0.0000  0.0000 </r>
        <r>  0.0000  0.0000  0.0040  0.0000  0.0000  0.0000  0.0000  0.0000  0.0000 </r>
        <r>  0.0000  0.0000  0.0125  0.0000  0.0000  0.0000  0.0000  0.0000  0.0000 </r>
        <r>  0.0000  0.0000  0.0125  0.0000  0.0000  0.0000  0.0000  0.0000  0.0000 </r>
        <r>  0.0000  0.0000  0.0125  0.0000  0.0000  0.0000  0.0000  0.0000  0.0000 </r>
        <r>  0.0000  0.0000  0.0125  0.0000  0.0000  0.0000  0.0000  0.0000  0.0000 </r>
        <r>  0.0000  0.0000  0.0040  0.0000  0.0000  0.0000  0.0000  0.0000  0.0000 </r>
       </set>
      </set>
     </set>
    </set>
   </array>
  </projected>
 </calculation>
 <structure name="finalpos" >
  <crystal>
   <varray name="basis" >
    <v>       5.17471375       0.00000000       0.00000000 </v>
    <v>       2.58735687       4.48016509       0.00000000 </v>
    <v>       0.00000000       0.00000000      11.04441191 </v>
   </varray>
   <i name="volume">    256.04891747 </i>
   <varray name="rec_basis" >
    <v>       0.19324740      -0.11160303       0.00000000 </v>
    <v>      -0.00000000       0.22320606       0.00000000 </v>
    <v>       0.00000000       0.00000000       0.09054353 </v>
   </varray>
  </crystal>
  <varray name="positions" >
   <v>       0.17460303       0.17456665       0.00000000 </v>
   <v>       0.50789541       0.50798189       0.00000000 </v>
   <v>       0.99988063       0.99998941       0.00000000 </v>
   <v>       0.52390268       0.99998941       0.00000000 </v>
   <v>       0.68254532       0.15868208       0.00000000 </v>
   <v>       0.99995312       0.52386646       0.00000000 </v>
   <v>       0.15859576       0.68255913       0.00000000 </v>
   <v>       0.68261781       0.68255913       0.00000000 </v>
  </varray>
 </structure>
</modeling>
