<?xml version="1.0" encoding="ISO-8859-1"?>
<modeling>
 <generator>
  <i name="program" type="string">vasp </i>
  <i name="version" type="string">5.4.4.18Apr17-6-g9f103f2a35  </i>
  <i name="subversion" type="string">(build Mar 30 2023 15:39:25) complex            parallel </i>
  <i name="platform" type="string">LinuxIFC </i>
  <i name="date" type="string">2023 05 27 </i>
  <i name="time" type="string">00:29:56 </i>
 </generator>
 <incar>
  <i type="string" name="SYSTEM"> BC3</i>
  <i type="int" name="ISTART">     0</i>
  <i type="string" name="PREC">accurate</i>
  <i type="string" name="ALGO"> Normal</i>
  <i type="int" name="ICHARG">    11</i>
  <i type="int" name="IBRION">    -1</i>
  <i name="EDIFF">      0.00000100</i>
  <i name="EDIFFG">     -0.00100000</i>
  <i type="int" name="NSW">     0</i>
  <i name="ENCUT">    450.00000000</i>
  <i type="int" name="ISMEAR">     0</i>
  <i name="SIGMA">      0.10000000</i>
  <i type="int" name="LORBIT">    11</i>
  <v type="int" name="KPOINT_BSE">    -1     0     0     0</v>
 </incar>
 <structure name="primitive_cell" >
  <crystal>
   <varray name="basis" >
    <v>       5.17471375       0.00000000       0.00000000 </v>
    <v>       2.58735687       4.48016509       0.00000000 </v>
    <v>       0.00000000       0.00000000      11.04441191 </v>
   </varray>
   <i name="volume">    256.04891747 </i>
   <varray name="rec_basis" >
    <v>       0.19324740      -0.11160303       0.00000000 </v>
    <v>      -0.00000000       0.22320606       0.00000000 </v>
    <v>       0.00000000       0.00000000       0.09054353 </v>
   </varray>
  </crystal>
  <varray name="positions" >
   <v>       0.17460303       0.17456665       0.00000000 </v>
   <v>      -0.00004688      -0.47613354       0.00000000 </v>
   <v>      -0.00011937      -0.00001059       0.00000000 </v>
   <v>      -0.47609732      -0.00001059       0.00000000 </v>
   <v>       0.15859576      -0.31744087       0.00000000 </v>
   <v>      -0.31738219      -0.31744087       0.00000000 </v>
   <v>      -0.31745468       0.15868208       0.00000000 </v>
   <v>      -0.49210459      -0.49201811       0.00000000 </v>
  </varray>
 </structure>
 <varray name="primitive_index" >
  <v type="int" >        1 </v>
  <v type="int" >        6 </v>
  <v type="int" >        3 </v>
  <v type="int" >        4 </v>
  <v type="int" >        7 </v>
  <v type="int" >        8 </v>
  <v type="int" >        5 </v>
  <v type="int" >        2 </v>
 </varray>
 <kpoints>
  <generation param="listgenerated">
   <i name="divisions" type="int">      40 </i>
   <v>      -0.33300000       0.66700000       0.00000000 </v>
   <v>       0.00000000       0.00000000       0.00000000 </v>
   <v>       0.50000000       0.00000000       0.00000000 </v>
   <v>      -0.33300000       0.66700000       0.00000000 </v>
  </generation>
  <varray name="kpointlist" >
   <v>      -0.33300000       0.66700000       0.00000000 </v>
   <v>      -0.32446154       0.64989744       0.00000000 </v>
   <v>      -0.31592308       0.63279487       0.00000000 </v>
   <v>      -0.30738462       0.61569231       0.00000000 </v>
   <v>      -0.29884615       0.59858974       0.00000000 </v>
   <v>      -0.29030769       0.58148718       0.00000000 </v>
   <v>      -0.28176923       0.56438462       0.00000000 </v>
   <v>      -0.27323077       0.54728205       0.00000000 </v>
   <v>      -0.26469231       0.53017949       0.00000000 </v>
   <v>      -0.25615385       0.51307692       0.00000000 </v>
   <v>      -0.24761538       0.49597436       0.00000000 </v>
   <v>      -0.23907692       0.47887179       0.00000000 </v>
   <v>      -0.23053846       0.46176923       0.00000000 </v>
   <v>      -0.22200000       0.44466667       0.00000000 </v>
   <v>      -0.21346154       0.42756410       0.00000000 </v>
   <v>      -0.20492308       0.41046154       0.00000000 </v>
   <v>      -0.19638462       0.39335897       0.00000000 </v>
   <v>      -0.18784615       0.37625641       0.00000000 </v>
   <v>      -0.17930769       0.35915385       0.00000000 </v>
   <v>      -0.17076923       0.34205128       0.00000000 </v>
   <v>      -0.16223077       0.32494872       0.00000000 </v>
   <v>      -0.15369231       0.30784615       0.00000000 </v>
   <v>      -0.14515385       0.29074359       0.00000000 </v>
   <v>      -0.13661538       0.27364103       0.00000000 </v>
   <v>      -0.12807692       0.25653846       0.00000000 </v>
   <v>      -0.11953846       0.23943590       0.00000000 </v>
   <v>      -0.11100000       0.22233333       0.00000000 </v>
   <v>      -0.10246154       0.20523077       0.00000000 </v>
   <v>      -0.09392308       0.18812821       0.00000000 </v>
   <v>      -0.08538462       0.17102564       0.00000000 </v>
   <v>      -0.07684615       0.15392308       0.00000000 </v>
   <v>      -0.06830769       0.13682051       0.00000000 </v>
   <v>      -0.05976923       0.11971795       0.00000000 </v>
   <v>      -0.05123077       0.10261538       0.00000000 </v>
   <v>      -0.04269231       0.08551282       0.00000000 </v>
   <v>      -0.03415385       0.06841026       0.00000000 </v>
   <v>      -0.02561538       0.05130769       0.00000000 </v>
   <v>      -0.01707692       0.03420513       0.00000000 </v>
   <v>      -0.00853846       0.01710256       0.00000000 </v>
   <v>      -0.00000000       0.00000000       0.00000000 </v>
   <v>       0.00000000       0.00000000       0.00000000 </v>
   <v>       0.01282051       0.00000000       0.00000000 </v>
   <v>       0.02564103       0.00000000       0.00000000 </v>
   <v>       0.03846154       0.00000000       0.00000000 </v>
   <v>       0.05128205       0.00000000       0.00000000 </v>
   <v>       0.06410256       0.00000000       0.00000000 </v>
   <v>       0.07692308       0.00000000       0.00000000 </v>
   <v>       0.08974359       0.00000000       0.00000000 </v>
   <v>       0.10256410       0.00000000       0.00000000 </v>
   <v>       0.11538462       0.00000000       0.00000000 </v>
   <v>       0.12820513       0.00000000       0.00000000 </v>
   <v>       0.14102564       0.00000000       0.00000000 </v>
   <v>       0.15384615       0.00000000       0.00000000 </v>
   <v>       0.16666667       0.00000000       0.00000000 </v>
   <v>       0.17948718       0.00000000       0.00000000 </v>
   <v>       0.19230769       0.00000000       0.00000000 </v>
   <v>       0.20512821       0.00000000       0.00000000 </v>
   <v>       0.21794872       0.00000000       0.00000000 </v>
   <v>       0.23076923       0.00000000       0.00000000 </v>
   <v>       0.24358974       0.00000000       0.00000000 </v>
   <v>       0.25641026       0.00000000       0.00000000 </v>
   <v>       0.26923077       0.00000000       0.00000000 </v>
   <v>       0.28205128       0.00000000       0.00000000 </v>
   <v>       0.29487179       0.00000000       0.00000000 </v>
   <v>       0.30769231       0.00000000       0.00000000 </v>
   <v>       0.32051282       0.00000000       0.00000000 </v>
   <v>       0.33333333       0.00000000       0.00000000 </v>
   <v>       0.34615385       0.00000000       0.00000000 </v>
   <v>       0.35897436       0.00000000       0.00000000 </v>
   <v>       0.37179487       0.00000000       0.00000000 </v>
   <v>       0.38461538       0.00000000       0.00000000 </v>
   <v>       0.39743590       0.00000000       0.00000000 </v>
   <v>       0.41025641       0.00000000       0.00000000 </v>
   <v>       0.42307692       0.00000000       0.00000000 </v>
   <v>       0.43589744       0.00000000       0.00000000 </v>
   <v>       0.44871795       0.00000000       0.00000000 </v>
   <v>       0.46153846       0.00000000       0.00000000 </v>
   <v>       0.47435897       0.00000000       0.00000000 </v>
   <v>       0.48717949       0.00000000       0.00000000 </v>
   <v>       0.50000000       0.00000000       0.00000000 </v>
   <v>       0.50000000       0.00000000       0.00000000 </v>
   <v>       0.47864103       0.01710256       0.00000000 </v>
   <v>       0.45728205       0.03420513       0.00000000 </v>
   <v>       0.43592308       0.05130769       0.00000000 </v>
   <v>       0.41456410       0.06841026       0.00000000 </v>
   <v>       0.39320513       0.08551282       0.00000000 </v>
   <v>       0.37184615       0.10261538       0.00000000 </v>
   <v>       0.35048718       0.11971795       0.00000000 </v>
   <v>       0.32912821       0.13682051       0.00000000 </v>
   <v>       0.30776923       0.15392308       0.00000000 </v>
   <v>       0.28641026       0.17102564       0.00000000 </v>
   <v>       0.26505128       0.18812821       0.00000000 </v>
   <v>       0.24369231       0.20523077       0.00000000 </v>
   <v>       0.22233333       0.22233333       0.00000000 </v>
   <v>       0.20097436       0.23943590       0.00000000 </v>
   <v>       0.17961538       0.25653846       0.00000000 </v>
   <v>       0.15825641       0.27364103       0.00000000 </v>
   <v>       0.13689744       0.29074359       0.00000000 </v>
   <v>       0.11553846       0.30784615       0.00000000 </v>
   <v>       0.09417949       0.32494872       0.00000000 </v>
   <v>       0.07282051       0.34205128       0.00000000 </v>
   <v>       0.05146154       0.35915385       0.00000000 </v>
   <v>       0.03010256       0.37625641       0.00000000 </v>
   <v>       0.00874359       0.39335897       0.00000000 </v>
   <v>      -0.01261538       0.41046154       0.00000000 </v>
   <v>      -0.03397436       0.42756410       0.00000000 </v>
   <v>      -0.05533333       0.44466667       0.00000000 </v>
   <v>      -0.07669231       0.46176923       0.00000000 </v>
   <v>      -0.09805128       0.47887179       0.00000000 </v>
   <v>      -0.11941026       0.49597436       0.00000000 </v>
   <v>      -0.14076923       0.51307692       0.00000000 </v>
   <v>      -0.16212821       0.53017949       0.00000000 </v>
   <v>      -0.18348718       0.54728205       0.00000000 </v>
   <v>      -0.20484615       0.56438462       0.00000000 </v>
   <v>      -0.22620513       0.58148718       0.00000000 </v>
   <v>      -0.24756410       0.59858974       0.00000000 </v>
   <v>      -0.26892308       0.61569231       0.00000000 </v>
   <v>      -0.29028205       0.63279487       0.00000000 </v>
   <v>      -0.31164103       0.64989744       0.00000000 </v>
   <v>      -0.33300000       0.66700000       0.00000000 </v>
  </varray>
  <varray name="weights" >
   <v>       0.00833333 </v>
   <v>       0.00833333 </v>
   <v>       0.00833333 </v>
   <v>       0.00833333 </v>
   <v>       0.00833333 </v>
   <v>       0.00833333 </v>
   <v>       0.00833333 </v>
   <v>       0.00833333 </v>
   <v>       0.00833333 </v>
   <v>       0.00833333 </v>
   <v>       0.00833333 </v>
   <v>       0.00833333 </v>
   <v>       0.00833333 </v>
   <v>       0.00833333 </v>
   <v>       0.00833333 </v>
   <v>       0.00833333 </v>
   <v>       0.00833333 </v>
   <v>       0.00833333 </v>
   <v>       0.00833333 </v>
   <v>       0.00833333 </v>
   <v>       0.00833333 </v>
   <v>       0.00833333 </v>
   <v>       0.00833333 </v>
   <v>       0.00833333 </v>
   <v>       0.00833333 </v>
   <v>       0.00833333 </v>
   <v>       0.00833333 </v>
   <v>       0.00833333 </v>
   <v>       0.00833333 </v>
   <v>       0.00833333 </v>
   <v>       0.00833333 </v>
   <v>       0.00833333 </v>
   <v>       0.00833333 </v>
   <v>       0.00833333 </v>
   <v>       0.00833333 </v>
   <v>       0.00833333 </v>
   <v>       0.00833333 </v>
   <v>       0.00833333 </v>
   <v>       0.00833333 </v>
   <v>       0.00833333 </v>
   <v>       0.00833333 </v>
   <v>       0.00833333 </v>
   <v>       0.00833333 </v>
   <v>       0.00833333 </v>
   <v>       0.00833333 </v>
   <v>       0.00833333 </v>
   <v>       0.00833333 </v>
   <v>       0.00833333 </v>
   <v>       0.00833333 </v>
   <v>       0.00833333 </v>
   <v>       0.00833333 </v>
   <v>       0.00833333 </v>
   <v>       0.00833333 </v>
   <v>       0.00833333 </v>
   <v>       0.00833333 </v>
   <v>       0.00833333 </v>
   <v>       0.00833333 </v>
   <v>       0.00833333 </v>
   <v>       0.00833333 </v>
   <v>       0.00833333 </v>
   <v>       0.00833333 </v>
   <v>       0.00833333 </v>
   <v>       0.00833333 </v>
   <v>       0.00833333 </v>
   <v>       0.00833333 </v>
   <v>       0.00833333 </v>
   <v>       0.00833333 </v>
   <v>       0.00833333 </v>
   <v>       0.00833333 </v>
   <v>       0.00833333 </v>
   <v>       0.00833333 </v>
   <v>       0.00833333 </v>
   <v>       0.00833333 </v>
   <v>       0.00833333 </v>
   <v>       0.00833333 </v>
   <v>       0.00833333 </v>
   <v>       0.00833333 </v>
   <v>       0.00833333 </v>
   <v>       0.00833333 </v>
   <v>       0.00833333 </v>
   <v>       0.00833333 </v>
   <v>       0.00833333 </v>
   <v>       0.00833333 </v>
   <v>       0.00833333 </v>
   <v>       0.00833333 </v>
   <v>       0.00833333 </v>
   <v>       0.00833333 </v>
   <v>       0.00833333 </v>
   <v>       0.00833333 </v>
   <v>       0.00833333 </v>
   <v>       0.00833333 </v>
   <v>       0.00833333 </v>
   <v>       0.00833333 </v>
   <v>       0.00833333 </v>
   <v>       0.00833333 </v>
   <v>       0.00833333 </v>
   <v>       0.00833333 </v>
   <v>       0.00833333 </v>
   <v>       0.00833333 </v>
   <v>       0.00833333 </v>
   <v>       0.00833333 </v>
   <v>       0.00833333 </v>
   <v>       0.00833333 </v>
   <v>       0.00833333 </v>
   <v>       0.00833333 </v>
   <v>       0.00833333 </v>
   <v>       0.00833333 </v>
   <v>       0.00833333 </v>
   <v>       0.00833333 </v>
   <v>       0.00833333 </v>
   <v>       0.00833333 </v>
   <v>       0.00833333 </v>
   <v>       0.00833333 </v>
   <v>       0.00833333 </v>
   <v>       0.00833333 </v>
   <v>       0.00833333 </v>
   <v>       0.00833333 </v>
   <v>       0.00833333 </v>
   <v>       0.00833333 </v>
   <v>       0.00833333 </v>
  </varray>
 </kpoints>
 <parameters>
  <separator name="general" >
   <i type="string" name="SYSTEM">BC3</i>
   <i type="logical" name="LCOMPAT"> F  </i>
  </separator>
  <separator name="electronic" >
   <i type="string" name="PREC">accura</i>
   <i name="ENMAX">    450.00000000</i>
   <i name="ENAUG">    644.87300000</i>
   <i name="EDIFF">      0.00000100</i>
   <i type="int" name="IALGO">    38</i>
   <i type="int" name="IWAVPR">    10</i>
   <i type="int" name="NBANDS">    24</i>
   <i name="NELECT">     30.00000000</i>
   <i type="int" name="TURBO">     0</i>
   <i type="int" name="IRESTART">     0</i>
   <i type="int" name="NREBOOT">     0</i>
   <i type="int" name="NMIN">     0</i>
   <i name="EREF">      0.00000000</i>
   <separator name="electronic smearing" >
    <i type="int" name="ISMEAR">     0</i>
    <i name="SIGMA">      0.10000000</i>
    <i name="KSPACING">      0.50000000</i>
    <i type="logical" name="KGAMMA"> T  </i>
   </separator>
   <separator name="electronic projectors" >
    <i type="logical" name="LREAL"> F  </i>
    <v name="ROPT">      0.00000000      0.00000000</v>
    <i type="int" name="LMAXPAW">  -100</i>
    <i type="int" name="LMAXMIX">     2</i>
    <i type="logical" name="NLSPLINE"> F  </i>
   </separator>
   <separator name="electronic startup" >
    <i type="int" name="ISTART">     0</i>
    <i type="int" name="ICHARG">    11</i>
    <i type="int" name="INIWAV">     1</i>
   </separator>
   <separator name="electronic spin" >
    <i type="int" name="ISPIN">     1</i>
    <i type="logical" name="LNONCOLLINEAR"> F  </i>
    <v name="MAGMOM">      1.00000000      1.00000000      1.00000000      1.00000000      1.00000000      1.00000000      1.00000000      1.00000000</v>
    <i name="NUPDOWN">     -1.00000000</i>
    <i type="logical" name="LSORBIT"> F  </i>
    <v name="SAXIS">      0.00000000      0.00000000      1.00000000</v>
    <i type="logical" name="LSPIRAL"> F  </i>
    <v name="QSPIRAL">      0.00000000      0.00000000      0.00000000</v>
    <i type="logical" name="LZEROZ"> F  </i>
   </separator>
   <separator name="electronic exchange-correlation" >
    <i type="logical" name="LASPH"> F  </i>
    <i type="logical" name="LMETAGGA"> F  </i>
   </separator>
   <separator name="electronic convergence" >
    <i type="int" name="NELM">    60</i>
    <i type="int" name="NELMDL">    -5</i>
    <i type="int" name="NELMIN">     2</i>
    <i name="ENINI">    450.00000000</i>
    <separator name="electronic convergence detail" >
     <i type="logical" name="LDIAG"> T  </i>
     <i type="logical" name="LSUBROT"> F  </i>
     <i name="WEIMIN">      0.00000000</i>
     <i name="EBREAK">      0.00000001</i>
     <i name="DEPER">      0.30000000</i>
     <i type="int" name="NRMM">     4</i>
     <i name="TIME">      0.40000000</i>
    </separator>
   </separator>
   <separator name="electronic mixer" >
    <i name="AMIX">      0.40000000</i>
    <i name="BMIX">      1.00000000</i>
    <i name="AMIN">      0.10000000</i>
    <i name="AMIX_MAG">      1.60000000</i>
    <i name="BMIX_MAG">      1.00000000</i>
    <separator name="electronic mixer details" >
     <i type="int" name="IMIX">     4</i>
     <i type="logical" name="MIXFIRST"> F  </i>
     <i type="int" name="MAXMIX">   -45</i>
     <i name="WC">    100.00000000</i>
     <i type="int" name="INIMIX">     1</i>
     <i type="int" name="MIXPRE">     1</i>
     <i type="int" name="MREMOVE">     5</i>
    </separator>
   </separator>
   <separator name="electronic dipolcorrection" >
    <i type="logical" name="LDIPOL"> F  </i>
    <i type="logical" name="LMONO"> F  </i>
    <i type="int" name="IDIPOL">     0</i>
    <i name="EPSILON">      1.00000000</i>
    <v name="DIPOL">   -100.00000000   -100.00000000   -100.00000000</v>
    <i name="EFIELD">      0.00000000</i>
   </separator>
  </separator>
  <separator name="grids" >
   <i type="int" name="NGX">    36</i>
   <i type="int" name="NGY">    36</i>
   <i type="int" name="NGZ">    80</i>
   <i type="int" name="NGXF">    72</i>
   <i type="int" name="NGYF">    72</i>
   <i type="int" name="NGZF">   160</i>
   <i type="logical" name="ADDGRID"> F  </i>
  </separator>
  <separator name="ionic" >
   <i type="int" name="NSW">     0</i>
   <i type="int" name="IBRION">    -1</i>
   <i type="int" name="MDALGO">     0</i>
   <i type="int" name="ISIF">     2</i>
   <i name="PSTRESS">      0.00000000</i>
   <i name="EDIFFG">     -0.00100000</i>
   <i type="int" name="NFREE">     0</i>
   <i name="POTIM">      0.50000000</i>
   <i name="SMASS">     -3.00000000</i>
   <i name="SCALEE">      1.00000000</i>
  </separator>
  <separator name="ionic md" >
   <i name="TEBEG">      0.00010000</i>
   <i name="TEEND">      0.00010000</i>
   <i type="int" name="NBLOCK">     1</i>
   <i type="int" name="KBLOCK">     1</i>
   <i type="int" name="NPACO">   256</i>
   <i name="APACO">     16.00000000</i>
  </separator>
  <separator name="symmetry" >
   <i type="int" name="ISYM">     2</i>
   <i name="SYMPREC">      0.00001000</i>
  </separator>
  <separator name="dos" >
   <i type="int" name="LORBIT">    11</i>
   <v name="RWIGS">     -1.00000000     -1.00000000</v>
   <i type="int" name="NEDOS">   301</i>
   <i name="EMIN">     10.00000000</i>
   <i name="EMAX">    -10.00000000</i>
   <i name="EFERMI">      0.00000000</i>
  </separator>
  <separator name="writing" >
   <i type="int" name="NWRITE">     2</i>
   <i type="logical" name="LWAVE"> T  </i>
   <i type="logical" name="LDOWNSAMPLE"> F  </i>
   <i type="logical" name="LCHARG"> T  </i>
   <i type="logical" name="LPARD"> F  </i>
   <i type="logical" name="LVTOT"> F  </i>
   <i type="logical" name="LVHAR"> F  </i>
   <i type="logical" name="LELF"> F  </i>
   <i type="logical" name="LOPTICS"> F  </i>
   <v name="STM">      0.00000000      0.00000000      0.00000000      0.00000000      0.00000000      0.00000000      0.00000000</v>
  </separator>
  <separator name="performance" >
   <i type="int" name="NPAR">    12</i>
   <i type="int" name="NSIM">     4</i>
   <i type="int" name="NBLK">    -1</i>
   <i type="logical" name="LPLANE"> T  </i>
   <i type="logical" name="LSCALAPACK"> T  </i>
   <i type="logical" name="LSCAAWARE"> F  </i>
   <i type="logical" name="LSCALU"> F  </i>
   <i type="logical" name="LASYNC"> F  </i>
   <i type="logical" name="LORBITALREAL"> F  </i>
  </separator>
  <separator name="miscellaneous" >
   <i type="int" name="IDIOT">     3</i>
   <i type="int" name="ISPECIAL">     0</i>
   <i type="logical" name="LMUSIC"> F  </i>
   <v name="POMASS">     10.81100000     12.01100000</v>
   <v name="DARWINR">      0.00000000      0.00000000</v>
   <v name="DARWINV">      1.00000000      1.00000000</v>
   <i type="logical" name="LCORR"> T  </i>
  </separator>
  <i type="logical" name="GGA_COMPAT"> T  </i>
  <i type="logical" name="LBERRY"> F  </i>
  <i type="int" name="ICORELEVEL">     0</i>
  <i type="logical" name="LDAU"> F  </i>
  <i type="int" name="I_CONSTRAINED_M">     0</i>
  <separator name="electronic exchange-correlation" >
   <i type="string" name="GGA">--</i>
   <i type="int" name="VOSKOWN">     0</i>
   <i type="logical" name="LHFCALC"> F  </i>
   <i type="string" name="PRECFOCK"></i>
   <i type="logical" name="LSYMGRAD"> F  </i>
   <i type="logical" name="LHFONE"> F  </i>
   <i type="logical" name="LRHFCALC"> F  </i>
   <i type="logical" name="LTHOMAS"> F  </i>
   <i type="logical" name="LMODELHF"> F  </i>
   <i name="ENCUT4O">     -1.00000000</i>
   <i type="int" name="EXXOEP">     0</i>
   <i type="int" name="FOURORBIT">     0</i>
   <i name="AEXX">      0.00000000</i>
   <i name="HFALPHA">      0.00000000</i>
   <i name="MCALPHA">      0.00000000</i>
   <i name="ALDAX">      1.00000000</i>
   <i name="AGGAX">      1.00000000</i>
   <i name="ALDAC">      1.00000000</i>
   <i name="AGGAC">      1.00000000</i>
   <i type="int" name="NKREDX">     1</i>
   <i type="int" name="NKREDY">     1</i>
   <i type="int" name="NKREDZ">     1</i>
   <i type="logical" name="SHIFTRED"> F  </i>
   <i type="logical" name="ODDONLY"> F  </i>
   <i type="logical" name="EVENONLY"> F  </i>
   <i type="int" name="LMAXFOCK">     0</i>
   <i type="int" name="NMAXFOCKAE">     0</i>
   <i type="logical" name="LFOCKAEDFT"> F  </i>
   <i name="HFSCREEN">      0.00000000</i>
   <i name="HFSCREENC">      0.00000000</i>
   <i type="int" name="NBANDSGWLOW">     0</i>
  </separator>
  <separator name="vdW DFT" >
   <i type="logical" name="LUSE_VDW"> F  </i>
   <i name="Zab_VDW">     -0.84910000</i>
   <i name="PARAM1">      0.12340000</i>
   <i name="PARAM2">      1.00000000</i>
   <i name="PARAM3">      0.00000000</i>
  </separator>
  <separator name="model GW" >
   <i type="int" name="MODEL_GW">     0</i>
   <i name="MODEL_EPS0">     19.20366881</i>
   <i name="MODEL_ALPHA">      1.00000000</i>
  </separator>
  <separator name="linear response parameters" >
   <i type="logical" name="LEPSILON"> F  </i>
   <i type="logical" name="LRPA"> F  </i>
   <i type="logical" name="LNABLA"> F  </i>
   <i type="logical" name="LVEL"> F  </i>
   <i type="int" name="KINTER">     0</i>
   <i name="CSHIFT">      0.10000000</i>
   <i name="OMEGAMAX">     -1.00000000</i>
   <i name="DEG_THRESHOLD">      0.00200000</i>
   <i name="RTIME">     -0.10000000</i>
   <i name="WPLASMAI">      0.00000000</i>
   <v name="DFIELD">      0.00000000      0.00000000      0.00000000</v>
   <v name="WPLASMA">      0.00000000      0.00000000      0.00000000      0.00000000      0.00000000      0.00000000      0.00000000      0.00000000      0.00000000</v>
  </separator>
  <separator name="orbital magnetization" >
   <i type="logical" name="NUCIND"> F  </i>
   <v name="MAGPOS">      0.00000000      0.00000000      0.00000000</v>
   <i type="logical" name="LNICSALL"> T  </i>
   <i type="logical" name="ORBITALMAG"> F  </i>
   <i type="logical" name="LMAGBLOCH"> F  </i>
   <i type="logical" name="LCHIMAG"> F  </i>
   <i type="logical" name="LGAUGE"> T  </i>
   <i type="int" name="MAGATOM">     0</i>
   <v name="MAGDIPOL">      0.00000000      0.00000000      0.00000000</v>
   <v name="AVECCONST">      0.00000000      0.00000000      0.00000000</v>
  </separator>
  <separator name="response functions" >
   <i type="logical" name="LADDER"> F  </i>
   <i type="logical" name="LRPAFORCE"> F  </i>
   <i type="logical" name="LFXC"> F  </i>
   <i type="logical" name="LHARTREE"> T  </i>
   <i type="int" name="IBSE">     0</i>
   <v type="int" name="KPOINT">    -1     0     0     0</v>
   <i type="logical" name="LTCTE"> F  </i>
   <i type="logical" name="LTETE"> F  </i>
   <i type="logical" name="LTRIPLET"> F  </i>
   <i type="logical" name="LFXCEPS"> F  </i>
   <i type="logical" name="LFXHEG"> F  </i>
   <i type="int" name="NATURALO">     2</i>
   <i type="logical" name="L2ORDER"> F  </i>
   <i type="logical" name="LMP2LT"> F  </i>
   <i type="logical" name="LUSEW"> F  </i>
   <i name="ENCUTGW">     -2.00000000</i>
   <i name="ENCUTGWSOFT">     -2.00000000</i>
   <i name="ENCUTLF">     -1.00000000</i>
   <i type="int" name="LMAXMP2">    -1</i>
   <i name="SCISSOR">      0.00000000</i>
   <i type="int" name="NOMEGA">     0</i>
   <i type="int" name="NOMEGAR">     0</i>
   <i type="int" name="NBANDSGW">    -1</i>
   <i type="int" name="NBANDSO">    -1</i>
   <i type="int" name="NBANDSV">    -1</i>
   <i type="int" name="NELM">     1</i>
   <i type="int" name="NELMHF">     1</i>
   <i type="int" name="DIM">     3</i>
   <i type="int" name="ANTIRES">     0</i>
   <i name="OMEGAMAX">    -30.00000000</i>
   <i name="OMEGAMIN">    -30.00000000</i>
   <i name="OMEGATL">   -200.00000000</i>
   <i type="int" name="OMEGAGRID">   140</i>
   <i name="CSHIFT">     -0.10000000</i>
   <i type="logical" name="SELFENERGY"> F  </i>
   <i type="logical" name="LSPECTRAL"> F  </i>
   <i type="logical" name="LSPECTRALGW"> F  </i>
   <i type="logical" name="LSINGLES"> F  </i>
   <i type="logical" name="LFERMIGW"> F  </i>
   <i type="logical" name="ODDONLYGW"> F  </i>
   <i type="logical" name="EVENONLYGW"> F  </i>
   <i type="int" name="NKREDLFX">     1</i>
   <i type="int" name="NKREDLFY">     1</i>
   <i type="int" name="NKREDLFZ">     1</i>
   <i type="int" name="MAXMEM">  2800</i>
   <i type="int" name="TELESCOPE">     0</i>
   <i type="int" name="TAUPAR">     1</i>
   <i type="int" name="OMEGAPAR">    -1</i>
   <i name="LAMBDA">      1.00000000</i>
  </separator>
  <separator name="External order field" >
   <i name="OFIELD_KAPPA">      0.00000000</i>
   <v name="OFIELD_K">      0.00000000      0.00000000      0.00000000</v>
   <i name="OFIELD_Q6_NEAR">      0.00000000</i>
   <i name="OFIELD_Q6_FAR">      0.00000000</i>
   <i name="OFIELD_A">      0.00000000</i>
  </separator>
 </parameters>
 <atominfo>
  <atoms>       8 </atoms>
  <types>       2 </types>
  <array name="atoms" >
   <dimension dim="1">ion</dimension>
   <field type="string">element</field>
   <field type="int">atomtype</field>
   <set>
    <rc><c>B </c><c>   1</c></rc>
    <rc><c>B </c><c>   1</c></rc>
    <rc><c>C </c><c>   2</c></rc>
    <rc><c>C </c><c>   2</c></rc>
    <rc><c>C </c><c>   2</c></rc>
    <rc><c>C </c><c>   2</c></rc>
    <rc><c>C </c><c>   2</c></rc>
    <rc><c>C </c><c>   2</c></rc>
   </set>
  </array>
  <array name="atomtypes" >
   <dimension dim="1">type</dimension>
   <field type="int">atomspertype</field>
   <field type="string">element</field>
   <field>mass</field>
   <field>valence</field>
   <field type="string">pseudopotential</field>
   <set>
    <rc><c>   2</c><c>B </c><c>     10.81100000</c><c>      3.00000000</c><c>  PAW_PBE B 06Sep2000                   </c></rc>
    <rc><c>   6</c><c>C </c><c>     12.01100000</c><c>      4.00000000</c><c>  PAW_PBE C 08Apr2002                   </c></rc>
   </set>
  </array>
 </atominfo>
 <structure name="initialpos" >
  <crystal>
   <varray name="basis" >
    <v>       5.17471375       0.00000000       0.00000000 </v>
    <v>       2.58735687       4.48016509       0.00000000 </v>
    <v>       0.00000000       0.00000000      11.04441191 </v>
   </varray>
   <i name="volume">    256.04891747 </i>
   <varray name="rec_basis" >
    <v>       0.19324740      -0.11160303       0.00000000 </v>
    <v>      -0.00000000       0.22320606       0.00000000 </v>
    <v>       0.00000000       0.00000000       0.09054353 </v>
   </varray>
  </crystal>
  <varray name="positions" >
   <v>       0.17460303       0.17456665       0.00000000 </v>
   <v>       0.50789541       0.50798189       0.00000000 </v>
   <v>       0.99988063       0.99998941       0.00000000 </v>
   <v>       0.52390268       0.99998941       0.00000000 </v>
   <v>       0.68254532       0.15868208       0.00000000 </v>
   <v>       0.99995312       0.52386646       0.00000000 </v>
   <v>       0.15859576       0.68255913       0.00000000 </v>
   <v>       0.68261781       0.68255913       0.00000000 </v>
  </varray>
 </structure>
 <calculation>
  <scstep>
   <time name="dav">    9.63    9.64</time>
   <time name="total">    9.72    9.73</time>
   <energy>
    <i name="alphaZ">     19.81068387 </i>
    <i name="ewald">   1439.15139366 </i>
    <i name="hartreedc">  -2358.51759210 </i>
    <i name="XCdc">     96.02370229 </i>
    <i name="pawpsdc">   2894.69470930 </i>
    <i name="pawaedc">  -2897.22195439 </i>
    <i name="eentropy">     -0.01280848 </i>
    <i name="bandstr">    -79.79547141 </i>
    <i name="atom">   1025.20389953 </i>
    <i name="e_fr_energy">    139.33656228 </i>
    <i name="e_wo_entrp">    139.34937076 </i>
    <i name="e_0_energy">    139.34296652 </i>
   </energy>
  </scstep>
  <scstep>
   <time name="dav">   13.24   13.24</time>
   <time name="total">   13.24   13.24</time>
   <energy>
    <i name="e_fr_energy">    -46.31512278 </i>
    <i name="e_wo_entrp">    -46.30703283 </i>
    <i name="e_0_energy">    -46.31107781 </i>
   </energy>
  </scstep>
  <scstep>
   <time name="dav">   10.95   10.96</time>
   <time name="total">   10.95   10.96</time>
   <energy>
    <i name="e_fr_energy">    -65.90382241 </i>
    <i name="e_wo_entrp">    -65.90382220 </i>
    <i name="e_0_energy">    -65.90382230 </i>
   </energy>
  </scstep>
  <scstep>
   <time name="dav">   12.28   12.29</time>
   <time name="total">   12.28   12.29</time>
   <energy>
    <i name="e_fr_energy">    -66.25960084 </i>
    <i name="e_wo_entrp">    -66.25960064 </i>
    <i name="e_0_energy">    -66.25960074 </i>
   </energy>
  </scstep>
  <scstep>
   <time name="dav">   11.69   11.69</time>
   <time name="total">   11.69   11.69</time>
   <energy>
    <i name="e_fr_energy">    -66.26840160 </i>
    <i name="e_wo_entrp">    -66.26840139 </i>
    <i name="e_0_energy">    -66.26840149 </i>
   </energy>
  </scstep>
  <scstep>
   <time name="dav">   13.50   13.50</time>
   <time name="total">   13.50   13.50</time>
   <energy>
    <i name="e_fr_energy">    -66.26880882 </i>
    <i name="e_wo_entrp">    -66.26880862 </i>
    <i name="e_0_energy">    -66.26880872 </i>
   </energy>
  </scstep>
  <scstep>
   <time name="dav">   12.46   12.46</time>
   <time name="total">   12.46   12.47</time>
   <energy>
    <i name="e_fr_energy">    -66.26881723 </i>
    <i name="e_wo_entrp">    -66.26881702 </i>
    <i name="e_0_energy">    -66.26881712 </i>
   </energy>
  </scstep>
  <scstep>
   <time name="dav">   12.00   12.01</time>
   <time name="total">   12.00   12.01</time>
   <energy>
    <i name="alphaZ">     19.81068387 </i>
    <i name="ewald">   1439.15139366 </i>
    <i name="hartreedc">  -2358.51759210 </i>
    <i name="XCdc">     96.02370229 </i>
    <i name="pawpsdc">   2894.69470930 </i>
    <i name="pawaedc">  -2897.22195439 </i>
    <i name="eentropy">     -0.00000021 </i>
    <i name="bandstr">   -285.41365946 </i>
    <i name="atom">   1025.20389953 </i>
    <i name="e_fr_energy">    -66.26881749 </i>
    <i name="e_wo_entrp">    -66.26881729 </i>
    <i name="e_0_energy">    -66.26881739 </i>
   </energy>
  </scstep>
