   8   8   0   0
  0.2469169E+02  0.5174038E-09  0.5174038E-09  0.8520222E-09  0.5000000E-15
  1.000000000000000E-004
  CAR 
 BC3-optical                             
     69.58823432    -22.73692813 2400     -2.41211511      1.00000000
    -22.737  0.0000E+00  0.0000E+00
    -22.698  0.0000E+00  0.0000E+00
    -22.660  0.0000E+00  0.0000E+00
    -22.621  0.0000E+00  0.0000E+00
    -22.583  0.0000E+00  0.0000E+00
    -22.545  0.0000E+00  0.0000E+00
    -22.506  0.0000E+00  0.0000E+00
    -22.468  0.0000E+00  0.0000E+00
    -22.429  0.0000E+00  0.0000E+00
    -22.391  0.0000E+00  0.0000E+00
    -22.352  0.0000E+00  0.0000E+00
    -22.314  0.0000E+00  0.0000E+00
    -22.275  0.0000E+00  0.0000E+00
    -22.237  0.0000E+00  0.0000E+00
    -22.198  0.0000E+00  0.0000E+00
    -22.160  0.0000E+00  0.0000E+00
    -22.121  0.0000E+00  0.0000E+00
    -22.083  0.0000E+00  0.0000E+00
    -22.044  0.0000E+00  0.0000E+00
    -22.006  0.0000E+00  0.0000E+00
    -21.967  0.0000E+00  0.0000E+00
    -21.929  0.0000E+00  0.0000E+00
    -21.890  0.0000E+00  0.0000E+00
    -21.852  0.0000E+00  0.0000E+00
    -21.813  0.0000E+00  0.0000E+00
    -21.775  0.0000E+00  0.0000E+00
    -21.736  0.0000E+00  0.0000E+00
    -21.698  0.0000E+00  0.0000E+00
    -21.659  0.0000E+00  0.0000E+00
    -21.621  0.0000E+00  0.0000E+00
    -21.582  0.0000E+00  0.0000E+00
    -21.544  0.0000E+00  0.0000E+00
    -21.505  0.0000E+00  0.0000E+00
    -21.467  0.0000E+00  0.0000E+00
    -21.428  0.0000E+00  0.0000E+00
    -21.390  0.0000E+00  0.0000E+00
    -21.351  0.0000E+00  0.0000E+00
    -21.313  0.0000E+00  0.0000E+00
    -21.275  0.0000E+00  0.0000E+00
    -21.236  0.0000E+00  0.0000E+00
    -21.198  0.0000E+00  0.0000E+00
    -21.159  0.0000E+00  0.0000E+00
    -21.121  0.0000E+00  0.0000E+00
    -21.082  0.0000E+00  0.0000E+00
    -21.044  0.0000E+00  0.0000E+00
    -21.005  0.0000E+00  0.0000E+00
    -20.967  0.0000E+00  0.0000E+00
    -20.928  0.0000E+00  0.0000E+00
    -20.890  0.0000E+00  0.0000E+00
    -20.851  0.0000E+00  0.0000E+00
    -20.813  0.0000E+00  0.0000E+00
    -20.774  0.0000E+00  0.0000E+00
    -20.736  0.0000E+00  0.0000E+00
    -20.697  0.0000E+00  0.0000E+00
    -20.659  0.0000E+00  0.0000E+00
    -20.620  0.0000E+00  0.0000E+00
    -20.582  0.0000E+00  0.0000E+00
    -20.543  0.0000E+00  0.0000E+00
    -20.505  0.0000E+00  0.0000E+00
    -20.466  0.0000E+00  0.0000E+00
    -20.428  0.0000E+00  0.0000E+00
    -20.389  0.0000E+00  0.0000E+00
    -20.351  0.0000E+00  0.0000E+00
    -20.312  0.0000E+00  0.0000E+00
    -20.274  0.0000E+00  0.0000E+00
    -20.235  0.0000E+00  0.0000E+00
    -20.197  0.0000E+00  0.0000E+00
    -20.158  0.0000E+00  0.0000E+00
    -20.120  0.0000E+00  0.0000E+00
    -20.081  0.0000E+00  0.0000E+00
    -20.043  0.0000E+00  0.0000E+00
    -20.005  0.0000E+00  0.0000E+00
    -19.966  0.0000E+00  0.0000E+00
    -19.928  0.0000E+00  0.0000E+00
    -19.889  0.0000E+00  0.0000E+00
    -19.851  0.0000E+00  0.0000E+00
    -19.812  0.0000E+00  0.0000E+00
    -19.774  0.0000E+00  0.0000E+00
    -19.735  0.0000E+00  0.0000E+00
    -19.697  0.0000E+00  0.0000E+00
    -19.658  0.0000E+00  0.0000E+00
    -19.620  0.0000E+00  0.0000E+00
    -19.581  0.0000E+00  0.0000E+00
    -19.543  0.0000E+00  0.0000E+00
    -19.504  0.0000E+00  0.0000E+00
    -19.466  0.0000E+00  0.0000E+00
    -19.427  0.0000E+00  0.0000E+00
    -19.389  0.0000E+00  0.0000E+00
    -19.350  0.0000E+00  0.0000E+00
    -19.312  0.0000E+00  0.0000E+00
    -19.273  0.0000E+00  0.0000E+00
    -19.235  0.0000E+00  0.0000E+00
    -19.196  0.0000E+00  0.0000E+00
    -19.158  0.0000E+00  0.0000E+00
    -19.119  0.0000E+00  0.0000E+00
    -19.081  0.0000E+00  0.0000E+00
    -19.042  0.0000E+00  0.0000E+00
    -19.004  0.0000E+00  0.0000E+00
    -18.965  0.0000E+00  0.0000E+00
    -18.927  0.0000E+00  0.0000E+00
    -18.888  0.0000E+00  0.0000E+00
    -18.850  0.0000E+00  0.0000E+00
    -18.811  0.0000E+00  0.0000E+00
    -18.773  0.0000E+00  0.0000E+00
    -18.735  0.0000E+00  0.0000E+00
    -18.696  0.0000E+00  0.0000E+00
    -18.658  0.0000E+00  0.0000E+00
    -18.619  0.0000E+00  0.0000E+00
    -18.581  0.2293E-08  0.8824E-10
    -18.542  0.1452E+00  0.5589E-02
    -18.504  0.2193E+01  0.8999E-01
    -18.465  0.7056E+00  0.1172E+00
    -18.427  0.3502E+01  0.2519E+00
    -18.388  0.3114E+00  0.2639E+00
    -18.350  0.3898E+01  0.4139E+00
    -18.311  0.1508E+01  0.4719E+00
    -18.273  0.1091E+01  0.5139E+00
    -18.234  0.2052E+01  0.5929E+00
    -18.196  0.4443E+01  0.7639E+00
    -18.157  0.1676E+01  0.8284E+00
    -18.119  0.5622E+00  0.8500E+00
    -18.080  0.5367E+01  0.1057E+01
    -18.042  0.3265E+01  0.1182E+01
    -18.003  0.2131E+01  0.1264E+01
    -17.965  0.1092E+02  0.1684E+01
    -17.926  0.2238E+01  0.1770E+01
    -17.888  0.5203E+01  0.1971E+01
    -17.849  0.7604E+00  0.2000E+01
    -17.811  0.1787E-03  0.2000E+01
    -17.772  0.0000E+00  0.2000E+01
    -17.734  0.0000E+00  0.2000E+01
    -17.695  0.0000E+00  0.2000E+01
    -17.657  0.0000E+00  0.2000E+01
    -17.618  0.0000E+00  0.2000E+01
    -17.580  0.0000E+00  0.2000E+01
    -17.541  0.0000E+00  0.2000E+01
    -17.503  0.0000E+00  0.2000E+01
    -17.465  0.0000E+00  0.2000E+01
    -17.426  0.0000E+00  0.2000E+01
    -17.388  0.0000E+00  0.2000E+01
    -17.349  0.0000E+00  0.2000E+01
    -17.311  0.0000E+00  0.2000E+01
    -17.272  0.0000E+00  0.2000E+01
    -17.234  0.0000E+00  0.2000E+01
    -17.195  0.0000E+00  0.2000E+01
    -17.157  0.0000E+00  0.2000E+01
    -17.118  0.0000E+00  0.2000E+01
    -17.080  0.0000E+00  0.2000E+01
    -17.041  0.0000E+00  0.2000E+01
    -17.003  0.0000E+00  0.2000E+01
    -16.964  0.0000E+00  0.2000E+01
    -16.926  0.0000E+00  0.2000E+01
    -16.887  0.0000E+00  0.2000E+01
    -16.849  0.0000E+00  0.2000E+01
    -16.810  0.0000E+00  0.2000E+01
    -16.772  0.0000E+00  0.2000E+01
    -16.733  0.0000E+00  0.2000E+01
    -16.695  0.0000E+00  0.2000E+01
    -16.656  0.0000E+00  0.2000E+01
    -16.618  0.0000E+00  0.2000E+01
    -16.579  0.0000E+00  0.2000E+01
    -16.541  0.0000E+00  0.2000E+01
    -16.502  0.0000E+00  0.2000E+01
    -16.464  0.0000E+00  0.2000E+01
    -16.425  0.0000E+00  0.2000E+01
    -16.387  0.0000E+00  0.2000E+01
    -16.348  0.0000E+00  0.2000E+01
    -16.310  0.5055E-07  0.2000E+01
    -16.271  0.5859E+00  0.2023E+01
    -16.233  0.9027E+00  0.2057E+01
    -16.195  0.4272E+01  0.2222E+01
    -16.156  0.3625E+01  0.2361E+01
    -16.118  0.3686E+00  0.2375E+01
    -16.079  0.5224E+01  0.2576E+01
    -16.041  0.3492E+01  0.2711E+01
    -16.002  0.5089E+01  0.2907E+01
    -15.964  0.1343E+01  0.2958E+01
    -15.925  0.1429E+01  0.3013E+01
    -15.887  0.4465E+00  0.3031E+01
    -15.848  0.6061E+01  0.3264E+01
    -15.810  0.1832E-02  0.3264E+01
    -15.771  0.1442E-14  0.3264E+01
    -15.733  0.1787E-01  0.3265E+01
    -15.694  0.7809E+01  0.3565E+01
    -15.656  0.8341E+00  0.3597E+01
    -15.617  0.1522E-02  0.3597E+01
    -15.579  0.2215E+01  0.3683E+01
    -15.540  0.2114E+01  0.3764E+01
    -15.502  0.1170E+01  0.3809E+01
    -15.463  0.2511E+01  0.3906E+01
    -15.425  0.3937E+01  0.4057E+01
    -15.386  0.1044E+01  0.4097E+01
    -15.348  0.2198E-01  0.4098E+01
    -15.309  0.8039E+01  0.4407E+01
    -15.271  0.6008E+00  0.4431E+01
    -15.232  0.5762E-01  0.4433E+01
    -15.194  0.4270E+01  0.4597E+01
    -15.155  0.3770E+01  0.4742E+01
    -15.117  0.3458E+01  0.4875E+01
    -15.078  0.4691E+01  0.5056E+01
    -15.040  0.4344E+01  0.5223E+01
    -15.001  0.2481E+01  0.5318E+01
    -14.963  0.1830E+01  0.5389E+01
    -14.925  0.2505E+01  0.5485E+01
    -14.886  0.3991E+01  0.5639E+01
    -14.848  0.7830E-05  0.5639E+01
    -14.809  0.5851E-01  0.5641E+01
    -14.771  0.6126E+01  0.5877E+01
    -14.732  0.3116E+00  0.5889E+01
    -14.694  0.7938E+00  0.5919E+01
    -14.655  0.1506E+01  0.5977E+01
    -14.617  0.5873E+00  0.6000E+01
    -14.578  0.1928E-05  0.6000E+01
    -14.540  0.0000E+00  0.6000E+01
    -14.501  0.0000E+00  0.6000E+01
    -14.463  0.0000E+00  0.6000E+01
    -14.424  0.0000E+00  0.6000E+01
    -14.386  0.0000E+00  0.6000E+01
    -14.347  0.0000E+00  0.6000E+01
    -14.309  0.0000E+00  0.6000E+01
    -14.270  0.0000E+00  0.6000E+01
    -14.232  0.0000E+00  0.6000E+01
    -14.193  0.0000E+00  0.6000E+01
    -14.155  0.0000E+00  0.6000E+01
    -14.116  0.0000E+00  0.6000E+01
    -14.078  0.0000E+00  0.6000E+01
    -14.039  0.0000E+00  0.6000E+01
    -14.001  0.0000E+00  0.6000E+01
    -13.962  0.0000E+00  0.6000E+01
    -13.924  0.0000E+00  0.6000E+01
    -13.885  0.0000E+00  0.6000E+01
    -13.847  0.0000E+00  0.6000E+01
    -13.808  0.0000E+00  0.6000E+01
    -13.770  0.0000E+00  0.6000E+01
    -13.731  0.0000E+00  0.6000E+01
    -13.693  0.0000E+00  0.6000E+01
    -13.655  0.0000E+00  0.6000E+01
    -13.616  0.0000E+00  0.6000E+01
    -13.578  0.0000E+00  0.6000E+01
    -13.539  0.0000E+00  0.6000E+01
    -13.501  0.0000E+00  0.6000E+01
    -13.462  0.0000E+00  0.6000E+01
    -13.424  0.0000E+00  0.6000E+01
    -13.385  0.0000E+00  0.6000E+01
    -13.347  0.0000E+00  0.6000E+01
    -13.308  0.0000E+00  0.6000E+01
    -13.270  0.0000E+00  0.6000E+01
    -13.231  0.0000E+00  0.6000E+01
    -13.193  0.0000E+00  0.6000E+01
    -13.154  0.0000E+00  0.6000E+01
    -13.116  0.0000E+00  0.6000E+01
    -13.077  0.0000E+00  0.6000E+01
    -13.039  0.0000E+00  0.6000E+01
    -13.000  0.0000E+00  0.6000E+01
    -12.962  0.0000E+00  0.6000E+01
    -12.923  0.0000E+00  0.6000E+01
    -12.885  0.1144E-07  0.6000E+01
    -12.846  0.4726E+00  0.6018E+01
    -12.808  0.2510E+01  0.6115E+01
    -12.769  0.2659E+00  0.6125E+01
    -12.731  0.1170E+01  0.6170E+01
    -12.692  0.3008E+01  0.6286E+01
    -12.654  0.2440E+01  0.6380E+01
    -12.615  0.4285E+01  0.6545E+01
    -12.577  0.2090E+01  0.6625E+01
    -12.538  0.3830E+01  0.6772E+01
    -12.500  0.5005E+00  0.6792E+01
    -12.461  0.3834E+00  0.6806E+01
    -12.423  0.6024E+01  0.7038E+01
    -12.385  0.1029E+00  0.7042E+01
    -12.346  0.2594E+01  0.7142E+01
    -12.308  0.1064E+02  0.7551E+01
    -12.269  0.4801E+01  0.7736E+01
    -12.231  0.2198E-03  0.7736E+01
    -12.192  0.1928E+01  0.7810E+01
    -12.154  0.2372E+00  0.7819E+01
    -12.115  0.9078E-08  0.7819E+01
    -12.077  0.8126E+00  0.7851E+01
    -12.038  0.1435E+01  0.7906E+01
    -12.000  0.2082E+01  0.7986E+01
    -11.961  0.2947E-03  0.7986E+01
    -11.923  0.1957E+01  0.8061E+01
    -11.884  0.4524E+01  0.8236E+01
    -11.846  0.1653E-01  0.8236E+01
    -11.807  0.4252E+01  0.8400E+01
    -11.769  0.7722E-01  0.8403E+01
    -11.730  0.9610E-01  0.8406E+01
    -11.692  0.2069E+01  0.8486E+01
    -11.653  0.1988E-03  0.8486E+01
    -11.615  0.0000E+00  0.8486E+01
    -11.576  0.3924E-04  0.8486E+01
    -11.538  0.1960E+01  0.8562E+01
    -11.499  0.1563E+01  0.8622E+01
    -11.461  0.9138E-01  0.8625E+01
    -11.422  0.8542E+01  0.8954E+01
    -11.384  0.1489E+01  0.9011E+01
    -11.345  0.7907E+00  0.9042E+01
    -11.307  0.7743E-08  0.9042E+01
    -11.268  0.7609E-05  0.9042E+01
    -11.230  0.3614E+01  0.9181E+01
    -11.191  0.1078E+01  0.9222E+01
    -11.153  0.5791E-08  0.9222E+01
    -11.115  0.4993E+00  0.9241E+01
    -11.076  0.6265E+01  0.9483E+01
    -11.038  0.1898E+01  0.9556E+01
    -10.999  0.4165E+01  0.9716E+01
    -10.961  0.1655E+00  0.9722E+01
    -10.922  0.1513E-04  0.9722E+01
    -10.884  0.1871E+01  0.9794E+01
    -10.845  0.3007E+00  0.9806E+01
    -10.807  0.2151E+01  0.9889E+01
    -10.768  0.8107E-02  0.9889E+01
    -10.730  0.4261E-01  0.9891E+01
    -10.691  0.4954E+01  0.1008E+02
    -10.653  0.3665E+01  0.1022E+02
    -10.614  0.1939E-04  0.1022E+02
    -10.576  0.6437E-13  0.1022E+02
    -10.537  0.2610E-01  0.1022E+02
    -10.499  0.1056E+01  0.1026E+02
    -10.460  0.2847E-03  0.1026E+02
    -10.422  0.0000E+00  0.1026E+02
    -10.383  0.4463E-11  0.1026E+02
    -10.345  0.2433E+00  0.1027E+02
    -10.306  0.4087E+01  0.1043E+02
    -10.268  0.2507E-03  0.1043E+02
    -10.229  0.8414E-15  0.1043E+02
    -10.191  0.9625E-02  0.1043E+02
    -10.152  0.2151E+01  0.1051E+02
    -10.114  0.5098E-02  0.1051E+02
    -10.075  0.0000E+00  0.1051E+02
    -10.037  0.0000E+00  0.1051E+02
     -9.998  0.0000E+00  0.1051E+02
     -9.960  0.9493E-11  0.1051E+02
     -9.921  0.4735E-01  0.1052E+02
     -9.883  0.3135E+00  0.1053E+02
     -9.845  0.2793E-05  0.1053E+02
     -9.806  0.9460E-13  0.1053E+02
     -9.768  0.7000E-01  0.1053E+02
     -9.729  0.6545E+01  0.1078E+02
     -9.691  0.2046E+01  0.1086E+02
     -9.652  0.7635E-07  0.1086E+02
     -9.614  0.0000E+00  0.1086E+02
     -9.575  0.3382E-03  0.1086E+02
     -9.537  0.2774E+01  0.1097E+02
     -9.498  0.1123E+00  0.1097E+02
     -9.460  0.1317E+01  0.1102E+02
     -9.421  0.8481E+00  0.1106E+02
     -9.383  0.3237E+00  0.1107E+02
     -9.344  0.4011E+01  0.1122E+02
     -9.306  0.2150E+01  0.1131E+02
     -9.267  0.1179E-01  0.1131E+02
     -9.229  0.0000E+00  0.1131E+02
     -9.190  0.2398E-05  0.1131E+02
     -9.152  0.1648E+01  0.1137E+02
     -9.113  0.4210E+01  0.1153E+02
     -9.075  0.4964E+01  0.1172E+02
     -9.036  0.3779E+00  0.1174E+02
     -8.998  0.1794E+01  0.1181E+02
     -8.959  0.5112E+01  0.1200E+02
     -8.921  0.3569E+01  0.1214E+02
     -8.882  0.2143E+01  0.1222E+02
     -8.844  0.2192E-02  0.1222E+02
     -8.805  0.1756E+01  0.1229E+02
     -8.767  0.2575E+01  0.1239E+02
     -8.728  0.4370E-01  0.1239E+02
     -8.690  0.2122E+01  0.1247E+02
     -8.651  0.1070E+01  0.1251E+02
     -8.613  0.1311E-01  0.1251E+02
     -8.575  0.0000E+00  0.1251E+02
     -8.536  0.1454E-13  0.1251E+02
     -8.498  0.2584E-01  0.1251E+02
     -8.459  0.2765E+01  0.1262E+02
     -8.421  0.6206E+01  0.1286E+02
     -8.382  0.5812E+01  0.1308E+02
     -8.344  0.3879E+01  0.1323E+02
     -8.305  0.6744E+01  0.1349E+02
     -8.267  0.2845E+01  0.1360E+02
     -8.228  0.9573E+00  0.1364E+02
     -8.190  0.2483E-07  0.1364E+02
     -8.151  0.0000E+00  0.1364E+02
     -8.113  0.1096E-03  0.1364E+02
     -8.074  0.2035E+01  0.1372E+02
     -8.036  0.1303E+00  0.1372E+02
     -7.997  0.2106E+01  0.1380E+02
     -7.959  0.2137E+01  0.1389E+02
     -7.920  0.6386E+01  0.1413E+02
     -7.882  0.1973E+00  0.1414E+02
     -7.843  0.1012E+01  0.1418E+02
     -7.805  0.4555E+00  0.1420E+02
     -7.766  0.3946E+01  0.1435E+02
     -7.728  0.9138E-04  0.1435E+02
     -7.689  0.1248E+00  0.1435E+02
     -7.651  0.4929E+01  0.1454E+02
     -7.612  0.5751E+01  0.1476E+02
     -7.574  0.3327E+01  0.1489E+02
     -7.535  0.7521E+01  0.1518E+02
     -7.497  0.1948E-04  0.1518E+02
     -7.458  0.0000E+00  0.1518E+02
     -7.420  0.4928E-14  0.1518E+02
     -7.381  0.1814E-01  0.1518E+02
     -7.343  0.4447E+01  0.1535E+02
     -7.305  0.2326E+01  0.1544E+02
     -7.266  0.3518E+01  0.1558E+02
     -7.228  0.5696E+01  0.1580E+02
     -7.189  0.2355E+01  0.1589E+02
     -7.151  0.3653E+01  0.1603E+02
     -7.112  0.3483E+00  0.1604E+02
     -7.074  0.1820E+00  0.1605E+02
     -7.035  0.5570E+01  0.1626E+02
     -6.997  0.2331E+01  0.1635E+02
     -6.958  0.4199E+01  0.1651E+02
     -6.920  0.6925E-03  0.1651E+02
     -6.881  0.3114E-01  0.1652E+02
     -6.843  0.2218E+01  0.1660E+02
     -6.804  0.4365E+01  0.1677E+02
     -6.766  0.2048E+01  0.1685E+02
     -6.727  0.1934E+00  0.1685E+02
     -6.689  0.2313E+01  0.1694E+02
     -6.650  0.4690E+01  0.1712E+02
     -6.612  0.1318E+01  0.1717E+02
     -6.573  0.4389E+01  0.1734E+02
     -6.535  0.6995E+01  0.1761E+02
     -6.496  0.3628E+01  0.1775E+02
     -6.458  0.7509E+01  0.1804E+02
     -6.419  0.1730E+01  0.1811E+02
     -6.381  0.1355E+01  0.1816E+02
     -6.342  0.3017E+01  0.1828E+02
     -6.304  0.4733E+01  0.1846E+02
     -6.265  0.6367E+01  0.1870E+02
     -6.227  0.6047E+01  0.1894E+02
     -6.188  0.6144E+00  0.1896E+02
     -6.150  0.6438E+01  0.1921E+02
     -6.111  0.4287E+01  0.1937E+02
     -6.073  0.5841E-01  0.1938E+02
     -6.035  0.5593E+00  0.1940E+02
     -5.996  0.1643E+00  0.1940E+02
     -5.958  0.1265E+01  0.1945E+02
     -5.919  0.5563E+01  0.1967E+02
     -5.881  0.1471E+01  0.1972E+02
     -5.842  0.1776E+01  0.1979E+02
     -5.804  0.2555E+01  0.1989E+02
     -5.765  0.3977E-06  0.1989E+02
     -5.727  0.3846E-12  0.1989E+02
     -5.688  0.1207E+00  0.1989E+02
     -5.650  0.8477E+01  0.2022E+02
     -5.611  0.7273E-01  0.2022E+02
     -5.573  0.2151E+01  0.2031E+02
     -5.534  0.5431E-02  0.2031E+02
     -5.496  0.6286E-08  0.2031E+02
     -5.457  0.1363E+01  0.2036E+02
     -5.419  0.5130E+01  0.2056E+02
     -5.380  0.2399E-02  0.2056E+02
     -5.342  0.2279E-02  0.2056E+02
     -5.303  0.5856E+01  0.2078E+02
     -5.265  0.1731E+01  0.2085E+02
     -5.226  0.4046E+01  0.2100E+02
     -5.188  0.4715E+01  0.2118E+02
     -5.149  0.2056E+01  0.2126E+02
     -5.111  0.5652E+00  0.2129E+02
     -5.072  0.1537E+02  0.2188E+02
     -5.034  0.8774E+01  0.2221E+02
     -4.995  0.6981E+01  0.2248E+02
     -4.957  0.1448E+02  0.2304E+02
     -4.918  0.2191E+01  0.2312E+02
     -4.880  0.1561E+01  0.2319E+02
     -4.841  0.7022E+01  0.2346E+02
     -4.803  0.7261E+01  0.2373E+02
     -4.765  0.5148E+01  0.2393E+02
     -4.726  0.2466E+01  0.2403E+02
     -4.688  0.1330E-06  0.2403E+02
     -4.649  0.4501E-07  0.2403E+02
     -4.611  0.1047E+01  0.2407E+02
     -4.572  0.3157E+01  0.2419E+02
     -4.534  0.2292E+01  0.2428E+02
     -4.495  0.5591E-04  0.2428E+02
     -4.457  0.7880E+01  0.2458E+02
     -4.418  0.5113E+01  0.2478E+02
     -4.380  0.2136E+01  0.2486E+02
     -4.341  0.2993E+01  0.2498E+02
     -4.303  0.1365E+01  0.2503E+02
     -4.264  0.3908E+00  0.2504E+02
     -4.226  0.1775E+01  0.2511E+02
     -4.187  0.1236E+00  0.2512E+02
     -4.149  0.2042E+01  0.2519E+02
     -4.110  0.7592E-01  0.2520E+02
     -4.072  0.6417E+01  0.2544E+02
     -4.033  0.3356E+01  0.2557E+02
     -3.995  0.7406E+01  0.2586E+02
     -3.956  0.2036E+01  0.2594E+02
     -3.918  0.2362E+01  0.2603E+02
     -3.879  0.9571E+00  0.2606E+02
     -3.841  0.9861E+01  0.2644E+02
     -3.802  0.8374E-02  0.2644E+02
     -3.764  0.1055E+01  0.2649E+02
     -3.725  0.3276E+01  0.2661E+02
     -3.687  0.1996E+00  0.2662E+02
     -3.648  0.1392E+01  0.2667E+02
     -3.610  0.1410E+02  0.2721E+02
     -3.571  0.4101E+01  0.2737E+02
     -3.533  0.7237E+01  0.2765E+02
     -3.495  0.4134E+00  0.2767E+02
     -3.456  0.6123E+01  0.2790E+02
     -3.418  0.9557E+00  0.2794E+02
     -3.379  0.2425E+01  0.2803E+02
     -3.341  0.1064E+02  0.2844E+02
     -3.302  0.2003E+01  0.2852E+02
     -3.264  0.5520E+01  0.2873E+02
     -3.225  0.8393E+01  0.2905E+02
     -3.187  0.1485E+01  0.2911E+02
     -3.148  0.2551E+01  0.2921E+02
     -3.110  0.3178E+00  0.2922E+02
     -3.071  0.7668E-08  0.2922E+02
     -3.033  0.2367E-01  0.2922E+02
     -2.994  0.4064E+01  0.2938E+02
     -2.956  0.2432E+00  0.2939E+02
     -2.917  0.4175E+01  0.2955E+02
     -2.879  0.8046E+00  0.2958E+02
     -2.840  0.1516E+01  0.2964E+02
     -2.802  0.9482E-06  0.2964E+02
     -2.763  0.3500E-06  0.2964E+02
     -2.725  0.1365E+01  0.2969E+02
     -2.686  0.9132E+00  0.2973E+02
     -2.648  0.2052E+01  0.2981E+02
     -2.609  0.1069E+01  0.2985E+02
     -2.571  0.1097E+01  0.2989E+02
     -2.532  0.1440E+01  0.2994E+02
     -2.494  0.7257E+00  0.2997E+02
     -2.455  0.6811E+00  0.3000E+02
     -2.417  0.4067E-01  0.3000E+02
     -2.378  0.0000E+00  0.3000E+02
     -2.340  0.0000E+00  0.3000E+02
     -2.301  0.0000E+00  0.3000E+02
     -2.263  0.0000E+00  0.3000E+02
     -2.225  0.0000E+00  0.3000E+02
     -2.186  0.0000E+00  0.3000E+02
     -2.148  0.0000E+00  0.3000E+02
     -2.109  0.0000E+00  0.3000E+02
     -2.071  0.0000E+00  0.3000E+02
     -2.032  0.0000E+00  0.3000E+02
     -1.994  0.0000E+00  0.3000E+02
     -1.955  0.0000E+00  0.3000E+02
     -1.917  0.0000E+00  0.3000E+02
     -1.878  0.2885E-14  0.3000E+02
     -1.840  0.9470E-02  0.3000E+02
     -1.801  0.1094E+01  0.3004E+02
     -1.763  0.2143E+01  0.3012E+02
     -1.724  0.1971E-02  0.3012E+02
     -1.686  0.1907E-01  0.3013E+02
     -1.647  0.2144E+01  0.3021E+02
     -1.609  0.9633E-02  0.3021E+02
     -1.570  0.4298E+01  0.3037E+02
     -1.532  0.4174E+01  0.3053E+02
     -1.493  0.1839E+00  0.3054E+02
     -1.455  0.3933E+01  0.3069E+02
     -1.416  0.2562E+01  0.3079E+02
     -1.378  0.3733E-06  0.3079E+02
     -1.339  0.8427E-06  0.3079E+02
     -1.301  0.2806E+01  0.3090E+02
     -1.262  0.3688E+01  0.3104E+02
     -1.224  0.3765E-02  0.3104E+02
     -1.185  0.5134E+01  0.3124E+02
     -1.147  0.1406E+01  0.3129E+02
     -1.108  0.5099E+01  0.3149E+02
     -1.070  0.3130E+01  0.3161E+02
     -1.031  0.3858E+00  0.3162E+02
     -0.993  0.0000E+00  0.3162E+02
     -0.955  0.0000E+00  0.3162E+02
     -0.916  0.1595E-11  0.3163E+02
     -0.878  0.1106E+00  0.3163E+02
     -0.839  0.2792E+01  0.3174E+02
     -0.801  0.1428E+01  0.3179E+02
     -0.762  0.5275E-06  0.3179E+02
     -0.724  0.0000E+00  0.3179E+02
     -0.685  0.5950E-14  0.3179E+02
     -0.647  0.5785E-02  0.3179E+02
     -0.608  0.1536E+01  0.3185E+02
     -0.570  0.3149E+01  0.3197E+02
     -0.531  0.2836E-05  0.3197E+02
     -0.493  0.0000E+00  0.3197E+02
     -0.454  0.0000E+00  0.3197E+02
     -0.416  0.0000E+00  0.3197E+02
     -0.377  0.0000E+00  0.3197E+02
     -0.339  0.0000E+00  0.3197E+02
     -0.300  0.0000E+00  0.3197E+02
     -0.262  0.0000E+00  0.3197E+02
     -0.223  0.0000E+00  0.3197E+02
     -0.185  0.0000E+00  0.3197E+02
     -0.146  0.0000E+00  0.3197E+02
     -0.108  0.0000E+00  0.3197E+02
     -0.069  0.2175E-03  0.3197E+02
     -0.031  0.1395E+01  0.3203E+02
      0.008  0.4871E-01  0.3203E+02
      0.046  0.0000E+00  0.3203E+02
      0.085  0.0000E+00  0.3203E+02
      0.123  0.0000E+00  0.3203E+02
      0.162  0.0000E+00  0.3203E+02
      0.200  0.0000E+00  0.3203E+02
      0.239  0.0000E+00  0.3203E+02
      0.277  0.0000E+00  0.3203E+02
      0.315  0.0000E+00  0.3203E+02
      0.354  0.0000E+00  0.3203E+02
      0.392  0.0000E+00  0.3203E+02
      0.431  0.0000E+00  0.3203E+02
      0.469  0.8350E-09  0.3203E+02
      0.508  0.8961E+00  0.3206E+02
      0.546  0.3435E+01  0.3219E+02
      0.585  0.8095E-05  0.3219E+02
      0.623  0.0000E+00  0.3219E+02
      0.662  0.0000E+00  0.3219E+02
      0.700  0.2533E-10  0.3219E+02
      0.739  0.2325E+00  0.3220E+02
      0.777  0.1933E+01  0.3228E+02
      0.816  0.2864E-04  0.3228E+02
      0.854  0.0000E+00  0.3228E+02
      0.893  0.0000E+00  0.3228E+02
      0.931  0.0000E+00  0.3228E+02
      0.970  0.0000E+00  0.3228E+02
      1.008  0.2270E-07  0.3228E+02
      1.047  0.2349E+01  0.3237E+02
      1.085  0.8481E+01  0.3269E+02
      1.124  0.1033E+01  0.3273E+02
      1.162  0.3140E+01  0.3286E+02
      1.201  0.2751E+01  0.3296E+02
      1.239  0.2978E+00  0.3297E+02
      1.278  0.4296E+01  0.3314E+02
      1.316  0.3268E+00  0.3315E+02
      1.355  0.1866E+01  0.3322E+02
      1.393  0.2683E+01  0.3333E+02
      1.432  0.3808E+01  0.3347E+02
      1.470  0.5063E-02  0.3347E+02
      1.509  0.8872E-04  0.3347E+02
      1.547  0.4443E+01  0.3364E+02
      1.585  0.2053E+01  0.3372E+02
      1.624  0.3681E+00  0.3374E+02
      1.662  0.3963E+01  0.3389E+02
      1.701  0.1016E-03  0.3389E+02
      1.739  0.3192E-11  0.3389E+02
      1.778  0.1466E+00  0.3389E+02
      1.816  0.2379E+01  0.3399E+02
      1.855  0.1538E-03  0.3399E+02
      1.893  0.1677E+01  0.3405E+02
      1.932  0.5027E+01  0.3424E+02
      1.970  0.2101E+01  0.3432E+02
      2.009  0.2383E+01  0.3442E+02
      2.047  0.1007E+01  0.3446E+02
      2.086  0.2029E+01  0.3453E+02
      2.124  0.8454E+00  0.3457E+02
      2.163  0.1733E+01  0.3463E+02
      2.201  0.1963E+01  0.3471E+02
      2.240  0.5408E+00  0.3473E+02
      2.278  0.2815E+01  0.3484E+02
      2.317  0.3140E+01  0.3496E+02
      2.355  0.3079E-04  0.3496E+02
      2.394  0.1931E+01  0.3503E+02
      2.432  0.4041E+01  0.3519E+02
      2.471  0.2689E+01  0.3529E+02
      2.509  0.2707E-04  0.3529E+02
      2.548  0.1928E+01  0.3537E+02
      2.586  0.3664E+01  0.3551E+02
      2.625  0.3069E+01  0.3562E+02
      2.663  0.2051E-05  0.3562E+02
      2.702  0.5160E-08  0.3563E+02
      2.740  0.7361E+00  0.3565E+02
      2.779  0.1429E+01  0.3571E+02
      2.817  0.5662E+01  0.3593E+02
      2.855  0.4021E+01  0.3608E+02
      2.894  0.2678E+01  0.3618E+02
      2.932  0.3878E+01  0.3633E+02
      2.971  0.2681E-03  0.3633E+02
      3.009  0.4078E+01  0.3649E+02
      3.048  0.2529E+00  0.3650E+02
      3.086  0.1807E-06  0.3650E+02
      3.125  0.2309E+01  0.3659E+02
      3.163  0.2022E+01  0.3667E+02
      3.202  0.1112E+01  0.3671E+02
      3.240  0.2863E+01  0.3682E+02
      3.279  0.3563E+00  0.3683E+02
      3.317  0.6300E+01  0.3708E+02
      3.356  0.6686E+01  0.3733E+02
      3.394  0.2171E+01  0.3742E+02
      3.433  0.1037E-06  0.3742E+02
      3.471  0.8295E-06  0.3742E+02
      3.510  0.2783E+01  0.3752E+02
      3.548  0.1548E+01  0.3758E+02
      3.587  0.1369E-07  0.3758E+02
      3.625  0.3709E-06  0.3758E+02
      3.664  0.2533E+01  0.3768E+02
      3.702  0.1798E+01  0.3775E+02
      3.741  0.6471E-02  0.3775E+02
      3.779  0.2202E+01  0.3783E+02
      3.818  0.7305E+01  0.3812E+02
      3.856  0.1314E+01  0.3817E+02
      3.895  0.2392E-01  0.3817E+02
      3.933  0.4291E+01  0.3833E+02
      3.972  0.4337E+01  0.3850E+02
      4.010  0.8929E-02  0.3850E+02
      4.049  0.1350E+00  0.3851E+02
      4.087  0.2030E+01  0.3858E+02
      4.125  0.3973E+01  0.3874E+02
      4.164  0.3576E+00  0.3875E+02
      4.202  0.2235E-10  0.3875E+02
      4.241  0.3768E+00  0.3876E+02
      4.279  0.4087E+01  0.3892E+02
      4.318  0.2032E+01  0.3900E+02
      4.356  0.3233E+00  0.3901E+02
      4.395  0.1822E+01  0.3908E+02
      4.433  0.6240E+01  0.3932E+02
      4.472  0.4711E+00  0.3934E+02
      4.510  0.1997E+01  0.3942E+02
      4.549  0.3376E+00  0.3943E+02
      4.587  0.6380E+01  0.3968E+02
      4.626  0.1136E+00  0.3968E+02
      4.664  0.7667E-01  0.3968E+02
      4.703  0.2167E+01  0.3977E+02
      4.741  0.4250E+01  0.3993E+02
      4.780  0.4360E+01  0.4010E+02
      4.818  0.5445E+01  0.4031E+02
      4.857  0.3189E+01  0.4043E+02
      4.895  0.3901E+01  0.4058E+02
      4.934  0.4292E+00  0.4060E+02
      4.972  0.4037E-02  0.4060E+02
      5.011  0.2175E+01  0.4068E+02
      5.049  0.4310E+01  0.4085E+02
      5.088  0.7480E-02  0.4085E+02
      5.126  0.2023E+01  0.4093E+02
      5.165  0.5356E+01  0.4113E+02
      5.203  0.9186E+01  0.4148E+02
      5.242  0.2923E+01  0.4160E+02
      5.280  0.1084E-06  0.4160E+02
      5.319  0.5257E+00  0.4162E+02
      5.357  0.3839E+01  0.4177E+02
      5.395  0.2131E+01  0.4185E+02
      5.434  0.1103E-02  0.4185E+02
      5.472  0.3894E-03  0.4185E+02
      5.511  0.6801E+01  0.4211E+02
      5.549  0.1863E+01  0.4218E+02
      5.588  0.3434E+01  0.4231E+02
      5.626  0.4884E+01  0.4250E+02
      5.665  0.6112E+01  0.4274E+02
      5.703  0.4760E+00  0.4275E+02
      5.742  0.2353E+01  0.4284E+02
      5.780  0.2818E+01  0.4295E+02
      5.819  0.1645E+01  0.4302E+02
      5.857  0.1013E+01  0.4306E+02
      5.896  0.4287E+01  0.4322E+02
      5.934  0.6369E+01  0.4347E+02
      5.973  0.2853E+01  0.4358E+02
      6.011  0.4544E+01  0.4375E+02
      6.050  0.2876E+01  0.4386E+02
      6.088  0.4037E+01  0.4402E+02
      6.127  0.2413E+01  0.4411E+02
      6.165  0.6281E+01  0.4435E+02
      6.204  0.2420E+01  0.4444E+02
      6.242  0.5834E-02  0.4444E+02
      6.281  0.5180E+01  0.4464E+02
      6.319  0.3998E+01  0.4480E+02
      6.358  0.3609E+01  0.4494E+02
      6.396  0.5063E+01  0.4513E+02
      6.435  0.1944E+00  0.4514E+02
      6.473  0.5213E+00  0.4516E+02
      6.512  0.1036E+02  0.4556E+02
      6.550  0.1083E+02  0.4597E+02
      6.589  0.1096E+02  0.4640E+02
      6.627  0.1258E+01  0.4644E+02
      6.665  0.1441E+01  0.4650E+02
      6.704  0.1074E+01  0.4654E+02
      6.742  0.1429E+01  0.4660E+02
      6.781  0.1748E+02  0.4727E+02
      6.819  0.2782E+01  0.4738E+02
      6.858  0.1049E+01  0.4742E+02
      6.896  0.1624E+01  0.4748E+02
      6.935  0.9501E+01  0.4784E+02
      6.973  0.6886E+01  0.4811E+02
      7.012  0.2296E+01  0.4820E+02
      7.050  0.2822E+00  0.4821E+02
      7.089  0.1278E+02  0.4870E+02
      7.127  0.5512E+01  0.4891E+02
      7.166  0.4726E+01  0.4909E+02
      7.204  0.5025E+01  0.4929E+02
      7.243  0.2771E+01  0.4939E+02
      7.281  0.9581E+01  0.4976E+02
      7.320  0.5266E+01  0.4997E+02
      7.358  0.1236E+01  0.5001E+02
      7.397  0.1890E+01  0.5009E+02
      7.435  0.4141E+01  0.5025E+02
      7.474  0.1159E+02  0.5069E+02
      7.512  0.1264E+02  0.5118E+02
      7.551  0.6150E+01  0.5142E+02
      7.589  0.8157E+01  0.5173E+02
      7.628  0.6316E+01  0.5197E+02
      7.666  0.3322E+01  0.5210E+02
      7.705  0.1370E+01  0.5215E+02
      7.743  0.1950E+01  0.5223E+02
      7.782  0.6603E+00  0.5225E+02
      7.820  0.8620E+01  0.5258E+02
      7.859  0.4289E+01  0.5275E+02
      7.897  0.7611E+00  0.5278E+02
      7.935  0.8386E+01  0.5310E+02
      7.974  0.1347E+01  0.5315E+02
      8.012  0.1446E+02  0.5371E+02
      8.051  0.4532E+01  0.5388E+02
      8.089  0.1080E+02  0.5430E+02
      8.128  0.4891E+01  0.5449E+02
      8.166  0.7653E+01  0.5478E+02
      8.205  0.1049E+02  0.5519E+02
      8.243  0.1217E+02  0.5566E+02
      8.282  0.3899E+01  0.5581E+02
      8.320  0.5166E-01  0.5581E+02
      8.359  0.7674E+01  0.5610E+02
      8.397  0.1145E+02  0.5654E+02
      8.436  0.8572E+01  0.5687E+02
      8.474  0.1486E+01  0.5693E+02
      8.513  0.5401E+00  0.5695E+02
      8.551  0.7613E+01  0.5724E+02
      8.590  0.8904E+01  0.5759E+02
      8.628  0.7920E+01  0.5789E+02
      8.667  0.1285E+02  0.5839E+02
      8.705  0.1202E+02  0.5885E+02
      8.744  0.9647E+01  0.5922E+02
      8.782  0.5079E+01  0.5942E+02
      8.821  0.9437E+00  0.5945E+02
      8.859  0.6680E+01  0.5971E+02
      8.898  0.1407E+01  0.5976E+02
      8.936  0.3862E+01  0.5991E+02
      8.975  0.4452E+01  0.6008E+02
      9.013  0.8908E+00  0.6012E+02