<?xml version="1.0" encoding="ISO-8859-1"?>
<modeling>
 <generator>
  <i name="program" type="string">vasp </i>
  <i name="version" type="string">5.4.4.18Apr17-6-g9f103f2a35  </i>
  <i name="subversion" type="string">(build Mar 30 2023 15:39:25) complex            parallel </i>
  <i name="platform" type="string">LinuxIFC </i>
  <i name="date" type="string">2023 06 23 </i>
  <i name="time" type="string">21:18:02 </i>
 </generator>
 <incar>
  <i type="string" name="SYSTEM"> BC3-optical</i>
  <i type="int" name="ISTART">     1</i>
  <i type="string" name="PREC">accurate</i>
  <i type="string" name="ALGO"> Exact</i>
  <i type="int" name="ICHARG">     2</i>
  <i name="EDIFF">      0.00000001</i>
  <i name="ENCUT">    450.00000000</i>
  <i type="int" name="NBANDS">   256</i>
  <i type="int" name="NEDOS">  2400</i>
  <i type="logical" name="LREAL"> F  </i>
  <i type="int" name="ISMEAR">     0</i>
  <i name="SIGMA">      0.01000000</i>
  <i type="int" name="NWRITE">     3</i>
  <i type="logical" name="LOPTICS"> T  </i>
  <v type="int" name="KPOINT_BSE">    -1     0     0     0</v>
  <i name="CSHIFT">      0.10000000</i>
  <i name="CSHIFT">      0.10000000</i>
 </incar>
 <structure name="primitive_cell" >
  <crystal>
   <varray name="basis" >
    <v>       4.48084843       2.58701885       0.00000000 </v>
    <v>      -4.48084843       2.58701885       0.00000000 </v>
    <v>       0.00000000       0.00000000       8.52022140 </v>
   </varray>
   <i name="volume">    197.53348383 </i>
   <varray name="rec_basis" >
    <v>       0.11158601       0.19327265       0.00000000 </v>
    <v>      -0.11158601       0.19327265       0.00000000 </v>
    <v>       0.00000000       0.00000000       0.11736784 </v>
   </varray>
  </crystal>
  <varray name="positions" >
   <v>       0.33333300      -0.33333400       0.25000000 </v>
   <v>       0.15869124       0.31738348       0.25000000 </v>
   <v>      -0.31738448      -0.15869224       0.25000000 </v>
   <v>       0.15869124      -0.15869224       0.25000000 </v>
   <v>      -0.15869224       0.15869124       0.25000000 </v>
   <v>       0.31738348       0.15869124       0.25000000 </v>
   <v>      -0.15869224      -0.31738448       0.25000000 </v>
   <v>      -0.33333400       0.33333300       0.25000000 </v>
  </varray>
 </structure>
 <varray name="primitive_index" >
  <v type="int" >        1 </v>
  <v type="int" >        3 </v>
  <v type="int" >        7 </v>
  <v type="int" >        5 </v>
  <v type="int" >        6 </v>
  <v type="int" >        4 </v>
  <v type="int" >        8 </v>
  <v type="int" >        2 </v>
 </varray>
 <kpoints>
  <generation param="Gamma">
   <v type="int" name="divisions">      12       12        1 </v>
   <v name="usershift">      0.00000000       0.00000000       0.00000000 </v>
   <v name="genvec1">      0.08333333       0.00000000       0.00000000 </v>
   <v name="genvec2">      0.00000000       0.08333333       0.00000000 </v>
   <v name="genvec3">      0.00000000       0.00000000       1.00000000 </v>
   <v name="shift">      0.00000000       0.00000000       0.00000000 </v>
  </generation>
  <varray name="kpointlist" >
   <v>       0.00000000       0.00000000       0.00000000 </v>
   <v>       0.08333333       0.00000000       0.00000000 </v>
   <v>       0.16666667       0.00000000       0.00000000 </v>
   <v>       0.25000000      -0.00000000       0.00000000 </v>
   <v>       0.33333333      -0.00000000       0.00000000 </v>
   <v>       0.41666667       0.00000000       0.00000000 </v>
   <v>       0.50000000      -0.00000000       0.00000000 </v>
   <v>       0.08333333       0.08333333       0.00000000 </v>
   <v>       0.16666667       0.08333333       0.00000000 </v>
   <v>       0.25000000       0.08333333       0.00000000 </v>
   <v>       0.33333333       0.08333333       0.00000000 </v>
   <v>       0.41666667       0.08333333       0.00000000 </v>
   <v>       0.16666667       0.16666667       0.00000000 </v>
   <v>       0.25000000       0.16666667       0.00000000 </v>
   <v>       0.33333333       0.16666667       0.00000000 </v>
   <v>       0.41666667       0.16666667       0.00000000 </v>
   <v>       0.25000000       0.25000000       0.00000000 </v>
   <v>       0.33333333       0.25000000       0.00000000 </v>
   <v>       0.33333333       0.33333333       0.00000000 </v>
  </varray>
  <varray name="weights" >
   <v>       0.00694444 </v>
   <v>       0.04166667 </v>
   <v>       0.04166667 </v>
   <v>       0.04166667 </v>
   <v>       0.04166667 </v>
   <v>       0.04166667 </v>
   <v>       0.02083333 </v>
   <v>       0.04166667 </v>
   <v>       0.08333333 </v>
   <v>       0.08333333 </v>
   <v>       0.08333333 </v>
   <v>       0.08333333 </v>
   <v>       0.04166667 </v>
   <v>       0.08333333 </v>
   <v>       0.08333333 </v>
   <v>       0.04166667 </v>
   <v>       0.04166667 </v>
   <v>       0.08333333 </v>
   <v>       0.01388889 </v>
  </varray>
 </kpoints>
 <parameters>
  <separator name="general" >
   <i type="string" name="SYSTEM">BC3-optical</i>
   <i type="logical" name="LCOMPAT"> F  </i>
  </separator>
  <separator name="electronic" >
   <i type="string" name="PREC">accura</i>
   <i name="ENMAX">    450.00000000</i>
   <i name="ENAUG">    644.87300000</i>
   <i name="EDIFF">      0.00000001</i>
   <i type="int" name="IALGO">    90</i>
   <i type="int" name="IWAVPR">    10</i>
   <i type="int" name="NBANDS">   264</i>
   <i name="NELECT">     30.00000000</i>
   <i type="int" name="TURBO">     0</i>
   <i type="int" name="IRESTART">     0</i>
   <i type="int" name="NREBOOT">     0</i>
   <i type="int" name="NMIN">     0</i>
   <i name="EREF">      0.00000000</i>
   <separator name="electronic smearing" >
    <i type="int" name="ISMEAR">     0</i>
    <i name="SIGMA">      0.01000000</i>
    <i name="KSPACING">      0.50000000</i>
    <i type="logical" name="KGAMMA"> T  </i>
   </separator>
   <separator name="electronic projectors" >
    <i type="logical" name="LREAL"> F  </i>
    <v name="ROPT">      0.00000000      0.00000000</v>
    <i type="int" name="LMAXPAW">  -100</i>
    <i type="int" name="LMAXMIX">     2</i>
    <i type="logical" name="NLSPLINE"> F  </i>
   </separator>
   <separator name="electronic startup" >
    <i type="int" name="ISTART">     1</i>
    <i type="int" name="ICHARG">     2</i>
    <i type="int" name="INIWAV">     1</i>
   </separator>
   <separator name="electronic spin" >
    <i type="int" name="ISPIN">     1</i>
    <i type="logical" name="LNONCOLLINEAR"> F  </i>
    <v name="MAGMOM">      1.00000000      1.00000000      1.00000000      1.00000000      1.00000000      1.00000000      1.00000000      1.00000000</v>
    <i name="NUPDOWN">     -1.00000000</i>
    <i type="logical" name="LSORBIT"> F  </i>
    <v name="SAXIS">      0.00000000      0.00000000      1.00000000</v>
    <i type="logical" name="LSPIRAL"> F  </i>
    <v name="QSPIRAL">      0.00000000      0.00000000      0.00000000</v>
    <i type="logical" name="LZEROZ"> F  </i>
   </separator>
   <separator name="electronic exchange-correlation" >
    <i type="logical" name="LASPH"> F  </i>
    <i type="logical" name="LMETAGGA"> F  </i>
   </separator>
   <separator name="electronic convergence" >
    <i type="int" name="NELM">    60</i>
    <i type="int" name="NELMDL">     0</i>
    <i type="int" name="NELMIN">     2</i>
    <i name="ENINI">    450.00000000</i>
    <separator name="electronic convergence detail" >
     <i type="logical" name="LDIAG"> T  </i>
     <i type="logical" name="LSUBROT"> F  </i>
     <i name="WEIMIN">      0.00000000</i>
     <i name="EBREAK">      0.00000000</i>
     <i name="DEPER">      0.30000000</i>
     <i type="int" name="NRMM">     4</i>
     <i name="TIME">      0.40000000</i>
    </separator>
   </separator>
   <separator name="electronic mixer" >
    <i name="AMIX">      0.40000000</i>
    <i name="BMIX">      1.00000000</i>
    <i name="AMIN">      0.10000000</i>
    <i name="AMIX_MAG">      1.60000000</i>
    <i name="BMIX_MAG">      1.00000000</i>
    <separator name="electronic mixer details" >
     <i type="int" name="IMIX">     4</i>
     <i type="logical" name="MIXFIRST"> F  </i>
     <i type="int" name="MAXMIX">   -45</i>
     <i name="WC">    100.00000000</i>
     <i type="int" name="INIMIX">     1</i>
     <i type="int" name="MIXPRE">     1</i>
     <i type="int" name="MREMOVE">     5</i>
    </separator>
   </separator>
   <separator name="electronic dipolcorrection" >
    <i type="logical" name="LDIPOL"> F  </i>
    <i type="logical" name="LMONO"> F  </i>
    <i type="int" name="IDIPOL">     0</i>
    <i name="EPSILON">      1.00000000</i>
    <v name="DIPOL">   -100.00000000   -100.00000000   -100.00000000</v>
    <i name="EFIELD">      0.00000000</i>
   </separator>
  </separator>
  <separator name="grids" >
   <i type="int" name="NGX">    36</i>
   <i type="int" name="NGY">    36</i>
   <i type="int" name="NGZ">    60</i>
   <i type="int" name="NGXF">    72</i>
   <i type="int" name="NGYF">    72</i>
   <i type="int" name="NGZF">   120</i>
   <i type="logical" name="ADDGRID"> F  </i>
  </separator>
  <separator name="ionic" >
   <i type="int" name="NSW">     0</i>
   <i type="int" name="IBRION">    -1</i>
   <i type="int" name="MDALGO">     0</i>
   <i type="int" name="ISIF">     2</i>
   <i name="PSTRESS">      0.00000000</i>
   <i name="EDIFFG">      0.00000010</i>
   <i type="int" name="NFREE">     0</i>
   <i name="POTIM">      0.50000000</i>
   <i name="SMASS">     -3.00000000</i>
   <i name="SCALEE">      1.00000000</i>
  </separator>
  <separator name="ionic md" >
   <i name="TEBEG">      0.00010000</i>
   <i name="TEEND">      0.00010000</i>
   <i type="int" name="NBLOCK">     1</i>
   <i type="int" name="KBLOCK">     1</i>
   <i type="int" name="NPACO">   256</i>
   <i name="APACO">     16.00000000</i>
  </separator>
  <separator name="symmetry" >
   <i type="int" name="ISYM">     2</i>
   <i name="SYMPREC">      0.00001000</i>
  </separator>
  <separator name="dos" >
   <i type="int" name="LORBIT">     0</i>
   <v name="RWIGS">     -1.00000000     -1.00000000</v>
   <i type="int" name="NEDOS">  2400</i>
   <i name="EMIN">     10.00000000</i>
   <i name="EMAX">    -10.00000000</i>
   <i name="EFERMI">      0.00000000</i>
  </separator>
  <separator name="writing" >
   <i type="int" name="NWRITE">     3</i>
   <i type="logical" name="LWAVE"> T  </i>
   <i type="logical" name="LDOWNSAMPLE"> F  </i>
   <i type="logical" name="LCHARG"> T  </i>
   <i type="logical" name="LPARD"> F  </i>
   <i type="logical" name="LVTOT"> F  </i>
   <i type="logical" name="LVHAR"> F  </i>
   <i type="logical" name="LELF"> F  </i>
   <i type="logical" name="LOPTICS"> T  </i>
   <v name="STM">      0.00000000      0.00000000      0.00000000      0.00000000      0.00000000      0.00000000      0.00000000</v>
  </separator>
  <separator name="performance" >
   <i type="int" name="NPAR">    12</i>
   <i type="int" name="NSIM">     4</i>
   <i type="int" name="NBLK">    -1</i>
   <i type="logical" name="LPLANE"> T  </i>
   <i type="logical" name="LSCALAPACK"> T  </i>
   <i type="logical" name="LSCAAWARE"> F  </i>
   <i type="logical" name="LSCALU"> F  </i>
   <i type="logical" name="LASYNC"> F  </i>
   <i type="logical" name="LORBITALREAL"> F  </i>
  </separator>
  <separator name="miscellaneous" >
   <i type="int" name="IDIOT">     3</i>
   <i type="int" name="ISPECIAL">     0</i>
   <i type="logical" name="LMUSIC"> F  </i>
   <v name="POMASS">     10.81100000     12.01100000</v>
   <v name="DARWINR">      0.00000000      0.00000000</v>
   <v name="DARWINV">      1.00000000      1.00000000</v>
   <i type="logical" name="LCORR"> T  </i>
  </separator>
  <i type="logical" name="GGA_COMPAT"> T  </i>
  <i type="logical" name="LBERRY"> F  </i>
  <i type="int" name="ICORELEVEL">     0</i>
  <i type="logical" name="LDAU"> F  </i>
  <i type="int" name="I_CONSTRAINED_M">     0</i>
  <separator name="electronic exchange-correlation" >
   <i type="string" name="GGA">--</i>
   <i type="int" name="VOSKOWN">     0</i>
   <i type="logical" name="LHFCALC"> F  </i>
   <i type="string" name="PRECFOCK"></i>
   <i type="logical" name="LSYMGRAD"> F  </i>
   <i type="logical" name="LHFONE"> F  </i>
   <i type="logical" name="LRHFCALC"> F  </i>
   <i type="logical" name="LTHOMAS"> F  </i>
   <i type="logical" name="LMODELHF"> F  </i>
   <i name="ENCUT4O">     -1.00000000</i>
   <i type="int" name="EXXOEP">     0</i>
   <i type="int" name="FOURORBIT">     0</i>
   <i name="AEXX">      0.00000000</i>
   <i name="HFALPHA">      0.00000000</i>
   <i name="MCALPHA">      0.00000000</i>
   <i name="ALDAX">      1.00000000</i>
   <i name="AGGAX">      1.00000000</i>
   <i name="ALDAC">      1.00000000</i>
   <i name="AGGAC">      1.00000000</i>
   <i type="int" name="NKREDX">     1</i>
   <i type="int" name="NKREDY">     1</i>
   <i type="int" name="NKREDZ">     1</i>
   <i type="logical" name="SHIFTRED"> F  </i>
   <i type="logical" name="ODDONLY"> F  </i>
   <i type="logical" name="EVENONLY"> F  </i>
   <i type="int" name="LMAXFOCK">     0</i>
   <i type="int" name="NMAXFOCKAE">     0</i>
   <i type="logical" name="LFOCKAEDFT"> F  </i>
   <i name="HFSCREEN">      0.00000000</i>
   <i name="HFSCREENC">      0.00000000</i>
   <i type="int" name="NBANDSGWLOW">     0</i>
  </separator>
  <separator name="vdW DFT" >
   <i type="logical" name="LUSE_VDW"> F  </i>
   <i name="Zab_VDW">     -0.84910000</i>
   <i name="PARAM1">      0.12340000</i>
   <i name="PARAM2">      1.00000000</i>
   <i name="PARAM3">      0.00000000</i>
  </separator>
  <separator name="model GW" >
   <i type="int" name="MODEL_GW">     0</i>
   <i name="MODEL_EPS0">     14.81501129</i>
   <i name="MODEL_ALPHA">      1.00000000</i>
  </separator>
  <separator name="linear response parameters" >
   <i type="logical" name="LEPSILON"> F  </i>
   <i type="logical" name="LRPA"> F  </i>
   <i type="logical" name="LNABLA"> F  </i>
   <i type="logical" name="LVEL"> F  </i>
   <i type="int" name="KINTER">     0</i>
   <i name="CSHIFT">      0.10000000</i>
   <i name="OMEGAMAX">     -1.00000000</i>
   <i name="DEG_THRESHOLD">      0.00200000</i>
   <i name="RTIME">     -0.10000000</i>
   <i name="WPLASMAI">      0.00000000</i>
   <v name="DFIELD">      0.00000000      0.00000000      0.00000000</v>
   <v name="WPLASMA">      0.00000000      0.00000000      0.00000000      0.00000000      0.00000000      0.00000000      0.00000000      0.00000000      0.00000000</v>
  </separator>
  <separator name="orbital magnetization" >
   <i type="logical" name="NUCIND"> F  </i>
   <v name="MAGPOS">      0.00000000      0.00000000      0.00000000</v>
   <i type="logical" name="LNICSALL"> T  </i>
   <i type="logical" name="ORBITALMAG"> F  </i>
   <i type="logical" name="LMAGBLOCH"> F  </i>
   <i type="logical" name="LCHIMAG"> F  </i>
   <i type="logical" name="LGAUGE"> T  </i>
   <i type="int" name="MAGATOM">     0</i>
   <v name="MAGDIPOL">      0.00000000      0.00000000      0.00000000</v>
   <v name="AVECCONST">      0.00000000      0.00000000      0.00000000</v>
  </separator>
  <separator name="response functions" >
   <i type="logical" name="LADDER"> F  </i>
   <i type="logical" name="LRPAFORCE"> F  </i>
   <i type="logical" name="LFXC"> F  </i>
   <i type="logical" name="LHARTREE"> T  </i>
   <i type="int" name="IBSE">     0</i>
   <v type="int" name="KPOINT">    -1     0     0     0</v>
   <i type="logical" name="LTCTE"> F  </i>
   <i type="logical" name="LTETE"> F  </i>
   <i type="logical" name="LTRIPLET"> F  </i>
   <i type="logical" name="LFXCEPS"> F  </i>
   <i type="logical" name="LFXHEG"> F  </i>
   <i type="int" name="NATURALO">     2</i>
   <i type="logical" name="L2ORDER"> F  </i>
   <i type="logical" name="LMP2LT"> F  </i>
   <i type="logical" name="LUSEW"> F  </i>
   <i name="ENCUTGW">     -2.00000000</i>
   <i name="ENCUTGWSOFT">     -2.00000000</i>
   <i name="ENCUTLF">     -1.00000000</i>
   <i type="int" name="LMAXMP2">    -1</i>
   <i name="SCISSOR">      0.00000000</i>
   <i type="int" name="NOMEGA">     0</i>
   <i type="int" name="NOMEGAR">     0</i>
   <i type="int" name="NBANDSGW">    -1</i>
   <i type="int" name="NBANDSO">    -1</i>
   <i type="int" name="NBANDSV">    -1</i>
   <i type="int" name="NELM">     1</i>
   <i type="int" name="NELMHF">     1</i>
   <i type="int" name="DIM">     3</i>
   <i type="int" name="ANTIRES">     0</i>
   <i name="OMEGAMAX">    -30.00000000</i>
   <i name="OMEGAMIN">    -30.00000000</i>
   <i name="OMEGATL">   -200.00000000</i>
   <i type="int" name="OMEGAGRID">   140</i>
   <i name="CSHIFT">      0.10000000</i>
   <i type="logical" name="SELFENERGY"> F  </i>
   <i type="logical" name="LSPECTRAL"> F  </i>
   <i type="logical" name="LSPECTRALGW"> F  </i>
   <i type="logical" name="LSINGLES"> F  </i>
   <i type="logical" name="LFERMIGW"> F  </i>
   <i type="logical" name="ODDONLYGW"> F  </i>
   <i type="logical" name="EVENONLYGW"> F  </i>
   <i type="int" name="NKREDLFX">     1</i>
   <i type="int" name="NKREDLFY">     1</i>
   <i type="int" name="NKREDLFZ">     1</i>
   <i type="int" name="MAXMEM">  2800</i>
   <i type="int" name="TELESCOPE">     0</i>
   <i type="int" name="TAUPAR">     1</i>
   <i type="int" name="OMEGAPAR">    -1</i>
   <i name="LAMBDA">      1.00000000</i>
  </separator>
  <separator name="External order field" >
   <i name="OFIELD_KAPPA">      0.00000000</i>
   <v name="OFIELD_K">      0.00000000      0.00000000      0.00000000</v>
   <i name="OFIELD_Q6_NEAR">      0.00000000</i>
   <i name="OFIELD_Q6_FAR">      0.00000000</i>
   <i name="OFIELD_A">      0.00000000</i>
  </separator>
 </parameters>
 <atominfo>
  <atoms>       8 </atoms>
  <types>       2 </types>
  <array name="atoms" >
   <dimension dim="1">ion</dimension>
   <field type="string">element</field>
   <field type="int">atomtype</field>
   <set>
    <rc><c>B </c><c>   1</c></rc>
    <rc><c>B </c><c>   1</c></rc>
    <rc><c>C </c><c>   2</c></rc>
    <rc><c>C </c><c>   2</c></rc>
    <rc><c>C </c><c>   2</c></rc>
    <rc><c>C </c><c>   2</c></rc>
    <rc><c>C </c><c>   2</c></rc>
    <rc><c>C </c><c>   2</c></rc>
   </set>
  </array>
  <array name="atomtypes" >
   <dimension dim="1">type</dimension>
   <field type="int">atomspertype</field>
   <field type="string">element</field>
   <field>mass</field>
   <field>valence</field>
   <field type="string">pseudopotential</field>
   <set>
    <rc><c>   2</c><c>B </c><c>     10.81100000</c><c>      3.00000000</c><c>  PAW_PBE B 06Sep2000                   </c></rc>
    <rc><c>   6</c><c>C </c><c>     12.01100000</c><c>      4.00000000</c><c>  PAW_PBE C 08Apr2002                   </c></rc>
   </set>
  </array>
 </atominfo>
 <structure name="initialpos" >
  <crystal>
   <varray name="basis" >
    <v>       4.48084843       2.58701885       0.00000000 </v>
    <v>      -4.48084843       2.58701885       0.00000000 </v>
    <v>       0.00000000       0.00000000       8.52022140 </v>
   </varray>
   <i name="volume">    197.53348383 </i>
   <varray name="rec_basis" >
    <v>       0.11158601       0.19327265       0.00000000 </v>
    <v>      -0.11158601       0.19327265       0.00000000 </v>
    <v>       0.00000000       0.00000000       0.11736784 </v>
   </varray>
  </crystal>
  <varray name="positions" >
   <v>       0.33333300       0.66666600       0.25000000 </v>
   <v>       0.66666600       0.33333300       0.25000000 </v>
   <v>       0.15869124       0.31738348       0.25000000 </v>
   <v>       0.31738348       0.15869124       0.25000000 </v>
   <v>       0.15869124       0.84130776       0.25000000 </v>
   <v>       0.84130776       0.15869124       0.25000000 </v>
   <v>       0.68261552       0.84130776       0.25000000 </v>
   <v>       0.84130776       0.68261552       0.25000000 </v>
  </varray>
 </structure>
 <calculation>
  <scstep>
   <time name="diag">  552.27  552.27</time>
   <time name="total">  552.37  552.37</time>
   <energy>
    <i name="alphaZ">     25.67921176 </i>
    <i name="ewald">    700.27145080 </i>
    <i name="hartreedc">  -1524.76618073 </i>
    <i name="XCdc">     91.14273073 </i>
    <i name="pawpsdc">    738.13200929 </i>
    <i name="pawaedc">   -739.83780425 </i>
    <i name="eentropy">     -0.00000000 </i>
    <i name="bandstr">   -389.26594481 </i>
    <i name="atom">   1025.20389953 </i>
    <i name="e_fr_energy">    -73.44062769 </i>
    <i name="e_wo_entrp">    -73.44062769 </i>
    <i name="e_0_energy">    -73.44062769 </i>
   </energy>
  </scstep>
  <scstep>
   <time name="diag">  575.36  575.36</time>
   <time name="total">  575.47  575.47</time>
   <energy>
    <i name="e_fr_energy">    -68.99901163 </i>
    <i name="e_wo_entrp">    -68.99901163 </i>
    <i name="e_0_energy">    -68.99901163 </i>
   </energy>
  </scstep>
  <scstep>
   <time name="diag">  562.53  562.52</time>
   <time name="total">  562.64  562.63</time>
   <energy>
    <i name="e_fr_energy">    -67.35394036 </i>
    <i name="e_wo_entrp">    -67.35394036 </i>
    <i name="e_0_energy">    -67.35394036 </i>
   </energy>
  </scstep>
  <scstep>
   <time name="diag">  572.25  572.24</time>
   <time name="total">  572.35  572.35</time>
   <energy>
    <i name="e_fr_energy">    -67.24757337 </i>
    <i name="e_wo_entrp">    -67.24757337 </i>
    <i name="e_0_energy">    -67.24757337 </i>
   </energy>
  </scstep>
  <scstep>
   <time name="diag">  590.80  590.79</time>
   <time name="total">  590.91  590.90</time>
   <energy>
    <i name="e_fr_energy">    -67.22049319 </i>
    <i name="e_wo_entrp">    -67.22049319 </i>
    <i name="e_0_energy">    -67.22049319 </i>
   </energy>
  </scstep>
  <scstep>
   <time name="diag">  578.89  578.88</time>
   <time name="total">  579.00  578.99</time>
   <energy>
    <i name="e_fr_energy">    -67.21907962 </i>
    <i name="e_wo_entrp">    -67.21907962 </i>
    <i name="e_0_energy">    -67.21907962 </i>
   </energy>
  </scstep>
  <scstep>
   <time name="diag">  580.58  580.58</time>
   <time name="total">  580.69  580.68</time>
   <energy>
    <i name="e_fr_energy">    -67.22295241 </i>
    <i name="e_wo_entrp">    -67.22295241 </i>
    <i name="e_0_energy">    -67.22295241 </i>
   </energy>
  </scstep>
  <scstep>
   <time name="diag">  571.96  571.95</time>
   <time name="total">  572.07  572.06</time>
   <energy>
    <i name="e_fr_energy">    -67.22702477 </i>
    <i name="e_wo_entrp">    -67.22702477 </i>
    <i name="e_0_energy">    -67.22702477 </i>
   </energy>
  </scstep>
  <scstep>
   <time name="diag">  555.95  555.94</time>
   <time name="total">  556.05  556.05</time>
   <energy>
    <i name="e_fr_energy">    -67.22770203 </i>
    <i name="e_wo_entrp">    -67.22770203 </i>
    <i name="e_0_energy">    -67.22770203 </i>
   </energy>
  </scstep>
  <scstep>
   <time name="diag">  572.99  572.98</time>
   <time name="total">  573.09  573.09</time>
   <energy>
    <i name="e_fr_energy">    -67.22771724 </i>
    <i name="e_wo_entrp">    -67.22771724 </i>
    <i name="e_0_energy">    -67.22771724 </i>
   </energy>
  </scstep>
  <scstep>
   <time name="diag">  568.76  568.75</time>
   <time name="total">  568.86  568.85</time>
   <energy>
    <i name="e_fr_energy">    -67.22773009 </i>
    <i name="e_wo_entrp">    -67.22773009 </i>
    <i name="e_0_energy">    -67.22773009 </i>
   </energy>
  </scstep>
  <scstep>
   <time name="diag">  568.56  568.55</time>
   <time name="total">  568.67  568.66</time>
   <energy>
    <i name="e_fr_energy">    -67.22773016 </i>
    <i name="e_wo_entrp">    -67.22773016 </i>
    <i name="e_0_energy">    -67.22773016 </i>
   </energy>
  </scstep>
  <scstep>
   <time name="diag">  568.32  568.32</time>
   <time name="total">  568.43  568.42</time>
   <energy>
    <i name="e_fr_energy">    -67.22773024 </i>
    <i name="e_wo_entrp">    -67.22773024 </i>
    <i name="e_0_energy">    -67.22773024 </i>
   </energy>
  </scstep>
  <scstep>
   <time name="diag">  568.27  568.26</time>
   <time name="total">  568.32  568.31</time>
   <energy>
    <i name="alphaZ">     25.67921176 </i>
    <i name="ewald">    700.27145080 </i>
    <i name="hartreedc">  -1646.75291199 </i>
    <i name="XCdc">     96.02426133 </i>
    <i name="pawpsdc">   2894.38113028 </i>
    <i name="pawaedc">  -2896.90834137 </i>
    <i name="eentropy">     -0.00000000 </i>
    <i name="bandstr">   -265.12643058 </i>
    <i name="atom">   1025.20389953 </i>
    <i name="e_fr_energy">    -67.22773025 </i>
    <i name="e_wo_entrp">    -67.22773025 </i>
    <i name="e_0_energy">    -67.22773025 </i>
   </energy>
  </scstep>
  <structure>
   <crystal>
    <varray name="basis" >
     <v>       4.48084843       2.58701885       0.00000000 </v>
     <v>      -4.48084843       2.58701885       0.00000000 </v>
     <v>       0.00000000       0.00000000       8.52022140 </v>
    </varray>
    <i name="volume">    197.53348383 </i>
    <varray name="rec_basis" >
     <v>       0.11158601       0.19327265       0.00000000 </v>
     <v>      -0.11158601       0.19327265       0.00000000 </v>
     <v>       0.00000000       0.00000000       0.11736784 </v>
    </varray>
   </crystal>
   <varray name="positions" >
    <v>       0.33333300       0.66666600       0.25000000 </v>
    <v>       0.66666600       0.33333300       0.25000000 </v>
    <v>       0.15869124       0.31738348       0.25000000 </v>
    <v>       0.31738348       0.15869124       0.25000000 </v>
    <v>       0.15869124       0.84130776       0.25000000 </v>
    <v>       0.84130776       0.15869124       0.25000000 </v>
    <v>       0.68261552       0.84130776       0.25000000 </v>
    <v>       0.84130776       0.68261552       0.25000000 </v>
   </varray>
  </structure>
  <varray name="forces" >
   <v>       0.00000000       0.00000000       0.00000000 </v>
   <v>       0.00000000       0.00000000       0.00000000 </v>
   <v>      -0.00064694       0.00112054      -0.00000000 </v>
   <v>       0.00064694       0.00112054      -0.00000000 </v>
   <v>       0.00129389      -0.00000000       0.00000000 </v>
   <v>      -0.00129389       0.00000000      -0.00000000 </v>
   <v>      -0.00064694      -0.00112054       0.00000000 </v>
   <v>       0.00064694      -0.00112054       0.00000000 </v>
  </varray>
  <varray name="stress" >
   <v>      -0.53277496       0.00000000       0.00000000 </v>
   <v>       0.00000000      -0.53277488      -0.00000000 </v>
   <v>       0.00000000       0.00000000      -1.27118546 </v>
  </varray>
  <energy>
   <i name="e_fr_energy">    -67.22773025 </i>
   <i name="e_wo_entrp">    -67.22773025 </i>
   <i name="e_0_energy">     -0.00000000 </i>
  </energy>
  <time name="totalsc"> 7993.21 7994.60</time>
  <eigenvalues>
   <array>
    <dimension dim="1">band</dimension>
    <dimension dim="2">kpoint</dimension>
    <dimension dim="3">spin</dimension>
    <field>eigene</field>
    <field>occ</field>
    <set>
     <set comment="spin 1">
      <set comment="kpoint 1">
       <r>  -18.5403    1.0000 </r>
       <r>  -14.6488    1.0000 </r>
       <r>  -14.6488    1.0000 </r>
       <r>  -12.2992    1.0000 </r>
       <r>  -12.2992    1.0000 </r>
       <r>  -11.2307    1.0000 </r>
       <r>   -9.9135    1.0000 </r>
       <r>   -7.3452    1.0000 </r>
       <r>   -7.1249    1.0000 </r>
       <r>   -4.9710    1.0000 </r>
       <r>   -4.9710    1.0000 </r>
       <r>   -3.1493    1.0000 </r>
       <r>   -3.1492    1.0000 </r>
       <r>   -2.4667    1.0000 </r>
       <r>   -2.4666    1.0000 </r>
       <r>   -0.6315    0.0000 </r>
       <r>    1.1011    0.0000 </r>
       <r>    1.1012    0.0000 </r>
       <r>    1.7906    0.0000 </r>
       <r>    1.9217    0.0000 </r>
       <r>    4.5207    0.0000 </r>
       <r>    5.9130    0.0000 </r>
       <r>    6.3151    0.0000 </r>
       <r>    6.3151    0.0000 </r>
       <r>    7.6726    0.0000 </r>
       <r>    8.0796    0.0000 </r>
       <r>    8.0797    0.0000 </r>
       <r>    8.9955    0.0000 </r>
       <r>    9.1419    0.0000 </r>
       <r>    9.1419    0.0000 </r>
       <r>    9.2976    0.0000 </r>
       <r>    9.2976    0.0000 </r>
       <r>    9.5160    0.0000 </r>
       <r>   10.3273    0.0000 </r>
       <r>   10.6836    0.0000 </r>
       <r>   10.6836    0.0000 </r>
       <r>   11.3540    0.0000 </r>
       <r>   11.3541    0.0000 </r>
       <r>   11.3922    0.0000 </r>
       <r>   11.3995    0.0000 </r>
       <r>   11.9841    0.0000 </r>
       <r>   13.0008    0.0000 </r>
       <r>   13.0008    0.0000 </r>
       <r>   13.0285    0.0000 </r>
       <r>   13.1319    0.0000 </r>
       <r>   13.1319    0.0000 </r>
       <r>   13.1825    0.0000 </r>
       <r>   13.5279    0.0000 </r>
       <r>   15.6135    0.0000 </r>
       <r>   15.8008    0.0000 </r>
       <r>   15.8008    0.0000 </r>
       <r>   16.4913    0.0000 </r>
       <r>   18.2923    0.0000 </r>
       <r>   18.2923    0.0000 </r>
       <r>   18.8601    0.0000 </r>
       <r>   18.8602    0.0000 </r>
       <r>   19.1473    0.0000 </r>
       <r>   19.2290    0.0000 </r>
       <r>   19.5333    0.0000 </r>
       <r>   19.5333    0.0000 </r>
       <r>   19.7217    0.0000 </r>
       <r>   19.9888    0.0000 </r>
       <r>   19.9888    0.0000 </r>
       <r>   20.0167    0.0000 </r>
       <r>   20.4546    0.0000 </r>
       <r>   21.0813    0.0000 </r>
       <r>   21.3027    0.0000 </r>
       <r>   21.3027    0.0000 </r>
       <r>   22.8793    0.0000 </r>
       <r>   23.2968    0.0000 </r>
       <r>   23.2968    0.0000 </r>
       <r>   23.4397    0.0000 </r>
       <r>   23.4397    0.0000 </r>
       <r>   23.5738    0.0000 </r>
       <r>   24.0936    0.0000 </r>
       <r>   24.0936    0.0000 </r>
       <r>   24.4126    0.0000 </r>
       <r>   24.4126    0.0000 </r>
       <r>   24.5372    0.0000 </r>
       <r>   24.6374    0.0000 </r>
       <r>   24.8763    0.0000 </r>
       <r>   25.2174    0.0000 </r>
       <r>   25.2174    0.0000 </r>
       <r>   26.6516    0.0000 </r>
       <r>   26.6516    0.0000 </r>
       <r>   26.7538    0.0000 </r>
       <r>   26.7538    0.0000 </r>
       <r>   26.8463    0.0000 </r>
       <r>   27.0341    0.0000 </r>
       <r>   27.1216    0.0000 </r>
       <r>   27.7308    0.0000 </r>
       <r>   27.7308    0.0000 </r>
       <r>   27.7998    0.0000 </r>
       <r>   27.7998    0.0000 </r>
       <r>   27.8401    0.0000 </r>
       <r>   28.2967    0.0000 </r>
       <r>   28.2967    0.0000 </r>
       <r>   28.7936    0.0000 </r>
       <r>   28.7936    0.0000 </r>
       <r>   28.9524    0.0000 </r>
       <r>   29.6489    0.0000 </r>
       <r>   30.2897    0.0000 </r>
       <r>   31.1920    0.0000 </r>
       <r>   31.1920    0.0000 </r>
       <r>   31.4239    0.0000 </r>
       <r>   31.4816    0.0000 </r>
       <r>   31.4816    0.0000 </r>
       <r>   31.8841    0.0000 </r>
       <r>   32.0865    0.0000 </r>
       <r>   32.0865    0.0000 </r>
       <r>   32.4044    0.0000 </r>
       <r>   32.6844    0.0000 </r>
       <r>   33.2983    0.0000 </r>
       <r>   33.2983    0.0000 </r>
       <r>   33.3127    0.0000 </r>
       <r>   33.3127    0.0000 </r>
       <r>   33.4606    0.0000 </r>
       <r>   34.0099    0.0000 </r>
       <r>   34.9816    0.0000 </r>
       <r>   34.9816    0.0000 </r>
       <r>   35.0442    0.0000 </r>
       <r>   35.0442    0.0000 </r>
       <r>   35.2268    0.0000 </r>
       <r>   35.2268    0.0000 </r>
       <r>   35.8334    0.0000 </r>
       <r>   35.8655    0.0000 </r>
       <r>   35.8655    0.0000 </r>
       <r>   36.0454    0.0000 </r>
       <r>   36.6964    0.0000 </r>
       <r>   36.6964    0.0000 </r>
       <r>   37.0546    0.0000 </r>
       <r>   37.3010    0.0000 </r>
       <r>   37.3124    0.0000 </r>
       <r>   37.3124    0.0000 </r>
       <r>   37.3416    0.0000 </r>
       <r>   37.3416    0.0000 </r>
       <r>   37.3663    0.0000 </r>
       <r>   37.4564    0.0000 </r>
       <r>   37.4564    0.0000 </r>
       <r>   37.6595    0.0000 </r>
       <r>   37.8898    0.0000 </r>
       <r>   37.9469    0.0000 </r>
       <r>   38.2105    0.0000 </r>
       <r>   38.2105    0.0000 </r>
       <r>   38.5577    0.0000 </r>
       <r>   38.8474    0.0000 </r>
       <r>   38.8474    0.0000 </r>
       <r>   40.8943    0.0000 </r>
       <r>   42.2089    0.0000 </r>
       <r>   42.2089    0.0000 </r>
       <r>   42.3915    0.0000 </r>
       <r>   43.7541    0.0000 </r>
       <r>   43.7541    0.0000 </r>
       <r>   43.9385    0.0000 </r>
       <r>   43.9385    0.0000 </r>
       <r>   44.3103    0.0000 </r>
       <r>   44.3103    0.0000 </r>
       <r>   44.3566    0.0000 </r>
       <r>   44.4926    0.0000 </r>
       <r>   44.4926    0.0000 </r>
       <r>   44.7977    0.0000 </r>
       <r>   45.3264    0.0000 </r>
       <r>   45.3264    0.0000 </r>
       <r>   45.6092    0.0000 </r>
       <r>   45.6092    0.0000 </r>
       <r>   46.0655    0.0000 </r>
       <r>   46.5987    0.0000 </r>
       <r>   46.8263    0.0000 </r>
       <r>   47.8871    0.0000 </r>
       <r>   47.9682    0.0000 </r>
       <r>   48.7262    0.0000 </r>
       <r>   48.7262    0.0000 </r>
       <r>   48.9385    0.0000 </r>
       <r>   49.0206    0.0000 </r>
       <r>   49.0207    0.0000 </r>
       <r>   49.1895    0.0000 </r>
       <r>   49.3789    0.0000 </r>
       <r>   49.5076    0.0000 </r>
       <r>   49.5077    0.0000 </r>
       <r>   49.7124    0.0000 </r>
       <r>   49.7124    0.0000 </r>
       <r>   50.1370    0.0000 </r>
       <r>   50.3457    0.0000 </r>
       <r>   50.3458    0.0000 </r>
       <r>   50.5718    0.0000 </r>
       <r>   50.6150    0.0000 </r>
       <r>   50.6150    0.0000 </r>
       <r>   51.5785    0.0000 </r>
       <r>   51.5785    0.0000 </r>
       <r>   51.7184    0.0000 </r>
       <r>   52.0203    0.0000 </r>
       <r>   52.4951    0.0000 </r>
       <r>   52.4951    0.0000 </r>
       <r>   52.5049    0.0000 </r>
       <r>   52.5049    0.0000 </r>
       <r>   52.8867    0.0000 </r>
       <r>   53.4918    0.0000 </r>
       <r>   53.4918    0.0000 </r>
       <r>   53.4926    0.0000 </r>
       <r>   53.8300    0.0000 </r>
       <r>   53.8300    0.0000 </r>
       <r>   53.9143    0.0000 </r>
       <r>   54.2916    0.0000 </r>
       <r>   54.3186    0.0000 </r>
       <r>   54.3186    0.0000 </r>
       <r>   54.4694    0.0000 </r>
       <r>   54.4695    0.0000 </r>
       <r>   54.6490    0.0000 </r>
       <r>   54.9433    0.0000 </r>
       <r>   54.9433    0.0000 </r>
       <r>   55.2684    0.0000 </r>
       <r>   55.3383    0.0000 </r>
       <r>   55.6000    0.0000 </r>
       <r>   55.7091    0.0000 </r>
       <r>   55.8562    0.0000 </r>
       <r>   55.8562    0.0000 </r>
       <r>   55.9784    0.0000 </r>
       <r>   55.9785    0.0000 </r>
       <r>   56.0273    0.0000 </r>
       <r>   56.4062    0.0000 </r>
       <r>   56.4062    0.0000 </r>
       <r>   57.0541    0.0000 </r>
       <r>   57.0541    0.0000 </r>
       <r>   57.1684    0.0000 </r>
       <r>   57.1813    0.0000 </r>
       <r>   57.1813    0.0000 </r>
       <r>   57.4345    0.0000 </r>
       <r>   57.4759    0.0000 </r>
       <r>   57.4759    0.0000 </r>
       <r>   57.6909    0.0000 </r>
       <r>   57.6909    0.0000 </r>
       <r>   57.8660    0.0000 </r>
       <r>   57.8786    0.0000 </r>
       <r>   57.9830    0.0000 </r>
       <r>   57.9830    0.0000 </r>
       <r>   58.0113    0.0000 </r>
       <r>   58.0225    0.0000 </r>
       <r>   58.1490    0.0000 </r>
       <r>   58.1490    0.0000 </r>
       <r>   58.1727    0.0000 </r>
       <r>   58.3631    0.0000 </r>
       <r>   58.3631    0.0000 </r>
       <r>   58.3839    0.0000 </r>
       <r>   58.3839    0.0000 </r>
       <r>   58.8988    0.0000 </r>
       <r>   58.8988    0.0000 </r>
       <r>   59.0563    0.0000 </r>
       <r>   59.7119    0.0000 </r>
       <r>   59.7119    0.0000 </r>
       <r>   59.9710    0.0000 </r>
       <r>   60.2200    0.0000 </r>
       <r>   60.6108    0.0000 </r>
       <r>   60.6108    0.0000 </r>
       <r>   60.9781    0.0000 </r>
       <r>   61.1585    0.0000 </r>
       <r>   61.1585    0.0000 </r>
       <r>   62.1187    0.0000 </r>
       <r>   62.1187    0.0000 </r>
       <r>   62.7654    0.0000 </r>
       <r>   63.2527    0.0000 </r>
       <r>   63.6720    0.0000 </r>
       <r>   63.6720    0.0000 </r>
       <r>   65.3916    0.0000 </r>
       <r>   65.3916    0.0000 </r>
      </set>
      <set comment="kpoint 2">
       <r>  -18.5132    1.0000 </r>
       <r>  -14.7809    1.0000 </r>
       <r>  -14.6912    1.0000 </r>
       <r>  -12.3384    1.0000 </r>
       <r>  -12.2008    1.0000 </r>
       <r>  -11.0961    1.0000 </r>
       <r>   -9.7531    1.0000 </r>
       <r>   -7.3040    1.0000 </r>
       <r>   -7.1822    1.0000 </r>
       <r>   -5.0944    1.0000 </r>
       <r>   -4.9934    1.0000 </r>
       <r>   -3.2737    1.0000 </r>
       <r>   -3.1697    1.0000 </r>
       <r>   -2.6092    1.0000 </r>
       <r>   -2.5354    1.0000 </r>
       <r>   -0.8361    0.0000 </r>
       <r>    1.1605    0.0000 </r>
       <r>    1.4116    0.0000 </r>
       <r>    1.9153    0.0000 </r>
       <r>    1.9734    0.0000 </r>
       <r>    4.5728    0.0000 </r>
       <r>    5.9692    0.0000 </r>
       <r>    6.3866    0.0000 </r>
       <r>    6.4781    0.0000 </r>
       <r>    7.6627    0.0000 </r>
       <r>    8.0377    0.0000 </r>
       <r>    8.2336    0.0000 </r>
       <r>    8.2352    0.0000 </r>
       <r>    8.6808    0.0000 </r>
       <r>    8.7555    0.0000 </r>
       <r>    9.8480    0.0000 </r>
       <r>    9.8619    0.0000 </r>
       <r>    9.9124    0.0000 </r>
       <r>   10.3759    0.0000 </r>
       <r>   10.3995    0.0000 </r>
       <r>   10.4193    0.0000 </r>
       <r>   10.9077    0.0000 </r>
       <r>   11.4137    0.0000 </r>
       <r>   11.6687    0.0000 </r>
       <r>   12.0448    0.0000 </r>
       <r>   12.1516    0.0000 </r>
       <r>   12.3345    0.0000 </r>
       <r>   12.5608    0.0000 </r>
       <r>   12.8381    0.0000 </r>
       <r>   13.0972    0.0000 </r>
       <r>   13.6279    0.0000 </r>
       <r>   13.8001    0.0000 </r>
       <r>   14.2603    0.0000 </r>
       <r>   15.5623    0.0000 </r>
       <r>   15.6614    0.0000 </r>
       <r>   15.7181    0.0000 </r>
       <r>   16.2792    0.0000 </r>
       <r>   18.0211    0.0000 </r>
       <r>   18.0716    0.0000 </r>
       <r>   18.6452    0.0000 </r>
       <r>   18.9834    0.0000 </r>
       <r>   18.9928    0.0000 </r>
       <r>   19.3961    0.0000 </r>
       <r>   19.4430    0.0000 </r>
       <r>   19.8594    0.0000 </r>
       <r>   19.9227    0.0000 </r>
       <r>   19.9355    0.0000 </r>
       <r>   20.0222    0.0000 </r>
       <r>   20.0695    0.0000 </r>
       <r>   20.4469    0.0000 </r>
       <r>   20.9480    0.0000 </r>
       <r>   21.1306    0.0000 </r>
       <r>   21.1701    0.0000 </r>
       <r>   22.3006    0.0000 </r>
       <r>   22.5129    0.0000 </r>
       <r>   23.0923    0.0000 </r>
       <r>   23.5592    0.0000 </r>
       <r>   23.5744    0.0000 </r>
       <r>   23.6015    0.0000 </r>
       <r>   23.8165    0.0000 </r>
       <r>   24.0248    0.0000 </r>
       <r>   24.2674    0.0000 </r>
       <r>   24.5217    0.0000 </r>
       <r>   24.8306    0.0000 </r>
       <r>   24.9676    0.0000 </r>
       <r>   25.0475    0.0000 </r>
       <r>   25.5521    0.0000 </r>
       <r>   25.6964    0.0000 </r>
       <r>   25.7980    0.0000 </r>
       <r>   25.9189    0.0000 </r>
       <r>   26.1275    0.0000 </r>
       <r>   26.3973    0.0000 </r>
       <r>   26.9094    0.0000 </r>
       <r>   26.9234    0.0000 </r>
       <r>   27.0815    0.0000 </r>
       <r>   27.0849    0.0000 </r>
       <r>   27.5813    0.0000 </r>
       <r>   27.8918    0.0000 </r>
       <r>   28.1065    0.0000 </r>
       <r>   28.6632    0.0000 </r>
       <r>   28.9184    0.0000 </r>
       <r>   29.0466    0.0000 </r>
       <r>   29.1763    0.0000 </r>
       <r>   29.2646    0.0000 </r>
       <r>   29.6366    0.0000 </r>
       <r>   29.6478    0.0000 </r>
       <r>   30.1213    0.0000 </r>
       <r>   30.1818    0.0000 </r>
       <r>   30.7678    0.0000 </r>
       <r>   31.1259    0.0000 </r>
       <r>   31.8749    0.0000 </r>
       <r>   31.9108    0.0000 </r>
       <r>   32.0148    0.0000 </r>
       <r>   32.0886    0.0000 </r>
       <r>   32.5461    0.0000 </r>
       <r>   32.6542    0.0000 </r>
       <r>   32.9444    0.0000 </r>
       <r>   33.0816    0.0000 </r>
       <r>   33.3384    0.0000 </r>
       <r>   33.4640    0.0000 </r>
       <r>   33.5848    0.0000 </r>
       <r>   33.6087    0.0000 </r>
       <r>   33.8445    0.0000 </r>
       <r>   34.0075    0.0000 </r>
       <r>   34.0686    0.0000 </r>
       <r>   34.1281    0.0000 </r>
       <r>   34.2291    0.0000 </r>
       <r>   35.1281    0.0000 </r>
       <r>   35.9146    0.0000 </r>
       <r>   35.9610    0.0000 </r>
       <r>   35.9882    0.0000 </r>
       <r>   36.2332    0.0000 </r>
       <r>   36.3840    0.0000 </r>
       <r>   36.5942    0.0000 </r>
       <r>   36.7596    0.0000 </r>
       <r>   36.8647    0.0000 </r>
       <r>   37.0219    0.0000 </r>
       <r>   37.1188    0.0000 </r>
       <r>   37.2090    0.0000 </r>
       <r>   37.4568    0.0000 </r>
       <r>   37.5348    0.0000 </r>
       <r>   37.8830    0.0000 </r>
       <r>   37.9740    0.0000 </r>
       <r>   38.0606    0.0000 </r>
       <r>   38.1707    0.0000 </r>
       <r>   38.3342    0.0000 </r>
       <r>   38.4488    0.0000 </r>
       <r>   38.9582    0.0000 </r>
       <r>   39.0151    0.0000 </r>
       <r>   39.1512    0.0000 </r>
       <r>   39.7411    0.0000 </r>
       <r>   39.8913    0.0000 </r>
       <r>   40.4036    0.0000 </r>
       <r>   41.6591    0.0000 </r>
       <r>   41.7874    0.0000 </r>
       <r>   42.0183    0.0000 </r>
       <r>   43.0529    0.0000 </r>
       <r>   43.1371    0.0000 </r>
       <r>   43.1853    0.0000 </r>
       <r>   43.3711    0.0000 </r>
       <r>   43.6680    0.0000 </r>
       <r>   43.9100    0.0000 </r>
       <r>   44.3356    0.0000 </r>
       <r>   44.4581    0.0000 </r>
       <r>   44.7940    0.0000 </r>
       <r>   44.8728    0.0000 </r>
       <r>   45.0487    0.0000 </r>
       <r>   45.2335    0.0000 </r>
       <r>   46.1032    0.0000 </r>
       <r>   46.2269    0.0000 </r>
       <r>   46.3651    0.0000 </r>
       <r>   46.4216    0.0000 </r>
       <r>   46.8963    0.0000 </r>
       <r>   47.1013    0.0000 </r>
       <r>   48.0085    0.0000 </r>
       <r>   48.2044    0.0000 </r>
       <r>   48.2685    0.0000 </r>
       <r>   48.4867    0.0000 </r>
       <r>   48.4867    0.0000 </r>
       <r>   48.6077    0.0000 </r>
       <r>   49.4193    0.0000 </r>
       <r>   49.4674    0.0000 </r>
       <r>   49.4813    0.0000 </r>
       <r>   49.4971    0.0000 </r>
       <r>   50.1891    0.0000 </r>
       <r>   50.2489    0.0000 </r>
       <r>   50.3481    0.0000 </r>
       <r>   50.4411    0.0000 </r>
       <r>   50.7495    0.0000 </r>
       <r>   50.7703    0.0000 </r>
       <r>   51.0252    0.0000 </r>
       <r>   51.0836    0.0000 </r>
       <r>   51.2201    0.0000 </r>
       <r>   51.2372    0.0000 </r>
       <r>   51.3233    0.0000 </r>
       <r>   52.0790    0.0000 </r>
       <r>   52.1310    0.0000 </r>
       <r>   52.3383    0.0000 </r>
       <r>   52.5341    0.0000 </r>
       <r>   52.6621    0.0000 </r>
       <r>   52.7051    0.0000 </r>
       <r>   52.7968    0.0000 </r>
       <r>   52.9839    0.0000 </r>
       <r>   53.1591    0.0000 </r>
       <r>   53.4564    0.0000 </r>
       <r>   53.6301    0.0000 </r>
       <r>   53.6776    0.0000 </r>
       <r>   53.8575    0.0000 </r>
       <r>   54.1638    0.0000 </r>
       <r>   54.4158    0.0000 </r>
       <r>   54.5037    0.0000 </r>
       <r>   54.6902    0.0000 </r>
       <r>   54.7543    0.0000 </r>
       <r>   54.8263    0.0000 </r>
       <r>   54.8421    0.0000 </r>
       <r>   54.8679    0.0000 </r>
       <r>   55.0431    0.0000 </r>
       <r>   55.0736    0.0000 </r>
       <r>   55.3025    0.0000 </r>
       <r>   55.4662    0.0000 </r>
       <r>   55.5311    0.0000 </r>
       <r>   55.6692    0.0000 </r>
       <r>   56.1756    0.0000 </r>
       <r>   56.1912    0.0000 </r>
       <r>   56.2449    0.0000 </r>
       <r>   56.3750    0.0000 </r>
       <r>   56.4639    0.0000 </r>
       <r>   56.5464    0.0000 </r>
       <r>   56.5747    0.0000 </r>
       <r>   56.8251    0.0000 </r>
       <r>   56.8859    0.0000 </r>
       <r>   57.0189    0.0000 </r>
       <r>   57.0577    0.0000 </r>
       <r>   57.1652    0.0000 </r>
       <r>   57.2095    0.0000 </r>
       <r>   57.4579    0.0000 </r>
       <r>   57.6391    0.0000 </r>
       <r>   57.6791    0.0000 </r>
       <r>   57.7261    0.0000 </r>
       <r>   58.0939    0.0000 </r>
       <r>   58.1463    0.0000 </r>
       <r>   58.2340    0.0000 </r>
       <r>   58.6067    0.0000 </r>
       <r>   58.7254    0.0000 </r>
       <r>   58.7317    0.0000 </r>
       <r>   59.1755    0.0000 </r>
       <r>   59.4085    0.0000 </r>
       <r>   59.5037    0.0000 </r>
       <r>   60.0199    0.0000 </r>
       <r>   60.0306    0.0000 </r>
       <r>   60.2943    0.0000 </r>
       <r>   60.3322    0.0000 </r>
       <r>   60.4211    0.0000 </r>
       <r>   60.5725    0.0000 </r>
       <r>   60.5849    0.0000 </r>
       <r>   60.7327    0.0000 </r>
       <r>   61.0217    0.0000 </r>
       <r>   61.0341    0.0000 </r>
       <r>   61.3763    0.0000 </r>
       <r>   61.5507    0.0000 </r>
       <r>   61.6702    0.0000 </r>
       <r>   62.1374    0.0000 </r>
       <r>   62.2604    0.0000 </r>
       <r>   62.7760    0.0000 </r>
       <r>   63.5386    0.0000 </r>
       <r>   63.8106    0.0000 </r>
       <r>   64.0655    0.0000 </r>
       <r>   64.1332    0.0000 </r>
       <r>   64.1393    0.0000 </r>
      </set>
      <set comment="kpoint 3">
       <r>  -18.4341    1.0000 </r>
       <r>  -15.1059    1.0000 </r>
       <r>  -14.7954    1.0000 </r>
       <r>  -12.4549    1.0000 </r>
       <r>  -11.9317    1.0000 </r>
       <r>  -10.7149    1.0000 </r>
       <r>   -9.3237    1.0000 </r>
       <r>   -7.3645    1.0000 </r>
       <r>   -7.1816    1.0000 </r>
       <r>   -5.4404    1.0000 </r>
       <r>   -5.0296    1.0000 </r>
       <r>   -3.6157    1.0000 </r>
       <r>   -3.2240    1.0000 </r>
       <r>   -3.0165    1.0000 </r>
       <r>   -2.7272    1.0000 </r>
       <r>   -1.1839    0.0000 </r>
       <r>    1.3238    0.0000 </r>
       <r>    1.8881    0.0000 </r>
       <r>    2.1281    0.0000 </r>
       <r>    2.4358    0.0000 </r>
       <r>    4.7294    0.0000 </r>
       <r>    6.1240    0.0000 </r>
       <r>    6.5551    0.0000 </r>
       <r>    6.9440    0.0000 </r>
       <r>    6.9598    0.0000 </r>
       <r>    7.9146    0.0000 </r>
       <r>    8.1729    0.0000 </r>
       <r>    8.2020    0.0000 </r>
       <r>    8.5790    0.0000 </r>
       <r>    8.7436    0.0000 </r>
       <r>    9.0740    0.0000 </r>
       <r>    9.9077    0.0000 </r>
       <r>    9.9160    0.0000 </r>
       <r>   10.4672    0.0000 </r>
       <r>   10.5716    0.0000 </r>
       <r>   10.5788    0.0000 </r>
       <r>   10.9114    0.0000 </r>
       <r>   11.5894    0.0000 </r>
       <r>   11.8802    0.0000 </r>
       <r>   12.1077    0.0000 </r>
       <r>   12.1424    0.0000 </r>
       <r>   12.3419    0.0000 </r>
       <r>   12.6423    0.0000 </r>
       <r>   13.0075    0.0000 </r>
       <r>   13.4775    0.0000 </r>
       <r>   14.1695    0.0000 </r>
       <r>   14.3858    0.0000 </r>
       <r>   15.1545    0.0000 </r>
       <r>   15.2765    0.0000 </r>
       <r>   15.3889    0.0000 </r>
       <r>   15.7997    0.0000 </r>
       <r>   16.1743    0.0000 </r>
       <r>   17.3574    0.0000 </r>
       <r>   17.5941    0.0000 </r>
       <r>   17.8616    0.0000 </r>
       <r>   19.0273    0.0000 </r>
       <r>   19.0831    0.0000 </r>
       <r>   19.1612    0.0000 </r>
       <r>   19.5522    0.0000 </r>
       <r>   19.8344    0.0000 </r>
       <r>   19.9231    0.0000 </r>
       <r>   20.1859    0.0000 </r>
       <r>   20.2006    0.0000 </r>
       <r>   20.2953    0.0000 </r>
       <r>   20.4610    0.0000 </r>
       <r>   20.6854    0.0000 </r>
       <r>   20.9076    0.0000 </r>
       <r>   20.9177    0.0000 </r>
       <r>   20.9658    0.0000 </r>
       <r>   21.2974    0.0000 </r>
       <r>   23.1084    0.0000 </r>
       <r>   23.7417    0.0000 </r>
       <r>   23.7808    0.0000 </r>
       <r>   23.9368    0.0000 </r>
       <r>   24.0480    0.0000 </r>
       <r>   24.1155    0.0000 </r>
       <r>   24.2288    0.0000 </r>
       <r>   24.2478    0.0000 </r>
       <r>   24.4571    0.0000 </r>
       <r>   24.5114    0.0000 </r>
       <r>   24.6934    0.0000 </r>
       <r>   24.7126    0.0000 </r>
       <r>   25.1039    0.0000 </r>
       <r>   25.1717    0.0000 </r>
       <r>   25.2293    0.0000 </r>
       <r>   26.4776    0.0000 </r>
       <r>   26.6052    0.0000 </r>
       <r>   26.9337    0.0000 </r>
       <r>   27.0663    0.0000 </r>
       <r>   27.5561    0.0000 </r>
       <r>   27.7010    0.0000 </r>
       <r>   28.0595    0.0000 </r>
       <r>   28.1032    0.0000 </r>
       <r>   28.1118    0.0000 </r>
       <r>   28.1885    0.0000 </r>
       <r>   29.1207    0.0000 </r>
       <r>   29.1320    0.0000 </r>
       <r>   29.6998    0.0000 </r>
       <r>   29.7331    0.0000 </r>
       <r>   29.7997    0.0000 </r>
       <r>   30.2525    0.0000 </r>
       <r>   30.3510    0.0000 </r>
       <r>   30.5885    0.0000 </r>
       <r>   30.9582    0.0000 </r>
       <r>   30.9705    0.0000 </r>
       <r>   31.5020    0.0000 </r>
       <r>   31.7567    0.0000 </r>
       <r>   31.9397    0.0000 </r>
       <r>   32.6385    0.0000 </r>
       <r>   32.7569    0.0000 </r>
       <r>   32.8169    0.0000 </r>
       <r>   32.8397    0.0000 </r>
       <r>   32.9283    0.0000 </r>
       <r>   33.0869    0.0000 </r>
       <r>   33.1632    0.0000 </r>
       <r>   33.2361    0.0000 </r>
       <r>   33.7486    0.0000 </r>
       <r>   33.7648    0.0000 </r>
       <r>   33.9660    0.0000 </r>
       <r>   34.0186    0.0000 </r>
       <r>   34.2044    0.0000 </r>
       <r>   34.6047    0.0000 </r>
       <r>   34.9498    0.0000 </r>
       <r>   35.2437    0.0000 </r>
       <r>   35.4874    0.0000 </r>
       <r>   36.2302    0.0000 </r>
       <r>   36.5183    0.0000 </r>
       <r>   36.7573    0.0000 </r>
       <r>   36.8777    0.0000 </r>
       <r>   37.0315    0.0000 </r>
       <r>   37.0646    0.0000 </r>
       <r>   37.4346    0.0000 </r>
       <r>   37.5842    0.0000 </r>
       <r>   37.9624    0.0000 </r>
       <r>   38.0094    0.0000 </r>
       <r>   38.1555    0.0000 </r>
       <r>   38.4170    0.0000 </r>
       <r>   38.8542    0.0000 </r>
       <r>   38.8811    0.0000 </r>
       <r>   39.1132    0.0000 </r>
       <r>   39.2447    0.0000 </r>
       <r>   39.8819    0.0000 </r>
       <r>   39.9875    0.0000 </r>
       <r>   40.0175    0.0000 </r>
       <r>   40.2079    0.0000 </r>
       <r>   40.3686    0.0000 </r>
       <r>   40.5672    0.0000 </r>
       <r>   40.9918    0.0000 </r>
       <r>   41.4309    0.0000 </r>
       <r>   41.5055    0.0000 </r>
       <r>   41.6760    0.0000 </r>
       <r>   41.6996    0.0000 </r>
       <r>   41.7220    0.0000 </r>
       <r>   41.9303    0.0000 </r>
       <r>   42.6752    0.0000 </r>
       <r>   42.7148    0.0000 </r>
       <r>   43.5865    0.0000 </r>
       <r>   43.8867    0.0000 </r>
       <r>   44.2380    0.0000 </r>
       <r>   44.5378    0.0000 </r>
       <r>   44.5403    0.0000 </r>
       <r>   44.7224    0.0000 </r>
       <r>   44.7919    0.0000 </r>
       <r>   45.3049    0.0000 </r>
       <r>   45.7839    0.0000 </r>
       <r>   46.2576    0.0000 </r>
       <r>   46.9417    0.0000 </r>
       <r>   47.1444    0.0000 </r>
       <r>   47.2395    0.0000 </r>
       <r>   47.3560    0.0000 </r>
       <r>   47.5831    0.0000 </r>
       <r>   47.7528    0.0000 </r>
       <r>   48.0740    0.0000 </r>
       <r>   48.1983    0.0000 </r>
       <r>   48.7077    0.0000 </r>
       <r>   48.8128    0.0000 </r>
       <r>   48.9407    0.0000 </r>
       <r>   49.0230    0.0000 </r>
       <r>   49.0710    0.0000 </r>
       <r>   49.1833    0.0000 </r>
       <r>   49.6233    0.0000 </r>
       <r>   50.0096    0.0000 </r>
       <r>   50.4447    0.0000 </r>
       <r>   50.7960    0.0000 </r>
       <r>   50.8175    0.0000 </r>
       <r>   51.0702    0.0000 </r>
       <r>   51.0973    0.0000 </r>
       <r>   51.2646    0.0000 </r>
       <r>   51.6052    0.0000 </r>
       <r>   51.7024    0.0000 </r>
       <r>   51.7616    0.0000 </r>
       <r>   51.7799    0.0000 </r>
       <r>   51.8773    0.0000 </r>
       <r>   52.1730    0.0000 </r>
       <r>   52.2752    0.0000 </r>
       <r>   52.3139    0.0000 </r>
       <r>   52.4321    0.0000 </r>
       <r>   52.4735    0.0000 </r>
       <r>   52.9221    0.0000 </r>
       <r>   52.9401    0.0000 </r>
       <r>   53.1255    0.0000 </r>
       <r>   53.2064    0.0000 </r>
       <r>   53.2902    0.0000 </r>
       <r>   53.3798    0.0000 </r>
       <r>   53.6811    0.0000 </r>
       <r>   53.9041    0.0000 </r>
       <r>   53.9563    0.0000 </r>
       <r>   54.2682    0.0000 </r>
       <r>   54.5095    0.0000 </r>
       <r>   54.6353    0.0000 </r>
       <r>   54.6388    0.0000 </r>
       <r>   54.6881    0.0000 </r>
       <r>   54.9549    0.0000 </r>
       <r>   55.2356    0.0000 </r>
       <r>   55.5023    0.0000 </r>
       <r>   55.5858    0.0000 </r>
       <r>   55.6711    0.0000 </r>
       <r>   56.0427    0.0000 </r>
       <r>   56.1326    0.0000 </r>
       <r>   56.4570    0.0000 </r>
       <r>   56.4874    0.0000 </r>
       <r>   56.6230    0.0000 </r>
       <r>   56.7015    0.0000 </r>
       <r>   56.7793    0.0000 </r>
       <r>   56.7801    0.0000 </r>
       <r>   56.8025    0.0000 </r>
       <r>   57.0056    0.0000 </r>
       <r>   57.0066    0.0000 </r>
       <r>   57.2368    0.0000 </r>
       <r>   57.3407    0.0000 </r>
       <r>   57.4834    0.0000 </r>
       <r>   57.8336    0.0000 </r>
       <r>   57.9182    0.0000 </r>
       <r>   58.1056    0.0000 </r>
       <r>   58.2455    0.0000 </r>
       <r>   58.4224    0.0000 </r>
       <r>   58.4813    0.0000 </r>
       <r>   59.4516    0.0000 </r>
       <r>   59.4563    0.0000 </r>
       <r>   59.8112    0.0000 </r>
       <r>   59.9746    0.0000 </r>
       <r>   60.0811    0.0000 </r>
       <r>   60.0917    0.0000 </r>
       <r>   60.2638    0.0000 </r>
       <r>   61.1602    0.0000 </r>
       <r>   61.3572    0.0000 </r>
       <r>   61.3716    0.0000 </r>
       <r>   61.5326    0.0000 </r>
       <r>   61.5417    0.0000 </r>
       <r>   61.6584    0.0000 </r>
       <r>   61.7090    0.0000 </r>
       <r>   61.7498    0.0000 </r>
       <r>   61.8022    0.0000 </r>
       <r>   61.9057    0.0000 </r>
       <r>   62.0189    0.0000 </r>
       <r>   62.0238    0.0000 </r>
       <r>   62.3300    0.0000 </r>
       <r>   62.5653    0.0000 </r>
       <r>   62.9404    0.0000 </r>
       <r>   63.0027    0.0000 </r>
       <r>   63.0147    0.0000 </r>
       <r>   63.1569    0.0000 </r>
       <r>   63.1792    0.0000 </r>
       <r>   63.6481    0.0000 </r>
      </set>
      <set comment="kpoint 4">
       <r>  -18.3111    1.0000 </r>
       <r>  -15.5025    1.0000 </r>
       <r>  -14.9178    1.0000 </r>
       <r>  -12.6026    1.0000 </r>
       <r>  -11.5471    1.0000 </r>
       <r>  -10.1724    1.0000 </r>
       <r>   -8.7139    1.0000 </r>
       <r>   -7.6782    1.0000 </r>
       <r>   -6.9823    1.0000 </r>
       <r>   -5.9473    1.0000 </r>
       <r>   -5.0207    1.0000 </r>
       <r>   -4.0930    1.0000 </r>
       <r>   -3.6340    1.0000 </r>
       <r>   -3.2941    1.0000 </r>
       <r>   -3.0028    1.0000 </r>
       <r>   -1.4707    0.0000 </r>
       <r>    1.5522    0.0000 </r>
       <r>    2.2445    0.0000 </r>
       <r>    2.3849    0.0000 </r>
       <r>    3.3190    0.0000 </r>
       <r>    4.9927    0.0000 </r>
       <r>    6.0211    0.0000 </r>
       <r>    6.3584    0.0000 </r>
       <r>    6.7511    0.0000 </r>
       <r>    7.6029    0.0000 </r>
       <r>    7.8092    0.0000 </r>
       <r>    7.9266    0.0000 </r>
       <r>    8.1647    0.0000 </r>
       <r>    8.2206    0.0000 </r>
       <r>    8.9264    0.0000 </r>
       <r>    9.3180    0.0000 </r>
       <r>    9.4674    0.0000 </r>
       <r>    9.4698    0.0000 </r>
       <r>   10.1391    0.0000 </r>
       <r>   10.1768    0.0000 </r>
       <r>   11.1044    0.0000 </r>
       <r>   11.3401    0.0000 </r>
       <r>   11.7682    0.0000 </r>
       <r>   11.8214    0.0000 </r>
       <r>   12.3380    0.0000 </r>
       <r>   12.3959    0.0000 </r>
       <r>   12.5104    0.0000 </r>
       <r>   13.2333    0.0000 </r>
       <r>   13.2608    0.0000 </r>
       <r>   14.2225    0.0000 </r>
       <r>   14.4784    0.0000 </r>
       <r>   14.8590    0.0000 </r>
       <r>   15.0380    0.0000 </r>
       <r>   15.3045    0.0000 </r>
       <r>   16.0072    0.0000 </r>
       <r>   16.0964    0.0000 </r>
       <r>   16.2607    0.0000 </r>
       <r>   16.4635    0.0000 </r>
       <r>   17.1509    0.0000 </r>
       <r>   17.2038    0.0000 </r>
       <r>   18.7148    0.0000 </r>
       <r>   18.8973    0.0000 </r>
       <r>   18.9961    0.0000 </r>
       <r>   19.1637    0.0000 </r>
       <r>   19.3560    0.0000 </r>
       <r>   19.6341    0.0000 </r>
       <r>   19.6521    0.0000 </r>
       <r>   19.8567    0.0000 </r>
       <r>   20.1793    0.0000 </r>
       <r>   20.2805    0.0000 </r>
       <r>   20.6624    0.0000 </r>
       <r>   20.7056    0.0000 </r>
       <r>   21.0592    0.0000 </r>
       <r>   21.0780    0.0000 </r>
       <r>   21.4988    0.0000 </r>
       <r>   21.9505    0.0000 </r>
       <r>   22.9605    0.0000 </r>
       <r>   23.2358    0.0000 </r>
       <r>   23.2529    0.0000 </r>
       <r>   23.3291    0.0000 </r>
       <r>   23.5515    0.0000 </r>
       <r>   24.0815    0.0000 </r>
       <r>   24.5135    0.0000 </r>
       <r>   24.5438    0.0000 </r>
       <r>   24.5896    0.0000 </r>
       <r>   24.7054    0.0000 </r>
       <r>   25.0584    0.0000 </r>
       <r>   25.2804    0.0000 </r>
       <r>   25.5470    0.0000 </r>
       <r>   25.6479    0.0000 </r>
       <r>   25.6602    0.0000 </r>
       <r>   26.4057    0.0000 </r>
       <r>   26.7615    0.0000 </r>
       <r>   27.3091    0.0000 </r>
       <r>   28.0925    0.0000 </r>
       <r>   28.1525    0.0000 </r>
       <r>   28.1598    0.0000 </r>
       <r>   28.1715    0.0000 </r>
       <r>   28.3197    0.0000 </r>
       <r>   28.6563    0.0000 </r>
       <r>   28.6892    0.0000 </r>
       <r>   29.1922    0.0000 </r>
       <r>   29.5560    0.0000 </r>
       <r>   29.8650    0.0000 </r>
       <r>   29.9607    0.0000 </r>
       <r>   30.0805    0.0000 </r>
       <r>   30.1473    0.0000 </r>
       <r>   30.6552    0.0000 </r>
       <r>   30.9060    0.0000 </r>
       <r>   31.0702    0.0000 </r>
       <r>   31.7272    0.0000 </r>
       <r>   31.9407    0.0000 </r>
       <r>   31.9744    0.0000 </r>
       <r>   32.2557    0.0000 </r>
       <r>   32.4165    0.0000 </r>
       <r>   32.5241    0.0000 </r>
       <r>   32.5549    0.0000 </r>
       <r>   33.0529    0.0000 </r>
       <r>   33.4802    0.0000 </r>
       <r>   33.5835    0.0000 </r>
       <r>   33.8017    0.0000 </r>
       <r>   33.9561    0.0000 </r>
       <r>   34.1088    0.0000 </r>
       <r>   34.2691    0.0000 </r>
       <r>   34.6196    0.0000 </r>
       <r>   34.9734    0.0000 </r>
       <r>   35.1859    0.0000 </r>
       <r>   35.7166    0.0000 </r>
       <r>   35.7976    0.0000 </r>
       <r>   35.8135    0.0000 </r>
       <r>   36.4358    0.0000 </r>
       <r>   36.7285    0.0000 </r>
       <r>   36.8859    0.0000 </r>
       <r>   37.2446    0.0000 </r>
       <r>   37.2882    0.0000 </r>
       <r>   37.7699    0.0000 </r>
       <r>   37.8238    0.0000 </r>
       <r>   37.9895    0.0000 </r>
       <r>   38.6388    0.0000 </r>
       <r>   39.0195    0.0000 </r>
       <r>   39.0640    0.0000 </r>
       <r>   39.1075    0.0000 </r>
       <r>   39.2829    0.0000 </r>
       <r>   39.3790    0.0000 </r>
       <r>   39.5941    0.0000 </r>
       <r>   39.6123    0.0000 </r>
       <r>   39.7353    0.0000 </r>
       <r>   39.9602    0.0000 </r>
       <r>   40.1138    0.0000 </r>
       <r>   40.1251    0.0000 </r>
       <r>   40.2040    0.0000 </r>
       <r>   40.9925    0.0000 </r>
       <r>   41.3002    0.0000 </r>
       <r>   41.6598    0.0000 </r>
       <r>   41.7458    0.0000 </r>
       <r>   41.8535    0.0000 </r>
       <r>   41.9176    0.0000 </r>
       <r>   42.3695    0.0000 </r>
       <r>   42.4999    0.0000 </r>
       <r>   42.6064    0.0000 </r>
       <r>   42.8776    0.0000 </r>
       <r>   43.1819    0.0000 </r>
       <r>   43.5598    0.0000 </r>
       <r>   43.6217    0.0000 </r>
       <r>   43.9314    0.0000 </r>
       <r>   44.3277    0.0000 </r>
       <r>   44.6186    0.0000 </r>
       <r>   44.9663    0.0000 </r>
       <r>   45.2003    0.0000 </r>
       <r>   45.3725    0.0000 </r>
       <r>   45.4747    0.0000 </r>
       <r>   45.6654    0.0000 </r>
       <r>   46.2222    0.0000 </r>
       <r>   46.3786    0.0000 </r>
       <r>   46.4762    0.0000 </r>
       <r>   46.8449    0.0000 </r>
       <r>   46.8456    0.0000 </r>
       <r>   46.9597    0.0000 </r>
       <r>   47.2318    0.0000 </r>
       <r>   47.9891    0.0000 </r>
       <r>   48.4743    0.0000 </r>
       <r>   48.4990    0.0000 </r>
       <r>   48.5620    0.0000 </r>
       <r>   48.8907    0.0000 </r>
       <r>   49.2050    0.0000 </r>
       <r>   49.4216    0.0000 </r>
       <r>   49.4744    0.0000 </r>
       <r>   49.9091    0.0000 </r>
       <r>   50.0110    0.0000 </r>
       <r>   50.0163    0.0000 </r>
       <r>   50.0237    0.0000 </r>
       <r>   50.3216    0.0000 </r>
       <r>   50.4912    0.0000 </r>
       <r>   50.7075    0.0000 </r>
       <r>   50.9413    0.0000 </r>
       <r>   51.1774    0.0000 </r>
       <r>   51.4010    0.0000 </r>
       <r>   51.4275    0.0000 </r>
       <r>   51.7283    0.0000 </r>
       <r>   51.9061    0.0000 </r>
       <r>   52.1448    0.0000 </r>
       <r>   52.1935    0.0000 </r>
       <r>   52.2059    0.0000 </r>
       <r>   52.3367    0.0000 </r>
       <r>   52.8108    0.0000 </r>
       <r>   52.8464    0.0000 </r>
       <r>   52.8583    0.0000 </r>
       <r>   53.2313    0.0000 </r>
       <r>   53.3892    0.0000 </r>
       <r>   53.6028    0.0000 </r>
       <r>   53.8192    0.0000 </r>
       <r>   54.1504    0.0000 </r>
       <r>   54.1964    0.0000 </r>
       <r>   54.2534    0.0000 </r>
       <r>   54.6405    0.0000 </r>
       <r>   54.7045    0.0000 </r>
       <r>   54.8967    0.0000 </r>
       <r>   55.5596    0.0000 </r>
       <r>   55.5953    0.0000 </r>
       <r>   55.6232    0.0000 </r>
       <r>   55.7245    0.0000 </r>
       <r>   55.7832    0.0000 </r>
       <r>   56.0551    0.0000 </r>
       <r>   56.2202    0.0000 </r>
       <r>   56.6941    0.0000 </r>
       <r>   56.7797    0.0000 </r>
       <r>   56.8429    0.0000 </r>
       <r>   56.9545    0.0000 </r>
       <r>   57.0374    0.0000 </r>
       <r>   57.0739    0.0000 </r>
       <r>   57.2597    0.0000 </r>
       <r>   57.2689    0.0000 </r>
       <r>   57.3143    0.0000 </r>
       <r>   57.5226    0.0000 </r>
       <r>   57.6238    0.0000 </r>
       <r>   57.6990    0.0000 </r>
       <r>   58.1801    0.0000 </r>
       <r>   58.3513    0.0000 </r>
       <r>   58.4951    0.0000 </r>
       <r>   58.9111    0.0000 </r>
       <r>   58.9616    0.0000 </r>
       <r>   59.0730    0.0000 </r>
       <r>   59.0905    0.0000 </r>
       <r>   59.2435    0.0000 </r>
       <r>   59.3175    0.0000 </r>
       <r>   59.3460    0.0000 </r>
       <r>   59.5267    0.0000 </r>
       <r>   59.8521    0.0000 </r>
       <r>   60.3769    0.0000 </r>
       <r>   60.4876    0.0000 </r>
       <r>   60.5735    0.0000 </r>
       <r>   60.6337    0.0000 </r>
       <r>   60.8215    0.0000 </r>
       <r>   61.0742    0.0000 </r>
       <r>   61.3795    0.0000 </r>
       <r>   61.4507    0.0000 </r>
       <r>   61.9936    0.0000 </r>
       <r>   62.0355    0.0000 </r>
       <r>   62.4073    0.0000 </r>
       <r>   62.7477    0.0000 </r>
       <r>   62.8774    0.0000 </r>
       <r>   62.9101    0.0000 </r>
       <r>   62.9686    0.0000 </r>
       <r>   63.0202    0.0000 </r>
       <r>   63.2591    0.0000 </r>
       <r>   63.4523    0.0000 </r>
       <r>   63.5608    0.0000 </r>
       <r>   63.8675    0.0000 </r>
       <r>   64.0999    0.0000 </r>
      </set>
      <set comment="kpoint 5">
       <r>  -18.1625    1.0000 </r>
       <r>  -15.8797    1.0000 </r>
       <r>  -15.0239    1.0000 </r>
       <r>  -12.7316    1.0000 </r>
       <r>  -11.1092    1.0000 </r>
       <r>   -9.5491    1.0000 </r>
       <r>   -8.0852    1.0000 </r>
       <r>   -8.0108    1.0000 </r>
       <r>   -6.7177    1.0000 </r>
       <r>   -6.5247    1.0000 </r>
       <r>   -4.9417    1.0000 </r>
       <r>   -4.6103    1.0000 </r>
       <r>   -4.3954    1.0000 </r>
       <r>   -3.3602    1.0000 </r>
       <r>   -3.3072    1.0000 </r>
       <r>   -1.6689    0.0000 </r>
       <r>    1.7888    0.0000 </r>
       <r>    2.5685    0.0000 </r>
       <r>    2.7430    0.0000 </r>
       <r>    4.2903    0.0000 </r>
       <r>    5.1738    0.0000 </r>
       <r>    5.3723    0.0000 </r>
       <r>    6.6300    0.0000 </r>
       <r>    6.9218    0.0000 </r>
       <r>    7.4317    0.0000 </r>
       <r>    7.5747    0.0000 </r>
       <r>    7.6596    0.0000 </r>
       <r>    8.1261    0.0000 </r>
       <r>    8.5825    0.0000 </r>
       <r>    8.5992    0.0000 </r>
       <r>    9.1056    0.0000 </r>
       <r>    9.1461    0.0000 </r>
       <r>    9.8097    0.0000 </r>
       <r>    9.9117    0.0000 </r>
       <r>   10.3942    0.0000 </r>
       <r>   11.3233    0.0000 </r>
       <r>   11.5760    0.0000 </r>
       <r>   12.0495    0.0000 </r>
       <r>   12.1462    0.0000 </r>
       <r>   12.1731    0.0000 </r>
       <r>   12.2810    0.0000 </r>
       <r>   13.0014    0.0000 </r>
       <r>   13.5155    0.0000 </r>
       <r>   14.2023    0.0000 </r>
       <r>   14.2919    0.0000 </r>
       <r>   14.6098    0.0000 </r>
       <r>   14.9235    0.0000 </r>
       <r>   15.3296    0.0000 </r>
       <r>   15.4034    0.0000 </r>
       <r>   15.7518    0.0000 </r>
       <r>   16.3012    0.0000 </r>
       <r>   16.5796    0.0000 </r>
       <r>   16.6247    0.0000 </r>
       <r>   17.1348    0.0000 </r>
       <r>   17.2323    0.0000 </r>
       <r>   17.6843    0.0000 </r>
       <r>   17.8094    0.0000 </r>
       <r>   18.4659    0.0000 </r>
       <r>   18.6258    0.0000 </r>
       <r>   18.8087    0.0000 </r>
       <r>   19.7113    0.0000 </r>
       <r>   19.9249    0.0000 </r>
       <r>   20.0480    0.0000 </r>
       <r>   20.0842    0.0000 </r>
       <r>   20.2596    0.0000 </r>
       <r>   20.3208    0.0000 </r>
       <r>   20.6361    0.0000 </r>
       <r>   20.9062    0.0000 </r>
       <r>   21.0103    0.0000 </r>
       <r>   21.2642    0.0000 </r>
       <r>   21.6925    0.0000 </r>
       <r>   21.7278    0.0000 </r>
       <r>   22.1547    0.0000 </r>
       <r>   22.4047    0.0000 </r>
       <r>   23.2560    0.0000 </r>
       <r>   23.2649    0.0000 </r>
       <r>   23.8377    0.0000 </r>
       <r>   24.1045    0.0000 </r>
       <r>   24.1943    0.0000 </r>
       <r>   24.8458    0.0000 </r>
       <r>   24.8595    0.0000 </r>
       <r>   24.9236    0.0000 </r>
       <r>   25.7790    0.0000 </r>
       <r>   26.0006    0.0000 </r>
       <r>   26.7166    0.0000 </r>
       <r>   26.7677    0.0000 </r>
       <r>   26.8194    0.0000 </r>
       <r>   26.9807    0.0000 </r>
       <r>   27.2670    0.0000 </r>
       <r>   27.2937    0.0000 </r>
       <r>   27.3826    0.0000 </r>
       <r>   27.6980    0.0000 </r>
       <r>   28.1237    0.0000 </r>
       <r>   28.1329    0.0000 </r>
       <r>   28.5291    0.0000 </r>
       <r>   28.6794    0.0000 </r>
       <r>   29.2568    0.0000 </r>
       <r>   29.4999    0.0000 </r>
       <r>   29.8863    0.0000 </r>
       <r>   30.1178    0.0000 </r>
       <r>   30.2741    0.0000 </r>
       <r>   30.5257    0.0000 </r>
       <r>   30.8992    0.0000 </r>
       <r>   30.9636    0.0000 </r>
       <r>   31.0432    0.0000 </r>
       <r>   31.0750    0.0000 </r>
       <r>   31.7420    0.0000 </r>
       <r>   32.0779    0.0000 </r>
       <r>   32.1846    0.0000 </r>
       <r>   32.2946    0.0000 </r>
       <r>   32.4570    0.0000 </r>
       <r>   32.6305    0.0000 </r>
       <r>   33.0404    0.0000 </r>
       <r>   33.0521    0.0000 </r>
       <r>   33.9218    0.0000 </r>
       <r>   34.7892    0.0000 </r>
       <r>   34.8274    0.0000 </r>
       <r>   35.0880    0.0000 </r>
       <r>   35.2388    0.0000 </r>
       <r>   35.4682    0.0000 </r>
       <r>   35.5684    0.0000 </r>
       <r>   35.6783    0.0000 </r>
       <r>   36.0039    0.0000 </r>
       <r>   36.1773    0.0000 </r>
       <r>   36.7865    0.0000 </r>
       <r>   36.9575    0.0000 </r>
       <r>   37.0661    0.0000 </r>
       <r>   37.1216    0.0000 </r>
       <r>   37.7787    0.0000 </r>
       <r>   37.8099    0.0000 </r>
       <r>   38.0417    0.0000 </r>
       <r>   38.2040    0.0000 </r>
       <r>   38.5480    0.0000 </r>
       <r>   38.7291    0.0000 </r>
       <r>   38.8050    0.0000 </r>
       <r>   38.9357    0.0000 </r>
       <r>   39.0387    0.0000 </r>
       <r>   39.1935    0.0000 </r>
       <r>   39.6691    0.0000 </r>
       <r>   40.0621    0.0000 </r>
       <r>   40.3005    0.0000 </r>
       <r>   40.3501    0.0000 </r>
       <r>   40.6077    0.0000 </r>
       <r>   40.6511    0.0000 </r>
       <r>   40.7527    0.0000 </r>
       <r>   40.8179    0.0000 </r>
       <r>   40.9890    0.0000 </r>
       <r>   41.4842    0.0000 </r>
       <r>   41.4976    0.0000 </r>
       <r>   41.5840    0.0000 </r>
       <r>   41.8153    0.0000 </r>
       <r>   41.8484    0.0000 </r>
       <r>   41.9819    0.0000 </r>
       <r>   42.2135    0.0000 </r>
       <r>   42.2646    0.0000 </r>
       <r>   43.0424    0.0000 </r>
       <r>   43.0575    0.0000 </r>
       <r>   43.6263    0.0000 </r>
       <r>   44.0351    0.0000 </r>
       <r>   44.8254    0.0000 </r>
       <r>   44.9233    0.0000 </r>
       <r>   44.9617    0.0000 </r>
       <r>   45.0181    0.0000 </r>
       <r>   45.0418    0.0000 </r>
       <r>   45.1302    0.0000 </r>
       <r>   45.1441    0.0000 </r>
       <r>   45.3294    0.0000 </r>
       <r>   45.3355    0.0000 </r>
       <r>   45.3626    0.0000 </r>
       <r>   45.8616    0.0000 </r>
       <r>   45.8627    0.0000 </r>
       <r>   45.9826    0.0000 </r>
       <r>   46.0779    0.0000 </r>
       <r>   47.1157    0.0000 </r>
       <r>   47.1433    0.0000 </r>
       <r>   47.1649    0.0000 </r>
       <r>   47.2506    0.0000 </r>
       <r>   47.3324    0.0000 </r>
       <r>   47.6477    0.0000 </r>
       <r>   48.5672    0.0000 </r>
       <r>   48.6689    0.0000 </r>
       <r>   48.7151    0.0000 </r>
       <r>   48.7602    0.0000 </r>
       <r>   48.8159    0.0000 </r>
       <r>   49.7005    0.0000 </r>
       <r>   49.7843    0.0000 </r>
       <r>   50.3424    0.0000 </r>
       <r>   50.3820    0.0000 </r>
       <r>   50.7541    0.0000 </r>
       <r>   50.8006    0.0000 </r>
       <r>   50.8601    0.0000 </r>
       <r>   51.1444    0.0000 </r>
       <r>   51.3154    0.0000 </r>
       <r>   51.3413    0.0000 </r>
       <r>   51.3652    0.0000 </r>
       <r>   51.6235    0.0000 </r>
       <r>   51.8502    0.0000 </r>
       <r>   51.9126    0.0000 </r>
       <r>   51.9725    0.0000 </r>
       <r>   52.3783    0.0000 </r>
       <r>   52.5818    0.0000 </r>
       <r>   52.6231    0.0000 </r>
       <r>   53.2494    0.0000 </r>
       <r>   53.3211    0.0000 </r>
       <r>   53.6369    0.0000 </r>
       <r>   53.7790    0.0000 </r>
       <r>   54.3841    0.0000 </r>
       <r>   54.5918    0.0000 </r>
       <r>   54.6517    0.0000 </r>
       <r>   54.7303    0.0000 </r>
       <r>   54.8948    0.0000 </r>
       <r>   55.1598    0.0000 </r>
       <r>   55.5169    0.0000 </r>
       <r>   55.5954    0.0000 </r>
       <r>   55.6189    0.0000 </r>
       <r>   55.6474    0.0000 </r>
       <r>   55.7138    0.0000 </r>
       <r>   55.7918    0.0000 </r>
       <r>   55.8562    0.0000 </r>
       <r>   56.0247    0.0000 </r>
       <r>   56.3894    0.0000 </r>
       <r>   56.5112    0.0000 </r>
       <r>   56.5852    0.0000 </r>
       <r>   56.6186    0.0000 </r>
       <r>   56.7814    0.0000 </r>
       <r>   57.3318    0.0000 </r>
       <r>   57.4465    0.0000 </r>
       <r>   57.6189    0.0000 </r>
       <r>   57.8269    0.0000 </r>
       <r>   57.8636    0.0000 </r>
       <r>   57.8928    0.0000 </r>
       <r>   58.0444    0.0000 </r>
       <r>   58.0530    0.0000 </r>
       <r>   58.3020    0.0000 </r>
       <r>   58.3125    0.0000 </r>
       <r>   58.7751    0.0000 </r>
       <r>   58.9327    0.0000 </r>
       <r>   59.1324    0.0000 </r>
       <r>   59.3069    0.0000 </r>
       <r>   59.4079    0.0000 </r>
       <r>   59.5553    0.0000 </r>
       <r>   60.0355    0.0000 </r>
       <r>   60.2827    0.0000 </r>
       <r>   60.3465    0.0000 </r>
       <r>   60.7767    0.0000 </r>
       <r>   60.7816    0.0000 </r>
       <r>   60.9023    0.0000 </r>
       <r>   61.1990    0.0000 </r>
       <r>   61.3819    0.0000 </r>
       <r>   61.6408    0.0000 </r>
       <r>   61.7534    0.0000 </r>
       <r>   61.7673    0.0000 </r>
       <r>   61.8911    0.0000 </r>
       <r>   62.1464    0.0000 </r>
       <r>   62.5449    0.0000 </r>
       <r>   62.5960    0.0000 </r>
       <r>   62.6771    0.0000 </r>
       <r>   62.7024    0.0000 </r>
       <r>   63.6389    0.0000 </r>
       <r>   63.7459    0.0000 </r>
       <r>   63.8410    0.0000 </r>
       <r>   64.4390    0.0000 </r>
       <r>   64.6614    0.0000 </r>
       <r>   64.7405    0.0000 </r>
      </set>
      <set comment="kpoint 6">
       <r>  -18.0272    1.0000 </r>
       <r>  -16.1629    1.0000 </r>
       <r>  -15.0939    1.0000 </r>
       <r>  -12.8160    1.0000 </r>
       <r>  -10.7080    1.0000 </r>
       <r>   -8.9042    1.0000 </r>
       <r>   -8.4816    1.0000 </r>
       <r>   -7.5745    1.0000 </r>
       <r>   -6.7929    1.0000 </r>
       <r>   -6.4253    1.0000 </r>
       <r>   -5.2343    1.0000 </r>
       <r>   -5.0733    1.0000 </r>
       <r>   -4.8255    1.0000 </r>
       <r>   -3.5685    1.0000 </r>
       <r>   -3.4063    1.0000 </r>
       <r>   -1.7847    0.0000 </r>
       <r>    1.9692    0.0000 </r>
       <r>    2.8120    0.0000 </r>
       <r>    3.2016    0.0000 </r>
       <r>    4.4184    0.0000 </r>
       <r>    5.2007    0.0000 </r>
       <r>    5.8937    0.0000 </r>
       <r>    6.7443    0.0000 </r>
       <r>    6.7975    0.0000 </r>
       <r>    7.1991    0.0000 </r>
       <r>    7.4335    0.0000 </r>
       <r>    7.5840    0.0000 </r>
       <r>    7.7340    0.0000 </r>
       <r>    8.0166    0.0000 </r>
       <r>    8.6500    0.0000 </r>
       <r>    8.8572    0.0000 </r>
       <r>    9.5160    0.0000 </r>
       <r>    9.5495    0.0000 </r>
       <r>   10.6449    0.0000 </r>
       <r>   11.2326    0.0000 </r>
       <r>   11.2992    0.0000 </r>
       <r>   11.6977    0.0000 </r>
       <r>   11.9222    0.0000 </r>
       <r>   12.1340    0.0000 </r>
       <r>   12.1610    0.0000 </r>
       <r>   12.5332    0.0000 </r>
       <r>   13.4739    0.0000 </r>
       <r>   13.8226    0.0000 </r>
       <r>   13.9784    0.0000 </r>
       <r>   14.4402    0.0000 </r>
       <r>   14.5157    0.0000 </r>
       <r>   14.5333    0.0000 </r>
       <r>   14.8859    0.0000 </r>
       <r>   16.0731    0.0000 </r>
       <r>   16.2936    0.0000 </r>
       <r>   16.3614    0.0000 </r>
       <r>   16.4705    0.0000 </r>
       <r>   16.8056    0.0000 </r>
       <r>   17.2299    0.0000 </r>
       <r>   17.4944    0.0000 </r>
       <r>   17.5993    0.0000 </r>
       <r>   17.8535    0.0000 </r>
       <r>   18.0816    0.0000 </r>
       <r>   18.1855    0.0000 </r>
       <r>   18.3931    0.0000 </r>
       <r>   19.2319    0.0000 </r>
       <r>   19.3262    0.0000 </r>
       <r>   19.9117    0.0000 </r>
       <r>   20.0815    0.0000 </r>
       <r>   20.1586    0.0000 </r>
       <r>   20.3208    0.0000 </r>
       <r>   20.3607    0.0000 </r>
       <r>   20.5816    0.0000 </r>
       <r>   20.6691    0.0000 </r>
       <r>   21.2355    0.0000 </r>
       <r>   21.4672    0.0000 </r>
       <r>   21.5752    0.0000 </r>
       <r>   21.6759    0.0000 </r>
       <r>   21.7734    0.0000 </r>
       <r>   22.9441    0.0000 </r>
       <r>   23.6443    0.0000 </r>
       <r>   23.8383    0.0000 </r>
       <r>   23.8481    0.0000 </r>
       <r>   24.0304    0.0000 </r>
       <r>   24.4372    0.0000 </r>
       <r>   24.6008    0.0000 </r>
       <r>   25.2913    0.0000 </r>
       <r>   25.6794    0.0000 </r>
       <r>   26.4236    0.0000 </r>
       <r>   26.4270    0.0000 </r>
       <r>   26.4999    0.0000 </r>
       <r>   27.1312    0.0000 </r>
       <r>   27.3482    0.0000 </r>
       <r>   27.4076    0.0000 </r>
       <r>   27.4819    0.0000 </r>
       <r>   27.6466    0.0000 </r>
       <r>   27.9119    0.0000 </r>
       <r>   28.0444    0.0000 </r>
       <r>   28.0530    0.0000 </r>
       <r>   29.0204    0.0000 </r>
       <r>   29.1305    0.0000 </r>
       <r>   29.5580    0.0000 </r>
       <r>   29.6028    0.0000 </r>
       <r>   29.6518    0.0000 </r>
       <r>   29.8219    0.0000 </r>
       <r>   30.2210    0.0000 </r>
       <r>   30.3000    0.0000 </r>
       <r>   30.3297    0.0000 </r>
       <r>   30.6964    0.0000 </r>
       <r>   31.0138    0.0000 </r>
       <r>   31.2065    0.0000 </r>
       <r>   31.3579    0.0000 </r>
       <r>   31.6073    0.0000 </r>
       <r>   31.7101    0.0000 </r>
       <r>   32.2821    0.0000 </r>
       <r>   32.3508    0.0000 </r>
       <r>   33.6159    0.0000 </r>
       <r>   33.7224    0.0000 </r>
       <r>   34.1765    0.0000 </r>
       <r>   34.3867    0.0000 </r>
       <r>   34.5317    0.0000 </r>
       <r>   34.5825    0.0000 </r>
       <r>   34.6123    0.0000 </r>
       <r>   34.9067    0.0000 </r>
       <r>   35.2682    0.0000 </r>
       <r>   35.5431    0.0000 </r>
       <r>   36.3325    0.0000 </r>
       <r>   37.4780    0.0000 </r>
       <r>   37.5085    0.0000 </r>
       <r>   37.6507    0.0000 </r>
       <r>   37.6847    0.0000 </r>
       <r>   37.7428    0.0000 </r>
       <r>   37.8106    0.0000 </r>
       <r>   37.9395    0.0000 </r>
       <r>   38.4678    0.0000 </r>
       <r>   38.4988    0.0000 </r>
       <r>   38.7099    0.0000 </r>
       <r>   38.9982    0.0000 </r>
       <r>   39.0633    0.0000 </r>
       <r>   39.2265    0.0000 </r>
       <r>   39.3989    0.0000 </r>
       <r>   39.4787    0.0000 </r>
       <r>   39.6422    0.0000 </r>
       <r>   39.6754    0.0000 </r>
       <r>   39.9261    0.0000 </r>
       <r>   39.9653    0.0000 </r>
       <r>   40.0463    0.0000 </r>
       <r>   40.4955    0.0000 </r>
       <r>   40.5139    0.0000 </r>
       <r>   40.9819    0.0000 </r>
       <r>   41.0215    0.0000 </r>
       <r>   41.2677    0.0000 </r>
[...]
       <r>    54.8870    11.6088   426.1404 </r>
       <r>    54.9255     5.8726   426.3664 </r>
       <r>    54.9640     5.0323   426.5600 </r>
       <r>    55.0025     5.5353   426.7731 </r>
       <r>    55.0410    12.8601   427.2680 </r>
       <r>    55.0794     9.5635   427.6360 </r>
       <r>    55.1179     2.5977   427.7360 </r>
       <r>    55.1564    12.8001   428.2286 </r>
       <r>    55.1949     3.4430   428.3611 </r>
       <r>    55.2334     0.9129   428.3962 </r>
       <r>    55.2719     2.5866   428.4958 </r>
       <r>    55.3104     5.1589   428.6943 </r>
       <r>    55.3488     8.8896   429.0364 </r>
       <r>    55.3873    10.0976   429.4250 </r>
       <r>    55.4258     9.7334   429.7996 </r>
       <r>    55.4643     8.2485   430.1171 </r>
       <r>    55.5028    11.5230   430.5605 </r>
       <r>    55.5413    16.8214   431.2079 </r>
       <r>    55.5797    11.3982   431.6466 </r>
       <r>    55.6182    18.0793   432.3423 </r>
       <r>    55.6567    10.2971   432.7386 </r>
       <r>    55.6952    21.8754   433.5805 </r>
       <r>    55.7337    15.1623   434.1640 </r>
       <r>    55.7722     9.7824   434.5405 </r>
       <r>    55.8107    10.4997   434.9446 </r>
       <r>    55.8491    18.4781   435.6557 </r>
       <r>    55.8876    11.1704   436.0856 </r>
       <r>    55.9261     8.7404   436.4220 </r>
       <r>    55.9646     2.7154   436.5265 </r>
       <r>    56.0031    13.4332   437.0434 </r>
       <r>    56.0416    13.8714   437.5773 </r>
       <r>    56.0801     4.4877   437.7500 </r>
       <r>    56.1185     0.0515   437.7520 </r>
       <r>    56.1570     3.3743   437.8818 </r>
       <r>    56.1955    10.4154   438.2827 </r>
       <r>    56.2340    14.0907   438.8249 </r>
       <r>    56.2725     5.6485   439.0423 </r>
       <r>    56.3110     6.1473   439.2789 </r>
       <r>    56.3494    14.8102   439.8489 </r>
       <r>    56.3879     5.6833   440.0676 </r>
       <r>    56.4264    12.3083   440.5413 </r>
       <r>    56.4649    24.7679   441.4945 </r>
       <r>    56.5034    12.3496   441.9697 </r>
       <r>    56.5419    18.5474   442.6835 </r>
       <r>    56.5804    15.9823   443.2986 </r>
       <r>    56.6188     8.2600   443.6165 </r>
       <r>    56.6573     8.6383   443.9489 </r>
       <r>    56.6958    15.1163   444.5307 </r>
       <r>    56.7343    23.4523   445.4332 </r>
       <r>    56.7728     9.0450   445.7813 </r>
       <r>    56.8113    20.0894   446.5545 </r>
       <r>    56.8497     9.9799   446.9385 </r>
       <r>    56.8882     8.9096   447.2814 </r>
       <r>    56.9267     9.0033   447.6279 </r>
       <r>    56.9652     4.7505   447.8107 </r>
       <r>    57.0037    14.5962   448.3725 </r>
       <r>    57.0422    19.6688   449.1294 </r>
       <r>    57.0807     6.7366   449.3887 </r>
       <r>    57.1191     9.7779   449.7650 </r>
       <r>    57.1576    12.3599   450.2407 </r>
       <r>    57.1961    12.0538   450.7045 </r>
       <r>    57.2346    15.2106   451.2899 </r>
       <r>    57.2731    30.3770   452.4590 </r>
       <r>    57.3116     9.5578   452.8268 </r>
       <r>    57.3501    13.2440   453.3365 </r>
       <r>    57.3885     1.3030   453.3866 </r>
       <r>    57.4270     3.1072   453.5062 </r>
       <r>    57.4655    14.5673   454.0668 </r>
       <r>    57.5040     8.0728   454.3775 </r>
       <r>    57.5425    11.3305   454.8136 </r>
       <r>    57.5810    11.3667   455.2510 </r>
       <r>    57.6194     6.2330   455.4909 </r>
       <r>    57.6579    18.2294   456.1925 </r>
       <r>    57.6964    12.5767   456.6765 </r>
       <r>    57.7349    14.1221   457.2200 </r>
       <r>    57.7734     4.7318   457.4021 </r>
       <r>    57.8119     8.2186   457.7184 </r>
       <r>    57.8504    20.5052   458.5075 </r>
       <r>    57.8888    14.0669   459.0489 </r>
       <r>    57.9273    19.0120   459.7805 </r>
       <r>    57.9658    12.2389   460.2515 </r>
       <r>    58.0043     8.0902   460.5629 </r>
       <r>    58.0428    12.7770   461.0546 </r>
       <r>    58.0813    12.2041   461.5243 </r>
       <r>    58.1197    12.5908   462.0088 </r>
       <r>    58.1582    10.9657   462.4309 </r>
       <r>    58.1967     7.3609   462.7141 </r>
       <r>    58.2352    11.3009   463.1491 </r>
       <r>    58.2737    10.7731   463.5637 </r>
       <r>    58.3122     7.1207   463.8377 </r>
       <r>    58.3507     7.7775   464.1370 </r>
       <r>    58.3891    19.4474   464.8854 </r>
       <r>    58.4276    15.7247   465.4906 </r>
       <r>    58.4661     8.1082   465.8026 </r>
       <r>    58.5046     7.9341   466.1080 </r>
       <r>    58.5431     7.4766   466.3957 </r>
       <r>    58.5816    10.3358   466.7935 </r>
       <r>    58.6201    10.3392   467.1914 </r>
       <r>    58.6585     1.6338   467.2543 </r>
       <r>    58.6970    12.6703   467.7419 </r>
       <r>    58.7355     8.8156   468.0812 </r>
       <r>    58.7740     7.3206   468.3629 </r>
       <r>    58.8125     4.0609   468.5192 </r>
       <r>    58.8510     1.3407   468.5708 </r>
       <r>    58.8894     9.1748   468.9239 </r>
       <r>    58.9279     6.7820   469.1849 </r>
       <r>    58.9664    13.6607   469.7106 </r>
       <r>    59.0049    17.5747   470.3869 </r>
       <r>    59.0434     3.1812   470.5094 </r>
       <r>    59.0819    12.5453   470.9922 </r>
       <r>    59.1204    12.9081   471.4889 </r>
       <r>    59.1588     4.1703   471.6494 </r>
       <r>    59.1973     7.6021   471.9420 </r>
       <r>    59.2358    17.0366   472.5977 </r>
       <r>    59.2743    22.1977   473.4519 </r>
       <r>    59.3128     8.2717   473.7703 </r>
       <r>    59.3513    10.6709   474.1809 </r>
       <r>    59.3897     5.8118   474.4046 </r>
       <r>    59.4282    11.3042   474.8396 </r>
       <r>    59.4667    16.6586   475.4807 </r>
       <r>    59.5052     9.3513   475.8406 </r>
       <r>    59.5437    20.8935   476.6447 </r>
       <r>    59.5822     6.4478   476.8929 </r>
       <r>    59.6207     4.1510   477.0526 </r>
       <r>    59.6591     5.2378   477.2542 </r>
       <r>    59.6976     9.6883   477.6270 </r>
       <r>    59.7361     7.5125   477.9162 </r>
       <r>    59.7746     8.3824   478.2388 </r>
       <r>    59.8131    10.4595   478.6413 </r>
       <r>    59.8516     7.0408   478.9122 </r>
       <r>    59.8901     3.7060   479.0549 </r>
       <r>    59.9285    23.3435   479.9532 </r>
       <r>    59.9670    12.2102   480.4232 </r>
       <r>    60.0055     5.6512   480.6406 </r>
       <r>    60.0440    16.8310   481.2884 </r>
       <r>    60.0825     7.6210   481.5817 </r>
       <r>    60.1210    16.1536   482.2033 </r>
       <r>    60.1594    16.8075   482.8502 </r>
       <r>    60.1979     7.4238   483.1359 </r>
       <r>    60.2364     4.1444   483.2954 </r>
       <r>    60.2749    11.3427   483.7319 </r>
       <r>    60.3134    20.5097   484.5212 </r>
       <r>    60.3519    11.8516   484.9773 </r>
       <r>    60.3904    15.6124   485.5782 </r>
       <r>    60.4288     4.8511   485.7649 </r>
       <r>    60.4673    15.2896   486.3533 </r>
       <r>    60.5058    11.9823   486.8144 </r>
       <r>    60.5443    11.1759   487.2445 </r>
       <r>    60.5828    15.2791   487.8325 </r>
       <r>    60.6213    14.0318   488.3725 </r>
       <r>    60.6597     4.5766   488.5487 </r>
       <r>    60.6982     7.3055   488.8298 </r>
       <r>    60.7367    17.2354   489.4931 </r>
       <r>    60.7752    17.4766   490.1657 </r>
       <r>    60.8137     7.6681   490.4608 </r>
       <r>    60.8522    17.2563   491.1249 </r>
       <r>    60.8907     5.7107   491.3447 </r>
       <r>    60.9291    17.6106   492.0224 </r>
       <r>    60.9676    14.0429   492.5629 </r>
       <r>    61.0061     3.1806   492.6853 </r>
       <r>    61.0446     6.2246   492.9248 </r>
       <r>    61.0831     6.0918   493.1593 </r>
       <r>    61.1216     4.6579   493.3385 </r>
       <r>    61.1601     5.8906   493.5652 </r>
       <r>    61.1985    15.8112   494.1737 </r>
       <r>    61.2370     5.7889   494.3965 </r>
       <r>    61.2755    10.3690   494.7956 </r>
       <r>    61.3140     8.0814   495.1066 </r>
       <r>    61.3525    15.0444   495.6855 </r>
       <r>    61.3910    15.3221   496.2752 </r>
       <r>    61.4294    11.6408   496.7232 </r>
       <r>    61.4679    12.2564   497.1949 </r>
       <r>    61.5064     9.9704   497.5786 </r>
       <r>    61.5449     5.5427   497.7919 </r>
       <r>    61.5834     9.8787   498.1721 </r>
       <r>    61.6219    10.9510   498.5935 </r>
       <r>    61.6604    18.3627   499.3002 </r>
       <r>    61.6988    12.3375   499.7750 </r>
       <r>    61.7373     3.1615   499.8967 </r>
       <r>    61.7758    14.6402   500.4601 </r>
       <r>    61.8143     8.8421   500.8004 </r>
       <r>    61.8528     4.0141   500.9549 </r>
       <r>    61.8913    15.7910   501.5626 </r>
       <r>    61.9297     5.5653   501.7768 </r>
       <r>    61.9682     3.5072   501.9118 </r>
       <r>    62.0067    19.1975   502.6506 </r>
       <r>    62.0452    12.4891   503.1312 </r>
       <r>    62.0837    13.5437   503.6524 </r>
       <r>    62.1222    10.6392   504.0619 </r>
       <r>    62.1607    15.8265   504.6710 </r>
       <r>    62.1991     7.6673   504.9660 </r>
       <r>    62.2376     9.3795   505.3270 </r>
       <r>    62.2761    12.7865   505.8191 </r>
       <r>    62.3146    15.6545   506.4216 </r>
       <r>    62.3531     6.9465   506.6889 </r>
       <r>    62.3916     7.6217   506.9822 </r>
       <r>    62.4301    10.5803   507.3894 </r>
       <r>    62.4685     4.2525   507.5531 </r>
       <r>    62.5070     8.1761   507.8677 </r>
       <r>    62.5455    17.8542   508.5548 </r>
       <r>    62.5840    18.7735   509.2773 </r>
       <r>    62.6225    18.3453   509.9833 </r>
       <r>    62.6610     6.4870   510.2330 </r>
       <r>    62.6994    12.0209   510.6956 </r>
       <r>    62.7379     8.7123   511.0309 </r>
       <r>    62.7764    10.8694   511.4492 </r>
       <r>    62.8149     3.6483   511.5896 </r>
       <r>    62.8534     7.7801   511.8890 </r>
       <r>    62.8919     7.5337   512.1790 </r>
       <r>    62.9304     8.4958   512.5059 </r>
       <r>    62.9688     4.9237   512.6954 </r>
       <r>    63.0073     7.6525   512.9899 </r>
       <r>    63.0458    10.6997   513.4017 </r>
       <r>    63.0843     9.2782   513.7588 </r>
       <r>    63.1228     9.0290   514.1062 </r>
       <r>    63.1613    13.3963   514.6218 </r>
       <r>    63.1997    17.0732   515.2789 </r>
       <r>    63.2382    12.3171   515.7529 </r>
       <r>    63.2767     8.0813   516.0639 </r>
       <r>    63.3152    17.3895   516.7331 </r>
       <r>    63.3537    15.5551   517.3318 </r>
       <r>    63.3922     7.9111   517.6362 </r>
       <r>    63.4307     0.8030   517.6671 </r>
       <r>    63.4691    10.8935   518.0864 </r>
       <r>    63.5076    12.5244   518.5684 </r>
       <r>    63.5461    13.1292   519.0736 </r>
       <r>    63.5846     8.9126   519.4166 </r>
       <r>    63.6231     0.0293   519.4178 </r>
       <r>    63.6616     6.4416   519.6657 </r>
       <r>    63.7001     9.8765   520.0458 </r>
       <r>    63.7385    12.5665   520.5294 </r>
       <r>    63.7770     4.2895   520.6945 </r>
       <r>    63.8155     3.0087   520.8102 </r>
       <r>    63.8540    13.9508   521.3471 </r>
       <r>    63.8925     8.3436   521.6682 </r>
       <r>    63.9310     6.7841   521.9293 </r>
       <r>    63.9694     6.5539   522.1816 </r>
       <r>    64.0079     2.6076   522.2819 </r>
       <r>    64.0464     2.7836   522.3890 </r>
       <r>    64.0849     5.6466   522.6063 </r>
       <r>    64.1234    17.3738   523.2750 </r>
       <r>    64.1619     6.3796   523.5205 </r>
       <r>    64.2004    11.0954   523.9475 </r>
       <r>    64.2388    10.7025   524.3594 </r>
       <r>    64.2773    17.1604   525.0198 </r>
       <r>    64.3158     8.2993   525.3392 </r>
       <r>    64.3543     3.5129   525.4744 </r>
       <r>    64.3928     8.5965   525.8052 </r>
       <r>    64.4313     2.5909   525.9049 </r>
       <r>    64.4697     8.2278   526.2216 </r>
       <r>    64.5082     3.2980   526.3485 </r>
       <r>    64.5467     9.9429   526.7311 </r>
       <r>    64.5852     7.9578   527.0374 </r>
       <r>    64.6237     0.6144   527.0610 </r>
       <r>    64.6622     7.3473   527.3438 </r>
       <r>    64.7007     3.2308   527.4681 </r>
       <r>    64.7391     7.2744   527.7481 </r>
       <r>    64.7776     5.8135   527.9718 </r>
       <r>    64.8161     0.0104   527.9722 </r>
       <r>    64.8546     0.0000   527.9722 </r>
       <r>    64.8931     0.0000   527.9722 </r>
       <r>    64.9316     0.0000   527.9722 </r>
       <r>    64.9701     0.0000   527.9722 </r>
       <r>    65.0085     0.0000   527.9722 </r>
       <r>    65.0470     0.0000   527.9722 </r>
       <r>    65.0855     0.0000   527.9722 </r>
       <r>    65.1240     0.0000   527.9722 </r>
       <r>    65.1625     0.0000   527.9722 </r>
       <r>    65.2010     0.0000   527.9722 </r>
       <r>    65.2394     0.0000   527.9722 </r>
       <r>    65.2779     0.0000   527.9722 </r>
       <r>    65.3164     0.0000   527.9722 </r>
       <r>    65.3549     0.0000   527.9722 </r>
       <r>    65.3934     0.4315   527.9888 </r>
       <r>    65.4319     0.2903   528.0000 </r>
       <r>    65.4704     0.0000   528.0000 </r>
       <r>    65.5088     0.0000   528.0000 </r>
       <r>    65.5473     0.0000   528.0000 </r>
       <r>    65.5858     0.0000   528.0000 </r>
       <r>    65.6243     0.0000   528.0000 </r>
       <r>    65.6628     0.0000   528.0000 </r>
       <r>    65.7013     0.0000   528.0000 </r>
       <r>    65.7397     0.0000   528.0000 </r>
       <r>    65.7782     0.0000   528.0000 </r>
       <r>    65.8167     0.0000   528.0000 </r>
       <r>    65.8552     0.0000   528.0000 </r>
       <r>    65.8937     0.0000   528.0000 </r>
       <r>    65.9322     0.0000   528.0000 </r>
       <r>    65.9707     0.0000   528.0000 </r>
       <r>    66.0091     0.0000   528.0000 </r>
       <r>    66.0476     0.0000   528.0000 </r>
       <r>    66.0861     0.0000   528.0000 </r>
       <r>    66.1246     0.0000   528.0000 </r>
       <r>    66.1631     0.0000   528.0000 </r>
       <r>    66.2016     0.0000   528.0000 </r>
       <r>    66.2401     0.0000   528.0000 </r>
       <r>    66.2785     0.0000   528.0000 </r>
       <r>    66.3170     0.0000   528.0000 </r>
       <r>    66.3555     0.0000   528.0000 </r>
       <r>    66.3940     0.0000   528.0000 </r>
       <r>    66.4325     0.0000   528.0000 </r>
       <r>    66.4710     0.0000   528.0000 </r>
       <r>    66.5094     0.0000   528.0000 </r>
       <r>    66.5479     0.0000   528.0000 </r>
       <r>    66.5864     0.0000   528.0000 </r>
       <r>    66.6249     0.0000   528.0000 </r>
       <r>    66.6634     0.0000   528.0000 </r>
       <r>    66.7019     0.0000   528.0000 </r>
       <r>    66.7404     0.0000   528.0000 </r>
       <r>    66.7788     0.0000   528.0000 </r>
       <r>    66.8173     0.0000   528.0000 </r>
       <r>    66.8558     0.0000   528.0000 </r>
       <r>    66.8943     0.0000   528.0000 </r>
       <r>    66.9328     0.0000   528.0000 </r>
       <r>    66.9713     0.0000   528.0000 </r>
       <r>    67.0097     0.0000   528.0000 </r>
       <r>    67.0482     0.0000   528.0000 </r>
       <r>    67.0867     0.0000   528.0000 </r>
       <r>    67.1252     0.0000   528.0000 </r>
       <r>    67.1637     0.0000   528.0000 </r>
       <r>    67.2022     0.0000   528.0000 </r>
       <r>    67.2407     0.0000   528.0000 </r>
       <r>    67.2791     0.0000   528.0000 </r>
       <r>    67.3176     0.0000   528.0000 </r>
       <r>    67.3561     0.0000   528.0000 </r>
       <r>    67.3946     0.0000   528.0000 </r>
       <r>    67.4331     0.0000   528.0000 </r>
       <r>    67.4716     0.0000   528.0000 </r>
       <r>    67.5101     0.0000   528.0000 </r>
       <r>    67.5485     0.0000   528.0000 </r>
       <r>    67.5870     0.0000   528.0000 </r>
       <r>    67.6255     0.0000   528.0000 </r>
       <r>    67.6640     0.0000   528.0000 </r>
       <r>    67.7025     0.0000   528.0000 </r>
       <r>    67.7410     0.0000   528.0000 </r>
       <r>    67.7794     0.0000   528.0000 </r>
       <r>    67.8179     0.0000   528.0000 </r>
       <r>    67.8564     0.0000   528.0000 </r>
       <r>    67.8949     0.0000   528.0000 </r>
       <r>    67.9334     0.0000   528.0000 </r>
       <r>    67.9719     0.0000   528.0000 </r>
       <r>    68.0104     0.0000   528.0000 </r>
       <r>    68.0488     0.0000   528.0000 </r>
       <r>    68.0873     0.0000   528.0000 </r>
       <r>    68.1258     0.0000   528.0000 </r>
       <r>    68.1643     0.0000   528.0000 </r>
       <r>    68.2028     0.0000   528.0000 </r>
       <r>    68.2413     0.0000   528.0000 </r>
       <r>    68.2797     0.0000   528.0000 </r>
       <r>    68.3182     0.0000   528.0000 </r>
       <r>    68.3567     0.0000   528.0000 </r>
       <r>    68.3952     0.0000   528.0000 </r>
       <r>    68.4337     0.0000   528.0000 </r>
       <r>    68.4722     0.0000   528.0000 </r>
       <r>    68.5107     0.0000   528.0000 </r>
       <r>    68.5491     0.0000   528.0000 </r>
       <r>    68.5876     0.0000   528.0000 </r>
       <r>    68.6261     0.0000   528.0000 </r>
       <r>    68.6646     0.0000   528.0000 </r>
       <r>    68.7031     0.0000   528.0000 </r>
       <r>    68.7416     0.0000   528.0000 </r>
       <r>    68.7801     0.0000   528.0000 </r>
       <r>    68.8185     0.0000   528.0000 </r>
       <r>    68.8570     0.0000   528.0000 </r>
       <r>    68.8955     0.0000   528.0000 </r>
       <r>    68.9340     0.0000   528.0000 </r>
       <r>    68.9725     0.0000   528.0000 </r>
       <r>    69.0110     0.0000   528.0000 </r>
       <r>    69.0494     0.0000   528.0000 </r>
       <r>    69.0879     0.0000   528.0000 </r>
       <r>    69.1264     0.0000   528.0000 </r>
       <r>    69.1649     0.0000   528.0000 </r>
       <r>    69.2034     0.0000   528.0000 </r>
       <r>    69.2419     0.0000   528.0000 </r>
       <r>    69.2804     0.0000   528.0000 </r>
       <r>    69.3188     0.0000   528.0000 </r>
       <r>    69.3573     0.0000   528.0000 </r>
       <r>    69.3958     0.0000   528.0000 </r>
       <r>    69.4343     0.0000   528.0000 </r>
       <r>    69.4728     0.0000   528.0000 </r>
       <r>    69.5113     0.0000   528.0000 </r>
       <r>    69.5497     0.0000   528.0000 </r>
       <r>    69.5882     0.0000   528.0000 </r>
      </set>
     </set>
    </array>
   </total>
  </dos>
 </calculation>
 <structure name="finalpos" >
  <crystal>
   <varray name="basis" >
    <v>       4.48084843       2.58701885       0.00000000 </v>
    <v>      -4.48084843       2.58701885       0.00000000 </v>
    <v>       0.00000000       0.00000000       8.52022140 </v>
   </varray>
   <i name="volume">    197.53348383 </i>
   <varray name="rec_basis" >
    <v>       0.11158601       0.19327265       0.00000000 </v>
    <v>      -0.11158601       0.19327265       0.00000000 </v>
    <v>       0.00000000       0.00000000       0.11736784 </v>
   </varray>
  </crystal>
  <varray name="positions" >
   <v>       0.33333300       0.66666600       0.25000000 </v>
   <v>       0.66666600       0.33333300       0.25000000 </v>
   <v>       0.15869124       0.31738348       0.25000000 </v>
   <v>       0.31738348       0.15869124       0.25000000 </v>
   <v>       0.15869124       0.84130776       0.25000000 </v>
   <v>       0.84130776       0.15869124       0.25000000 </v>
   <v>       0.68261552       0.84130776       0.25000000 </v>
   <v>       0.84130776       0.68261552       0.25000000 </v>
  </varray>
 </structure>
</modeling>
