   8   8   0   0
  0.2469169E+02  0.5174038E-09  0.5174038E-09  0.8520222E-09  0.5000000E-15
  1.000000000000000E-004
  CAR 
 BC3-optical                             
     73.66498776    -22.93105924 2400     -2.39080977      1.00000000
    -22.931  0.0000E+00  0.0000E+00
    -22.891  0.0000E+00  0.0000E+00
    -22.851  0.0000E+00  0.0000E+00
    -22.810  0.0000E+00  0.0000E+00
    -22.770  0.0000E+00  0.0000E+00
    -22.730  0.0000E+00  0.0000E+00
    -22.689  0.0000E+00  0.0000E+00
    -22.649  0.0000E+00  0.0000E+00
    -22.609  0.0000E+00  0.0000E+00
    -22.569  0.0000E+00  0.0000E+00
    -22.528  0.0000E+00  0.0000E+00
    -22.488  0.0000E+00  0.0000E+00
    -22.448  0.0000E+00  0.0000E+00
    -22.408  0.0000E+00  0.0000E+00
    -22.367  0.0000E+00  0.0000E+00
    -22.327  0.0000E+00  0.0000E+00
    -22.287  0.0000E+00  0.0000E+00
    -22.247  0.0000E+00  0.0000E+00
    -22.206  0.0000E+00  0.0000E+00
    -22.166  0.0000E+00  0.0000E+00
    -22.126  0.0000E+00  0.0000E+00
    -22.085  0.0000E+00  0.0000E+00
    -22.045  0.0000E+00  0.0000E+00
    -22.005  0.0000E+00  0.0000E+00
    -21.965  0.0000E+00  0.0000E+00
    -21.924  0.0000E+00  0.0000E+00
    -21.884  0.0000E+00  0.0000E+00
    -21.844  0.0000E+00  0.0000E+00
    -21.804  0.0000E+00  0.0000E+00
    -21.763  0.0000E+00  0.0000E+00
    -21.723  0.0000E+00  0.0000E+00
    -21.683  0.0000E+00  0.0000E+00
    -21.643  0.0000E+00  0.0000E+00
    -21.602  0.0000E+00  0.0000E+00
    -21.562  0.0000E+00  0.0000E+00
    -21.522  0.0000E+00  0.0000E+00
    -21.482  0.0000E+00  0.0000E+00
    -21.441  0.0000E+00  0.0000E+00
    -21.401  0.0000E+00  0.0000E+00
    -21.361  0.0000E+00  0.0000E+00
    -21.320  0.0000E+00  0.0000E+00
    -21.280  0.0000E+00  0.0000E+00
    -21.240  0.0000E+00  0.0000E+00
    -21.200  0.0000E+00  0.0000E+00
    -21.159  0.0000E+00  0.0000E+00
    -21.119  0.0000E+00  0.0000E+00
    -21.079  0.0000E+00  0.0000E+00
    -21.039  0.0000E+00  0.0000E+00
    -20.998  0.0000E+00  0.0000E+00
    -20.958  0.0000E+00  0.0000E+00
    -20.918  0.0000E+00  0.0000E+00
    -20.878  0.0000E+00  0.0000E+00
    -20.837  0.0000E+00  0.0000E+00
    -20.797  0.0000E+00  0.0000E+00
    -20.757  0.0000E+00  0.0000E+00
    -20.716  0.0000E+00  0.0000E+00
    -20.676  0.0000E+00  0.0000E+00
    -20.636  0.0000E+00  0.0000E+00
    -20.596  0.0000E+00  0.0000E+00
    -20.555  0.0000E+00  0.0000E+00
    -20.515  0.0000E+00  0.0000E+00
    -20.475  0.0000E+00  0.0000E+00
    -20.435  0.0000E+00  0.0000E+00
    -20.394  0.0000E+00  0.0000E+00
    -20.354  0.0000E+00  0.0000E+00
    -20.314  0.0000E+00  0.0000E+00
    -20.274  0.0000E+00  0.0000E+00
    -20.233  0.0000E+00  0.0000E+00
    -20.193  0.0000E+00  0.0000E+00
    -20.153  0.0000E+00  0.0000E+00
    -20.113  0.0000E+00  0.0000E+00
    -20.072  0.0000E+00  0.0000E+00
    -20.032  0.0000E+00  0.0000E+00
    -19.992  0.0000E+00  0.0000E+00
    -19.951  0.0000E+00  0.0000E+00
    -19.911  0.0000E+00  0.0000E+00
    -19.871  0.0000E+00  0.0000E+00
    -19.831  0.0000E+00  0.0000E+00
    -19.790  0.0000E+00  0.0000E+00
    -19.750  0.0000E+00  0.0000E+00
    -19.710  0.0000E+00  0.0000E+00
    -19.670  0.0000E+00  0.0000E+00
    -19.629  0.0000E+00  0.0000E+00
    -19.589  0.0000E+00  0.0000E+00
    -19.549  0.0000E+00  0.0000E+00
    -19.509  0.0000E+00  0.0000E+00
    -19.468  0.0000E+00  0.0000E+00
    -19.428  0.0000E+00  0.0000E+00
    -19.388  0.0000E+00  0.0000E+00
    -19.347  0.0000E+00  0.0000E+00
    -19.307  0.0000E+00  0.0000E+00
    -19.267  0.0000E+00  0.0000E+00
    -19.227  0.0000E+00  0.0000E+00
    -19.186  0.0000E+00  0.0000E+00
    -19.146  0.0000E+00  0.0000E+00
    -19.106  0.0000E+00  0.0000E+00
    -19.066  0.0000E+00  0.0000E+00
    -19.025  0.0000E+00  0.0000E+00
    -18.985  0.0000E+00  0.0000E+00
    -18.945  0.0000E+00  0.0000E+00
    -18.905  0.0000E+00  0.0000E+00
    -18.864  0.0000E+00  0.0000E+00
    -18.824  0.0000E+00  0.0000E+00
    -18.784  0.0000E+00  0.0000E+00
    -18.743  0.0000E+00  0.0000E+00
    -18.703  0.0000E+00  0.0000E+00
    -18.663  0.0000E+00  0.0000E+00
    -18.623  0.0000E+00  0.0000E+00
    -18.582  0.4535E-09  0.1826E-10
    -18.542  0.1373E+00  0.5528E-02
    -18.502  0.2164E+01  0.9267E-01
    -18.462  0.9702E+00  0.1317E+00
    -18.421  0.3209E+01  0.2609E+00
    -18.381  0.7636E-01  0.2640E+00
    -18.341  0.4112E+01  0.4296E+00
    -18.301  0.1952E+01  0.5082E+00
    -18.260  0.1523E+00  0.5143E+00
    -18.220  0.4478E+01  0.6946E+00
    -18.180  0.1735E+01  0.7645E+00
    -18.140  0.2053E+01  0.8472E+00
    -18.099  0.3046E+01  0.9698E+00
    -18.059  0.5196E+01  0.1179E+01
    -18.019  0.1869E+01  0.1254E+01
    -17.978  0.5204E+01  0.1464E+01
    -17.938  0.6561E+01  0.1728E+01
    -17.898  0.5184E+01  0.1937E+01
    -17.858  0.1564E+01  0.2000E+01
    -17.817  0.7215E-02  0.2000E+01
    -17.777  0.0000E+00  0.2000E+01
    -17.737  0.0000E+00  0.2000E+01
    -17.697  0.0000E+00  0.2000E+01
    -17.656  0.0000E+00  0.2000E+01
    -17.616  0.0000E+00  0.2000E+01
    -17.576  0.0000E+00  0.2000E+01
    -17.536  0.0000E+00  0.2000E+01
    -17.495  0.0000E+00  0.2000E+01
    -17.455  0.0000E+00  0.2000E+01
    -17.415  0.0000E+00  0.2000E+01
    -17.374  0.0000E+00  0.2000E+01
    -17.334  0.0000E+00  0.2000E+01
    -17.294  0.0000E+00  0.2000E+01
    -17.254  0.0000E+00  0.2000E+01
    -17.213  0.0000E+00  0.2000E+01
    -17.173  0.0000E+00  0.2000E+01
    -17.133  0.0000E+00  0.2000E+01
    -17.093  0.0000E+00  0.2000E+01
    -17.052  0.0000E+00  0.2000E+01
    -17.012  0.0000E+00  0.2000E+01
    -16.972  0.0000E+00  0.2000E+01
    -16.932  0.0000E+00  0.2000E+01
    -16.891  0.0000E+00  0.2000E+01
    -16.851  0.0000E+00  0.2000E+01
    -16.811  0.0000E+00  0.2000E+01
    -16.770  0.0000E+00  0.2000E+01
    -16.730  0.0000E+00  0.2000E+01
    -16.690  0.0000E+00  0.2000E+01
    -16.650  0.0000E+00  0.2000E+01
    -16.609  0.0000E+00  0.2000E+01
    -16.569  0.0000E+00  0.2000E+01
    -16.529  0.0000E+00  0.2000E+01
    -16.489  0.0000E+00  0.2000E+01
    -16.448  0.0000E+00  0.2000E+01
    -16.408  0.0000E+00  0.2000E+01
    -16.368  0.0000E+00  0.2000E+01
    -16.328  0.2528E-14  0.2000E+01
    -16.287  0.1688E-01  0.2001E+01
    -16.247  0.1020E+01  0.2042E+01
    -16.207  0.4109E+01  0.2207E+01
    -16.167  0.2725E+01  0.2317E+01
    -16.126  0.1443E+01  0.2375E+01
    -16.086  0.4089E+01  0.2540E+01
    -16.046  0.4197E+01  0.2709E+01
    -16.005  0.4572E+01  0.2893E+01
    -15.965  0.1630E+01  0.2958E+01
    -15.925  0.1367E+01  0.3013E+01
    -15.885  0.6543E+00  0.3040E+01
    -15.844  0.5566E+01  0.3264E+01
    -15.804  0.2278E-03  0.3264E+01
    -15.764  0.3664E-11  0.3264E+01
    -15.724  0.3638E+00  0.3279E+01
    -15.683  0.7882E+01  0.3596E+01
    -15.643  0.3267E-01  0.3597E+01
    -15.603  0.2574E+00  0.3608E+01
    -15.563  0.3237E+01  0.3738E+01
    -15.522  0.6506E+00  0.3764E+01
    -15.482  0.2095E+01  0.3848E+01
    -15.442  0.2226E+01  0.3938E+01
    -15.401  0.3952E+01  0.4097E+01
    -15.361  0.1470E-03  0.4097E+01
    -15.321  0.4900E+01  0.4295E+01
    -15.281  0.3378E+01  0.4431E+01
    -15.240  0.1650E-02  0.4431E+01
    -15.200  0.4098E+01  0.4596E+01
    -15.160  0.2888E+01  0.4712E+01
    -15.120  0.3798E+01  0.4865E+01
    -15.079  0.4721E+01  0.5055E+01
    -15.039  0.4185E+01  0.5223E+01
    -14.999  0.2581E+01  0.5327E+01
    -14.959  0.1528E+01  0.5389E+01
    -14.918  0.4306E+01  0.5562E+01
    -14.878  0.1903E+01  0.5639E+01
    -14.838  0.2183E-08  0.5639E+01
    -14.798  0.8340E+00  0.5672E+01
    -14.757  0.5373E+01  0.5889E+01
    -14.717  0.1966E-02  0.5889E+01
    -14.677  0.2027E+01  0.5971E+01
    -14.636  0.7042E+00  0.5999E+01
    -14.596  0.2775E-01  0.6000E+01
    -14.556  0.0000E+00  0.6000E+01
    -14.516  0.0000E+00  0.6000E+01
    -14.475  0.0000E+00  0.6000E+01
    -14.435  0.0000E+00  0.6000E+01
    -14.395  0.0000E+00  0.6000E+01
    -14.355  0.0000E+00  0.6000E+01
    -14.314  0.0000E+00  0.6000E+01
    -14.274  0.0000E+00  0.6000E+01
    -14.234  0.0000E+00  0.6000E+01
    -14.194  0.0000E+00  0.6000E+01
    -14.153  0.0000E+00  0.6000E+01
    -14.113  0.0000E+00  0.6000E+01
    -14.073  0.0000E+00  0.6000E+01
    -14.032  0.0000E+00  0.6000E+01
    -13.992  0.0000E+00  0.6000E+01
    -13.952  0.0000E+00  0.6000E+01
    -13.912  0.0000E+00  0.6000E+01
    -13.871  0.0000E+00  0.6000E+01
    -13.831  0.0000E+00  0.6000E+01
    -13.791  0.0000E+00  0.6000E+01
    -13.751  0.0000E+00  0.6000E+01
    -13.710  0.0000E+00  0.6000E+01
    -13.670  0.0000E+00  0.6000E+01
    -13.630  0.0000E+00  0.6000E+01
    -13.590  0.0000E+00  0.6000E+01
    -13.549  0.0000E+00  0.6000E+01
    -13.509  0.0000E+00  0.6000E+01
    -13.469  0.0000E+00  0.6000E+01
    -13.428  0.0000E+00  0.6000E+01
    -13.388  0.0000E+00  0.6000E+01
    -13.348  0.0000E+00  0.6000E+01
    -13.308  0.0000E+00  0.6000E+01
    -13.267  0.0000E+00  0.6000E+01
    -13.227  0.0000E+00  0.6000E+01
    -13.187  0.0000E+00  0.6000E+01
    -13.147  0.0000E+00  0.6000E+01
    -13.106  0.0000E+00  0.6000E+01
    -13.066  0.0000E+00  0.6000E+01
    -13.026  0.0000E+00  0.6000E+01
    -12.986  0.0000E+00  0.6000E+01
    -12.945  0.0000E+00  0.6000E+01
    -12.905  0.0000E+00  0.6000E+01
    -12.865  0.2900E-02  0.6000E+01
    -12.825  0.1269E+01  0.6051E+01
    -12.784  0.1832E+01  0.6125E+01
    -12.744  0.8224E-01  0.6128E+01
    -12.704  0.2175E+01  0.6216E+01
    -12.663  0.3954E+01  0.6375E+01
    -12.623  0.4110E+01  0.6541E+01
    -12.583  0.2091E+01  0.6625E+01
    -12.543  0.3012E+01  0.6746E+01
    -12.502  0.1133E+01  0.6792E+01
    -12.462  0.3187E+00  0.6804E+01
    -12.422  0.5833E+01  0.7039E+01
    -12.382  0.9697E-01  0.7043E+01
    -12.341  0.3173E+01  0.7171E+01
    -12.301  0.1060E+02  0.7598E+01
    -12.261  0.3429E+01  0.7736E+01
    -12.221  0.5364E-02  0.7736E+01
    -12.180  0.2060E+01  0.7819E+01
    -12.140  0.3875E-02  0.7819E+01
    -12.100  0.3462E-03  0.7819E+01
    -12.059  0.2033E+01  0.7901E+01
    -12.019  0.1728E+01  0.7971E+01
    -11.979  0.3783E+00  0.7986E+01
    -11.939  0.3316E+00  0.7999E+01
    -11.898  0.4871E+01  0.8196E+01
    -11.858  0.1007E+01  0.8236E+01
    -11.818  0.2996E+01  0.8357E+01
    -11.778  0.1143E+01  0.8403E+01
    -11.737  0.7067E-02  0.8403E+01
    -11.697  0.2060E+01  0.8486E+01
    -11.657  0.2894E-02  0.8486E+01
    -11.617  0.0000E+00  0.8486E+01
    -11.576  0.3816E-04  0.8486E+01
    -11.536  0.1949E+01  0.8565E+01
    -11.496  0.1474E+01  0.8624E+01
    -11.455  0.8402E-01  0.8627E+01
    -11.415  0.8216E+01  0.8958E+01
    -11.375  0.1963E+01  0.9037E+01
    -11.335  0.1117E+00  0.9042E+01
    -11.294  0.2298E-15  0.9042E+01
    -11.254  0.1833E-01  0.9042E+01
    -11.214  0.4458E+01  0.9222E+01
    -11.174  0.7383E-02  0.9222E+01
    -11.133  0.6446E-03  0.9222E+01
    -11.093  0.3472E+01  0.9362E+01
    -11.053  0.4805E+01  0.9556E+01
    -11.013  0.1837E+01  0.9629E+01
    -10.972  0.2303E+01  0.9722E+01
    -10.932  0.6732E-07  0.9722E+01
    -10.892  0.9851E+00  0.9762E+01
    -10.852  0.1085E+01  0.9806E+01
    -10.811  0.2024E+01  0.9887E+01
    -10.771  0.4496E-01  0.9889E+01
    -10.731  0.2763E-01  0.9890E+01
    -10.690  0.4858E+01  0.1009E+02
    -10.650  0.3393E+01  0.1022E+02
    -10.610  0.3399E-05  0.1022E+02
    -10.570  0.2741E-10  0.1022E+02
    -10.529  0.1994E+00  0.1023E+02
    -10.489  0.8354E+00  0.1026E+02
    -10.449  0.7195E-06  0.1026E+02
    -10.409  0.0000E+00  0.1026E+02
    -10.368  0.1830E-05  0.1026E+02
    -10.328  0.3236E+01  0.1039E+02
    -10.288  0.9029E+00  0.1043E+02
    -10.248  0.0000E+00  0.1043E+02
    -10.207  0.8197E-06  0.1043E+02
    -10.167  0.1605E+01  0.1050E+02
    -10.127  0.4646E+00  0.1051E+02
    -10.086  0.0000E+00  0.1051E+02
    -10.046  0.0000E+00  0.1051E+02
    -10.006  0.0000E+00  0.1051E+02
     -9.966  0.2861E-13  0.1051E+02
     -9.925  0.1605E-01  0.1051E+02
     -9.885  0.3289E+00  0.1053E+02
     -9.845  0.1026E-04  0.1053E+02
     -9.805  0.3984E-12  0.1053E+02
     -9.764  0.1864E+00  0.1054E+02
     -9.724  0.7179E+01  0.1082E+02
     -9.684  0.9126E+00  0.1086E+02
     -9.644  0.0000E+00  0.1086E+02
     -9.603  0.2459E-13  0.1086E+02
     -9.563  0.6712E-01  0.1086E+02
     -9.523  0.2692E+01  0.1097E+02
     -9.483  0.3489E-02  0.1097E+02
     -9.442  0.2060E+01  0.1106E+02
     -9.402  0.6468E-02  0.1106E+02
     -9.362  0.3876E+01  0.1121E+02
     -9.321  0.1559E+01  0.1127E+02
     -9.281  0.7739E+00  0.1131E+02
     -9.241  0.0000E+00  0.1131E+02
     -9.201  0.5764E-09  0.1131E+02
     -9.160  0.6329E+00  0.1133E+02
     -9.120  0.3589E+01  0.1148E+02
     -9.080  0.6081E+01  0.1172E+02
     -9.040  0.2089E+00  0.1173E+02
     -8.999  0.1905E+01  0.1181E+02
     -8.959  0.4948E+01  0.1200E+02
     -8.919  0.3370E+01  0.1214E+02
     -8.879  0.2029E+01  0.1222E+02
     -8.838  0.2939E-03  0.1222E+02
     -8.798  0.3273E+01  0.1235E+02
     -8.758  0.8660E+00  0.1239E+02
     -8.717  0.6399E+00  0.1241E+02
     -8.677  0.1516E+01  0.1248E+02
     -8.637  0.9490E+00  0.1251E+02
     -8.597  0.8488E-05  0.1251E+02
     -8.556  0.0000E+00  0.1251E+02
     -8.516  0.1037E-05  0.1251E+02
     -8.476  0.1647E+01  0.1258E+02
     -8.436  0.4441E+01  0.1276E+02
     -8.395  0.5367E+01  0.1298E+02
     -8.355  0.6134E+01  0.1322E+02
     -8.315  0.4717E+01  0.1341E+02
     -8.275  0.3905E+01  0.1357E+02
     -8.234  0.1729E+01  0.1364E+02
     -8.194  0.2455E-05  0.1364E+02
     -8.154  0.0000E+00  0.1364E+02
     -8.113  0.6506E-04  0.1364E+02
     -8.073  0.1976E+01  0.1372E+02
     -8.033  0.9551E-01  0.1372E+02
     -7.993  0.2057E+01  0.1381E+02
     -7.952  0.4127E+01  0.1397E+02
     -7.912  0.4149E+01  0.1414E+02
     -7.872  0.1950E-01  0.1414E+02
     -7.832  0.1028E+01  0.1418E+02
     -7.791  0.2938E+01  0.1430E+02
     -7.751  0.1202E+01  0.1435E+02
     -7.711  0.4086E-05  0.1435E+02
     -7.671  0.1818E+01  0.1442E+02
     -7.630  0.6539E+01  0.1468E+02
     -7.590  0.2036E+01  0.1477E+02
     -7.550  0.1026E+02  0.1518E+02
     -7.510  0.3837E-01  0.1518E+02
     -7.469  0.0000E+00  0.1518E+02
     -7.429  0.0000E+00  0.1518E+02
     -7.389  0.6464E-03  0.1518E+02
     -7.348  0.3882E+01  0.1534E+02
     -7.308  0.1794E+01  0.1541E+02
     -7.268  0.3780E+01  0.1556E+02
     -7.228  0.5831E+01  0.1580E+02
     -7.187  0.2521E+01  0.1590E+02
     -7.147  0.3233E+01  0.1603E+02
     -7.107  0.3428E+00  0.1604E+02
     -7.067  0.9209E+00  0.1608E+02
     -7.026  0.4599E+01  0.1626E+02
     -6.986  0.4498E+01  0.1644E+02
     -6.946  0.1711E+01  0.1651E+02
     -6.906  0.2755E-06  0.1651E+02
     -6.865  0.1085E+01  0.1656E+02
     -6.825  0.3752E+01  0.1671E+02
     -6.785  0.3184E+01  0.1684E+02
     -6.744  0.2576E+00  0.1685E+02
     -6.704  0.2019E+01  0.1693E+02
     -6.664  0.3807E+01  0.1708E+02
     -6.624  0.1128E+01  0.1713E+02
     -6.583  0.4196E+01  0.1730E+02
     -6.543  0.6179E+01  0.1755E+02
     -6.503  0.4263E+01  0.1772E+02
     -6.463  0.8066E+01  0.1804E+02
     -6.422  0.1371E+01  0.1810E+02
     -6.382  0.1445E+01  0.1815E+02
     -6.342  0.3087E+01  0.1828E+02
     -6.302  0.4473E+01  0.1846E+02
     -6.261  0.7203E+01  0.1875E+02
     -6.221  0.5024E+01  0.1895E+02
     -6.181  0.6394E+00  0.1898E+02
     -6.141  0.5858E+01  0.1921E+02
     -6.100  0.4018E+01  0.1937E+02
     -6.060  0.1821E-02  0.1938E+02
     -6.020  0.6868E+00  0.1940E+02
     -5.979  0.2845E+00  0.1941E+02
     -5.939  0.3927E+01  0.1957E+02
     -5.899  0.3655E+01  0.1972E+02
     -5.859  0.8963E-01  0.1972E+02
     -5.818  0.4115E+01  0.1989E+02
     -5.778  0.3692E-02  0.1989E+02
     -5.738  0.0000E+00  0.1989E+02
     -5.698  0.2333E-02  0.1989E+02
     -5.657  0.7684E+01  0.2020E+02
     -5.617  0.5929E+00  0.2022E+02
     -5.577  0.2042E+01  0.2030E+02
     -5.537  0.2695E-01  0.2031E+02
     -5.496  0.3748E-08  0.2031E+02
     -5.456  0.1579E+01  0.2037E+02
     -5.416  0.4629E+01  0.2056E+02
     -5.375  0.5066E-03  0.2056E+02
     -5.335  0.3930E-01  0.2056E+02
     -5.295  0.6790E+01  0.2083E+02
     -5.255  0.6727E+00  0.2086E+02
     -5.214  0.4442E+01  0.2104E+02
     -5.174  0.4909E+01  0.2123E+02
     -5.134  0.7390E+00  0.2126E+02
     -5.094  0.6081E+01  0.2151E+02
     -5.053  0.1087E+02  0.2195E+02
     -5.013  0.1172E+02  0.2242E+02
     -4.973  0.1205E+02  0.2290E+02
     -4.933  0.5297E+01  0.2312E+02
     -4.892  0.1136E+01  0.2316E+02
     -4.852  0.6410E+01  0.2342E+02
     -4.812  0.7371E+01  0.2372E+02
     -4.771  0.3500E+01  0.2386E+02
     -4.731  0.4206E+01  0.2403E+02
     -4.691  0.5711E-05  0.2403E+02
     -4.651  0.1126E-07  0.2403E+02
     -4.610  0.1017E+01  0.2407E+02
     -4.570  0.3447E+01  0.2421E+02
     -4.530  0.1745E+01  0.2428E+02
     -4.490  0.1340E-02  0.2428E+02
     -4.449  0.9996E+01  0.2468E+02
     -4.409  0.2476E+01  0.2478E+02
     -4.369  0.2016E+01  0.2486E+02
     -4.329  0.4089E+01  0.2503E+02
     -4.288  0.4896E-01  0.2503E+02
     -4.248  0.1894E+01  0.2510E+02
     -4.208  0.1761E+00  0.2511E+02
     -4.168  0.1835E+01  0.2519E+02
     -4.127  0.2345E+00  0.2519E+02
     -4.087  0.4963E+01  0.2539E+02
     -4.047  0.2977E+01  0.2551E+02
     -4.006  0.7345E+01  0.2581E+02
     -3.966  0.1544E+01  0.2587E+02
     -3.926  0.3867E+01  0.2603E+02
     -3.886  0.1841E+00  0.2604E+02
     -3.845  0.1011E+02  0.2644E+02
     -3.805  0.5267E-01  0.2644E+02
     -3.765  0.8402E+00  0.2648E+02
     -3.725  0.3299E+01  0.2661E+02
     -3.684  0.3079E+00  0.2662E+02
     -3.644  0.2056E+01  0.2671E+02
     -3.604  0.1305E+02  0.2723E+02
     -3.564  0.5641E+01  0.2746E+02
     -3.523  0.4810E+01  0.2765E+02
     -3.483  0.2861E+01  0.2777E+02
     -3.443  0.3350E+01  0.2790E+02
     -3.402  0.2491E+01  0.2800E+02
     -3.362  0.5083E+01  0.2821E+02
     -3.322  0.5915E+01  0.2845E+02
     -3.282  0.4303E+01  0.2862E+02
     -3.241  0.6806E+01  0.2889E+02
     -3.201  0.5408E+01  0.2911E+02
     -3.161  0.1886E+01  0.2919E+02
     -3.121  0.8751E+00  0.2922E+02
     -3.080  0.1757E-04  0.2922E+02
     -3.040  0.8672E-03  0.2922E+02
     -3.000  0.3425E+01  0.2936E+02
     -2.960  0.7133E+00  0.2939E+02
     -2.919  0.3868E+01  0.2954E+02
     -2.879  0.8639E+00  0.2958E+02
     -2.839  0.1477E+01  0.2964E+02
     -2.798  0.3002E-06  0.2964E+02
     -2.758  0.1153E-04  0.2964E+02
     -2.718  0.1869E+01  0.2971E+02
     -2.678  0.9101E+00  0.2975E+02
     -2.637  0.1360E+01  0.2981E+02
     -2.597  0.1979E+01  0.2989E+02
     -2.557  0.9347E-01  0.2989E+02
     -2.517  0.2059E+01  0.2997E+02
     -2.476  0.6626E-01  0.2997E+02
     -2.436  0.6319E+00  0.3000E+02
     -2.396  0.5484E-05  0.3000E+02
     -2.356  0.0000E+00  0.3000E+02
     -2.315  0.0000E+00  0.3000E+02
     -2.275  0.0000E+00  0.3000E+02
     -2.235  0.0000E+00  0.3000E+02
     -2.195  0.0000E+00  0.3000E+02
     -2.154  0.0000E+00  0.3000E+02
     -2.114  0.0000E+00  0.3000E+02
     -2.074  0.0000E+00  0.3000E+02
     -2.033  0.0000E+00  0.3000E+02
     -1.993  0.0000E+00  0.3000E+02
     -1.953  0.0000E+00  0.3000E+02
     -1.913  0.0000E+00  0.3000E+02
     -1.872  0.1262E-11  0.3000E+02
     -1.832  0.9799E-01  0.3000E+02
     -1.792  0.1261E+01  0.3005E+02
     -1.752  0.1746E+01  0.3012E+02
     -1.711  0.2894E-05  0.3013E+02
     -1.671  0.7886E+00  0.3016E+02
     -1.631  0.1281E+01  0.3021E+02
     -1.591  0.1492E+01  0.3027E+02
     -1.550  0.3420E+01  0.3041E+02
     -1.510  0.3366E+01  0.3054E+02
     -1.470  0.1189E+01  0.3059E+02
     -1.429  0.5019E+01  0.3079E+02
     -1.389  0.1580E-02  0.3079E+02
     -1.349  0.2610E-09  0.3079E+02
     -1.309  0.9543E+00  0.3083E+02
     -1.268  0.5225E+01  0.3104E+02
     -1.228  0.2945E-01  0.3104E+02
     -1.188  0.4531E+01  0.3122E+02
     -1.148  0.1712E+01  0.3129E+02
     -1.107  0.5008E+01  0.3149E+02
     -1.067  0.3045E+01  0.3162E+02
     -1.027  0.1909E+00  0.3162E+02
     -0.987  0.0000E+00  0.3162E+02
     -0.946  0.0000E+00  0.3162E+02
     -0.906  0.1521E-07  0.3163E+02
     -0.866  0.1059E+01  0.3167E+02
     -0.826  0.2943E+01  0.3179E+02
     -0.785  0.1372E+00  0.3179E+02
     -0.745  0.0000E+00  0.3179E+02
     -0.705  0.0000E+00  0.3179E+02
     -0.664  0.5354E-06  0.3179E+02
     -0.624  0.3011E+00  0.3180E+02
     -0.584  0.4173E+01  0.3197E+02
     -0.544  0.9887E-02  0.3197E+02
     -0.503  0.0000E+00  0.3197E+02
     -0.463  0.0000E+00  0.3197E+02
     -0.423  0.0000E+00  0.3197E+02
     -0.383  0.0000E+00  0.3197E+02
     -0.342  0.0000E+00  0.3197E+02
     -0.302  0.0000E+00  0.3197E+02
     -0.262  0.0000E+00  0.3197E+02
     -0.222  0.0000E+00  0.3197E+02
     -0.181  0.0000E+00  0.3197E+02
     -0.141  0.0000E+00  0.3197E+02
     -0.101  0.5744E-15  0.3197E+02
     -0.060  0.1269E-01  0.3197E+02
     -0.020  0.1366E+01  0.3203E+02
      0.020  0.5850E-03  0.3203E+02
      0.060  0.0000E+00  0.3203E+02
      0.101  0.0000E+00  0.3203E+02
      0.141  0.0000E+00  0.3203E+02
      0.181  0.0000E+00  0.3203E+02
      0.221  0.0000E+00  0.3203E+02
      0.262  0.0000E+00  0.3203E+02
      0.302  0.0000E+00  0.3203E+02
      0.342  0.0000E+00  0.3203E+02
      0.382  0.0000E+00  0.3203E+02
      0.423  0.0000E+00  0.3203E+02
      0.463  0.1520E-11  0.3203E+02
      0.503  0.2882E+00  0.3204E+02
      0.544  0.3851E+01  0.3219E+02
      0.584  0.5151E-04  0.3219E+02
      0.624  0.0000E+00  0.3219E+02
      0.664  0.0000E+00  0.3219E+02
      0.705  0.1201E-08  0.3219E+02
      0.745  0.7198E+00  0.3222E+02
      0.785  0.1350E+01  0.3228E+02
      0.825  0.1178E-06  0.3228E+02
      0.866  0.0000E+00  0.3228E+02
      0.906  0.0000E+00  0.3228E+02
      0.946  0.0000E+00  0.3228E+02
      0.986  0.0000E+00  0.3228E+02
      1.027  0.4451E-02  0.3228E+02
      1.067  0.8922E+01  0.3264E+02
      1.107  0.1978E+01  0.3272E+02
      1.147  0.2251E+01  0.3281E+02
      1.188  0.2512E+01  0.3291E+02
      1.228  0.1580E+01  0.3297E+02
      1.268  0.3639E+01  0.3312E+02
      1.309  0.5322E+00  0.3314E+02
      1.349  0.2037E+01  0.3322E+02
      1.389  0.1636E+01  0.3329E+02
      1.429  0.4561E+01  0.3347E+02
      1.470  0.1231E-01  0.3347E+02
      1.510  0.1897E-03  0.3347E+02
      1.550  0.4783E+01  0.3366E+02
      1.590  0.1426E+01  0.3372E+02
      1.631  0.1386E+01  0.3378E+02
      1.671  0.2753E+01  0.3389E+02
      1.711  0.2859E-06  0.3389E+02
      1.751  0.1369E-06  0.3389E+02
      1.792  0.1560E+01  0.3395E+02
      1.832  0.8550E+00  0.3399E+02
      1.872  0.2621E-01  0.3399E+02
      1.913  0.3086E+01  0.3411E+02
      1.953  0.3467E+01  0.3425E+02
      1.993  0.4108E+01  0.3442E+02
      2.033  0.3248E+00  0.3443E+02
      2.074  0.1405E+01  0.3449E+02
      2.114  0.1426E+01  0.3454E+02
      2.154  0.2036E+01  0.3463E+02
      2.194  0.2057E+01  0.3471E+02
      2.235  0.1702E+00  0.3472E+02
      2.275  0.2493E+01  0.3482E+02
      2.315  0.3547E+01  0.3496E+02
      2.355  0.3891E-04  0.3496E+02
      2.396  0.1937E+01  0.3504E+02
      2.436  0.4803E+01  0.3523E+02
      2.476  0.1538E+01  0.3529E+02
      2.517  0.1522E-02  0.3529E+02
      2.557  0.2157E+01  0.3538E+02
      2.597  0.5469E+01  0.3560E+02
      2.637  0.6516E+00  0.3562E+02
      2.678  0.0000E+00  0.3562E+02
      2.718  0.3921E-03  0.3563E+02
      2.758  0.2036E+01  0.3571E+02
      2.798  0.5823E+00  0.3573E+02
      2.839  0.5824E+01  0.3596E+02
      2.879  0.3997E+01  0.3613E+02
      2.919  0.5131E+01  0.3633E+02
      2.959  0.2157E-01  0.3633E+02
      3.000  0.2380E+01  0.3643E+02
      3.040  0.1759E+01  0.3650E+02
      3.080  0.9325E-09  0.3650E+02
      3.120  0.1218E+01  0.3655E+02
      3.161  0.2921E+01  0.3667E+02
      3.201  0.9631E+00  0.3671E+02
      3.241  0.2899E+01  0.3682E+02
      3.282  0.2783E+00  0.3683E+02
      3.322  0.7207E+01  0.3712E+02
      3.362  0.6518E+01  0.3739E+02
      3.402  0.7612E+00  0.3742E+02
      3.443  0.0000E+00  0.3742E+02
      3.483  0.1225E-02  0.3742E+02
      3.523  0.4089E+01  0.3758E+02
      3.563  0.4943E-01  0.3758E+02
      3.604  0.2298E-15  0.3758E+02
      3.644  0.2049E-01  0.3758E+02
      3.684  0.4115E+01  0.3775E+02
      3.724  0.3806E-02  0.3775E+02
      3.765  0.1505E+01  0.3781E+02
      3.805  0.4795E+01  0.3800E+02
      3.845  0.4048E+01  0.3817E+02
      3.886  0.3690E-03  0.3817E+02
      3.926  0.3824E+01  0.3832E+02
      3.966  0.4378E+01  0.3850E+02
      4.006  0.7597E-01  0.3850E+02
      4.047  0.7250E-01  0.3850E+02
      4.087  0.1997E+01  0.3858E+02
      4.127  0.3919E+01  0.3874E+02
      4.167  0.2198E+00  0.3875E+02
      4.208  0.2633E-08  0.3875E+02
      4.248  0.1462E+01  0.3881E+02
      4.288  0.3463E+01  0.3895E+02
      4.328  0.1284E+01  0.3900E+02
      4.369  0.7380E+00  0.3903E+02
      4.409  0.1651E+01  0.3910E+02
      4.449  0.5889E+01  0.3933E+02
      4.489  0.1812E+01  0.3941E+02
      4.530  0.5688E+00  0.3943E+02
      4.570  0.2324E+01  0.3952E+02
      4.610  0.3919E+01  0.3968E+02
      4.651  0.1842E-03  0.3968E+02
      4.691  0.2016E+01  0.3976E+02
      4.731  0.3322E+01  0.3990E+02
      4.771  0.4961E+01  0.4010E+02
      4.812  0.4344E+01  0.4027E+02
      4.852  0.3983E+01  0.4043E+02
      4.892  0.3327E+01  0.4056E+02
      4.932  0.8121E+00  0.4060E+02
      4.973  0.4845E-02  0.4060E+02
      5.013  0.2119E+01  0.4068E+02
      5.053  0.4084E+01  0.4085E+02
      5.093  0.1719E-02  0.4085E+02
      5.134  0.2651E+01  0.4095E+02
      5.174  0.7214E+01  0.4124E+02
      5.214  0.8479E+01  0.4159E+02
      5.255  0.2812E+00  0.4160E+02
      5.295  0.1253E-04  0.4160E+02
      5.335  0.3638E+01  0.4174E+02
      5.375  0.1882E+01  0.4182E+02
      5.416  0.6884E+00  0.4185E+02
      5.456  0.2260E-08  0.4185E+02
      5.496  0.1572E+01  0.4191E+02
      5.536  0.6706E+01  0.4218E+02
      5.577  0.1345E+01  0.4223E+02
      5.617  0.4690E+01  0.4242E+02
      5.657  0.7693E+01  0.4273E+02
      5.697  0.2974E+00  0.4275E+02
      5.738  0.2339E+01  0.4284E+02
      5.778  0.2286E+01  0.4293E+02
      5.818  0.2104E+01  0.4302E+02
      5.859  0.9797E+00  0.4306E+02
      5.899  0.4764E+01  0.4325E+02
      5.939  0.5788E+01  0.4348E+02
      5.979  0.4190E+01  0.4365E+02
      6.020  0.3638E+01  0.4380E+02
      6.060  0.1647E+01  0.4386E+02
      6.100  0.4113E+01  0.4403E+02
      6.140  0.5505E+01  0.4425E+02
      6.181  0.3430E+01  0.4439E+02
      6.221  0.1415E+01  0.4444E+02
      6.261  0.6625E-01  0.4445E+02
      6.301  0.8222E+01  0.4478E+02
      6.342  0.7712E+00  0.4481E+02
      6.382  0.6644E+01  0.4508E+02
      6.422  0.1544E+01  0.4514E+02
      6.462  0.2819E-01  0.4514E+02
      6.503  0.7004E+01  0.4542E+02
      6.543  0.1134E+02  0.4588E+02
      6.583  0.1197E+02  0.4636E+02
      6.624  0.1765E+01  0.4643E+02
      6.664  0.1697E+01  0.4650E+02
      6.704  0.1030E+01  0.4654E+02
      6.744  0.1898E+01  0.4662E+02
      6.785  0.1660E+02  0.4729E+02
      6.825  0.2349E+01  0.4738E+02
      6.865  0.8869E+00  0.4742E+02
      6.905  0.3528E+01  0.4756E+02
      6.946  0.9366E+01  0.4794E+02
      6.986  0.5559E+01  0.4816E+02
      7.026  0.1205E+01  0.4821E+02
      7.066  0.2076E+01  0.4829E+02
      7.107  0.1192E+02  0.4877E+02
      7.147  0.5293E+01  0.4898E+02
      7.187  0.3076E+01  0.4911E+02
      7.228  0.5933E+01  0.4935E+02
      7.268  0.9764E+01  0.4974E+02
      7.308  0.1976E+01  0.4982E+02
      7.348  0.4809E+01  0.5001E+02
      7.389  0.8895E+00  0.5005E+02
      7.429  0.3456E+01  0.5019E+02
      7.469  0.1039E+02  0.5061E+02
      7.509  0.1405E+02  0.5117E+02
      7.550  0.5734E+01  0.5140E+02
      7.590  0.8286E+01  0.5174E+02
      7.630  0.5831E+01  0.5197E+02
      7.670  0.3856E+01  0.5213E+02
      7.711  0.6296E+00  0.5215E+02
      7.751  0.2052E+01  0.5224E+02
      7.791  0.1697E+01  0.5230E+02
      7.832  0.9462E+01  0.5268E+02
      7.872  0.2234E+01  0.5277E+02
      7.912  0.2327E+01  0.5287E+02
      7.952  0.6029E+01  0.5311E+02
      7.993  0.8507E+01  0.5345E+02
      8.033  0.8540E+01  0.5380E+02
      8.073  0.9523E+01  0.5418E+02
      8.113  0.4312E+01  0.5435E+02
      8.154  0.8145E+01  0.5468E+02
      8.194  0.8864E+01  0.5504E+02
      8.234  0.1147E+02  0.5550E+02
      8.274  0.7554E+01  0.5581E+02
      8.315  0.1054E-01  0.5581E+02
      8.355  0.6627E+01  0.5607E+02
      8.395  0.1096E+02  0.5651E+02
      8.435  0.8851E+01  0.5687E+02
      8.476  0.1493E+01  0.5693E+02
      8.516  0.1053E+01  0.5697E+02
      8.556  0.7486E+01  0.5727E+02
      8.597  0.8790E+01  0.5763E+02
      8.637  0.9784E+01  0.5802E+02
      8.677  0.1226E+02  0.5852E+02
      8.717  0.1085E+02  0.5895E+02
      8.758  0.9710E+01  0.5934E+02
      8.798  0.1812E+01  0.5942E+02
      8.838  0.2445E+01  0.5952E+02
      8.878  0.5830E+01  0.5975E+02
      8.919  0.2304E+01  0.5984E+02
      8.959  0.5355E+01  0.6006E+02
      8.999  0.8653E+00  0.6009E+02
      9.039  0.8227E+01  0.6042E+02
      9.080  0.7370E+01  0.6072E+02
      9.120  0.7230E+01  0.6101E+02
      9.160  0.7255E+01  0.6130E+02
      9.201  0.5075E+01  0.6151E+02
      9.241  0.1019E+02  0.6192E+02
      9.281  0.6724E+01  0.6219E+02
      9.321  0.6699E+01  0.6246E+02
      9.362  0.4900E+01  0.6266E+02
      9.402  0.5246E+01  0.6287E+02
      9.442  0.7197E+01  0.6316E+02
      9.482  0.1283E+02  0.6367E+02
      9.523  0.1347E+02  0.6422E+02
      9.563  0.3872E+01  0.6437E+02
      9.603  0.5945E-01  0.6437E+02
      9.643  0.2010E-01  0.6438E+02
      9.684  0.5025E+01  0.6458E+02
      9.724  0.1457E+02  0.6516E+02
      9.764  0.6173E+01  0.6541E+02
      9.804  0.9426E+01  0.6579E+02
      9.845  0.4791E+01  0.6599E+02
      9.885  0.3456E+01  0.6613E+02
      9.925  0.7944E+01  0.6644E+02
      9.966  0.2323E+01  0.6654E+02
     10.006  0.4219E+01  0.6671E+02
     10.046  0.9498E+00  0.6675E+02
     10.086  0.4151E+01  0.6691E+02
     10.127  0.1995E+00  0.6692E+02
     10.167  0.6249E+01  0.6717E+02
     10.207  0.2055E+01  0.6726E+02
     10.247  0.7198E+01  0.6755E+02
     10.288  0.8433E+01  0.6789E+02