<?xml version="1.0" encoding="ISO-8859-1"?>
<modeling>
 <generator>
  <i name="program" type="string">vasp </i>
  <i name="version" type="string">5.4.4.18Apr17-6-g9f103f2a35  </i>
  <i name="subversion" type="string">(build Mar 30 2023 15:39:25) complex            parallel </i>
  <i name="platform" type="string">LinuxIFC </i>
  <i name="date" type="string">2023 06 28 </i>
  <i name="time" type="string">01:58:35 </i>
 </generator>
 <incar>
  <i type="string" name="SYSTEM"> BC3-optical</i>
  <i type="int" name="ISTART">     1</i>
  <i type="string" name="PREC">accurate</i>
  <i type="string" name="ALGO"> Exact</i>
  <i type="int" name="ICHARG">     2</i>
  <i name="EDIFF">      0.00000001</i>
  <i name="ENCUT">    450.00000000</i>
  <i type="int" name="NBANDS">   288</i>
  <i type="int" name="NEDOS">  2400</i>
  <i type="logical" name="LREAL"> F  </i>
  <i type="int" name="ISMEAR">     0</i>
  <i name="SIGMA">      0.01000000</i>
  <i type="int" name="NWRITE">     3</i>
  <i type="logical" name="LOPTICS"> T  </i>
  <v type="int" name="KPOINT_BSE">    -1     0     0     0</v>
  <i name="CSHIFT">      0.10000000</i>
  <i name="CSHIFT">      0.10000000</i>
 </incar>
 <structure name="primitive_cell" >
  <crystal>
   <varray name="basis" >
    <v>       4.48084843       2.58701885       0.00000000 </v>
    <v>      -4.48084843       2.58701885       0.00000000 </v>
    <v>       0.00000000       0.00000000       8.52022140 </v>
   </varray>
   <i name="volume">    197.53348383 </i>
   <varray name="rec_basis" >
    <v>       0.11158601       0.19327265       0.00000000 </v>
    <v>      -0.11158601       0.19327265       0.00000000 </v>
    <v>       0.00000000       0.00000000       0.11736784 </v>
   </varray>
  </crystal>
  <varray name="positions" >
   <v>       0.33333300      -0.33333400       0.25000000 </v>
   <v>       0.15869124       0.31738348       0.25000000 </v>
   <v>      -0.31738448      -0.15869224       0.25000000 </v>
   <v>       0.15869124      -0.15869224       0.25000000 </v>
   <v>      -0.15869224       0.15869124       0.25000000 </v>
   <v>       0.31738348       0.15869124       0.25000000 </v>
   <v>      -0.15869224      -0.31738448       0.25000000 </v>
   <v>      -0.33333400       0.33333300       0.25000000 </v>
  </varray>
 </structure>
 <varray name="primitive_index" >
  <v type="int" >        1 </v>
  <v type="int" >        3 </v>
  <v type="int" >        7 </v>
  <v type="int" >        5 </v>
  <v type="int" >        6 </v>
  <v type="int" >        4 </v>
  <v type="int" >        8 </v>
  <v type="int" >        2 </v>
 </varray>
 <kpoints>
  <generation param="Gamma">
   <v type="int" name="divisions">      12       12        1 </v>
   <v name="usershift">      0.00000000       0.00000000       0.00000000 </v>
   <v name="genvec1">      0.08333333       0.00000000       0.00000000 </v>
   <v name="genvec2">      0.00000000       0.08333333       0.00000000 </v>
   <v name="genvec3">      0.00000000       0.00000000       1.00000000 </v>
   <v name="shift">      0.00000000       0.00000000       0.00000000 </v>
  </generation>
  <varray name="kpointlist" >
   <v>       0.00000000       0.00000000       0.00000000 </v>
   <v>       0.08333333       0.00000000       0.00000000 </v>
   <v>       0.16666667       0.00000000       0.00000000 </v>
   <v>       0.25000000      -0.00000000       0.00000000 </v>
   <v>       0.33333333      -0.00000000       0.00000000 </v>
   <v>       0.41666667       0.00000000       0.00000000 </v>
   <v>       0.50000000      -0.00000000       0.00000000 </v>
   <v>       0.08333333       0.08333333       0.00000000 </v>
   <v>       0.16666667       0.08333333       0.00000000 </v>
   <v>       0.25000000       0.08333333       0.00000000 </v>
   <v>       0.33333333       0.08333333       0.00000000 </v>
   <v>       0.41666667       0.08333333       0.00000000 </v>
   <v>       0.16666667       0.16666667       0.00000000 </v>
   <v>       0.25000000       0.16666667       0.00000000 </v>
   <v>       0.33333333       0.16666667       0.00000000 </v>
   <v>       0.41666667       0.16666667       0.00000000 </v>
   <v>       0.25000000       0.25000000       0.00000000 </v>
   <v>       0.33333333       0.25000000       0.00000000 </v>
   <v>       0.33333333       0.33333333       0.00000000 </v>
  </varray>
  <varray name="weights" >
   <v>       0.00694444 </v>
   <v>       0.04166667 </v>
   <v>       0.04166667 </v>
   <v>       0.04166667 </v>
   <v>       0.04166667 </v>
   <v>       0.04166667 </v>
   <v>       0.02083333 </v>
   <v>       0.04166667 </v>
   <v>       0.08333333 </v>
   <v>       0.08333333 </v>
   <v>       0.08333333 </v>
   <v>       0.08333333 </v>
   <v>       0.04166667 </v>
   <v>       0.08333333 </v>
   <v>       0.08333333 </v>
   <v>       0.04166667 </v>
   <v>       0.04166667 </v>
   <v>       0.08333333 </v>
   <v>       0.01388889 </v>
  </varray>
 </kpoints>
 <parameters>
  <separator name="general" >
   <i type="string" name="SYSTEM">BC3-optical</i>
   <i type="logical" name="LCOMPAT"> F  </i>
  </separator>
  <separator name="electronic" >
   <i type="string" name="PREC">accura</i>
   <i name="ENMAX">    450.00000000</i>
   <i name="ENAUG">    644.87300000</i>
   <i name="EDIFF">      0.00000001</i>
   <i type="int" name="IALGO">    90</i>
   <i type="int" name="IWAVPR">    10</i>
   <i type="int" name="NBANDS">   288</i>
   <i name="NELECT">     30.00000000</i>
   <i type="int" name="TURBO">     0</i>
   <i type="int" name="IRESTART">     0</i>
   <i type="int" name="NREBOOT">     0</i>
   <i type="int" name="NMIN">     0</i>
   <i name="EREF">      0.00000000</i>
   <separator name="electronic smearing" >
    <i type="int" name="ISMEAR">     0</i>
    <i name="SIGMA">      0.01000000</i>
    <i name="KSPACING">      0.50000000</i>
    <i type="logical" name="KGAMMA"> T  </i>
   </separator>
   <separator name="electronic projectors" >
    <i type="logical" name="LREAL"> F  </i>
    <v name="ROPT">      0.00000000      0.00000000</v>
    <i type="int" name="LMAXPAW">  -100</i>
    <i type="int" name="LMAXMIX">     2</i>
    <i type="logical" name="NLSPLINE"> F  </i>
   </separator>
   <separator name="electronic startup" >
    <i type="int" name="ISTART">     1</i>
    <i type="int" name="ICHARG">     2</i>
    <i type="int" name="INIWAV">     1</i>
   </separator>
   <separator name="electronic spin" >
    <i type="int" name="ISPIN">     1</i>
    <i type="logical" name="LNONCOLLINEAR"> F  </i>
    <v name="MAGMOM">      1.00000000      1.00000000      1.00000000      1.00000000      1.00000000      1.00000000      1.00000000      1.00000000</v>
    <i name="NUPDOWN">     -1.00000000</i>
    <i type="logical" name="LSORBIT"> F  </i>
    <v name="SAXIS">      0.00000000      0.00000000      1.00000000</v>
    <i type="logical" name="LSPIRAL"> F  </i>
    <v name="QSPIRAL">      0.00000000      0.00000000      0.00000000</v>
    <i type="logical" name="LZEROZ"> F  </i>
   </separator>
   <separator name="electronic exchange-correlation" >
    <i type="logical" name="LASPH"> F  </i>
    <i type="logical" name="LMETAGGA"> F  </i>
   </separator>
   <separator name="electronic convergence" >
    <i type="int" name="NELM">    60</i>
    <i type="int" name="NELMDL">     0</i>
    <i type="int" name="NELMIN">     2</i>
    <i name="ENINI">    450.00000000</i>
    <separator name="electronic convergence detail" >
     <i type="logical" name="LDIAG"> T  </i>
     <i type="logical" name="LSUBROT"> F  </i>
     <i name="WEIMIN">      0.00000000</i>
     <i name="EBREAK">      0.00000000</i>
     <i name="DEPER">      0.30000000</i>
     <i type="int" name="NRMM">     4</i>
     <i name="TIME">      0.40000000</i>
    </separator>
   </separator>
   <separator name="electronic mixer" >
    <i name="AMIX">      0.40000000</i>
    <i name="BMIX">      1.00000000</i>
    <i name="AMIN">      0.10000000</i>
    <i name="AMIX_MAG">      1.60000000</i>
    <i name="BMIX_MAG">      1.00000000</i>
    <separator name="electronic mixer details" >
     <i type="int" name="IMIX">     4</i>
     <i type="logical" name="MIXFIRST"> F  </i>
     <i type="int" name="MAXMIX">   -45</i>
     <i name="WC">    100.00000000</i>
     <i type="int" name="INIMIX">     1</i>
     <i type="int" name="MIXPRE">     1</i>
     <i type="int" name="MREMOVE">     5</i>
    </separator>
   </separator>
   <separator name="electronic dipolcorrection" >
    <i type="logical" name="LDIPOL"> F  </i>
    <i type="logical" name="LMONO"> F  </i>
    <i type="int" name="IDIPOL">     0</i>
    <i name="EPSILON">      1.00000000</i>
    <v name="DIPOL">   -100.00000000   -100.00000000   -100.00000000</v>
    <i name="EFIELD">      0.00000000</i>
   </separator>
  </separator>
  <separator name="grids" >
   <i type="int" name="NGX">    36</i>
   <i type="int" name="NGY">    36</i>
   <i type="int" name="NGZ">    60</i>
   <i type="int" name="NGXF">    72</i>
   <i type="int" name="NGYF">    72</i>
   <i type="int" name="NGZF">   120</i>
   <i type="logical" name="ADDGRID"> F  </i>
  </separator>
  <separator name="ionic" >
   <i type="int" name="NSW">     0</i>
   <i type="int" name="IBRION">    -1</i>
   <i type="int" name="MDALGO">     0</i>
   <i type="int" name="ISIF">     2</i>
   <i name="PSTRESS">      0.00000000</i>
   <i name="EDIFFG">      0.00000010</i>
   <i type="int" name="NFREE">     0</i>
   <i name="POTIM">      0.50000000</i>
   <i name="SMASS">     -3.00000000</i>
   <i name="SCALEE">      1.00000000</i>
  </separator>
  <separator name="ionic md" >
   <i name="TEBEG">      0.00010000</i>
   <i name="TEEND">      0.00010000</i>
   <i type="int" name="NBLOCK">     1</i>
   <i type="int" name="KBLOCK">     1</i>
   <i type="int" name="NPACO">   256</i>
   <i name="APACO">     16.00000000</i>
  </separator>
  <separator name="symmetry" >
   <i type="int" name="ISYM">     2</i>
   <i name="SYMPREC">      0.00001000</i>
  </separator>
  <separator name="dos" >
   <i type="int" name="LORBIT">     0</i>
   <v name="RWIGS">     -1.00000000     -1.00000000</v>
   <i type="int" name="NEDOS">  2400</i>
   <i name="EMIN">     10.00000000</i>
   <i name="EMAX">    -10.00000000</i>
   <i name="EFERMI">      0.00000000</i>
  </separator>
  <separator name="writing" >
   <i type="int" name="NWRITE">     3</i>
   <i type="logical" name="LWAVE"> T  </i>
   <i type="logical" name="LDOWNSAMPLE"> F  </i>
   <i type="logical" name="LCHARG"> T  </i>
   <i type="logical" name="LPARD"> F  </i>
   <i type="logical" name="LVTOT"> F  </i>
   <i type="logical" name="LVHAR"> F  </i>
   <i type="logical" name="LELF"> F  </i>
   <i type="logical" name="LOPTICS"> T  </i>
   <v name="STM">      0.00000000      0.00000000      0.00000000      0.00000000      0.00000000      0.00000000      0.00000000</v>
  </separator>
  <separator name="performance" >
   <i type="int" name="NPAR">    12</i>
   <i type="int" name="NSIM">     4</i>
   <i type="int" name="NBLK">    -1</i>
   <i type="logical" name="LPLANE"> T  </i>
   <i type="logical" name="LSCALAPACK"> T  </i>
   <i type="logical" name="LSCAAWARE"> F  </i>
   <i type="logical" name="LSCALU"> F  </i>
   <i type="logical" name="LASYNC"> F  </i>
   <i type="logical" name="LORBITALREAL"> F  </i>
  </separator>
  <separator name="miscellaneous" >
   <i type="int" name="IDIOT">     3</i>
   <i type="int" name="ISPECIAL">     0</i>
   <i type="logical" name="LMUSIC"> F  </i>
   <v name="POMASS">     10.81100000     12.01100000</v>
   <v name="DARWINR">      0.00000000      0.00000000</v>
   <v name="DARWINV">      1.00000000      1.00000000</v>
   <i type="logical" name="LCORR"> T  </i>
  </separator>
  <i type="logical" name="GGA_COMPAT"> T  </i>
  <i type="logical" name="LBERRY"> F  </i>
  <i type="int" name="ICORELEVEL">     0</i>
  <i type="logical" name="LDAU"> F  </i>
  <i type="int" name="I_CONSTRAINED_M">     0</i>
  <separator name="electronic exchange-correlation" >
   <i type="string" name="GGA">--</i>
   <i type="int" name="VOSKOWN">     0</i>
   <i type="logical" name="LHFCALC"> F  </i>
   <i type="string" name="PRECFOCK"></i>
   <i type="logical" name="LSYMGRAD"> F  </i>
   <i type="logical" name="LHFONE"> F  </i>
   <i type="logical" name="LRHFCALC"> F  </i>
   <i type="logical" name="LTHOMAS"> F  </i>
   <i type="logical" name="LMODELHF"> F  </i>
   <i name="ENCUT4O">     -1.00000000</i>
   <i type="int" name="EXXOEP">     0</i>
   <i type="int" name="FOURORBIT">     0</i>
   <i name="AEXX">      0.00000000</i>
   <i name="HFALPHA">      0.00000000</i>
   <i name="MCALPHA">      0.00000000</i>
   <i name="ALDAX">      1.00000000</i>
   <i name="AGGAX">      1.00000000</i>
   <i name="ALDAC">      1.00000000</i>
   <i name="AGGAC">      1.00000000</i>
   <i type="int" name="NKREDX">     1</i>
   <i type="int" name="NKREDY">     1</i>
   <i type="int" name="NKREDZ">     1</i>
   <i type="logical" name="SHIFTRED"> F  </i>
   <i type="logical" name="ODDONLY"> F  </i>
   <i type="logical" name="EVENONLY"> F  </i>
   <i type="int" name="LMAXFOCK">     0</i>
   <i type="int" name="NMAXFOCKAE">     0</i>
   <i type="logical" name="LFOCKAEDFT"> F  </i>
   <i name="HFSCREEN">      0.00000000</i>
   <i name="HFSCREENC">      0.00000000</i>
   <i type="int" name="NBANDSGWLOW">     0</i>
  </separator>
  <separator name="vdW DFT" >
   <i type="logical" name="LUSE_VDW"> F  </i>
   <i name="Zab_VDW">     -0.84910000</i>
   <i name="PARAM1">      0.12340000</i>
   <i name="PARAM2">      1.00000000</i>
   <i name="PARAM3">      0.00000000</i>
  </separator>
  <separator name="model GW" >
   <i type="int" name="MODEL_GW">     0</i>
   <i name="MODEL_EPS0">     14.81501129</i>
   <i name="MODEL_ALPHA">      1.00000000</i>
  </separator>
  <separator name="linear response parameters" >
   <i type="logical" name="LEPSILON"> F  </i>
   <i type="logical" name="LRPA"> F  </i>
   <i type="logical" name="LNABLA"> F  </i>
   <i type="logical" name="LVEL"> F  </i>
   <i type="int" name="KINTER">     0</i>
   <i name="CSHIFT">      0.10000000</i>
   <i name="OMEGAMAX">     -1.00000000</i>
   <i name="DEG_THRESHOLD">      0.00200000</i>
   <i name="RTIME">     -0.10000000</i>
   <i name="WPLASMAI">      0.00000000</i>
   <v name="DFIELD">      0.00000000      0.00000000      0.00000000</v>
   <v name="WPLASMA">      0.00000000      0.00000000      0.00000000      0.00000000      0.00000000      0.00000000      0.00000000      0.00000000      0.00000000</v>
  </separator>
  <separator name="orbital magnetization" >
   <i type="logical" name="NUCIND"> F  </i>
   <v name="MAGPOS">      0.00000000      0.00000000      0.00000000</v>
   <i type="logical" name="LNICSALL"> T  </i>
   <i type="logical" name="ORBITALMAG"> F  </i>
   <i type="logical" name="LMAGBLOCH"> F  </i>
   <i type="logical" name="LCHIMAG"> F  </i>
   <i type="logical" name="LGAUGE"> T  </i>
   <i type="int" name="MAGATOM">     0</i>
   <v name="MAGDIPOL">      0.00000000      0.00000000      0.00000000</v>
   <v name="AVECCONST">      0.00000000      0.00000000      0.00000000</v>
  </separator>
  <separator name="response functions" >
   <i type="logical" name="LADDER"> F  </i>
   <i type="logical" name="LRPAFORCE"> F  </i>
   <i type="logical" name="LFXC"> F  </i>
   <i type="logical" name="LHARTREE"> T  </i>
   <i type="int" name="IBSE">     0</i>
   <v type="int" name="KPOINT">    -1     0     0     0</v>
   <i type="logical" name="LTCTE"> F  </i>
   <i type="logical" name="LTETE"> F  </i>
   <i type="logical" name="LTRIPLET"> F  </i>
   <i type="logical" name="LFXCEPS"> F  </i>
   <i type="logical" name="LFXHEG"> F  </i>
   <i type="int" name="NATURALO">     2</i>
   <i type="logical" name="L2ORDER"> F  </i>
   <i type="logical" name="LMP2LT"> F  </i>
   <i type="logical" name="LUSEW"> F  </i>
   <i name="ENCUTGW">     -2.00000000</i>
   <i name="ENCUTGWSOFT">     -2.00000000</i>
   <i name="ENCUTLF">     -1.00000000</i>
   <i type="int" name="LMAXMP2">    -1</i>
   <i name="SCISSOR">      0.00000000</i>
   <i type="int" name="NOMEGA">     0</i>
   <i type="int" name="NOMEGAR">     0</i>
   <i type="int" name="NBANDSGW">    -1</i>
   <i type="int" name="NBANDSO">    -1</i>
   <i type="int" name="NBANDSV">    -1</i>
   <i type="int" name="NELM">     1</i>
   <i type="int" name="NELMHF">     1</i>
   <i type="int" name="DIM">     3</i>
   <i type="int" name="ANTIRES">     0</i>
   <i name="OMEGAMAX">    -30.00000000</i>
   <i name="OMEGAMIN">    -30.00000000</i>
   <i name="OMEGATL">   -200.00000000</i>
   <i type="int" name="OMEGAGRID">   140</i>
   <i name="CSHIFT">      0.10000000</i>
   <i type="logical" name="SELFENERGY"> F  </i>
   <i type="logical" name="LSPECTRAL"> F  </i>
   <i type="logical" name="LSPECTRALGW"> F  </i>
   <i type="logical" name="LSINGLES"> F  </i>
   <i type="logical" name="LFERMIGW"> F  </i>
   <i type="logical" name="ODDONLYGW"> F  </i>
   <i type="logical" name="EVENONLYGW"> F  </i>
   <i type="int" name="NKREDLFX">     1</i>
   <i type="int" name="NKREDLFY">     1</i>
   <i type="int" name="NKREDLFZ">     1</i>
   <i type="int" name="MAXMEM">  2800</i>
   <i type="int" name="TELESCOPE">     0</i>
   <i type="int" name="TAUPAR">     1</i>
   <i type="int" name="OMEGAPAR">    -1</i>
   <i name="LAMBDA">      1.00000000</i>
  </separator>
  <separator name="External order field" >
   <i name="OFIELD_KAPPA">      0.00000000</i>
   <v name="OFIELD_K">      0.00000000      0.00000000      0.00000000</v>
   <i name="OFIELD_Q6_NEAR">      0.00000000</i>
   <i name="OFIELD_Q6_FAR">      0.00000000</i>
   <i name="OFIELD_A">      0.00000000</i>
  </separator>
 </parameters>
 <atominfo>
  <atoms>       8 </atoms>
  <types>       2 </types>
  <array name="atoms" >
   <dimension dim="1">ion</dimension>
   <field type="string">element</field>
   <field type="int">atomtype</field>
   <set>
    <rc><c>B </c><c>   1</c></rc>
    <rc><c>B </c><c>   1</c></rc>
    <rc><c>C </c><c>   2</c></rc>
    <rc><c>C </c><c>   2</c></rc>
    <rc><c>C </c><c>   2</c></rc>
    <rc><c>C </c><c>   2</c></rc>
    <rc><c>C </c><c>   2</c></rc>
    <rc><c>C </c><c>   2</c></rc>
   </set>
  </array>
  <array name="atomtypes" >
   <dimension dim="1">type</dimension>
   <field type="int">atomspertype</field>
   <field type="string">element</field>
   <field>mass</field>
   <field>valence</field>
   <field type="string">pseudopotential</field>
   <set>
    <rc><c>   2</c><c>B </c><c>     10.81100000</c><c>      3.00000000</c><c>  PAW_PBE B 06Sep2000                   </c></rc>
    <rc><c>   6</c><c>C </c><c>     12.01100000</c><c>      4.00000000</c><c>  PAW_PBE C 08Apr2002                   </c></rc>
   </set>
  </array>
 </atominfo>
 <structure name="initialpos" >
  <crystal>
   <varray name="basis" >
    <v>       4.48084843       2.58701885       0.00000000 </v>
    <v>      -4.48084843       2.58701885       0.00000000 </v>
    <v>       0.00000000       0.00000000       8.52022140 </v>
   </varray>
   <i name="volume">    197.53348383 </i>
   <varray name="rec_basis" >
    <v>       0.11158601       0.19327265       0.00000000 </v>
    <v>      -0.11158601       0.19327265       0.00000000 </v>
    <v>       0.00000000       0.00000000       0.11736784 </v>
   </varray>
  </crystal>
  <varray name="positions" >
   <v>       0.33333300       0.66666600       0.25000000 </v>
   <v>       0.66666600       0.33333300       0.25000000 </v>
   <v>       0.15869124       0.31738348       0.25000000 </v>
   <v>       0.31738348       0.15869124       0.25000000 </v>
   <v>       0.15869124       0.84130776       0.25000000 </v>
   <v>       0.84130776       0.15869124       0.25000000 </v>
   <v>       0.68261552       0.84130776       0.25000000 </v>
   <v>       0.84130776       0.68261552       0.25000000 </v>
  </varray>
 </structure>
 <calculation>
  <scstep>
   <time name="diag">  552.19  552.19</time>
   <time name="total">  552.29  552.29</time>
   <energy>
    <i name="alphaZ">     25.67921176 </i>
    <i name="ewald">    700.27145080 </i>
    <i name="hartreedc">  -1524.76618073 </i>
    <i name="XCdc">     91.14273073 </i>
    <i name="pawpsdc">    738.13200929 </i>
    <i name="pawaedc">   -739.83780425 </i>
    <i name="eentropy">     -0.00000000 </i>
    <i name="bandstr">   -389.26594481 </i>
    <i name="atom">   1025.20389953 </i>
    <i name="e_fr_energy">    -73.44062769 </i>
    <i name="e_wo_entrp">    -73.44062769 </i>
    <i name="e_0_energy">    -73.44062769 </i>
   </energy>
  </scstep>
  <scstep>
   <time name="diag">  574.89  574.88</time>
   <time name="total">  575.00  574.99</time>
   <energy>
    <i name="e_fr_energy">    -68.99901163 </i>
    <i name="e_wo_entrp">    -68.99901163 </i>
    <i name="e_0_energy">    -68.99901163 </i>
   </energy>
  </scstep>
  <scstep>
   <time name="diag">  562.04  562.03</time>
   <time name="total">  562.15  562.14</time>
   <energy>
    <i name="e_fr_energy">    -67.35394036 </i>
    <i name="e_wo_entrp">    -67.35394036 </i>
    <i name="e_0_energy">    -67.35394036 </i>
   </energy>
  </scstep>
  <scstep>
   <time name="diag">  571.23  571.23</time>
   <time name="total">  571.34  571.33</time>
   <energy>
    <i name="e_fr_energy">    -67.24757337 </i>
    <i name="e_wo_entrp">    -67.24757337 </i>
    <i name="e_0_energy">    -67.24757337 </i>
   </energy>
  </scstep>
  <scstep>
   <time name="diag">  588.79  588.79</time>
   <time name="total">  588.90  588.89</time>
   <energy>
    <i name="e_fr_energy">    -67.22049319 </i>
    <i name="e_wo_entrp">    -67.22049319 </i>
    <i name="e_0_energy">    -67.22049319 </i>
   </energy>
  </scstep>
  <scstep>
   <time name="diag">  576.44  576.44</time>
   <time name="total">  576.55  576.54</time>
   <energy>
    <i name="e_fr_energy">    -67.21907962 </i>
    <i name="e_wo_entrp">    -67.21907962 </i>
    <i name="e_0_energy">    -67.21907962 </i>
   </energy>
  </scstep>
  <scstep>
   <time name="diag">  568.37  568.37</time>
   <time name="total">  568.48  568.47</time>
   <energy>
    <i name="e_fr_energy">    -67.22295241 </i>
    <i name="e_wo_entrp">    -67.22295241 </i>
    <i name="e_0_energy">    -67.22295241 </i>
   </energy>
  </scstep>
  <scstep>
   <time name="diag">  570.17  570.16</time>
   <time name="total">  570.28  570.27</time>
   <energy>
    <i name="e_fr_energy">    -67.22702477 </i>
    <i name="e_wo_entrp">    -67.22702477 </i>
    <i name="e_0_energy">    -67.22702477 </i>
   </energy>
  </scstep>
  <scstep>
   <time name="diag">  564.60  564.59</time>
   <time name="total">  564.71  564.70</time>
   <energy>
    <i name="e_fr_energy">    -67.22770203 </i>
    <i name="e_wo_entrp">    -67.22770203 </i>
    <i name="e_0_energy">    -67.22770203 </i>
   </energy>
  </scstep>
  <scstep>
   <time name="diag">  566.82  566.81</time>
   <time name="total">  566.93  566.93</time>
   <energy>
    <i name="e_fr_energy">    -67.22771724 </i>
    <i name="e_wo_entrp">    -67.22771724 </i>
    <i name="e_0_energy">    -67.22771724 </i>
   </energy>
  </scstep>
  <scstep>
   <time name="diag">  566.33  566.32</time>
   <time name="total">  566.44  566.43</time>
   <energy>
    <i name="e_fr_energy">    -67.22773009 </i>
    <i name="e_wo_entrp">    -67.22773009 </i>
    <i name="e_0_energy">    -67.22773009 </i>
   </energy>
  </scstep>
  <scstep>
   <time name="diag">  566.15  566.15</time>
   <time name="total">  566.26  566.25</time>
   <energy>
    <i name="e_fr_energy">    -67.22773016 </i>
    <i name="e_wo_entrp">    -67.22773016 </i>
    <i name="e_0_energy">    -67.22773016 </i>
   </energy>
  </scstep>
  <scstep>
   <time name="diag">  566.15  566.14</time>
   <time name="total">  566.26  566.25</time>
   <energy>
    <i name="e_fr_energy">    -67.22773024 </i>
    <i name="e_wo_entrp">    -67.22773024 </i>
    <i name="e_0_energy">    -67.22773024 </i>
   </energy>
  </scstep>
  <scstep>
   <time name="diag">  567.50  567.50</time>
   <time name="total">  567.55  567.54</time>
   <energy>
    <i name="alphaZ">     25.67921176 </i>
    <i name="ewald">    700.27145080 </i>
    <i name="hartreedc">  -1646.75291200 </i>
    <i name="XCdc">     96.02426133 </i>
    <i name="pawpsdc">   2894.38113014 </i>
    <i name="pawaedc">  -2896.90834123 </i>
    <i name="eentropy">     -0.00000000 </i>
    <i name="bandstr">   -265.12643058 </i>
    <i name="atom">   1025.20389953 </i>
    <i name="e_fr_energy">    -67.22773025 </i>
    <i name="e_wo_entrp">    -67.22773025 </i>
    <i name="e_0_energy">    -67.22773025 </i>
   </energy>
  </scstep>
  <structure>
   <crystal>
    <varray name="basis" >
     <v>       4.48084843       2.58701885       0.00000000 </v>
     <v>      -4.48084843       2.58701885       0.00000000 </v>
     <v>       0.00000000       0.00000000       8.52022140 </v>
    </varray>
    <i name="volume">    197.53348383 </i>
    <varray name="rec_basis" >
     <v>       0.11158601       0.19327265       0.00000000 </v>
     <v>      -0.11158601       0.19327265       0.00000000 </v>
     <v>       0.00000000       0.00000000       0.11736784 </v>
    </varray>
   </crystal>
   <varray name="positions" >
    <v>       0.33333300       0.66666600       0.25000000 </v>
    <v>       0.66666600       0.33333300       0.25000000 </v>
    <v>       0.15869124       0.31738348       0.25000000 </v>
    <v>       0.31738348       0.15869124       0.25000000 </v>
    <v>       0.15869124       0.84130776       0.25000000 </v>
    <v>       0.84130776       0.15869124       0.25000000 </v>
    <v>       0.68261552       0.84130776       0.25000000 </v>
    <v>       0.84130776       0.68261552       0.25000000 </v>
   </varray>
  </structure>
  <varray name="forces" >
   <v>       0.00000000       0.00000000       0.00000000 </v>
   <v>       0.00000000       0.00000000       0.00000000 </v>
   <v>      -0.00064694       0.00112054       0.00000000 </v>
   <v>       0.00064694       0.00112054       0.00000000 </v>
   <v>       0.00129389       0.00000000      -0.00000000 </v>
   <v>      -0.00129389       0.00000000       0.00000000 </v>
   <v>      -0.00064694      -0.00112054      -0.00000000 </v>
   <v>       0.00064694      -0.00112054       0.00000000 </v>
  </varray>
  <varray name="stress" >
   <v>      -0.53277497       0.00000000       0.00000000 </v>
   <v>       0.00000000      -0.53277489       0.00000000 </v>
   <v>       0.00000000      -0.00000000      -1.27118550 </v>
  </varray>
  <energy>
   <i name="e_fr_energy">    -67.22773025 </i>
   <i name="e_wo_entrp">    -67.22773025 </i>
   <i name="e_0_energy">     -0.00000000 </i>
  </energy>
  <time name="totalsc"> 7967.72 7969.29</time>
  <eigenvalues>
   <array>
    <dimension dim="1">band</dimension>
    <dimension dim="2">kpoint</dimension>
    <dimension dim="3">spin</dimension>
    <field>eigene</field>
    <field>occ</field>
    <set>
     <set comment="spin 1">
      <set comment="kpoint 1">
       <r>  -18.5403    1.0000 </r>
       <r>  -14.6488    1.0000 </r>
       <r>  -14.6488    1.0000 </r>
       <r>  -12.2992    1.0000 </r>
       <r>  -12.2992    1.0000 </r>
       <r>  -11.2307    1.0000 </r>
       <r>   -9.9135    1.0000 </r>
       <r>   -7.3452    1.0000 </r>
       <r>   -7.1249    1.0000 </r>
       <r>   -4.9710    1.0000 </r>
       <r>   -4.9710    1.0000 </r>
       <r>   -3.1493    1.0000 </r>
       <r>   -3.1492    1.0000 </r>
       <r>   -2.4667    1.0000 </r>
       <r>   -2.4666    1.0000 </r>
       <r>   -0.6315    0.0000 </r>
       <r>    1.1011    0.0000 </r>
       <r>    1.1012    0.0000 </r>
       <r>    1.7906    0.0000 </r>
       <r>    1.9217    0.0000 </r>
       <r>    4.5207    0.0000 </r>
       <r>    5.9130    0.0000 </r>
       <r>    6.3151    0.0000 </r>
       <r>    6.3151    0.0000 </r>
       <r>    7.6726    0.0000 </r>
       <r>    8.0796    0.0000 </r>
       <r>    8.0797    0.0000 </r>
       <r>    8.9955    0.0000 </r>
       <r>    9.1419    0.0000 </r>
       <r>    9.1419    0.0000 </r>
       <r>    9.2976    0.0000 </r>
       <r>    9.2976    0.0000 </r>
       <r>    9.5160    0.0000 </r>
       <r>   10.3273    0.0000 </r>
       <r>   10.6836    0.0000 </r>
       <r>   10.6836    0.0000 </r>
       <r>   11.3540    0.0000 </r>
       <r>   11.3541    0.0000 </r>
       <r>   11.3922    0.0000 </r>
       <r>   11.3995    0.0000 </r>
       <r>   11.9841    0.0000 </r>
       <r>   13.0008    0.0000 </r>
       <r>   13.0008    0.0000 </r>
       <r>   13.0285    0.0000 </r>
       <r>   13.1319    0.0000 </r>
       <r>   13.1319    0.0000 </r>
       <r>   13.1825    0.0000 </r>
       <r>   13.5279    0.0000 </r>
       <r>   15.6135    0.0000 </r>
       <r>   15.8008    0.0000 </r>
       <r>   15.8008    0.0000 </r>
       <r>   16.4913    0.0000 </r>
       <r>   18.2923    0.0000 </r>
       <r>   18.2923    0.0000 </r>
       <r>   18.8601    0.0000 </r>
       <r>   18.8602    0.0000 </r>
       <r>   19.1473    0.0000 </r>
       <r>   19.2290    0.0000 </r>
       <r>   19.5333    0.0000 </r>
       <r>   19.5333    0.0000 </r>
       <r>   19.7217    0.0000 </r>
       <r>   19.9888    0.0000 </r>
       <r>   19.9888    0.0000 </r>
       <r>   20.0167    0.0000 </r>
       <r>   20.4546    0.0000 </r>
       <r>   21.0813    0.0000 </r>
       <r>   21.3027    0.0000 </r>
       <r>   21.3027    0.0000 </r>
       <r>   22.8793    0.0000 </r>
       <r>   23.2968    0.0000 </r>
       <r>   23.2968    0.0000 </r>
       <r>   23.4397    0.0000 </r>
       <r>   23.4397    0.0000 </r>
       <r>   23.5738    0.0000 </r>
       <r>   24.0936    0.0000 </r>
       <r>   24.0936    0.0000 </r>
       <r>   24.4126    0.0000 </r>
       <r>   24.4126    0.0000 </r>
       <r>   24.5372    0.0000 </r>
       <r>   24.6374    0.0000 </r>
       <r>   24.8763    0.0000 </r>
       <r>   25.2174    0.0000 </r>
       <r>   25.2174    0.0000 </r>
       <r>   26.6516    0.0000 </r>
       <r>   26.6516    0.0000 </r>
       <r>   26.7538    0.0000 </r>
       <r>   26.7538    0.0000 </r>
       <r>   26.8463    0.0000 </r>
       <r>   27.0341    0.0000 </r>
       <r>   27.1216    0.0000 </r>
       <r>   27.7308    0.0000 </r>
       <r>   27.7308    0.0000 </r>
       <r>   27.7998    0.0000 </r>
       <r>   27.7998    0.0000 </r>
       <r>   27.8401    0.0000 </r>
       <r>   28.2967    0.0000 </r>
       <r>   28.2967    0.0000 </r>
       <r>   28.7936    0.0000 </r>
       <r>   28.7936    0.0000 </r>
       <r>   28.9524    0.0000 </r>
       <r>   29.6489    0.0000 </r>
       <r>   30.2897    0.0000 </r>
       <r>   31.1920    0.0000 </r>
       <r>   31.1920    0.0000 </r>
       <r>   31.4239    0.0000 </r>
       <r>   31.4816    0.0000 </r>
       <r>   31.4816    0.0000 </r>
       <r>   31.8841    0.0000 </r>
       <r>   32.0865    0.0000 </r>
       <r>   32.0865    0.0000 </r>
       <r>   32.4044    0.0000 </r>
       <r>   32.6844    0.0000 </r>
       <r>   33.2983    0.0000 </r>
       <r>   33.2983    0.0000 </r>
       <r>   33.3127    0.0000 </r>
       <r>   33.3127    0.0000 </r>
       <r>   33.4606    0.0000 </r>
       <r>   34.0099    0.0000 </r>
       <r>   34.9816    0.0000 </r>
       <r>   34.9816    0.0000 </r>
       <r>   35.0442    0.0000 </r>
       <r>   35.0442    0.0000 </r>
       <r>   35.2268    0.0000 </r>
       <r>   35.2268    0.0000 </r>
       <r>   35.8334    0.0000 </r>
       <r>   35.8655    0.0000 </r>
       <r>   35.8655    0.0000 </r>
       <r>   36.0454    0.0000 </r>
       <r>   36.6964    0.0000 </r>
       <r>   36.6964    0.0000 </r>
       <r>   37.0546    0.0000 </r>
       <r>   37.3010    0.0000 </r>
       <r>   37.3124    0.0000 </r>
       <r>   37.3124    0.0000 </r>
       <r>   37.3416    0.0000 </r>
       <r>   37.3416    0.0000 </r>
       <r>   37.3663    0.0000 </r>
       <r>   37.4564    0.0000 </r>
       <r>   37.4564    0.0000 </r>
       <r>   37.6595    0.0000 </r>
       <r>   37.8898    0.0000 </r>
       <r>   37.9469    0.0000 </r>
       <r>   38.2105    0.0000 </r>
       <r>   38.2105    0.0000 </r>
       <r>   38.5577    0.0000 </r>
       <r>   38.8474    0.0000 </r>
       <r>   38.8474    0.0000 </r>
       <r>   40.8943    0.0000 </r>
       <r>   42.2089    0.0000 </r>
       <r>   42.2089    0.0000 </r>
       <r>   42.3915    0.0000 </r>
       <r>   43.7541    0.0000 </r>
       <r>   43.7541    0.0000 </r>
       <r>   43.9385    0.0000 </r>
       <r>   43.9385    0.0000 </r>
       <r>   44.3103    0.0000 </r>
       <r>   44.3103    0.0000 </r>
       <r>   44.3566    0.0000 </r>
       <r>   44.4926    0.0000 </r>
       <r>   44.4926    0.0000 </r>
       <r>   44.7977    0.0000 </r>
       <r>   45.3264    0.0000 </r>
       <r>   45.3264    0.0000 </r>
       <r>   45.6092    0.0000 </r>
       <r>   45.6092    0.0000 </r>
       <r>   46.0655    0.0000 </r>
       <r>   46.5987    0.0000 </r>
       <r>   46.8263    0.0000 </r>
       <r>   47.8871    0.0000 </r>
       <r>   47.9682    0.0000 </r>
       <r>   48.7262    0.0000 </r>
       <r>   48.7262    0.0000 </r>
       <r>   48.9385    0.0000 </r>
       <r>   49.0206    0.0000 </r>
       <r>   49.0207    0.0000 </r>
       <r>   49.1895    0.0000 </r>
       <r>   49.3789    0.0000 </r>
       <r>   49.5076    0.0000 </r>
       <r>   49.5077    0.0000 </r>
       <r>   49.7124    0.0000 </r>
       <r>   49.7124    0.0000 </r>
       <r>   50.1370    0.0000 </r>
       <r>   50.3457    0.0000 </r>
       <r>   50.3458    0.0000 </r>
       <r>   50.5718    0.0000 </r>
       <r>   50.6150    0.0000 </r>
       <r>   50.6150    0.0000 </r>
       <r>   51.5785    0.0000 </r>
       <r>   51.5785    0.0000 </r>
       <r>   51.7184    0.0000 </r>
       <r>   52.0203    0.0000 </r>
       <r>   52.4951    0.0000 </r>
       <r>   52.4951    0.0000 </r>
       <r>   52.5049    0.0000 </r>
       <r>   52.5049    0.0000 </r>
       <r>   52.8867    0.0000 </r>
       <r>   53.4918    0.0000 </r>
       <r>   53.4918    0.0000 </r>
       <r>   53.4926    0.0000 </r>
       <r>   53.8300    0.0000 </r>
       <r>   53.8300    0.0000 </r>
       <r>   53.9143    0.0000 </r>
       <r>   54.2916    0.0000 </r>
       <r>   54.3186    0.0000 </r>
       <r>   54.3186    0.0000 </r>
       <r>   54.4694    0.0000 </r>
       <r>   54.4695    0.0000 </r>
       <r>   54.6490    0.0000 </r>
       <r>   54.9433    0.0000 </r>
       <r>   54.9433    0.0000 </r>
       <r>   55.2684    0.0000 </r>
       <r>   55.3383    0.0000 </r>
       <r>   55.6000    0.0000 </r>
       <r>   55.7091    0.0000 </r>
       <r>   55.8562    0.0000 </r>
       <r>   55.8562    0.0000 </r>
       <r>   55.9784    0.0000 </r>
       <r>   55.9785    0.0000 </r>
       <r>   56.0273    0.0000 </r>
       <r>   56.4062    0.0000 </r>
       <r>   56.4062    0.0000 </r>
       <r>   57.0541    0.0000 </r>
       <r>   57.0541    0.0000 </r>
       <r>   57.1684    0.0000 </r>
       <r>   57.1813    0.0000 </r>
       <r>   57.1813    0.0000 </r>
       <r>   57.4345    0.0000 </r>
       <r>   57.4759    0.0000 </r>
       <r>   57.4759    0.0000 </r>
       <r>   57.6909    0.0000 </r>
       <r>   57.6909    0.0000 </r>
       <r>   57.8660    0.0000 </r>
       <r>   57.8786    0.0000 </r>
       <r>   57.9830    0.0000 </r>
       <r>   57.9830    0.0000 </r>
       <r>   58.0113    0.0000 </r>
       <r>   58.0225    0.0000 </r>
       <r>   58.1490    0.0000 </r>
       <r>   58.1490    0.0000 </r>
       <r>   58.1727    0.0000 </r>
       <r>   58.3631    0.0000 </r>
       <r>   58.3631    0.0000 </r>
       <r>   58.3839    0.0000 </r>
       <r>   58.3839    0.0000 </r>
       <r>   58.8988    0.0000 </r>
       <r>   58.8988    0.0000 </r>
       <r>   59.0563    0.0000 </r>
       <r>   59.7119    0.0000 </r>
       <r>   59.7119    0.0000 </r>
       <r>   59.9710    0.0000 </r>
       <r>   60.2200    0.0000 </r>
       <r>   60.6108    0.0000 </r>
       <r>   60.6108    0.0000 </r>
       <r>   60.9781    0.0000 </r>
       <r>   61.1585    0.0000 </r>
       <r>   61.1585    0.0000 </r>
       <r>   62.1187    0.0000 </r>
       <r>   62.1187    0.0000 </r>
       <r>   62.7654    0.0000 </r>
       <r>   63.2527    0.0000 </r>
       <r>   63.6720    0.0000 </r>
       <r>   63.6720    0.0000 </r>
       <r>   65.3916    0.0000 </r>
       <r>   65.3916    0.0000 </r>
       <r>   65.7610    0.0000 </r>
       <r>   65.7610    0.0000 </r>
       <r>   65.9659    0.0000 </r>
       <r>   66.0271    0.0000 </r>
       <r>   66.1788    0.0000 </r>
       <r>   66.1788    0.0000 </r>
       <r>   66.2120    0.0000 </r>
       <r>   66.2537    0.0000 </r>
       <r>   66.3494    0.0000 </r>
       <r>   66.3494    0.0000 </r>
       <r>   66.5925    0.0000 </r>
       <r>   66.7507    0.0000 </r>
       <r>   66.7508    0.0000 </r>
       <r>   66.8896    0.0000 </r>
       <r>   67.0713    0.0000 </r>
       <r>   67.0713    0.0000 </r>
       <r>   67.2113    0.0000 </r>
       <r>   67.2989    0.0000 </r>
       <r>   67.2989    0.0000 </r>
       <r>   67.3851    0.0000 </r>
       <r>   67.6908    0.0000 </r>
       <r>   67.6908    0.0000 </r>
       <r>   68.2115    0.0000 </r>
       <r>   68.2115    0.0000 </r>
      </set>
      <set comment="kpoint 2">
       <r>  -18.5132    1.0000 </r>
       <r>  -14.7809    1.0000 </r>
       <r>  -14.6912    1.0000 </r>
       <r>  -12.3384    1.0000 </r>
       <r>  -12.2008    1.0000 </r>
       <r>  -11.0961    1.0000 </r>
       <r>   -9.7531    1.0000 </r>
       <r>   -7.3040    1.0000 </r>
       <r>   -7.1822    1.0000 </r>
       <r>   -5.0944    1.0000 </r>
       <r>   -4.9934    1.0000 </r>
       <r>   -3.2737    1.0000 </r>
       <r>   -3.1697    1.0000 </r>
       <r>   -2.6092    1.0000 </r>
       <r>   -2.5354    1.0000 </r>
       <r>   -0.8361    0.0000 </r>
       <r>    1.1605    0.0000 </r>
       <r>    1.4116    0.0000 </r>
       <r>    1.9153    0.0000 </r>
       <r>    1.9734    0.0000 </r>
       <r>    4.5728    0.0000 </r>
       <r>    5.9692    0.0000 </r>
       <r>    6.3866    0.0000 </r>
       <r>    6.4781    0.0000 </r>
       <r>    7.6627    0.0000 </r>
       <r>    8.0377    0.0000 </r>
       <r>    8.2336    0.0000 </r>
       <r>    8.2352    0.0000 </r>
       <r>    8.6808    0.0000 </r>
       <r>    8.7555    0.0000 </r>
       <r>    9.8480    0.0000 </r>
       <r>    9.8619    0.0000 </r>
       <r>    9.9124    0.0000 </r>
       <r>   10.3759    0.0000 </r>
       <r>   10.3995    0.0000 </r>
       <r>   10.4193    0.0000 </r>
       <r>   10.9077    0.0000 </r>
       <r>   11.4137    0.0000 </r>
       <r>   11.6687    0.0000 </r>
       <r>   12.0448    0.0000 </r>
       <r>   12.1516    0.0000 </r>
       <r>   12.3345    0.0000 </r>
       <r>   12.5608    0.0000 </r>
       <r>   12.8381    0.0000 </r>
       <r>   13.0972    0.0000 </r>
       <r>   13.6279    0.0000 </r>
       <r>   13.8001    0.0000 </r>
       <r>   14.2603    0.0000 </r>
       <r>   15.5623    0.0000 </r>
       <r>   15.6614    0.0000 </r>
       <r>   15.7181    0.0000 </r>
       <r>   16.2792    0.0000 </r>
       <r>   18.0211    0.0000 </r>
       <r>   18.0716    0.0000 </r>
       <r>   18.6452    0.0000 </r>
       <r>   18.9834    0.0000 </r>
       <r>   18.9928    0.0000 </r>
       <r>   19.3961    0.0000 </r>
       <r>   19.4430    0.0000 </r>
       <r>   19.8594    0.0000 </r>
       <r>   19.9227    0.0000 </r>
       <r>   19.9355    0.0000 </r>
       <r>   20.0222    0.0000 </r>
       <r>   20.0695    0.0000 </r>
       <r>   20.4469    0.0000 </r>
       <r>   20.9480    0.0000 </r>
       <r>   21.1306    0.0000 </r>
       <r>   21.1701    0.0000 </r>
       <r>   22.3006    0.0000 </r>
       <r>   22.5129    0.0000 </r>
       <r>   23.0923    0.0000 </r>
       <r>   23.5592    0.0000 </r>
       <r>   23.5744    0.0000 </r>
       <r>   23.6015    0.0000 </r>
       <r>   23.8165    0.0000 </r>
       <r>   24.0248    0.0000 </r>
       <r>   24.2674    0.0000 </r>
       <r>   24.5217    0.0000 </r>
       <r>   24.8306    0.0000 </r>
       <r>   24.9676    0.0000 </r>
       <r>   25.0475    0.0000 </r>
       <r>   25.5521    0.0000 </r>
       <r>   25.6964    0.0000 </r>
       <r>   25.7980    0.0000 </r>
       <r>   25.9189    0.0000 </r>
       <r>   26.1275    0.0000 </r>
       <r>   26.3973    0.0000 </r>
       <r>   26.9094    0.0000 </r>
       <r>   26.9234    0.0000 </r>
       <r>   27.0815    0.0000 </r>
       <r>   27.0849    0.0000 </r>
       <r>   27.5813    0.0000 </r>
       <r>   27.8918    0.0000 </r>
       <r>   28.1065    0.0000 </r>
       <r>   28.6632    0.0000 </r>
       <r>   28.9184    0.0000 </r>
       <r>   29.0466    0.0000 </r>
       <r>   29.1763    0.0000 </r>
       <r>   29.2646    0.0000 </r>
       <r>   29.6366    0.0000 </r>
       <r>   29.6478    0.0000 </r>
       <r>   30.1213    0.0000 </r>
       <r>   30.1818    0.0000 </r>
       <r>   30.7678    0.0000 </r>
       <r>   31.1259    0.0000 </r>
       <r>   31.8749    0.0000 </r>
       <r>   31.9108    0.0000 </r>
       <r>   32.0148    0.0000 </r>
       <r>   32.0886    0.0000 </r>
       <r>   32.5461    0.0000 </r>
       <r>   32.6542    0.0000 </r>
       <r>   32.9444    0.0000 </r>
       <r>   33.0816    0.0000 </r>
       <r>   33.3384    0.0000 </r>
       <r>   33.4640    0.0000 </r>
       <r>   33.5848    0.0000 </r>
       <r>   33.6087    0.0000 </r>
       <r>   33.8445    0.0000 </r>
       <r>   34.0075    0.0000 </r>
       <r>   34.0686    0.0000 </r>
       <r>   34.1281    0.0000 </r>
       <r>   34.2291    0.0000 </r>
       <r>   35.1281    0.0000 </r>
       <r>   35.9146    0.0000 </r>
       <r>   35.9610    0.0000 </r>
       <r>   35.9882    0.0000 </r>
       <r>   36.2332    0.0000 </r>
       <r>   36.3840    0.0000 </r>
       <r>   36.5942    0.0000 </r>
       <r>   36.7596    0.0000 </r>
       <r>   36.8647    0.0000 </r>
       <r>   37.0219    0.0000 </r>
       <r>   37.1188    0.0000 </r>
       <r>   37.2090    0.0000 </r>
       <r>   37.4568    0.0000 </r>
       <r>   37.5348    0.0000 </r>
       <r>   37.8830    0.0000 </r>
       <r>   37.9740    0.0000 </r>
       <r>   38.0606    0.0000 </r>
       <r>   38.1707    0.0000 </r>
       <r>   38.3342    0.0000 </r>
       <r>   38.4488    0.0000 </r>
       <r>   38.9582    0.0000 </r>
       <r>   39.0151    0.0000 </r>
       <r>   39.1512    0.0000 </r>
       <r>   39.7411    0.0000 </r>
       <r>   39.8913    0.0000 </r>
       <r>   40.4036    0.0000 </r>
       <r>   41.6591    0.0000 </r>
       <r>   41.7874    0.0000 </r>
       <r>   42.0183    0.0000 </r>
       <r>   43.0529    0.0000 </r>
       <r>   43.1371    0.0000 </r>
       <r>   43.1853    0.0000 </r>
       <r>   43.3711    0.0000 </r>
       <r>   43.6680    0.0000 </r>
       <r>   43.9100    0.0000 </r>
       <r>   44.3356    0.0000 </r>
       <r>   44.4581    0.0000 </r>
       <r>   44.7940    0.0000 </r>
       <r>   44.8728    0.0000 </r>
       <r>   45.0487    0.0000 </r>
       <r>   45.2335    0.0000 </r>
       <r>   46.1032    0.0000 </r>
       <r>   46.2269    0.0000 </r>
       <r>   46.3651    0.0000 </r>
       <r>   46.4216    0.0000 </r>
       <r>   46.8963    0.0000 </r>
       <r>   47.1013    0.0000 </r>
       <r>   48.0085    0.0000 </r>
       <r>   48.2044    0.0000 </r>
       <r>   48.2685    0.0000 </r>
       <r>   48.4867    0.0000 </r>
       <r>   48.4867    0.0000 </r>
       <r>   48.6077    0.0000 </r>
       <r>   49.4193    0.0000 </r>
       <r>   49.4674    0.0000 </r>
       <r>   49.4813    0.0000 </r>
       <r>   49.4971    0.0000 </r>
       <r>   50.1891    0.0000 </r>
       <r>   50.2489    0.0000 </r>
       <r>   50.3481    0.0000 </r>
       <r>   50.4411    0.0000 </r>
       <r>   50.7495    0.0000 </r>
       <r>   50.7703    0.0000 </r>
       <r>   51.0252    0.0000 </r>
       <r>   51.0836    0.0000 </r>
       <r>   51.2201    0.0000 </r>
       <r>   51.2372    0.0000 </r>
       <r>   51.3233    0.0000 </r>
       <r>   52.0790    0.0000 </r>
       <r>   52.1310    0.0000 </r>
       <r>   52.3383    0.0000 </r>
       <r>   52.5341    0.0000 </r>
       <r>   52.6621    0.0000 </r>
       <r>   52.7051    0.0000 </r>
       <r>   52.7968    0.0000 </r>
       <r>   52.9839    0.0000 </r>
       <r>   53.1591    0.0000 </r>
       <r>   53.4564    0.0000 </r>
       <r>   53.6301    0.0000 </r>
       <r>   53.6776    0.0000 </r>
       <r>   53.8575    0.0000 </r>
       <r>   54.1638    0.0000 </r>
       <r>   54.4158    0.0000 </r>
       <r>   54.5037    0.0000 </r>
       <r>   54.6902    0.0000 </r>
       <r>   54.7543    0.0000 </r>
       <r>   54.8263    0.0000 </r>
       <r>   54.8421    0.0000 </r>
       <r>   54.8679    0.0000 </r>
       <r>   55.0431    0.0000 </r>
       <r>   55.0736    0.0000 </r>
       <r>   55.3025    0.0000 </r>
       <r>   55.4662    0.0000 </r>
       <r>   55.5311    0.0000 </r>
       <r>   55.6692    0.0000 </r>
       <r>   56.1756    0.0000 </r>
       <r>   56.1912    0.0000 </r>
       <r>   56.2449    0.0000 </r>
       <r>   56.3750    0.0000 </r>
       <r>   56.4639    0.0000 </r>
       <r>   56.5464    0.0000 </r>
       <r>   56.5747    0.0000 </r>
       <r>   56.8251    0.0000 </r>
       <r>   56.8859    0.0000 </r>
       <r>   57.0189    0.0000 </r>
       <r>   57.0577    0.0000 </r>
       <r>   57.1652    0.0000 </r>
       <r>   57.2095    0.0000 </r>
       <r>   57.4579    0.0000 </r>
       <r>   57.6391    0.0000 </r>
       <r>   57.6791    0.0000 </r>
       <r>   57.7261    0.0000 </r>
       <r>   58.0939    0.0000 </r>
       <r>   58.1463    0.0000 </r>
       <r>   58.2340    0.0000 </r>
       <r>   58.6067    0.0000 </r>
       <r>   58.7254    0.0000 </r>
       <r>   58.7317    0.0000 </r>
       <r>   59.1755    0.0000 </r>
       <r>   59.4085    0.0000 </r>
       <r>   59.5037    0.0000 </r>
       <r>   60.0199    0.0000 </r>
       <r>   60.0306    0.0000 </r>
       <r>   60.2943    0.0000 </r>
       <r>   60.3322    0.0000 </r>
       <r>   60.4211    0.0000 </r>
       <r>   60.5725    0.0000 </r>
       <r>   60.5849    0.0000 </r>
       <r>   60.7327    0.0000 </r>
       <r>   61.0217    0.0000 </r>
       <r>   61.0341    0.0000 </r>
       <r>   61.3763    0.0000 </r>
       <r>   61.5507    0.0000 </r>
       <r>   61.6702    0.0000 </r>
       <r>   62.1374    0.0000 </r>
       <r>   62.2604    0.0000 </r>
       <r>   62.7760    0.0000 </r>
       <r>   63.5386    0.0000 </r>
       <r>   63.8106    0.0000 </r>
       <r>   64.0655    0.0000 </r>
       <r>   64.1332    0.0000 </r>
       <r>   64.1393    0.0000 </r>
       <r>   64.1615    0.0000 </r>
       <r>   64.2112    0.0000 </r>
       <r>   64.4574    0.0000 </r>
       <r>   65.0710    0.0000 </r>
       <r>   65.2099    0.0000 </r>
       <r>   65.3051    0.0000 </r>
       <r>   65.6032    0.0000 </r>
       <r>   65.6439    0.0000 </r>
       <r>   65.8292    0.0000 </r>
       <r>   66.3752    0.0000 </r>
       <r>   66.4268    0.0000 </r>
       <r>   66.4561    0.0000 </r>
       <r>   66.6966    0.0000 </r>
       <r>   66.7485    0.0000 </r>
       <r>   66.8655    0.0000 </r>
       <r>   66.8769    0.0000 </r>
       <r>   67.1461    0.0000 </r>
       <r>   67.1550    0.0000 </r>
       <r>   67.4064    0.0000 </r>
       <r>   67.5691    0.0000 </r>
       <r>   67.6359    0.0000 </r>
       <r>   67.8043    0.0000 </r>
       <r>   67.8925    0.0000 </r>
       <r>   68.2152    0.0000 </r>
      </set>
      <set comment="kpoint 3">
       <r>  -18.4341    1.0000 </r>
       <r>  -15.1059    1.0000 </r>
       <r>  -14.7954    1.0000 </r>
       <r>  -12.4549    1.0000 </r>
       <r>  -11.9317    1.0000 </r>
       <r>  -10.7149    1.0000 </r>
       <r>   -9.3237    1.0000 </r>
       <r>   -7.3645    1.0000 </r>
       <r>   -7.1816    1.0000 </r>
       <r>   -5.4404    1.0000 </r>
       <r>   -5.0296    1.0000 </r>
       <r>   -3.6157    1.0000 </r>
       <r>   -3.2240    1.0000 </r>
       <r>   -3.0165    1.0000 </r>
       <r>   -2.7272    1.0000 </r>
       <r>   -1.1839    0.0000 </r>
       <r>    1.3238    0.0000 </r>
       <r>    1.8881    0.0000 </r>
       <r>    2.1281    0.0000 </r>
       <r>    2.4358    0.0000 </r>
       <r>    4.7294    0.0000 </r>
       <r>    6.1240    0.0000 </r>
       <r>    6.5551    0.0000 </r>
       <r>    6.9440    0.0000 </r>
       <r>    6.9598    0.0000 </r>
       <r>    7.9146    0.0000 </r>
       <r>    8.1729    0.0000 </r>
       <r>    8.2020    0.0000 </r>
       <r>    8.5790    0.0000 </r>
       <r>    8.7436    0.0000 </r>
       <r>    9.0740    0.0000 </r>
       <r>    9.9077    0.0000 </r>
       <r>    9.9160    0.0000 </r>
       <r>   10.4672    0.0000 </r>
       <r>   10.5716    0.0000 </r>
       <r>   10.5788    0.0000 </r>
       <r>   10.9114    0.0000 </r>
       <r>   11.5894    0.0000 </r>
       <r>   11.8802    0.0000 </r>
       <r>   12.1077    0.0000 </r>
       <r>   12.1424    0.0000 </r>
       <r>   12.3419    0.0000 </r>
       <r>   12.6423    0.0000 </r>
       <r>   13.0075    0.0000 </r>
       <r>   13.4775    0.0000 </r>
       <r>   14.1695    0.0000 </r>
       <r>   14.3858    0.0000 </r>
       <r>   15.1545    0.0000 </r>
       <r>   15.2765    0.0000 </r>
       <r>   15.3889    0.0000 </r>
       <r>   15.7997    0.0000 </r>
       <r>   16.1743    0.0000 </r>
       <r>   17.3574    0.0000 </r>
       <r>   17.5941    0.0000 </r>
       <r>   17.8616    0.0000 </r>
       <r>   19.0273    0.0000 </r>
       <r>   19.0831    0.0000 </r>
       <r>   19.1612    0.0000 </r>
       <r>   19.5522    0.0000 </r>
       <r>   19.8344    0.0000 </r>
       <r>   19.9231    0.0000 </r>
       <r>   20.1859    0.0000 </r>
       <r>   20.2006    0.0000 </r>
       <r>   20.2953    0.0000 </r>
       <r>   20.4610    0.0000 </r>
       <r>   20.6854    0.0000 </r>
       <r>   20.9076    0.0000 </r>
       <r>   20.9177    0.0000 </r>
       <r>   20.9658    0.0000 </r>
       <r>   21.2974    0.0000 </r>
       <r>   23.1084    0.0000 </r>
       <r>   23.7417    0.0000 </r>
       <r>   23.7808    0.0000 </r>
       <r>   23.9368    0.0000 </r>
       <r>   24.0480    0.0000 </r>
       <r>   24.1155    0.0000 </r>
       <r>   24.2288    0.0000 </r>
       <r>   24.2478    0.0000 </r>
       <r>   24.4571    0.0000 </r>
       <r>   24.5114    0.0000 </r>
       <r>   24.6934    0.0000 </r>
       <r>   24.7126    0.0000 </r>
       <r>   25.1039    0.0000 </r>
       <r>   25.1717    0.0000 </r>
       <r>   25.2293    0.0000 </r>
       <r>   26.4776    0.0000 </r>
       <r>   26.6052    0.0000 </r>
       <r>   26.9337    0.0000 </r>
       <r>   27.0663    0.0000 </r>
       <r>   27.5561    0.0000 </r>
       <r>   27.7010    0.0000 </r>
       <r>   28.0595    0.0000 </r>
       <r>   28.1032    0.0000 </r>
       <r>   28.1118    0.0000 </r>
       <r>   28.1885    0.0000 </r>
       <r>   29.1207    0.0000 </r>
       <r>   29.1320    0.0000 </r>
       <r>   29.6998    0.0000 </r>
       <r>   29.7331    0.0000 </r>
       <r>   29.7997    0.0000 </r>
       <r>   30.2525    0.0000 </r>
       <r>   30.3510    0.0000 </r>
       <r>   30.5885    0.0000 </r>
       <r>   30.9582    0.0000 </r>
       <r>   30.9705    0.0000 </r>
       <r>   31.5020    0.0000 </r>
       <r>   31.7567    0.0000 </r>
       <r>   31.9397    0.0000 </r>
       <r>   32.6385    0.0000 </r>
       <r>   32.7569    0.0000 </r>
       <r>   32.8169    0.0000 </r>
       <r>   32.8397    0.0000 </r>
       <r>   32.9283    0.0000 </r>
       <r>   33.0869    0.0000 </r>
       <r>   33.1632    0.0000 </r>
       <r>   33.2361    0.0000 </r>
       <r>   33.7486    0.0000 </r>
       <r>   33.7648    0.0000 </r>
       <r>   33.9660    0.0000 </r>
       <r>   34.0186    0.0000 </r>
       <r>   34.2044    0.0000 </r>
       <r>   34.6047    0.0000 </r>
       <r>   34.9498    0.0000 </r>
       <r>   35.2437    0.0000 </r>
       <r>   35.4874    0.0000 </r>
       <r>   36.2302    0.0000 </r>
       <r>   36.5183    0.0000 </r>
       <r>   36.7573    0.0000 </r>
       <r>   36.8777    0.0000 </r>
       <r>   37.0315    0.0000 </r>
       <r>   37.0646    0.0000 </r>
       <r>   37.4346    0.0000 </r>
       <r>   37.5842    0.0000 </r>
       <r>   37.9624    0.0000 </r>
       <r>   38.0094    0.0000 </r>
       <r>   38.1555    0.0000 </r>
       <r>   38.4170    0.0000 </r>
       <r>   38.8542    0.0000 </r>
       <r>   38.8811    0.0000 </r>
       <r>   39.1132    0.0000 </r>
       <r>   39.2447    0.0000 </r>
       <r>   39.8819    0.0000 </r>
       <r>   39.9875    0.0000 </r>
       <r>   40.0175    0.0000 </r>
       <r>   40.2079    0.0000 </r>
       <r>   40.3686    0.0000 </r>
       <r>   40.5672    0.0000 </r>
       <r>   40.9918    0.0000 </r>
       <r>   41.4309    0.0000 </r>
       <r>   41.5055    0.0000 </r>
       <r>   41.6760    0.0000 </r>
       <r>   41.6996    0.0000 </r>
       <r>   41.7220    0.0000 </r>
       <r>   41.9303    0.0000 </r>
       <r>   42.6752    0.0000 </r>
       <r>   42.7148    0.0000 </r>
       <r>   43.5865    0.0000 </r>
       <r>   43.8867    0.0000 </r>
       <r>   44.2380    0.0000 </r>
       <r>   44.5378    0.0000 </r>
       <r>   44.5403    0.0000 </r>
       <r>   44.7224    0.0000 </r>
       <r>   44.7919    0.0000 </r>
       <r>   45.3049    0.0000 </r>
       <r>   45.7839    0.0000 </r>
       <r>   46.2576    0.0000 </r>
       <r>   46.9417    0.0000 </r>
       <r>   47.1444    0.0000 </r>
       <r>   47.2395    0.0000 </r>
       <r>   47.3560    0.0000 </r>
       <r>   47.5831    0.0000 </r>
       <r>   47.7528    0.0000 </r>
       <r>   48.0740    0.0000 </r>
       <r>   48.1983    0.0000 </r>
       <r>   48.7077    0.0000 </r>
       <r>   48.8128    0.0000 </r>
       <r>   48.9407    0.0000 </r>
       <r>   49.0230    0.0000 </r>
       <r>   49.0710    0.0000 </r>
       <r>   49.1833    0.0000 </r>
       <r>   49.6233    0.0000 </r>
       <r>   50.0096    0.0000 </r>
       <r>   50.4447    0.0000 </r>
       <r>   50.7960    0.0000 </r>
       <r>   50.8175    0.0000 </r>
       <r>   51.0702    0.0000 </r>
       <r>   51.0973    0.0000 </r>
       <r>   51.2646    0.0000 </r>
       <r>   51.6052    0.0000 </r>
       <r>   51.7024    0.0000 </r>
       <r>   51.7616    0.0000 </r>
       <r>   51.7799    0.0000 </r>
       <r>   51.8773    0.0000 </r>
       <r>   52.1730    0.0000 </r>
       <r>   52.2752    0.0000 </r>
       <r>   52.3139    0.0000 </r>
       <r>   52.4321    0.0000 </r>
       <r>   52.4735    0.0000 </r>
       <r>   52.9221    0.0000 </r>
       <r>   52.9401    0.0000 </r>
       <r>   53.1255    0.0000 </r>
       <r>   53.2064    0.0000 </r>
       <r>   53.2902    0.0000 </r>
       <r>   53.3798    0.0000 </r>
       <r>   53.6811    0.0000 </r>
       <r>   53.9041    0.0000 </r>
       <r>   53.9563    0.0000 </r>
       <r>   54.2682    0.0000 </r>
       <r>   54.5095    0.0000 </r>
       <r>   54.6353    0.0000 </r>
       <r>   54.6388    0.0000 </r>
       <r>   54.6881    0.0000 </r>
       <r>   54.9549    0.0000 </r>
       <r>   55.2356    0.0000 </r>
       <r>   55.5023    0.0000 </r>
       <r>   55.5858    0.0000 </r>
       <r>   55.6711    0.0000 </r>
       <r>   56.0427    0.0000 </r>
       <r>   56.1326    0.0000 </r>
       <r>   56.4570    0.0000 </r>
       <r>   56.4874    0.0000 </r>
       <r>   56.6230    0.0000 </r>
       <r>   56.7015    0.0000 </r>
       <r>   56.7793    0.0000 </r>
       <r>   56.7801    0.0000 </r>
       <r>   56.8025    0.0000 </r>
       <r>   57.0056    0.0000 </r>
       <r>   57.0066    0.0000 </r>
       <r>   57.2368    0.0000 </r>
       <r>   57.3407    0.0000 </r>
       <r>   57.4834    0.0000 </r>
       <r>   57.8336    0.0000 </r>
       <r>   57.9182    0.0000 </r>
       <r>   58.1056    0.0000 </r>
       <r>   58.2455    0.0000 </r>
       <r>   58.4224    0.0000 </r>
       <r>   58.4813    0.0000 </r>
       <r>   59.4516    0.0000 </r>
       <r>   59.4563    0.0000 </r>
       <r>   59.8112    0.0000 </r>
       <r>   59.9746    0.0000 </r>
       <r>   60.0811    0.0000 </r>
       <r>   60.0917    0.0000 </r>
       <r>   60.2638    0.0000 </r>
       <r>   61.1602    0.0000 </r>
       <r>   61.3572    0.0000 </r>
       <r>   61.3716    0.0000 </r>
       <r>   61.5326    0.0000 </r>
       <r>   61.5417    0.0000 </r>
       <r>   61.6584    0.0000 </r>
       <r>   61.7090    0.0000 </r>
       <r>   61.7498    0.0000 </r>
       <r>   61.8022    0.0000 </r>
       <r>   61.9057    0.0000 </r>
       <r>   62.0189    0.0000 </r>
       <r>   62.0238    0.0000 </r>
       <r>   62.3300    0.0000 </r>
       <r>   62.5653    0.0000 </r>
       <r>   62.9404    0.0000 </r>
       <r>   63.0027    0.0000 </r>
       <r>   63.0147    0.0000 </r>
       <r>   63.1569    0.0000 </r>
       <r>   63.1792    0.0000 </r>
       <r>   63.6481    0.0000 </r>
       <r>   63.8384    0.0000 </r>
       <r>   64.5425    0.0000 </r>
       <r>   64.5654    0.0000 </r>
       <r>   64.5866    0.0000 </r>
       <r>   64.6965    0.0000 </r>
       <r>   64.7318    0.0000 </r>
       <r>   64.9493    0.0000 </r>
       <r>   65.1634    0.0000 </r>
       <r>   65.2316    0.0000 </r>
       <r>   65.2661    0.0000 </r>
       <r>   65.9334    0.0000 </r>
       <r>   65.9874    0.0000 </r>
       <r>   66.1768    0.0000 </r>
       <r>   66.2473    0.0000 </r>
       <r>   66.2570    0.0000 </r>
       <r>   66.3764    0.0000 </r>
       <r>   66.4075    0.0000 </r>
       <r>   66.7719    0.0000 </r>
       <r>   67.2470    0.0000 </r>
       <r>   67.4248    0.0000 </r>
       <r>   67.5070    0.0000 </r>
       <r>   67.6463    0.0000 </r>
       <r>   67.9536    0.0000 </r>
       <r>   68.1121    0.0000 </r>
      </set>
      <set comment="kpoint 4">
       <r>  -18.3111    1.0000 </r>
       <r>  -15.5025    1.0000 </r>
       <r>  -14.9178    1.0000 </r>
       <r>  -12.6026    1.0000 </r>
       <r>  -11.5471    1.0000 </r>
       <r>  -10.1724    1.0000 </r>
       <r>   -8.7139    1.0000 </r>
       <r>   -7.6782    1.0000 </r>
       <r>   -6.9823    1.0000 </r>
       <r>   -5.9473    1.0000 </r>
       <r>   -5.0207    1.0000 </r>
       <r>   -4.0930    1.0000 </r>
       <r>   -3.6340    1.0000 </r>
       <r>   -3.2941    1.0000 </r>
       <r>   -3.0028    1.0000 </r>
       <r>   -1.4707    0.0000 </r>
       <r>    1.5522    0.0000 </r>
       <r>    2.2445    0.0000 </r>
       <r>    2.3849    0.0000 </r>
       <r>    3.3190    0.0000 </r>
       <r>    4.9927    0.0000 </r>
       <r>    6.0211    0.0000 </r>
       <r>    6.3584    0.0000 </r>
       <r>    6.7511    0.0000 </r>
       <r>    7.6029    0.0000 </r>
       <r>    7.8092    0.0000 </r>
       <r>    7.9266    0.0000 </r>
       <r>    8.1647    0.0000 </r>
       <r>    8.2206    0.0000 </r>
       <r>    8.9264    0.0000 </r>
       <r>    9.3180    0.0000 </r>
       <r>    9.4674    0.0000 </r>
       <r>    9.4698    0.0000 </r>
       <r>   10.1391    0.0000 </r>
       <r>   10.1768    0.0000 </r>
       <r>   11.1044    0.0000 </r>
       <r>   11.3401    0.0000 </r>
       <r>   11.7682    0.0000 </r>
       <r>   11.8214    0.0000 </r>
       <r>   12.3380    0.0000 </r>
       <r>   12.3959    0.0000 </r>
       <r>   12.5104    0.0000 </r>
       <r>   13.2333    0.0000 </r>
       <r>   13.2608    0.0000 </r>
       <r>   14.2225    0.0000 </r>
       <r>   14.4784    0.0000 </r>
       <r>   14.8590    0.0000 </r>
       <r>   15.0380    0.0000 </r>
       <r>   15.3045    0.0000 </r>
       <r>   16.0072    0.0000 </r>
       <r>   16.0964    0.0000 </r>
       <r>   16.2607    0.0000 </r>
       <r>   16.4635    0.0000 </r>
       <r>   17.1509    0.0000 </r>
       <r>   17.2038    0.0000 </r>
       <r>   18.7148    0.0000 </r>
       <r>   18.8973    0.0000 </r>
       <r>   18.9961    0.0000 </r>
       <r>   19.1637    0.0000 </r>
       <r>   19.3560    0.0000 </r>
       <r>   19.6341    0.0000 </r>
       <r>   19.6521    0.0000 </r>
       <r>   19.8567    0.0000 </r>
       <r>   20.1793    0.0000 </r>
       <r>   20.2805    0.0000 </r>
       <r>   20.6624    0.0000 </r>
       <r>   20.7056    0.0000 </r>
       <r>   21.0592    0.0000 </r>
       <r>   21.0780    0.0000 </r>
       <r>   21.4988    0.0000 </r>
       <r>   21.9505    0.0000 </r>
       <r>   22.9605    0.0000 </r>
       <r>   23.2358    0.0000 </r>
       <r>   23.2529    0.0000 </r>
       <r>   23.3291    0.0000 </r>
       <r>   23.5515    0.0000 </r>
       <r>   24.0815    0.0000 </r>
       <r>   24.5135    0.0000 </r>
       <r>   24.5438    0.0000 </r>
       <r>   24.5896    0.0000 </r>
       <r>   24.7054    0.0000 </r>
       <r>   25.0584    0.0000 </r>
       <r>   25.2804    0.0000 </r>
       <r>   25.5470    0.0000 </r>
       <r>   25.6479    0.0000 </r>
       <r>   25.6602    0.0000 </r>
       <r>   26.4057    0.0000 </r>
       <r>   26.7615    0.0000 </r>
       <r>   27.3091    0.0000 </r>
       <r>   28.0925    0.0000 </r>
       <r>   28.1525    0.0000 </r>
       <r>   28.1598    0.0000 </r>
       <r>   28.1715    0.0000 </r>
       <r>   28.3197    0.0000 </r>
       <r>   28.6563    0.0000 </r>
       <r>   28.6892    0.0000 </r>
       <r>   29.1922    0.0000 </r>
       <r>   29.5560    0.0000 </r>
       <r>   29.8650    0.0000 </r>
       <r>   29.9607    0.0000 </r>
       <r>   30.0805    0.0000 </r>
       <r>   30.1473    0.0000 </r>
       <r>   30.6552    0.0000 </r>
       <r>   30.9060    0.0000 </r>
       <r>   31.0702    0.0000 </r>
       <r>   31.7272    0.0000 </r>
       <r>   31.9407    0.0000 </r>
       <r>   31.9744    0.0000 </r>
       <r>   32.2557    0.0000 </r>
       <r>   32.4165    0.0000 </r>
       <r>   32.5241    0.0000 </r>
       <r>   32.5549    0.0000 </r>
       <r>   33.0529    0.0000 </r>
       <r>   33.4802    0.0000 </r>
       <r>   33.5835    0.0000 </r>
       <r>   33.8017    0.0000 </r>
       <r>   33.9561    0.0000 </r>
       <r>   34.1088    0.0000 </r>
       <r>   34.2691    0.0000 </r>
       <r>   34.6196    0.0000 </r>
       <r>   34.9734    0.0000 </r>
       <r>   35.1859    0.0000 </r>
       <r>   35.7166    0.0000 </r>
       <r>   35.7976    0.0000 </r>
       <r>   35.8135    0.0000 </r>
       <r>   36.4358    0.0000 </r>
       <r>   36.7285    0.0000 </r>
       <r>   36.8859    0.0000 </r>
       <r>   37.2446    0.0000 </r>
       <r>   37.2882    0.0000 </r>
       <r>   37.7699    0.0000 </r>
       <r>   37.8238    0.0000 </r>
       <r>   37.9895    0.0000 </r>
       <r>   38.6388    0.0000 </r>
       <r>   39.0195    0.0000 </r>
       <r>   39.0640    0.0000 </r>
       <r>   39.1075    0.0000 </r>
       <r>   39.2829    0.0000 </r>
       <r>   39.3790    0.0000 </r>
       <r>   39.5941    0.0000 </r>
       <r>   39.6123    0.0000 </r>
       <r>   39.7353    0.0000 </r>
       <r>   39.9602    0.0000 </r>
       <r>   40.1138    0.0000 </r>
       <r>   40.1251    0.0000 </r>
       <r>   40.2040    0.0000 </r>
       <r>   40.9925    0.0000 </r>
       <r>   41.3002    0.0000 </r>
       <r>   41.6598    0.0000 </r>
       <r>   41.7458    0.0000 </r>
       <r>   41.8535    0.0000 </r>
       <r>   41.9176    0.0000 </r>
       <r>   42.3695    0.0000 </r>
       <r>   42.4999    0.0000 </r>
       <r>   42.6064    0.0000 </r>
       <r>   42.8776    0.0000 </r>
       <r>   43.1819    0.0000 </r>
       <r>   43.5598    0.0000 </r>
       <r>   43.6217    0.0000 </r>
       <r>   43.9314    0.0000 </r>
       <r>   44.3277    0.0000 </r>
       <r>   44.6186    0.0000 </r>
       <r>   44.9663    0.0000 </r>
       <r>   45.2003    0.0000 </r>
       <r>   45.3725    0.0000 </r>
       <r>   45.4747    0.0000 </r>
       <r>   45.6654    0.0000 </r>
       <r>   46.2222    0.0000 </r>
       <r>   46.3786    0.0000 </r>
       <r>   46.4762    0.0000 </r>
       <r>   46.8449    0.0000 </r>
       <r>   46.8456    0.0000 </r>
       <r>   46.9597    0.0000 </r>
       <r>   47.2318    0.0000 </r>
       <r>   47.9891    0.0000 </r>
       <r>   48.4743    0.0000 </r>
       <r>   48.4990    0.0000 </r>
       <r>   48.5620    0.0000 </r>
       <r>   48.8907    0.0000 </r>
       <r>   49.2050    0.0000 </r>
       <r>   49.4216    0.0000 </r>
       <r>   49.4744    0.0000 </r>
       <r>   49.9091    0.0000 </r>
       <r>   50.0110    0.0000 </r>
       <r>   50.0163    0.0000 </r>
       <r>   50.0237    0.0000 </r>
       <r>   50.3216    0.0000 </r>
       <r>   50.4912    0.0000 </r>
       <r>   50.7075    0.0000 </r>
       <r>   50.9413    0.0000 </r>
       <r>   51.1774    0.0000 </r>
       <r>   51.4010    0.0000 </r>
       <r>   51.4275    0.0000 </r>
       <r>   51.7283    0.0000 </r>
       <r>   51.9061    0.0000 </r>
       <r>   52.1448    0.0000 </r>
       <r>   52.1935    0.0000 </r>
       <r>   52.2059    0.0000 </r>
       <r>   52.3367    0.0000 </r>
       <r>   52.8108    0.0000 </r>
       <r>   52.8464    0.0000 </r>
       <r>   52.8583    0.0000 </r>
       <r>   53.2313    0.0000 </r>
       <r>   53.3892    0.0000 </r>
       <r>   53.6028    0.0000 </r>
       <r>   53.8192    0.0000 </r>
       <r>   54.1504    0.0000 </r>
       <r>   54.1964    0.0000 </r>
       <r>   54.2534    0.0000 </r>
       <r>   54.6405    0.0000 </r>
       <r>   54.7045    0.0000 </r>
       <r>   54.8967    0.0000 </r>
       <r>   55.5596    0.0000 </r>
       <r>   55.5953    0.0000 </r>
       <r>   55.6232    0.0000 </r>
       <r>   55.7245    0.0000 </r>
       <r>   55.7832    0.0000 </r>
       <r>   56.0551    0.0000 </r>
       <r>   56.2202    0.0000 </r>
       <r>   56.6941    0.0000 </r>
       <r>   56.7797    0.0000 </r>
       <r>   56.8429    0.0000 </r>
       <r>   56.9545    0.0000 </r>
       <r>   57.0374    0.0000 </r>
       <r>   57.0739    0.0000 </r>
       <r>   57.2597    0.0000 </r>
       <r>   57.2689    0.0000 </r>
       <r>   57.3143    0.0000 </r>
       <r>   57.5226    0.0000 </r>
       <r>   57.6238    0.0000 </r>
       <r>   57.6990    0.0000 </r>
       <r>   58.1801    0.0000 </r>
       <r>   58.3513    0.0000 </r>
       <r>   58.4951    0.0000 </r>
       <r>   58.9111    0.0000 </r>
       <r>   58.9616    0.0000 </r>
       <r>   59.0730    0.0000 </r>
       <r>   59.0905    0.0000 </r>
       <r>   59.2435    0.0000 </r>
       <r>   59.3175    0.0000 </r>
       <r>   59.3460    0.0000 </r>
       <r>   59.5267    0.0000 </r>
       <r>   59.8521    0.0000 </r>
       <r>   60.3769    0.0000 </r>
       <r>   60.4876    0.0000 </r>
       <r>   60.5735    0.0000 </r>
       <r>   60.6337    0.0000 </r>
       <r>   60.8215    0.0000 </r>
       <r>   61.0742    0.0000 </r>
       <r>   61.3795    0.0000 </r>
       <r>   61.4507    0.0000 </r>
       <r>   61.9936    0.0000 </r>
       <r>   62.0355    0.0000 </r>
       <r>   62.4073    0.0000 </r>
       <r>   62.7477    0.0000 </r>
       <r>   62.8774    0.0000 </r>
       <r>   62.9101    0.0000 </r>
       <r>   62.9686    0.0000 </r>
       <r>   63.0202    0.0000 </r>
       <r>   63.2591    0.0000 </r>
       <r>   63.4523    0.0000 </r>
       <r>   63.5608    0.0000 </r>
       <r>   63.8675    0.0000 </r>
       <r>   64.0999    0.0000 </r>
       <r>   64.2451    0.0000 </r>
       <r>   64.2916    0.0000 </r>
       <r>   64.4979    0.0000 </r>
       <r>   64.8736    0.0000 </r>
       <r>   64.8905    0.0000 </r>
       <r>   65.3184    0.0000 </r>
       <r>   65.3569    0.0000 </r>
       <r>   65.4974    0.0000 </r>
       <r>   65.5078    0.0000 </r>
       <r>   65.8375    0.0000 </r>
       <r>   66.0478    0.0000 </r>
       <r>   66.6053    0.0000 </r>
       <r>   66.7800    0.0000 </r>
       <r>   67.0447    0.0000 </r>
       <r>   67.1222    0.0000 </r>
       <r>   67.1644    0.0000 </r>
       <r>   67.1948    0.0000 </r>
       <r>   67.2874    0.0000 </r>
       <r>   67.3091    0.0000 </r>
       <r>   67.3210    0.0000 </r>
       <r>   67.6097    0.0000 </r>
       <r>   67.6327    0.0000 </r>
       <r>   67.9254    0.0000 </r>
       <r>   68.0574    0.0000 </r>
      </set>
      <set comment="kpoint 5">
       <r>  -18.1625    1.0000 </r>
       <r>  -15.8797    1.0000 </r>
       <r>  -15.0239    1.0000 </r>
       <r>  -12.7316    1.0000 </r>
       <r>  -11.1092    1.0000 </r>
       <r>   -9.5491    1.0000 </r>
       <r>   -8.0852    1.0000 </r>
       <r>   -8.0108    1.0000 </r>
       <r>   -6.7177    1.0000 </r>
       <r>   -6.5247    1.0000 </r>
       <r>   -4.9417    1.0000 </r>
       <r>   -4.6103    1.0000 </r>
       <r>   -4.3954    1.0000 </r>
       <r>   -3.3602    1.0000 </r>
       <r>   -3.3072    1.0000 </r>
       <r>   -1.6689    0.0000 </r>
       <r>    1.7888    0.0000 </r>
       <r>    2.5685    0.0000 </r>
       <r>    2.7430    0.0000 </r>
       <r>    4.2903    0.0000 </r>
       <r>    5.1738    0.0000 </r>
       <r>    5.3723    0.0000 </r>
       <r>    6.6300    0.0000 </r>
       <r>    6.9218    0.0000 </r>
       <r>    7.4317    0.0000 </r>
       <r>    7.5747    0.0000 </r>
       <r>    7.6596    0.0000 </r>
       <r>    8.1261    0.0000 </r>
       <r>    8.5825    0.0000 </r>
       <r>    8.5992    0.0000 </r>
       <r>    9.1056    0.0000 </r>
       <r>    9.1461    0.0000 </r>
       <r>    9.8097    0.0000 </r>
       <r>    9.9117    0.0000 </r>
       <r>   10.3942    0.0000 </r>
       <r>   11.3233    0.0000 </r>
       <r>   11.5760    0.0000 </r>
       <r>   12.0495    0.0000 </r>
       <r>   12.1462    0.0000 </r>
       <r>   12.1731    0.0000 </r>
       <r>   12.2810    0.0000 </r>
       <r>   13.0014    0.0000 </r>
       <r>   13.5155    0.0000 </r>
       <r>   14.2023    0.0000 </r>
       <r>   14.2919    0.0000 </r>
       <r>   14.6098    0.0000 </r>
       <r>   14.9235    0.0000 </r>
       <r>   15.3296    0.0000 </r>
       <r>   15.4034    0.0000 </r>
       <r>   15.7518    0.0000 </r>
       <r>   16.3012    0.0000 </r>
       <r>   16.5796    0.0000 </r>
       <r>   16.6247    0.0000 </r>
       <r>   17.1348    0.0000 </r>
       <r>   17.2323    0.0000 </r>
       <r>   17.6843    0.0000 </r>
       <r>   17.8094    0.0000 </r>
       <r>   18.4659    0.0000 </r>
       <r>   18.6258    0.0000 </r>
       <r>   18.8087    0.0000 </r>
       <r>   19.7113    0.0000 </r>
       <r>   19.9249    0.0000 </r>
       <r>   20.0480    0.0000 </r>
       <r>   20.0842    0.0000 </r>
       <r>   20.2596    0.0000 </r>
       <r>   20.3208    0.0000 </r>
       <r>   20.6361    0.0000 </r>
       <r>   20.9062    0.0000 </r>
       <r>   21.0103    0.0000 </r>
       <r>   21.2642    0.0000 </r>
       <r>   21.6925    0.0000 </r>
       <r>   21.7278    0.0000 </r>
       <r>   22.1547    0.0000 </r>
       <r>   22.4047    0.0000 </r>
       <r>   23.2560    0.0000 </r>
       <r>   23.2649    0.0000 </r>
       <r>   23.8377    0.0000 </r>
       <r>   24.1045    0.0000 </r>
       <r>   24.1943    0.0000 </r>
       <r>   24.8458    0.0000 </r>
       <r>   24.8595    0.0000 </r>
       <r>   24.9236    0.0000 </r>
       <r>   25.7790    0.0000 </r>
       <r>   26.0006    0.0000 </r>
       <r>   26.7166    0.0000 </r>
       <r>   26.7677    0.0000 </r>
       <r>   26.8194    0.0000 </r>
       <r>   26.9807    0.0000 </r>
       <r>   27.2670    0.0000 </r>
       <r>   27.2937    0.0000 </r>
       <r>   27.3826    0.0000 </r>
       <r>   27.6980    0.0000 </r>
       <r>   28.1237    0.0000 </r>
       <r>   28.1329    0.0000 </r>
       <r>   28.5291    0.0000 </r>
       <r>   28.6794    0.0000 </r>
       <r>   29.2568    0.0000 </r>
       <r>   29.4999    0.0000 </r>
       <r>   29.8863    0.0000 </r>
       <r>   30.1178    0.0000 </r>
       <r>   30.2741    0.0000 </r>
       <r>   30.5257    0.0000 </r>
       <r>   30.8992    0.0000 </r>
       <r>   30.9636    0.0000 </r>
       <r>   31.0432    0.0000 </r>
       <r>   31.0750    0.0000 </r>
       <r>   31.7420    0.0000 </r>
       <r>   32.0779    0.0000 </r>
       <r>   32.1846    0.0000 </r>
       <r>   32.2946    0.0000 </r>
       <r>   32.4570    0.0000 </r>
       <r>   32.6305    0.0000 </r>
       <r>   33.0404    0.0000 </r>
       <r>   33.0521    0.0000 </r>
       <r>   33.9218    0.0000 </r>
       <r>   34.7892    0.0000 </r>
       <r>   34.8274    0.0000 </r>
       <r>   35.0880    0.0000 </r>
       <r>   35.2388    0.0000 </r>
       <r>   35.4682    0.0000 </r>
       <r>   35.5684    0.0000 </r>
       <r>   35.6783    0.0000 </r>
       <r>   36.0039    0.0000 </r>
       <r>   36.1773    0.0000 </r>
       <r>   36.7865    0.0000 </r>
       <r>   36.9575    0.0000 </r>
       <r>   37.0661    0.0000 </r>
       <r>   37.1216    0.0000 </r>
       <r>   37.7787    0.0000 </r>
       <r>   37.8099    0.0000 </r>
       <r>   38.0417    0.0000 </r>
       <r>   38.2040    0.0000 </r>
       <r>   38.5480    0.0000 </r>
       <r>   38.7291    0.0000 </r>
       <r>   38.8050    0.0000 </r>
       <r>   38.9357    0.0000 </r>
       <r>   39.0387    0.0000 </r>
       <r>   39.1935    0.0000 </r>
       <r>   39.6691    0.0000 </r>
       <r>   40.0621    0.0000 </r>
       <r>   40.3005    0.0000 </r>
       <r>   40.3501    0.0000 </r>
       <r>   40.6077    0.0000 </r>
       <r>   40.6511    0.0000 </r>
       <r>   40.7527    0.0000 </r>
       <r>   40.8179    0.0000 </r>
       <r>   40.9890    0.0000 </r>
       <r>   41.4842    0.0000 </r>
       <r>   41.4976    0.0000 </r>
       <r>   41.5840    0.0000 </r>
       <r>   41.8153    0.0000 </r>
       <r>   41.8484    0.0000 </r>
       <r>   41.9819    0.0000 </r>
       <r>   42.2135    0.0000 </r>
       <r>   42.2646    0.0000 </r>
       <r>   43.0424    0.0000 </r>
       <r>   43.0575    0.0000 </r>
       <r>   43.6263    0.0000 </r>
       <r>   44.0351    0.0000 </r>
       <r>   44.8254    0.0000 </r>
       <r>   44.9233    0.0000 </r>
       <r>   44.9617    0.0000 </r>
       <r>   45.0181    0.0000 </r>
       <r>   45.0418    0.0000 </r>
       <r>   45.1302    0.0000 </r>
       <r>   45.1441    0.0000 </r>
       <r>   45.3294    0.0000 </r>
       <r>   45.3355    0.0000 </r>
       <r>   45.3626    0.0000 </r>
       <r>   45.8616    0.0000 </r>
       <r>   45.8627    0.0000 </r>
       <r>   45.9826    0.0000 </r>
       <r>   46.0779    0.0000 </r>
       <r>   47.1157    0.0000 </r>
       <r>   47.1433    0.0000 </r>
       <r>   47.1649    0.0000 </r>
       <r>   47.2506    0.0000 </r>
       <r>   47.3324    0.0000 </r>
       <r>   47.6477    0.0000 </r>
       <r>   48.5672    0.0000 </r>
       <r>   48.6689    0.0000 </r>
       <r>   48.7151    0.0000 </r>
       <r>   48.7602    0.0000 </r>
       <r>   48.8159    0.0000 </r>
       <r>   49.7005    0.0000 </r>
       <r>   49.7843    0.0000 </r>
       <r>   50.3424    0.0000 </r>
       <r>   50.3820    0.0000 </r>
       <r>   50.7541    0.0000 </r>
       <r>   50.8006    0.0000 </r>
       <r>   50.8601    0.0000 </r>
       <r>   51.1444    0.0000 </r>
       <r>   51.3154    0.0000 </r>
       <r>   51.3413    0.0000 </r>
       <r>   51.3652    0.0000 </r>
       <r>   51.6235    0.0000 </r>
       <r>   51.8502    0.0000 </r>
       <r>   51.9126    0.0000 </r>
       <r>   51.9725    0.0000 </r>
       <r>   52.3783    0.0000 </r>
       <r>   52.5818    0.0000 </r>
       <r>   52.6231    0.0000 </r>
       <r>   53.2494    0.0000 </r>
       <r>   53.3211    0.0000 </r>
       <r>   53.6369    0.0000 </r>
       <r>   53.7790    0.0000 </r>
       <r>   54.3841    0.0000 </r>
       <r>   54.5918    0.0000 </r>
       <r>   54.6517    0.0000 </r>
       <r>   54.7303    0.0000 </r>
       <r>   54.8948    0.0000 </r>
       <r>   55.1598    0.0000 </r>
       <r>   55.5169    0.0000 </r>
       <r>   55.5954    0.0000 </r>
       <r>   55.6189    0.0000 </r>
       <r>   55.6474    0.0000 </r>
       <r>   55.7138    0.0000 </r>
       <r>   55.7918    0.0000 </r>
       <r>   55.8562    0.0000 </r>
       <r>   56.0247    0.0000 </r>
       <r>   56.3894    0.0000 </r>
       <r>   56.5112    0.0000 </r>
       <r>   56.5852    0.0000 </r>
       <r>   56.6186    0.0000 </r>
       <r>   56.7814    0.0000 </r>
       <r>   57.3318    0.0000 </r>
       <r>   57.4465    0.0000 </r>
       <r>   57.6189    0.0000 </r>
       <r>   57.8269    0.0000 </r>
       <r>   57.8636    0.0000 </r>
       <r>   57.8928    0.0000 </r>
       <r>   58.0444    0.0000 </r>
       <r>   58.0530    0.0000 </r>
       <r>   58.3020    0.0000 </r>
       <r>   58.3125    0.0000 </r>
       <r>   58.7751    0.0000 </r>
       <r>   58.9327    0.0000 </r>
       <r>   59.1324    0.0000 </r>
       <r>   59.3069    0.0000 </r>
       <r>   59.4079    0.0000 </r>
       <r>   59.5553    0.0000 </r>
       <r>   60.0355    0.0000 </r>
       <r>   60.2827    0.0000 </r>
       <r>   60.3465    0.0000 </r>
       <r>   60.7767    0.0000 </r>
       <r>   60.7816    0.0000 </r>
       <r>   60.9023    0.0000 </r>
       <r>   61.1990    0.0000 </r>
       <r>   61.3819    0.0000 </r>
       <r>   61.6408    0.0000 </r>
       <r>   61.7534    0.0000 </r>
       <r>   61.7673    0.0000 </r>
       <r>   61.8911    0.0000 </r>
       <r>   62.1464    0.0000 </r>
       <r>   62.5449    0.0000 </r>
       <r>   62.5960    0.0000 </r>
       <r>   62.6771    0.0000 </r>
       <r>   62.7024    0.0000 </r>
       <r>   63.6389    0.0000 </r>
       <r>   63.7459    0.0000 </r>
       <r>   63.8410    0.0000 </r>
       <r>   64.4390    0.0000 </r>
       <r>   64.6614    0.0000 </r>
       <r>   64.7405    0.0000 </r>
       <r>   64.8109    0.0000 </r>
       <r>   64.8559    0.0000 </r>
       <r>   65.2094    0.0000 </r>
       <r>   65.2269    0.0000 </r>
       <r>   65.2760    0.0000 </r>
       <r>   65.3105    0.0000 </r>
       <r>   65.5727    0.0000 </r>
       <r>   65.7947    0.0000 </r>
       <r>   65.9295    0.0000 </r>
       <r>   65.9450    0.0000 </r>
       <r>   66.1304    0.0000 </r>
       <r>   66.9139    0.0000 </r>
       <r>   66.9160    0.0000 </r>
       <r>   67.2919    0.0000 </r>
       <r>   67.5624    0.0000 </r>
       <r>   67.6290    0.0000 </r>
       <r>   67.6604    0.0000 </r>
       <r>   67.7885    0.0000 </r>
       <r>   67.8770    0.0000 </r>
       <r>   68.1486    0.0000 </r>
       <r>   68.1962    0.0000 </r>
       <r>   68.3447    0.0000 </r>
       <r>   68.5721    0.0000 </r>
       <r>   68.6446    0.0000 </r>
      </set>
      <set comment="kpoint 6">
       <r>  -18.0272    1.0000 </r>
       <r>  -16.1629    1.0000 </r>
       <r>  -15.0939    1.0000 </r>
       <r>  -12.8160    1.0000 </r>
       <r>  -10.7080    1.0000 </r>
       <r>   -8.9042    1.0000 </r>
       <r>   -8.4816    1.0000 </r>
       <r>   -7.5745    1.0000 </r>
       <r>   -6.7929    1.0000 </r>
       <r>   -6.4253    1.0000 </r>
       <r>   -5.2343    1.0000 </r>
       <r>   -5.0733    1.0000 </r>
       <r>   -4.8255    1.0000 </r>
       <r>   -3.5685    1.0000 </r>
       <r>   -3.4063    1.0000 </r>
       <r>   -1.7847    0.0000 </r>
       <r>    1.9692    0.0000 </r>
       <r>    2.8120    0.0000 </r>
       <r>    3.2016    0.0000 </r>
       <r>    4.4184    0.0000 </r>
       <r>    5.2007    0.0000 </r>
       <r>    5.8937    0.0000 </r>
       <r>    6.7443    0.0000 </r>
       <r>    6.7975    0.0000 </r>
       <r>    7.1991    0.0000 </r>
       <r>    7.4335    0.0000 </r>
       <r>    7.5840    0.0000 </r>
[...]
       <r>    58.2837     8.4666   463.6048 </r>
       <r>    58.3240     6.9500   463.8847 </r>
       <r>    58.3642    13.6925   464.4360 </r>
       <r>    58.4045    16.0276   465.0814 </r>
       <r>    58.4448    16.6725   465.7527 </r>
       <r>    58.4850     6.1493   466.0003 </r>
       <r>    58.5253     6.2674   466.2526 </r>
       <r>    58.5656    10.8579   466.6898 </r>
       <r>    58.6058    10.3197   467.1053 </r>
       <r>    58.6461     2.2765   467.1970 </r>
       <r>    58.6864    10.0966   467.6036 </r>
       <r>    58.7266     6.9069   467.8817 </r>
       <r>    58.7669    10.5356   468.3059 </r>
       <r>    58.8072     4.8801   468.5024 </r>
       <r>    58.8474     1.2973   468.5546 </r>
       <r>    58.8877     8.8395   468.9105 </r>
       <r>    58.9280     6.8239   469.1853 </r>
       <r>    58.9682    13.4597   469.7273 </r>
       <r>    59.0085    16.4222   470.3885 </r>
       <r>    59.0487     4.3268   470.5627 </r>
       <r>    59.0890    15.4872   471.1863 </r>
       <r>    59.1293     8.7572   471.5389 </r>
       <r>    59.1695     4.8952   471.7360 </r>
       <r>    59.2098     8.8042   472.0905 </r>
       <r>    59.2501    20.7157   472.9246 </r>
       <r>    59.2903    15.2839   473.5401 </r>
       <r>    59.3306    11.4330   474.0004 </r>
       <r>    59.3709     8.5704   474.3455 </r>
       <r>    59.4111     8.9005   474.7039 </r>
       <r>    59.4514     6.0188   474.9462 </r>
       <r>    59.4917    20.9522   475.7899 </r>
       <r>    59.5319    13.4568   476.3317 </r>
       <r>    59.5722    13.4820   476.8746 </r>
       <r>    59.6125     4.1685   477.0424 </r>
       <r>    59.6527     3.9085   477.1998 </r>
       <r>    59.6930     9.6302   477.5875 </r>
       <r>    59.7333     6.8972   477.8653 </r>
       <r>    59.7735     9.1445   478.2335 </r>
       <r>    59.8138    10.3805   478.6514 </r>
       <r>    59.8540     6.7920   478.9249 </r>
       <r>    59.8943     5.5776   479.1495 </r>
       <r>    59.9346    22.1836   480.0427 </r>
       <r>    59.9748    11.5374   480.5073 </r>
       <r>    60.0151     3.8287   480.6614 </r>
       <r>    60.0554    19.6752   481.4537 </r>
       <r>    60.0956     9.4712   481.8350 </r>
       <r>    60.1359    18.9624   482.5985 </r>
       <r>    60.1762    10.3889   483.0169 </r>
       <r>    60.2164     5.6102   483.2428 </r>
       <r>    60.2567     5.4895   483.4638 </r>
       <r>    60.2970    20.9201   484.3061 </r>
       <r>    60.3372    13.7376   484.8593 </r>
       <r>    60.3775    14.3454   485.4369 </r>
       <r>    60.4178     6.3665   485.6933 </r>
       <r>    60.4580    12.2301   486.1857 </r>
       <r>    60.4983    12.5859   486.6925 </r>
       <r>    60.5386    12.7561   487.2061 </r>
       <r>    60.5788    14.2679   487.7806 </r>
       <r>    60.6191    14.3918   488.3601 </r>
       <r>    60.6594     4.6635   488.5479 </r>
       <r>    60.6996     7.5207   488.8507 </r>
       <r>    60.7399    16.8592   489.5295 </r>
       <r>    60.7801    17.0448   490.2158 </r>
       <r>    60.8204    10.7971   490.6506 </r>
       <r>    60.8607    11.9549   491.1319 </r>
       <r>    60.9009     9.5979   491.5184 </r>
       <r>    60.9412    16.5756   492.1858 </r>
       <r>    60.9815    10.1091   492.5929 </r>
       <r>    61.0217     5.2611   492.8047 </r>
       <r>    61.0620     3.2743   492.9365 </r>
       <r>    61.1023     9.2949   493.3108 </r>
       <r>    61.1425     4.2194   493.4807 </r>
       <r>    61.1828    11.3104   493.9361 </r>
       <r>    61.2231     9.9359   494.3362 </r>
       <r>    61.2633     7.0878   494.6216 </r>
       <r>    61.3036     9.6293   495.0093 </r>
       <r>    61.3439    13.3053   495.5450 </r>
       <r>    61.3841    16.3650   496.2040 </r>
       <r>    61.4244    11.2516   496.6570 </r>
       <r>    61.4647    12.2469   497.1501 </r>
       <r>    61.5049    10.4522   497.5710 </r>
       <r>    61.5452     5.5568   497.7947 </r>
       <r>    61.5854    10.1093   498.2018 </r>
       <r>    61.6257    11.4745   498.6638 </r>
       <r>    61.6660    17.6461   499.3743 </r>
       <r>    61.7062    11.2973   499.8292 </r>
       <r>    61.7465     3.4816   499.9694 </r>
       <r>    61.7868    14.4288   500.5504 </r>
       <r>    61.8270     6.7632   500.8227 </r>
       <r>    61.8673     4.8723   501.0189 </r>
       <r>    61.9076    16.6266   501.6884 </r>
       <r>    61.9478     2.9173   501.8058 </r>
       <r>    61.9881    14.5870   502.3932 </r>
       <r>    62.0284    14.5717   502.9799 </r>
       <r>    62.0686     5.5235   503.2023 </r>
       <r>    62.1089    19.2351   503.9768 </r>
       <r>    62.1492    11.1790   504.4269 </r>
       <r>    62.1894    12.3858   504.9257 </r>
       <r>    62.2297     4.9865   505.1264 </r>
       <r>    62.2700    16.4897   505.7904 </r>
       <r>    62.3102    12.5852   506.2971 </r>
       <r>    62.3505     9.2507   506.6696 </r>
       <r>    62.3908     7.6221   506.9765 </r>
       <r>    62.4310    10.4249   507.3963 </r>
       <r>    62.4713     4.7219   507.5864 </r>
       <r>    62.5115     8.3479   507.9226 </r>
       <r>    62.5518    18.4358   508.6649 </r>
       <r>    62.5921    22.4421   509.5685 </r>
       <r>    62.6323    11.7791   510.0428 </r>
       <r>    62.6726     9.7492   510.4353 </r>
       <r>    62.7129     8.8861   510.7931 </r>
       <r>    62.7531    10.9868   511.2355 </r>
       <r>    62.7934     6.8972   511.5132 </r>
       <r>    62.8337     8.6337   511.8609 </r>
       <r>    62.8739     3.0616   511.9842 </r>
       <r>    62.9142     9.7662   512.3774 </r>
       <r>    62.9545     6.8364   512.6527 </r>
       <r>    62.9947     3.0794   512.7767 </r>
       <r>    63.0350    15.0071   513.3809 </r>
       <r>    63.0753     3.6358   513.5273 </r>
       <r>    63.1155    13.0039   514.0509 </r>
       <r>    63.1558    11.5053   514.5142 </r>
       <r>    63.1961    17.0947   515.2025 </r>
       <r>    63.2363    13.4659   515.7447 </r>
       <r>    63.2766     7.8947   516.0626 </r>
       <r>    63.3168    17.2787   516.7583 </r>
       <r>    63.3571    15.4072   517.3787 </r>
       <r>    63.3974     6.6122   517.6449 </r>
       <r>    63.4376     0.7174   517.6738 </r>
       <r>    63.4779    11.3281   518.1299 </r>
       <r>    63.5182    14.4247   518.7108 </r>
       <r>    63.5584    14.2944   519.2863 </r>
       <r>    63.5987     3.2373   519.4167 </r>
       <r>    63.6390     1.5276   519.4782 </r>
       <r>    63.6792     6.9534   519.7582 </r>
       <r>    63.7195     8.8455   520.1143 </r>
       <r>    63.7598    14.3539   520.6923 </r>
       <r>    63.8000     0.6348   520.7178 </r>
       <r>    63.8403    14.3671   521.2963 </r>
       <r>    63.8806    10.5934   521.7229 </r>
       <r>    63.9208    11.2851   522.1773 </r>
       <r>    63.9611     8.0911   522.5031 </r>
       <r>    64.0014     8.6491   522.8513 </r>
       <r>    64.0416     6.9536   523.1313 </r>
       <r>    64.0819     5.3024   523.3448 </r>
       <r>    64.1222    19.1966   524.1178 </r>
       <r>    64.1624     9.1954   524.4880 </r>
       <r>    64.2027    12.4292   524.9885 </r>
       <r>    64.2429    14.8596   525.5868 </r>
       <r>    64.2832    16.3502   526.2452 </r>
       <r>    64.3235    11.2913   526.6998 </r>
       <r>    64.3637    10.6950   527.1304 </r>
       <r>    64.4040    13.2498   527.6639 </r>
       <r>    64.4443     7.5912   527.9696 </r>
       <r>    64.4845     8.2725   528.3027 </r>
       <r>    64.5248    13.4492   528.8442 </r>
       <r>    64.5651    12.2954   529.3393 </r>
       <r>    64.6053    16.4367   530.0011 </r>
       <r>    64.6456     6.8729   530.2779 </r>
       <r>    64.6859    17.3279   530.9756 </r>
       <r>    64.7261    13.0582   531.5014 </r>
       <r>    64.7664    22.9941   532.4272 </r>
       <r>    64.8067     1.7280   532.4968 </r>
       <r>    64.8469     5.9318   532.7356 </r>
       <r>    64.8872    19.8707   533.5357 </r>
       <r>    64.9275     4.2079   533.7052 </r>
       <r>    64.9677     6.8208   533.9798 </r>
       <r>    65.0080     2.7300   534.0897 </r>
       <r>    65.0482    11.4994   534.5528 </r>
       <r>    65.0885    21.3162   535.4111 </r>
       <r>    65.1288     7.0347   535.6943 </r>
       <r>    65.1690    15.9901   536.3382 </r>
       <r>    65.2093     9.4745   536.7196 </r>
       <r>    65.2496     7.6139   537.0262 </r>
       <r>    65.2898    18.2130   537.7596 </r>
       <r>    65.3301    12.9311   538.2802 </r>
       <r>    65.3704     6.5613   538.5444 </r>
       <r>    65.4106    17.4245   539.2460 </r>
       <r>    65.4509     8.6362   539.5938 </r>
       <r>    65.4912     4.1390   539.7604 </r>
       <r>    65.5314     6.7830   540.0336 </r>
       <r>    65.5717    12.3734   540.5318 </r>
       <r>    65.6120    22.3807   541.4329 </r>
       <r>    65.6522    15.8584   542.0715 </r>
       <r>    65.6925     6.1315   542.3184 </r>
       <r>    65.7328     6.1551   542.5662 </r>
       <r>    65.7730     5.6751   542.7947 </r>
       <r>    65.8133    14.0699   543.3612 </r>
       <r>    65.8536    14.1011   543.9290 </r>
       <r>    65.8938     8.2769   544.2623 </r>
       <r>    65.9341     8.2877   544.5960 </r>
       <r>    65.9743    11.1155   545.0436 </r>
       <r>    66.0146     8.6920   545.3935 </r>
       <r>    66.0549    17.0157   546.0787 </r>
       <r>    66.0951     7.1509   546.3666 </r>
       <r>    66.1354     5.4698   546.5869 </r>
       <r>    66.1757     7.4845   546.8882 </r>
       <r>    66.2159    15.0339   547.4936 </r>
       <r>    66.2562     6.5964   547.7592 </r>
       <r>    66.2965     3.1223   547.8849 </r>
       <r>    66.3367    18.3184   548.6225 </r>
       <r>    66.3770    10.6765   549.0524 </r>
       <r>    66.4173     9.8928   549.4507 </r>
       <r>    66.4575     6.1464   549.6982 </r>
       <r>    66.4978     6.2726   549.9508 </r>
       <r>    66.5381    17.5273   550.6565 </r>
       <r>    66.5783    14.5514   551.2424 </r>
       <r>    66.6186    10.4315   551.6624 </r>
       <r>    66.6589    12.3560   552.1600 </r>
       <r>    66.6991     8.4393   552.4998 </r>
       <r>    66.7394     9.2402   552.8718 </r>
       <r>    66.7797     7.8335   553.1872 </r>
       <r>    66.8199     8.3882   553.5250 </r>
       <r>    66.8602    14.3117   554.1013 </r>
       <r>    66.9004    24.8048   555.1000 </r>
       <r>    66.9407    15.4437   555.7219 </r>
       <r>    66.9810    12.8605   556.2397 </r>
       <r>    67.0212    15.6785   556.8710 </r>
       <r>    67.0615     8.4050   557.2094 </r>
       <r>    67.1018     1.1359   557.2552 </r>
       <r>    67.1420     3.2102   557.3844 </r>
       <r>    67.1823    15.8534   558.0228 </r>
       <r>    67.2226     6.0363   558.2658 </r>
       <r>    67.2628     8.4871   558.6075 </r>
       <r>    67.3031    14.0985   559.1752 </r>
       <r>    67.3434    11.1821   559.6255 </r>
       <r>    67.3836     5.6668   559.8536 </r>
       <r>    67.4239    11.3134   560.3092 </r>
       <r>    67.4642     9.3846   560.6871 </r>
       <r>    67.5044    13.5397   561.2322 </r>
       <r>    67.5447    20.1386   562.0431 </r>
       <r>    67.5850    14.7291   562.6362 </r>
       <r>    67.6252     8.9565   562.9968 </r>
       <r>    67.6655    22.1551   563.8889 </r>
       <r>    67.7057     9.1746   564.2583 </r>
       <r>    67.7460     8.1658   564.5871 </r>
       <r>    67.7863    10.1555   564.9960 </r>
       <r>    67.8265    16.1845   565.6477 </r>
       <r>    67.8668     8.1732   565.9768 </r>
       <r>    67.9071     4.0284   566.1390 </r>
       <r>    67.9473     6.6749   566.4078 </r>
       <r>    67.9876     3.6711   566.5556 </r>
       <r>    68.0279     4.6437   566.7426 </r>
       <r>    68.0681    14.4638   567.3249 </r>
       <r>    68.1084    14.5033   567.9089 </r>
       <r>    68.1487     7.5410   568.2126 </r>
       <r>    68.1889     7.4695   568.5133 </r>
       <r>    68.2292    12.3122   569.0091 </r>
       <r>    68.2695    20.4185   569.8312 </r>
       <r>    68.3097     2.9766   569.9511 </r>
       <r>    68.3500     9.9784   570.3529 </r>
       <r>    68.3903     4.7179   570.5428 </r>
       <r>    68.4305    17.1378   571.2329 </r>
       <r>    68.4708     7.2050   571.5230 </r>
       <r>    68.5111    14.3175   572.0995 </r>
       <r>    68.5513     7.6135   572.4061 </r>
       <r>    68.5916     5.9465   572.6455 </r>
       <r>    68.6318    15.3710   573.2644 </r>
       <r>    68.6721    14.2619   573.8387 </r>
       <r>    68.7124     7.6425   574.1464 </r>
       <r>    68.7526     0.5039   574.1667 </r>
       <r>    68.7929     2.0164   574.2479 </r>
       <r>    68.8332     0.0531   574.2500 </r>
       <r>    68.8734     1.7012   574.3185 </r>
       <r>    68.9137    10.7233   574.7503 </r>
       <r>    68.9540     7.9461   575.0702 </r>
       <r>    68.9942    12.6413   575.5792 </r>
       <r>    69.0345     0.1678   575.5860 </r>
       <r>    69.0748     2.0037   575.6667 </r>
       <r>    69.1150     0.0001   575.6667 </r>
       <r>    69.1553     0.0000   575.6667 </r>
       <r>    69.1956     0.0237   575.6676 </r>
       <r>    69.2358     4.1125   575.8332 </r>
       <r>    69.2761     3.2720   575.9650 </r>
       <r>    69.3164     0.8702   576.0000 </r>
       <r>    69.3566     0.0000   576.0000 </r>
       <r>    69.3969     0.0000   576.0000 </r>
       <r>    69.4371     0.0000   576.0000 </r>
       <r>    69.4774     0.0000   576.0000 </r>
       <r>    69.5177     0.0000   576.0000 </r>
       <r>    69.5579     0.0000   576.0000 </r>
       <r>    69.5982     0.0000   576.0000 </r>
       <r>    69.6385     0.0000   576.0000 </r>
       <r>    69.6787     0.0000   576.0000 </r>
       <r>    69.7190     0.0000   576.0000 </r>
       <r>    69.7593     0.0000   576.0000 </r>
       <r>    69.7995     0.0000   576.0000 </r>
       <r>    69.8398     0.0000   576.0000 </r>
       <r>    69.8801     0.0000   576.0000 </r>
       <r>    69.9203     0.0000   576.0000 </r>
       <r>    69.9606     0.0000   576.0000 </r>
       <r>    70.0009     0.0000   576.0000 </r>
       <r>    70.0411     0.0000   576.0000 </r>
       <r>    70.0814     0.0000   576.0000 </r>
       <r>    70.1217     0.0000   576.0000 </r>
       <r>    70.1619     0.0000   576.0000 </r>
       <r>    70.2022     0.0000   576.0000 </r>
       <r>    70.2425     0.0000   576.0000 </r>
       <r>    70.2827     0.0000   576.0000 </r>
       <r>    70.3230     0.0000   576.0000 </r>
       <r>    70.3632     0.0000   576.0000 </r>
       <r>    70.4035     0.0000   576.0000 </r>
       <r>    70.4438     0.0000   576.0000 </r>
       <r>    70.4840     0.0000   576.0000 </r>
       <r>    70.5243     0.0000   576.0000 </r>
       <r>    70.5646     0.0000   576.0000 </r>
       <r>    70.6048     0.0000   576.0000 </r>
       <r>    70.6451     0.0000   576.0000 </r>
       <r>    70.6854     0.0000   576.0000 </r>
       <r>    70.7256     0.0000   576.0000 </r>
       <r>    70.7659     0.0000   576.0000 </r>
       <r>    70.8062     0.0000   576.0000 </r>
       <r>    70.8464     0.0000   576.0000 </r>
       <r>    70.8867     0.0000   576.0000 </r>
       <r>    70.9270     0.0000   576.0000 </r>
       <r>    70.9672     0.0000   576.0000 </r>
       <r>    71.0075     0.0000   576.0000 </r>
       <r>    71.0478     0.0000   576.0000 </r>
       <r>    71.0880     0.0000   576.0000 </r>
       <r>    71.1283     0.0000   576.0000 </r>
       <r>    71.1685     0.0000   576.0000 </r>
       <r>    71.2088     0.0000   576.0000 </r>
       <r>    71.2491     0.0000   576.0000 </r>
       <r>    71.2893     0.0000   576.0000 </r>
       <r>    71.3296     0.0000   576.0000 </r>
       <r>    71.3699     0.0000   576.0000 </r>
       <r>    71.4101     0.0000   576.0000 </r>
       <r>    71.4504     0.0000   576.0000 </r>
       <r>    71.4907     0.0000   576.0000 </r>
       <r>    71.5309     0.0000   576.0000 </r>
       <r>    71.5712     0.0000   576.0000 </r>
       <r>    71.6115     0.0000   576.0000 </r>
       <r>    71.6517     0.0000   576.0000 </r>
       <r>    71.6920     0.0000   576.0000 </r>
       <r>    71.7323     0.0000   576.0000 </r>
       <r>    71.7725     0.0000   576.0000 </r>
       <r>    71.8128     0.0000   576.0000 </r>
       <r>    71.8531     0.0000   576.0000 </r>
       <r>    71.8933     0.0000   576.0000 </r>
       <r>    71.9336     0.0000   576.0000 </r>
       <r>    71.9739     0.0000   576.0000 </r>
       <r>    72.0141     0.0000   576.0000 </r>
       <r>    72.0544     0.0000   576.0000 </r>
       <r>    72.0946     0.0000   576.0000 </r>
       <r>    72.1349     0.0000   576.0000 </r>
       <r>    72.1752     0.0000   576.0000 </r>
       <r>    72.2154     0.0000   576.0000 </r>
       <r>    72.2557     0.0000   576.0000 </r>
       <r>    72.2960     0.0000   576.0000 </r>
       <r>    72.3362     0.0000   576.0000 </r>
       <r>    72.3765     0.0000   576.0000 </r>
       <r>    72.4168     0.0000   576.0000 </r>
       <r>    72.4570     0.0000   576.0000 </r>
       <r>    72.4973     0.0000   576.0000 </r>
       <r>    72.5376     0.0000   576.0000 </r>
       <r>    72.5778     0.0000   576.0000 </r>
       <r>    72.6181     0.0000   576.0000 </r>
       <r>    72.6584     0.0000   576.0000 </r>
       <r>    72.6986     0.0000   576.0000 </r>
       <r>    72.7389     0.0000   576.0000 </r>
       <r>    72.7792     0.0000   576.0000 </r>
       <r>    72.8194     0.0000   576.0000 </r>
       <r>    72.8597     0.0000   576.0000 </r>
       <r>    72.9000     0.0000   576.0000 </r>
       <r>    72.9402     0.0000   576.0000 </r>
       <r>    72.9805     0.0000   576.0000 </r>
       <r>    73.0207     0.0000   576.0000 </r>
       <r>    73.0610     0.0000   576.0000 </r>
       <r>    73.1013     0.0000   576.0000 </r>
       <r>    73.1415     0.0000   576.0000 </r>
       <r>    73.1818     0.0000   576.0000 </r>
       <r>    73.2221     0.0000   576.0000 </r>
       <r>    73.2623     0.0000   576.0000 </r>
       <r>    73.3026     0.0000   576.0000 </r>
       <r>    73.3429     0.0000   576.0000 </r>
       <r>    73.3831     0.0000   576.0000 </r>
       <r>    73.4234     0.0000   576.0000 </r>
       <r>    73.4637     0.0000   576.0000 </r>
       <r>    73.5039     0.0000   576.0000 </r>
       <r>    73.5442     0.0000   576.0000 </r>
       <r>    73.5845     0.0000   576.0000 </r>
       <r>    73.6247     0.0000   576.0000 </r>
       <r>    73.6650     0.0000   576.0000 </r>
      </set>
     </set>
    </array>
   </total>
  </dos>
 </calculation>
 <structure name="finalpos" >
  <crystal>
   <varray name="basis" >
    <v>       4.48084843       2.58701885       0.00000000 </v>
    <v>      -4.48084843       2.58701885       0.00000000 </v>
    <v>       0.00000000       0.00000000       8.52022140 </v>
   </varray>
   <i name="volume">    197.53348383 </i>
   <varray name="rec_basis" >
    <v>       0.11158601       0.19327265       0.00000000 </v>
    <v>      -0.11158601       0.19327265       0.00000000 </v>
    <v>       0.00000000       0.00000000       0.11736784 </v>
   </varray>
  </crystal>
  <varray name="positions" >
   <v>       0.33333300       0.66666600       0.25000000 </v>
   <v>       0.66666600       0.33333300       0.25000000 </v>
   <v>       0.15869124       0.31738348       0.25000000 </v>
   <v>       0.31738348       0.15869124       0.25000000 </v>
   <v>       0.15869124       0.84130776       0.25000000 </v>
   <v>       0.84130776       0.15869124       0.25000000 </v>
   <v>       0.68261552       0.84130776       0.25000000 </v>
   <v>       0.84130776       0.68261552       0.25000000 </v>
  </varray>
 </structure>
</modeling>
