BC3                                     
           1
     5.174714    0.000000    0.000000
     2.587357    4.480165    0.000000
     0.000000    0.000000   11.044412
   B    C 
   2   6
Direct configuration=     1
   0.17460303  0.17456665  0.00000000
   0.50789541  0.50798189  0.00000000
   0.99988063  0.99998941  0.00000000
   0.52390268  0.99998941  0.00000000
   0.68254532  0.15868208  0.00000000
   0.99995312  0.52386646  0.00000000
   0.15859576  0.68255913  0.00000000
   0.68261781  0.68255913  0.00000000
