 vasp.5.4.4.18Apr17-6-g9f103f2a35 (build Mar 30 2023 15:39:25) complex          
  
 executed on             LinuxIFC date 2023.06.23  15:24:42
 running on   12 total cores
 distrk:  each k-point on   12 cores,    1 groups
 distr:  one band on NCORES_PER_BAND=   1 cores,   12 groups


--------------------------------------------------------------------------------------------------------


 INCAR:
 POTCAR:    PAW_PBE B 06Sep2000                   
 POTCAR:    PAW_PBE C 08Apr2002                   

 ----------------------------------------------------------------------------- 
|                                                                             |
|           W    W    AA    RRRRR   N    N  II  N    N   GGGG   !!!           |
|           W    W   A  A   R    R  NN   N  II  NN   N  G    G  !!!           |
|           W    W  A    A  R    R  N N  N  II  N N  N  G       !!!           |
|           W WW W  AAAAAA  RRRRR   N  N N  II  N  N N  G  GGG   !            |
|           WW  WW  A    A  R   R   N   NN  II  N   NN  G    G                |
|           W    W  A    A  R    R  N    N  II  N    N   GGGG   !!!           |
|                                                                             |
|      For optimal performance we recommend to set                            |
|        NCORE= 4 - approx SQRT( number of cores)                             |
|      NCORE specifies how many cores store one orbital (NPAR=cpu/NCORE).     |
|      This setting can  greatly improve the performance of VASP for DFT.     |
|      The default,   NCORE=1            might be grossly inefficient         |
|      on modern multi-core architectures or massively parallel machines.     |
|      Do your own testing !!!!                                               |
|      Unfortunately you need to use the default for GW and RPA calculations. |
|      (for HF NCORE is supported but not extensively tested yet)             |
|                                                                             |
 ----------------------------------------------------------------------------- 

 POTCAR:    PAW_PBE B 06Sep2000                   
   SHA256 =  a32ced30f5ae56fd4d10b4325ff17eb3e4e38ee0f4288bc219fb012fddfa6e97 B/
   COPYR  = (c) Copyright 06Sep2000 Georg Kresse                                
   COPYR  = This file is part of the software VASP. Any use, copying, and all ot
   COPYR  = If you do not have a valid VASP license, you may not use, copy or di
   VRHFIN =B: s2p1                                                              
   LEXCH  = PE                                                                  
   EATOM  =    71.1703 eV,    5.2309 Ry                                         
                                                                                
   TITEL  = PAW_PBE B 06Sep2000                                                 
   LULTRA =        F    use ultrasoft PP ?                                      
   IUNSCR =        1    unscreen: 0-lin 1-nonlin 2-no                           
   RPACOR =    1.200    partial core radius                                     
   POMASS =   10.811; ZVAL   =    3.000    mass and valenz                      
   RCORE  =    1.700    outmost cutoff radius                                   
   RWIGS  =    1.710; RWIGS  =    0.905    wigner-seitz radius (au A)           
   ENMAX  =  318.614; ENMIN  =  238.960 eV                                      
   ICORE  =        2    local potential                                         
   LCOR   =        T    correct aug charges                                     
   LPAW   =        T    paw PP                                                  
   EAUG   =  535.514                                                            
   DEXC   =    0.000                                                            
   RMAX   =    1.732    core radius for proj-oper                               
   RAUG   =    1.300    factor for augmentation sphere                          
   RDEP   =    1.757    radius for radial grids                                 
   RDEPT  =    1.436    core radius for aug-charge                              
                                                                                
   Atomic configuration                                                         
    4 entries                                                                   
     n  l   j            E        occ.                                          
     1  0  0.50      -180.5896   2.0000                                         
     2  0  0.50        -9.4431   2.0000                                         
     2  1  0.50        -3.6068   1.0000                                         
     3  2  1.50        -4.0817   0.0000                                         
   Description                                                                  
     l       E           TYP  RCUT    TYP  RCUT                                 
     0     -9.4430752     23  1.500                                             
     0      0.8675899     23  1.500                                             
     1     -3.6067955     23  1.700                                             
     1      6.1086146     23  1.700                                             
     2     -4.0817478      7  1.700                                             
  local pseudopotential read in
  partial core-charges read in
  partial kinetic energy density read in
  atomic valenz-charges read in
  non local Contribution for L=           0  read in
    real space projection operators read in
  non local Contribution for L=           0  read in
    real space projection operators read in
  non local Contribution for L=           1  read in
    real space projection operators read in
  non local Contribution for L=           1  read in
    real space projection operators read in
    PAW grid and wavefunctions read in
 
   number of l-projection  operators is LMAX  =           4
   number of lm-projection operators is LMMAX =           8
 
 POTCAR:    PAW_PBE C 08Apr2002                   
   SHA256 =  253f7b50bb8d59471dbedb8285d89021f4a42ed1a2c5d38a03a736e69125dd95 C/
   COPYR  = (c) Copyright 08Apr2002 Georg Kresse                                
   COPYR  = This file is part of the software VASP. Any use, copying, and all ot
   COPYR  = If you do not have a valid VASP license, you may not use, copy or di
   VRHFIN =C: s2p2                                                              
   LEXCH  = PE                                                                  
   EATOM  =   147.1560 eV,   10.8157 Ry                                         
                                                                                
   TITEL  = PAW_PBE C 08Apr2002                                                 
   LULTRA =        F    use ultrasoft PP ?                                      
   IUNSCR =        1    unscreen: 0-lin 1-nonlin 2-no                           
   RPACOR =    1.200    partial core radius                                     
   POMASS =   12.011; ZVAL   =    4.000    mass and valenz                      
   RCORE  =    1.500    outmost cutoff radius                                   
   RWIGS  =    1.630; RWIGS  =    0.863    wigner-seitz radius (au A)           
   ENMAX  =  400.000; ENMIN  =  300.000 eV                                      
   ICORE  =        2    local potential                                         
   LCOR   =        T    correct aug charges                                     
   LPAW   =        T    paw PP                                                  
   EAUG   =  644.873                                                            
   DEXC   =    0.000                                                            
   RMAX   =    1.529    core radius for proj-oper                               
   RAUG   =    1.300    factor for augmentation sphere                          
   RDEP   =    1.501    radius for radial grids                                 
   RDEPT  =    1.300    core radius for aug-charge                              
                                                                                
   Atomic configuration                                                         
    4 entries                                                                   
     n  l   j            E        occ.                                          
     1  0  0.50      -273.3789   2.0000                                         
     2  0  0.50       -13.7508   2.0000                                         
     2  1  0.50        -5.2854   2.0000                                         
     3  2  1.50        -5.4423   0.0000                                         
   Description                                                                  
     l       E           TYP  RCUT    TYP  RCUT                                 
     0    -13.7508458     23  1.200                                             
     0     -8.2022199     23  1.200                                             
     1     -5.2854383     23  1.500                                             
     1     34.0145650     23  1.500                                             
     2     -5.4423304      7  1.500                                             
  local pseudopotential read in
  partial core-charges read in
  partial kinetic energy density read in
  atomic valenz-charges read in
  non local Contribution for L=           0  read in
    real space projection operators read in
  non local Contribution for L=           0  read in
    real space projection operators read in
  non local Contribution for L=           1  read in
    real space projection operators read in
  non local Contribution for L=           1  read in
    real space projection operators read in
    PAW grid and wavefunctions read in
 
   number of l-projection  operators is LMAX  =           4
   number of lm-projection operators is LMMAX =           8
 
  PAW_PBE B 06Sep2000                   :
 energy of atom  1       EATOM=  -71.1703
 kinetic energy error for atom=    0.0015 (will be added to EATOM!!)
  PAW_PBE C 08Apr2002                   :
 energy of atom  2       EATOM= -147.1560
 kinetic energy error for atom=    0.0116 (will be added to EATOM!!)
 
 
 POSCAR: BC3 with lattice parameter 5.174Ang, len
  positions in direct lattice
  velocities in cartesian coordinates
 exchange correlation table for  LEXCH =        8
   RHO(1)=    0.500       N(1)  =     2000
   RHO(2)=  100.500       N(2)  =     4000
 


--------------------------------------------------------------------------------------------------------


 ion  position               nearest neighbor table
   1  0.333  0.667  0.250-   3 1.57   7 1.57   5 1.57
   2  0.667  0.333  0.250-   4 1.57   8 1.57   6 1.57
   3  0.159  0.317  0.250-   6 1.42   4 1.42   1 1.57
   4  0.317  0.159  0.250-   5 1.42   3 1.42   2 1.57
   5  0.159  0.841  0.250-   4 1.42   8 1.42   1 1.57
   6  0.841  0.159  0.250-   3 1.42   7 1.42   2 1.57
   7  0.683  0.841  0.250-   6 1.42   8 1.42   1 1.57
   8  0.841  0.683  0.250-   5 1.42   7 1.42   2 1.57
 
  LATTYP: Found a hexagonal cell.
 ALAT       =     5.1740377035
 C/A-ratio  =     1.6467258045
  
  Lattice vectors:
  
 A1 = (   4.4808484340,   2.5870188517,   0.0000000000)
 A2 = (  -4.4808484340,   2.5870188517,   0.0000000000)
 A3 = (   0.0000000000,   0.0000000000,   8.5202213998)


Analysis of symmetry for initial positions (statically):
=====================================================================
 Subroutine PRICEL returns:
 Original cell was already a primitive cell.
 

 Routine SETGRP: Setting up the symmetry group for a 
 hexagonal supercell.


 Subroutine GETGRP returns: Found 24 space group operations
 (whereof 12 operations were pure point group operations)
 out of a pool of 24 trial point group operations.


The static configuration has the point symmetry C_6v.
 The point group associated with its full space group is D_6h.


Analysis of symmetry for dynamics (positions and initial velocities):
=====================================================================
 Subroutine PRICEL returns:
 Original cell was already a primitive cell.
 

 Routine SETGRP: Setting up the symmetry group for a 
 hexagonal supercell.


 Subroutine GETGRP returns: Found 24 space group operations
 (whereof 12 operations were pure point group operations)
 out of a pool of 24 trial point group operations.


The dynamic configuration has the point symmetry C_6v.
 The point group associated with its full space group is D_6h.


 Subroutine INISYM returns: Found 24 space group operations
 (whereof 12 operations are pure point group operations),
 and found     1 'primitive' translations



 irot  :   1
 --------------------------------------------------------------------
 isymop:   1   0   0
           0   1   0
           0   0   1

 gtrans:     0.0000000     0.0000000     0.0000000

 ptrans:     0.0000000     0.0000000     0.0000000
 
 rotmap:
 (   1->   1)  (   2->   2)  (   3->   3)  (   4->   4)  (   5->   5) 
 (   6->   6)  (   7->   7)  (   8->   8) 


 irot  :   2
 --------------------------------------------------------------------
 isymop:   1  -1   0
           1   0   0
           0   0   1

 gtrans:     0.0000000     0.0000000     0.0000000

 ptrans:     0.0000000     0.0000000     0.0000000
 
 rotmap:
 (   1->   2)  (   2->   1)  (   3->   6)  (   4->   3)  (   5->   4) 
 (   6->   7)  (   7->   8)  (   8->   5) 


 irot  :   3
 --------------------------------------------------------------------
 isymop:   0  -1   0
           1  -1   0
           0   0   1

 gtrans:     0.0000000     0.0000000     0.0000000

 ptrans:     0.0000000     0.0000000     0.0000000
 
 rotmap:
 (   1->   1)  (   2->   2)  (   3->   7)  (   4->   6)  (   5->   3) 
 (   6->   8)  (   7->   5)  (   8->   4) 


 irot  :   4
 --------------------------------------------------------------------
 isymop:  -1   0   0
           0  -1   0
           0   0   1

 gtrans:     0.0000000     0.0000000     0.0000000

 ptrans:     0.0000000     0.0000000     0.0000000
 
 rotmap:
 (   1->   2)  (   2->   1)  (   3->   8)  (   4->   7)  (   5->   6) 
 (   6->   5)  (   7->   4)  (   8->   3) 


 irot  :   5
 --------------------------------------------------------------------
 isymop:  -1   1   0
          -1   0   0
           0   0   1

 gtrans:     0.0000000     0.0000000     0.0000000

 ptrans:     0.0000000     0.0000000     0.0000000
 
 rotmap:
 (   1->   1)  (   2->   2)  (   3->   5)  (   4->   8)  (   5->   7) 
 (   6->   4)  (   7->   3)  (   8->   6) 


 irot  :   6
 --------------------------------------------------------------------
 isymop:   0   1   0
          -1   1   0
           0   0   1

 gtrans:     0.0000000     0.0000000     0.0000000

 ptrans:     0.0000000     0.0000000     0.0000000
 
 rotmap:
 (   1->   2)  (   2->   1)  (   3->   4)  (   4->   5)  (   5->   8) 
 (   6->   3)  (   7->   6)  (   8->   7) 


 irot  :   7
 --------------------------------------------------------------------
 isymop:  -1   1   0
           0   1   0
           0   0   1

 gtrans:     0.0000000     0.0000000     0.0000000

 ptrans:     0.0000000     0.0000000     0.0000000
 
 rotmap:
 (   1->   1)  (   2->   2)  (   3->   3)  (   4->   6)  (   5->   7) 
 (   6->   4)  (   7->   5)  (   8->   8) 


 irot  :   8
 --------------------------------------------------------------------
 isymop:   0   1   0
           1   0   0
           0   0   1

 gtrans:     0.0000000     0.0000000     0.0000000

 ptrans:     0.0000000     0.0000000     0.0000000
 
 rotmap:
 (   1->   2)  (   2->   1)  (   3->   4)  (   4->   3)  (   5->   6) 
 (   6->   5)  (   7->   8)  (   8->   7) 


 irot  :   9
 --------------------------------------------------------------------
 isymop:   1   0   0
           1  -1   0
           0   0   1

 gtrans:     0.0000000     0.0000000     0.0000000

 ptrans:     0.0000000     0.0000000     0.0000000
 
 rotmap:
 (   1->   1)  (   2->   2)  (   3->   5)  (   4->   4)  (   5->   3) 
 (   6->   8)  (   7->   7)  (   8->   6) 


 irot  :  10
 --------------------------------------------------------------------
 isymop:   1  -1   0
           0  -1   0
           0   0   1

 gtrans:     0.0000000     0.0000000     0.0000000

 ptrans:     0.0000000     0.0000000     0.0000000
 
 rotmap:
 (   1->   2)  (   2->   1)  (   3->   8)  (   4->   5)  (   5->   4) 
 (   6->   7)  (   7->   6)  (   8->   3) 


 irot  :  11
 --------------------------------------------------------------------
 isymop:   0  -1   0
          -1   0   0
           0   0   1

 gtrans:     0.0000000     0.0000000     0.0000000

 ptrans:     0.0000000     0.0000000     0.0000000
 
 rotmap:
 (   1->   1)  (   2->   2)  (   3->   7)  (   4->   8)  (   5->   5) 
 (   6->   6)  (   7->   3)  (   8->   4) 


 irot  :  12
 --------------------------------------------------------------------
 isymop:  -1   0   0
          -1   1   0
           0   0   1

 gtrans:     0.0000000     0.0000000     0.0000000

 ptrans:     0.0000000     0.0000000     0.0000000
 
 rotmap:
 (   1->   2)  (   2->   1)  (   3->   6)  (   4->   7)  (   5->   8) 
 (   6->   3)  (   7->   4)  (   8->   5) 


 irot  :  13
 --------------------------------------------------------------------
 isymop:  -1   0   0
           0  -1   0
           0   0  -1

 gtrans:     0.0000000     0.0000000     0.5000000

 ptrans:     0.0000000     0.0000000     0.0000000
 
 rotmap:
 (   1->   2)  (   2->   1)  (   3->   8)  (   4->   7)  (   5->   6) 
 (   6->   5)  (   7->   4)  (   8->   3) 


 irot  :  14
 --------------------------------------------------------------------
 isymop:  -1   1   0
          -1   0   0
           0   0  -1

 gtrans:     0.0000000     0.0000000     0.5000000

 ptrans:     0.0000000     0.0000000     0.0000000
 
 rotmap:
 (   1->   1)  (   2->   2)  (   3->   5)  (   4->   8)  (   5->   7) 
 (   6->   4)  (   7->   3)  (   8->   6) 


 irot  :  15
 --------------------------------------------------------------------
 isymop:   0   1   0
          -1   1   0
           0   0  -1

 gtrans:     0.0000000     0.0000000     0.5000000

 ptrans:     0.0000000     0.0000000     0.0000000
 
 rotmap:
 (   1->   2)  (   2->   1)  (   3->   4)  (   4->   5)  (   5->   8) 
 (   6->   3)  (   7->   6)  (   8->   7) 


 irot  :  16
 --------------------------------------------------------------------
 isymop:   1   0   0
           0   1   0
           0   0  -1

 gtrans:     0.0000000     0.0000000     0.5000000

 ptrans:     0.0000000     0.0000000     0.0000000
 
 rotmap:
 (   1->   1)  (   2->   2)  (   3->   3)  (   4->   4)  (   5->   5) 
 (   6->   6)  (   7->   7)  (   8->   8) 


 irot  :  17
 --------------------------------------------------------------------
 isymop:   1  -1   0
           1   0   0
           0   0  -1

 gtrans:     0.0000000     0.0000000     0.5000000

 ptrans:     0.0000000     0.0000000     0.0000000
 
 rotmap:
 (   1->   2)  (   2->   1)  (   3->   6)  (   4->   3)  (   5->   4) 
 (   6->   7)  (   7->   8)  (   8->   5) 


 irot  :  18
 --------------------------------------------------------------------
 isymop:   0  -1   0
           1  -1   0
           0   0  -1

 gtrans:     0.0000000     0.0000000     0.5000000

 ptrans:     0.0000000     0.0000000     0.0000000
 
 rotmap:
 (   1->   1)  (   2->   2)  (   3->   7)  (   4->   6)  (   5->   3) 
 (   6->   8)  (   7->   5)  (   8->   4) 


 irot  :  19
 --------------------------------------------------------------------
 isymop:   1  -1   0
           0  -1   0
           0   0  -1

 gtrans:     0.0000000     0.0000000     0.5000000

 ptrans:     0.0000000     0.0000000     0.0000000
 
 rotmap:
 (   1->   2)  (   2->   1)  (   3->   8)  (   4->   5)  (   5->   4) 
 (   6->   7)  (   7->   6)  (   8->   3) 


 irot  :  20
 --------------------------------------------------------------------
 isymop:   0  -1   0
          -1   0   0
           0   0  -1

 gtrans:     0.0000000     0.0000000     0.5000000

 ptrans:     0.0000000     0.0000000     0.0000000
 
 rotmap:
 (   1->   1)  (   2->   2)  (   3->   7)  (   4->   8)  (   5->   5) 
 (   6->   6)  (   7->   3)  (   8->   4) 


 irot  :  21
 --------------------------------------------------------------------
 isymop:  -1   0   0
          -1   1   0
           0   0  -1

 gtrans:     0.0000000     0.0000000     0.5000000

 ptrans:     0.0000000     0.0000000     0.0000000
 
 rotmap:
 (   1->   2)  (   2->   1)  (   3->   6)  (   4->   7)  (   5->   8) 
 (   6->   3)  (   7->   4)  (   8->   5) 


 irot  :  22
 --------------------------------------------------------------------
 isymop:  -1   1   0
           0   1   0
           0   0  -1

 gtrans:     0.0000000     0.0000000     0.5000000

 ptrans:     0.0000000     0.0000000     0.0000000
 
 rotmap:
 (   1->   1)  (   2->   2)  (   3->   3)  (   4->   6)  (   5->   7) 
 (   6->   4)  (   7->   5)  (   8->   8) 


 irot  :  23
 --------------------------------------------------------------------
 isymop:   0   1   0
           1   0   0
           0   0  -1

 gtrans:     0.0000000     0.0000000     0.5000000

 ptrans:     0.0000000     0.0000000     0.0000000
 
 rotmap:
 (   1->   2)  (   2->   1)  (   3->   4)  (   4->   3)  (   5->   6) 
 (   6->   5)  (   7->   8)  (   8->   7) 


 irot  :  24
 --------------------------------------------------------------------
 isymop:   1   0   0
           1  -1   0
           0   0  -1

 gtrans:     0.0000000     0.0000000     0.5000000

 ptrans:     0.0000000     0.0000000     0.0000000
 
 rotmap:
 (   1->   1)  (   2->   2)  (   3->   5)  (   4->   4)  (   5->   3) 
 (   6->   8)  (   7->   7)  (   8->   6) 
 
 
 KPOINTS: K-points for BC3                        

Automatic generation of k-mesh.
Space group operators:
 irot       det(A)        alpha          n_x          n_y          n_z        tau_x        tau_y        tau_z
    1     1.000000     0.000000     1.000000     0.000000     0.000000     0.000000     0.000000     0.000000
    2     1.000000    60.000000     0.000000     0.000000    -1.000000     0.000000     0.000000     0.000000
    3     1.000000   120.000000     0.000000     0.000000    -1.000000     0.000000     0.000000     0.000000
    4     1.000000   180.000000     0.000000     0.000000     1.000000     0.000000     0.000000     0.000000
    5     1.000000   120.000000     0.000000     0.000000     1.000000     0.000000     0.000000     0.000000
    6     1.000000    60.000000     0.000000     0.000000     1.000000     0.000000     0.000000     0.000000
    7    -1.000000   180.000000     0.866025     0.500000     0.000000     0.000000     0.000000     0.000000
    8    -1.000000   180.000000     1.000000     0.000000     0.000000     0.000000     0.000000     0.000000
    9    -1.000000   180.000000     0.866025    -0.500000     0.000000     0.000000     0.000000     0.000000
   10    -1.000000   180.000000     0.500000    -0.866025     0.000000     0.000000     0.000000     0.000000
   11    -1.000000   180.000000     0.000000     1.000000     0.000000     0.000000     0.000000     0.000000
   12    -1.000000   180.000000    -0.500000    -0.866025     0.000000     0.000000     0.000000     0.000000
   13    -1.000000     0.000000     1.000000     0.000000     0.000000     0.000000     0.000000     0.500000
   14    -1.000000    60.000000     0.000000     0.000000    -1.000000     0.000000     0.000000     0.500000
   15    -1.000000   120.000000     0.000000     0.000000    -1.000000     0.000000     0.000000     0.500000
   16    -1.000000   180.000000     0.000000     0.000000     1.000000     0.000000     0.000000     0.500000
   17    -1.000000   120.000000     0.000000     0.000000     1.000000     0.000000     0.000000     0.500000
   18    -1.000000    60.000000     0.000000     0.000000     1.000000     0.000000     0.000000     0.500000
   19     1.000000   180.000000     0.866025     0.500000     0.000000     0.000000     0.000000     0.500000
   20     1.000000   180.000000     1.000000     0.000000     0.000000     0.000000     0.000000     0.500000
   21     1.000000   180.000000     0.866025    -0.500000     0.000000     0.000000     0.000000     0.500000
   22     1.000000   180.000000     0.500000    -0.866025     0.000000     0.000000     0.000000     0.500000
   23     1.000000   180.000000     0.000000     1.000000     0.000000     0.000000     0.000000     0.500000
   24     1.000000   180.000000    -0.500000    -0.866025     0.000000     0.000000     0.000000     0.500000
 
 Subroutine IBZKPT returns following result:
 ===========================================
 
 Found     19 irreducible k-points:
 
 Following reciprocal coordinates:
            Coordinates               Weight
  0.000000  0.000000  0.000000      1.000000
  0.083333  0.000000  0.000000      6.000000
  0.166667  0.000000  0.000000      6.000000
  0.250000 -0.000000  0.000000      6.000000
  0.333333 -0.000000  0.000000      6.000000
  0.416667  0.000000  0.000000      6.000000
  0.500000 -0.000000  0.000000      3.000000
  0.083333  0.083333  0.000000      6.000000
  0.166667  0.083333  0.000000     12.000000
  0.250000  0.083333  0.000000     12.000000
  0.333333  0.083333  0.000000     12.000000
  0.416667  0.083333  0.000000     12.000000
  0.166667  0.166667  0.000000      6.000000
  0.250000  0.166667  0.000000     12.000000
  0.333333  0.166667  0.000000     12.000000
  0.416667  0.166667  0.000000      6.000000
  0.250000  0.250000  0.000000      6.000000
  0.333333  0.250000  0.000000     12.000000
  0.333333  0.333333  0.000000      2.000000
 
 Following cartesian coordinates:
            Coordinates               Weight
  0.000000  0.000000  0.000000      1.000000
  0.009299  0.016106  0.000000      6.000000
  0.018598  0.032212  0.000000      6.000000
  0.027897  0.048318  0.000000      6.000000
  0.037195  0.064424  0.000000      6.000000
  0.046494  0.080530  0.000000      6.000000
  0.055793  0.096636  0.000000      3.000000
  0.000000  0.032212  0.000000      6.000000
  0.009299  0.048318  0.000000     12.000000
  0.018598  0.064424  0.000000     12.000000
  0.027897  0.080530  0.000000     12.000000
  0.037195  0.096636  0.000000     12.000000
  0.000000  0.064424  0.000000      6.000000
  0.009299  0.080530  0.000000     12.000000
  0.018598  0.096636  0.000000     12.000000
  0.027897  0.112742  0.000000      6.000000
  0.000000  0.096636  0.000000      6.000000
  0.009299  0.112742  0.000000     12.000000
  0.000000  0.128848  0.000000      2.000000
 

 ----------------------------------------------------------------------------- 
|                                                                             |
|           W    W    AA    RRRRR   N    N  II  N    N   GGGG   !!!           |
|           W    W   A  A   R    R  NN   N  II  NN   N  G    G  !!!           |
|           W    W  A    A  R    R  N N  N  II  N N  N  G       !!!           |
|           W WW W  AAAAAA  RRRRR   N  N N  II  N  N N  G  GGG   !            |
|           WW  WW  A    A  R   R   N   NN  II  N   NN  G    G                |
|           W    W  A    A  R    R  N    N  II  N    N   GGGG   !!!           |
|                                                                             |
|      The number of bands has been changed from the values supplied          |
|      in the INCAR file. This is a result of running the parallel version.   |
|      The orbitals not found in the WAVECAR file will be initialized with    |
|      random numbers, which is usually adequate. For correlated              |
|      calculations, however, you should redo the groundstate calculation.    |
|      I found NBANDS    =      512  now  NBANDS  =     516                   |
|                                                                             |
 ----------------------------------------------------------------------------- 



--------------------------------------------------------------------------------------------------------




 Dimension of arrays:
   k-points           NKPTS =     19   k-points in BZ     NKDIM =     19   number of bands    NBANDS=    516
   number of dos      NEDOS =   2400   number of ions     NIONS =      8
   non local maximal  LDIM  =      4   non local SUM 2l+1 LMDIM =      8
   total plane-waves  NPLWV =  77760
   max r-space proj   IRMAX =      1   max aug-charges    IRDMAX=   6338
   dimension x,y,z NGX =    36 NGY =   36 NGZ =   60
   dimension x,y,z NGXF=    72 NGYF=   72 NGZF=  120
   support grid    NGXF=    72 NGYF=   72 NGZF=  120
   ions per type =               2   6
   NGX,Y,Z   is equivalent  to a cutoff of  11.57, 11.57, 11.71 a.u.
   NGXF,Y,Z  is equivalent  to a cutoff of  23.13, 23.13, 23.41 a.u.

 SYSTEM =  BC3-optical                             
 POSCAR =  BC3 with lattice parameter 5.174Ang, len

 Startparameter for this run:
   NWRITE =      3    write-flag & timer
   PREC   = accura    normal or accurate (medium, high low for compatibility)
   ISTART =      1    job   : 0-new  1-cont  2-samecut
   ICHARG =      2    charge: 1-file 2-atom 10-const
   ISPIN  =      1    spin polarized calculation?
   LNONCOLLINEAR =      F non collinear calculations
   LSORBIT =      F    spin-orbit coupling
   INIWAV =      1    electr: 0-lowe 1-rand  2-diag
   LASPH  =      F    aspherical Exc in radial PAW
   METAGGA=      F    non-selfconsistent MetaGGA calc.

 Electronic Relaxation 1
   ENCUT  =  450.0 eV  33.07 Ry    5.75 a.u.   8.95  8.95 14.74*2*pi/ulx,y,z
   ENINI  =  450.0     initial cutoff
   ENAUG  =  644.9 eV  augmentation charge cutoff
   NELM   =     60;   NELMIN=  2; NELMDL=  0     # of ELM steps 
   EDIFF  = 0.1E-07   stopping-criterion for ELM
   LREAL  =      F    real-space projection
   NLSPLINE    = F    spline interpolate recip. space projectors
   LCOMPAT=      F    compatible to vasp.4.4
   GGA_COMPAT  = T    GGA compatible to vasp.4.4-vasp.4.6
   LMAXPAW     = -100 max onsite density
   LMAXMIX     =    2 max onsite mixed and CHGCAR
   VOSKOWN=      0    Vosko Wilk Nusair interpolation
   ROPT   =    0.00000   0.00000
 Ionic relaxation
   EDIFFG = 0.1E-06   stopping-criterion for IOM
   NSW    =      0    number of steps for IOM
   NBLOCK =      1;   KBLOCK =      1    inner block; outer block 
   IBRION =     -1    ionic relax: 0-MD 1-quasi-New 2-CG
   NFREE  =      0    steps in history (QN), initial steepest desc. (CG)
   ISIF   =      2    stress and relaxation
   IWAVPR =     10    prediction:  0-non 1-charg 2-wave 3-comb
   ISYM   =      2    0-nonsym 1-usesym 2-fastsym
   LCORR  =      T    Harris-Foulkes like correction to forces

   POTIM  = 0.5000    time-step for ionic-motion
   TEIN   =    0.0    initial temperature
   TEBEG  =    0.0;   TEEND  =   0.0 temperature during run
   SMASS  =  -3.00    Nose mass-parameter (am)
   estimated Nose-frequenzy (Omega)   =  0.10E-29 period in steps =****** mass=  -0.612E-27a.u.
   SCALEE = 1.0000    scale energy and forces
   NPACO  =    256;   APACO  = 16.0  distance and # of slots for P.C.
   PSTRESS=    0.0 pullay stress

  Mass of Ions in am
   POMASS =  10.81 12.01
  Ionic Valenz
   ZVAL   =   3.00  4.00
  Atomic Wigner-Seitz radii
   RWIGS  =  -1.00 -1.00
  virtual crystal weights 
   VCA    =   1.00  1.00
   NELECT =      30.0000    total number of electrons
   NUPDOWN=      -1.0000    fix difference up-down

 DOS related values:
   EMIN   =  10.00;   EMAX   =-10.00  energy-range for DOS
   EFERMI =   0.00
   ISMEAR =     0;   SIGMA  =   0.01  broadening in eV -4-tet -1-fermi 0-gaus

 Electronic relaxation 2 (details)
   IALGO  =     90    algorithm
   LDIAG  =      T    sub-space diagonalisation (order eigenvalues)
   LSUBROT=      F    optimize rotation matrix (better conditioning)
   TURBO    =      0    0=normal 1=particle mesh
   IRESTART =      0    0=no restart 2=restart with 2 vectors
   NREBOOT  =      0    no. of reboots
   NMIN     =      0    reboot dimension
   EREF     =   0.00    reference energy to select bands
   IMIX   =      4    mixing-type and parameters
     AMIX     =   0.40;   BMIX     =  1.00
     AMIX_MAG =   1.60;   BMIX_MAG =  1.00
     AMIN     =   0.10
     WC   =   100.;   INIMIX=   1;  MIXPRE=   1;  MAXMIX= -45

 Intra band minimization:
   WEIMIN = 0.0000     energy-eigenvalue tresh-hold
   EBREAK =  0.48E-11  absolut break condition
   DEPER  =   0.30     relativ break condition  

   TIME   =   0.40     timestep for ELM

  volume/ion in A,a.u.               =      24.69       166.63
  Fermi-wavevector in a.u.,A,eV,Ry     =   0.873444  1.650570 10.379942  0.762904
  Thomas-Fermi vector in A             =   1.992835
 
 Write flags
   LWAVE        =      T    write WAVECAR
   LDOWNSAMPLE  =      F    k-point downsampling of WAVECAR
   LCHARG       =      T    write CHGCAR
   LVTOT        =      F    write LOCPOT, total local potential
   LVHAR        =      F    write LOCPOT, Hartree potential only
   LELF         =      F    write electronic localiz. function (ELF)
   LORBIT       =      0    0 simple, 1 ext, 2 COOP (PROOUT), +10 PAW based schemes


 Dipole corrections
   LMONO  =      F    monopole corrections only (constant potential shift)
   LDIPOL =      F    correct potential (dipole corrections)
   IDIPOL =      0    1-x, 2-y, 3-z, 4-all directions 
   EPSILON=  1.0000000 bulk dielectric constant

 Exchange correlation treatment:
   GGA     =    --    GGA type
   LEXCH   =     8    internal setting for exchange type
   VOSKOWN=      0    Vosko Wilk Nusair interpolation
   LHFCALC =     F    Hartree Fock is set to
   LHFONE  =     F    Hartree Fock one center treatment
   AEXX    =    0.0000 exact exchange contribution

 Linear response parameters
   LEPSILON=     F    determine dielectric tensor
   LRPA    =     F    only Hartree local field effects (RPA)
   LNABLA  =     F    use nabla operator in PAW spheres
   LVEL    =     F    velocity operator in full k-point grid
   LINTERFAST=   F  fast interpolation
   KINTER  =     0    interpolate to denser k-point grid
   CSHIFT  =0.1000    complex shift for real part using Kramers Kronig
   OMEGAMAX=  -1.0    maximum frequency
   DEG_THRESHOLD= 0.2000000E-02 threshold for treating states as degnerate
   RTIME   =   -0.100 relaxation time in fs
  (WPLASMAI=    0.000 imaginary part of plasma frequency in eV, 0.658/RTIME)
   DFIELD  = 0.0000000 0.0000000 0.0000000 field for delta impulse in time
 
 Orbital magnetization related:
   ORBITALMAG=     F  switch on orbital magnetization
   LCHIMAG   =     F  perturbation theory with respect to B field
   DQ        =  0.001000  dq finite difference perturbation B field
   LLRAUG    =     F  two centre corrections for induced B field



--------------------------------------------------------------------------------------------------------


 Static calculation
 charge density and potential will be updated during run
 non-spin polarized calculation
 Exact diagonalization
 preconditioned conjugated gradient (Jacobi prec)
    charged. constant during bandupdate  
    band-by band algorithm
 perform sub-space diagonalisation
    after iterative eigenvector-optimisation
 modified Broyden-mixing scheme, WC =      100.0
 initial mixing is a Kerker type mixing with AMIX =  0.4000 and BMIX =      1.0000
 Hartree-type preconditioning will be used
 using additional bands          501
 reciprocal scheme for non local part
 use partial core corrections
 calculate Harris-corrections to forces 
   (improved forces if not selfconsistent)
 use gradient corrections 
 use of overlap-Matrix (Vanderbilt PP)
 Gauss-broadening in eV      SIGMA  =   0.01


--------------------------------------------------------------------------------------------------------


  energy-cutoff  :      450.00
  volume of cell :      197.53
      direct lattice vectors                 reciprocal lattice vectors
     4.480848434  2.587018852  0.000000000     0.111586010  0.193272654  0.000000000
    -4.480848434  2.587018852  0.000000000    -0.111586010  0.193272654  0.000000000
     0.000000000  0.000000000  8.520221400     0.000000000  0.000000000  0.117367842

  length of vectors
     5.174038000  5.174038000  8.520221400     0.223172034  0.223172034  0.117367842


 
 old parameters found on file WAVECAR:
  energy-cutoff  :      450.00
  volume of cell :      197.53
      direct lattice vectors                 reciprocal lattice vectors
     4.480848434  2.587018852  0.000000000     0.111586010  0.193272654  0.000000000
    -4.480848434  2.587018852  0.000000000    -0.111586010  0.193272654  0.000000000
     0.000000000  0.000000000  8.520221400     0.000000000  0.000000000  0.117367842

  length of vectors

 
 k-points in units of 2pi/SCALE and weight: K-points for BC3                        
   0.00000000  0.00000000  0.00000000       0.007
   0.00929883  0.01610605  0.00000000       0.042
   0.01859767  0.03221211  0.00000000       0.042
   0.02789650  0.04831816  0.00000000       0.042
   0.03719534  0.06442422  0.00000000       0.042
   0.04649417  0.08053027  0.00000000       0.042
   0.05579301  0.09663633  0.00000000       0.021
   0.00000000  0.03221211  0.00000000       0.042
   0.00929883  0.04831816  0.00000000       0.083
   0.01859767  0.06442422  0.00000000       0.083
   0.02789650  0.08053027  0.00000000       0.083
   0.03719534  0.09663633  0.00000000       0.083
   0.00000000  0.06442422  0.00000000       0.042
   0.00929883  0.08053027  0.00000000       0.083
   0.01859767  0.09663633  0.00000000       0.083
   0.02789650  0.11274238  0.00000000       0.042
   0.00000000  0.09663633  0.00000000       0.042
   0.00929883  0.11274238  0.00000000       0.083
   0.00000000  0.12884844  0.00000000       0.014
 
 k-points in reciprocal lattice and weights: K-points for BC3                        
   0.00000000  0.00000000  0.00000000       0.007
   0.08333333  0.00000000  0.00000000       0.042
   0.16666667  0.00000000  0.00000000       0.042
   0.25000000 -0.00000000  0.00000000       0.042
   0.33333333 -0.00000000  0.00000000       0.042
   0.41666667  0.00000000  0.00000000       0.042
   0.50000000 -0.00000000  0.00000000       0.021
   0.08333333  0.08333333  0.00000000       0.042
   0.16666667  0.08333333  0.00000000       0.083
   0.25000000  0.08333333  0.00000000       0.083
   0.33333333  0.08333333  0.00000000       0.083
   0.41666667  0.08333333  0.00000000       0.083
   0.16666667  0.16666667  0.00000000       0.042
   0.25000000  0.16666667  0.00000000       0.083
   0.33333333  0.16666667  0.00000000       0.083
   0.41666667  0.16666667  0.00000000       0.042
   0.25000000  0.25000000  0.00000000       0.042
   0.33333333  0.25000000  0.00000000       0.083
   0.33333333  0.33333333  0.00000000       0.014
 
 position of ions in fractional coordinates (direct lattice) 
   0.33333300  0.66666600  0.25000000
   0.66666600  0.33333300  0.25000000
   0.15869124  0.31738348  0.25000000
   0.31738348  0.15869124  0.25000000
   0.15869124  0.84130776  0.25000000
   0.84130776  0.15869124  0.25000000
   0.68261552  0.84130776  0.25000000
   0.84130776  0.68261552  0.25000000
 
 position of ions in cartesian coordinates  (Angst):
  -1.49361465  2.58701626  2.13005535
   1.49361465  2.58701626  2.13005535
  -0.71107588  1.23161429  2.13005535
   0.71107588  1.23161429  2.13005535
  -3.05870114  2.58701626  2.13005535
   3.05870114  2.58701626  2.13005535
  -0.71107588  3.94241824  2.13005535
   0.71107588  3.94241824  2.13005535
 


--------------------------------------------------------------------------------------------------------


 k-point  1 :   0.0000 0.0000 0.0000  plane waves:    4271
 k-point  2 :   0.0833 0.0000 0.0000  plane waves:    4257
 k-point  3 :   0.1667 0.0000 0.0000  plane waves:    4273
 k-point  4 :   0.2500-0.0000 0.0000  plane waves:    4286
 k-point  5 :   0.3333-0.0000 0.0000  plane waves:    4272
 k-point  6 :   0.4167 0.0000 0.0000  plane waves:    4280
 k-point  7 :   0.5000-0.0000 0.0000  plane waves:    4280
 k-point  8 :   0.0833 0.0833 0.0000  plane waves:    4273
 k-point  9 :   0.1667 0.0833 0.0000  plane waves:    4261
 k-point 10 :   0.2500 0.0833 0.0000  plane waves:    4277
 k-point 11 :   0.3333 0.0833 0.0000  plane waves:    4283
 k-point 12 :   0.4167 0.0833 0.0000  plane waves:    4292
 k-point 13 :   0.1667 0.1667 0.0000  plane waves:    4267
 k-point 14 :   0.2500 0.1667 0.0000  plane waves:    4287
 k-point 15 :   0.3333 0.1667 0.0000  plane waves:    4297
 k-point 16 :   0.4167 0.1667 0.0000  plane waves:    4305
 k-point 17 :   0.2500 0.2500 0.0000  plane waves:    4283
 k-point 18 :   0.3333 0.2500 0.0000  plane waves:    4306
 k-point 19 :   0.3333 0.3333 0.0000  plane waves:    4323

 maximum and minimum number of plane-waves per node :      4323     4257

 maximum number of plane-waves:      4323
 maximum index in each direction: 
   IXMAX=    8   IYMAX=    8   IZMAX=   14
   IXMIN=   -9   IYMIN=   -9   IZMIN=  -14


 serial   3D FFT for wavefunctions
 parallel 3D FFT for charge:
    minimum data exchange during FFTs selected (reduces bandwidth)


 total amount of memory used by VASP MPI-rank0   106840. kBytes
=======================================================================

   base      :      30000. kBytes
   nonl-proj :      11089. kBytes
   fftplans  :       2090. kBytes
   grid      :       6068. kBytes
   one-center:         24. kBytes
   wavefun   :      57569. kBytes
 
     INWAV:  cpu time    4.4334: real time    4.9992
 Broyden mixing: mesh for mixing (old mesh)
   NGX = 17   NGY = 17   NGZ = 29
  (NGX  = 72   NGY  = 72   NGZ  =120)
  gives a total of   8381 points

 initial charge density was supplied:
 charge density of overlapping atoms calculated
 number of electron      30.0000000 magnetization 
 keeping initial charge density in first step


--------------------------------------------------------------------------------------------------------


 Maximum index for augmentation-charges          403 (set IRDMAX)


--------------------------------------------------------------------------------------------------------


 First call to EWALD:  gamma=   0.304
 Maximum number of real-space cells 3x 3x 2
 Maximum number of reciprocal cells 2x 2x 4

    FEWALD:  cpu time    0.0220: real time    0.0220


--------------------------------------- Iteration      1(   1)  ---------------------------------------


    POTLOK:  cpu time    0.0439: real time    0.1275
    SETDIJ:  cpu time    0.0023: real time    0.0023

 total amount of memory used by VASP MPI-rank0   590152. kBytes
=======================================================================

   base      :      30000. kBytes
   nonl-proj :      11089. kBytes
   fftplans  :       2090. kBytes
   grid      :       6068. kBytes
   one-center:         24. kBytes
   wavefun   :     540881. kBytes
 
    EDDIAG:  cpu time  552.0941: real time  554.2408
       DOS:  cpu time    0.0012: real time    0.0012
    CHARGE:  cpu time    0.0572: real time    0.0572
    MIXING:  cpu time    0.0010: real time    0.0010
    --------------------------------------------
      LOOP:  cpu time  552.1997: real time  554.4300

 eigenvalue-minimisations  :     0
 total energy-change (2. order) :-0.7344063E+02  ( 0.0000000E+00)
 number of electron      29.9999996 magnetization 
 augmentation part        0.5836578 magnetization 

 Broyden mixing:
  rms(total) = 0.13116E+01    rms(broyden)= 0.13111E+01
  rms(prec ) = 0.18282E+01
  weight for this iteration     100.00

 Free energy of the ion-electron system (eV)
  ---------------------------------------------------
  alpha Z        PSCENC =        25.67921176
  Ewald energy   TEWEN  =       700.27145080
  -Hartree energ DENC   =     -1524.76618073
  -exchange      EXHF   =         0.00000000
  -V(xc)+E(xc)   XCENC  =        91.14273073
  PAW double counting   =       738.13200929     -739.83780425
  entropy T*S    EENTRO =        -0.00000000
  eigenvalues    EBANDS =      -389.26594481
  atomic energy  EATOM  =      1025.20389953
  Solvation  Ediel_sol  =         0.00000000
  ---------------------------------------------------
  free energy    TOTEN  =       -73.44062769 eV

  energy without entropy =      -73.44062769  energy(sigma->0) =      -73.44062769


--------------------------------------------------------------------------------------------------------




 average (electrostatic) potential at core
  the test charge radii are     0.7672  0.6991
  (the norm of the test charge is              1.0000)
       1 -38.0355       2 -38.0355       3 -61.8204       4 -61.8204       5 -61.8204
       6 -61.8204       7 -61.8204       8 -61.8204
 
 
 
 E-fermi :  -6.3737     XC(G=0):  -5.3024     alpha+bet : -4.1680


 k-point     1 :       0.0000    0.0000    0.0000
  band No.  band energies     occupation 
      1     -22.7334      2.00000
      2     -19.0608      2.00000
      3     -19.0608      2.00000
      4     -16.6384      2.00000
      5     -16.6384      2.00000
      6     -15.2938      2.00000
      7     -13.8399      2.00000
      8     -12.0412      2.00000
      9     -10.2609      2.00000
     10      -9.5172      2.00000
     11      -9.5172      2.00000
     12      -7.2387      2.00000
     13      -7.2386      2.00000
     14      -6.4428      2.00000
     15      -6.4428      2.00000
     16      -3.3504      0.00000
     17      -2.0528      0.00000
     18      -2.0527      0.00000
     19      -0.6510      0.00000
     20       1.9794      0.00000
     21       2.5313      0.00000
     22       2.5313      0.00000
     23       3.8416      0.00000
     24       3.8417      0.00000
     25       3.9800      0.00000
     26       4.5773      0.00000
     27       6.2084      0.00000
     28       6.6740      0.00000
     29       7.1884      0.00000
     30       9.0932      0.00000
     31       9.0932      0.00000
     32       9.2331      0.00000
     33       9.2331      0.00000
     34       9.2629      0.00000
     35       9.5070      0.00000
     36       9.8613      0.00000
     37       9.8613      0.00000
     38      10.8167      0.00000
     39      11.4810      0.00000
     40      11.4810      0.00000
     41      12.0072      0.00000
     42      12.5361      0.00000
     43      12.5361      0.00000
     44      12.5580      0.00000
     45      12.6502      0.00000
     46      12.6502      0.00000
     47      12.6733      0.00000
     48      12.7530      0.00000
     49      14.0183      0.00000
     50      14.0570      0.00000
     51      14.0570      0.00000
     52      15.1094      0.00000
     53      15.1094      0.00000
     54      15.3423      0.00000
     55      15.3578      0.00000
     56      15.9135      0.00000
     57      15.9136      0.00000
     58      16.6291      0.00000
     59      17.1498      0.00000
     60      17.2962      0.00000
     61      17.2962      0.00000
     62      17.3437      0.00000
     63      19.1215      0.00000
     64      19.3989      0.00000
     65      19.3990      0.00000
     66      19.5213      0.00000
     67      19.5213      0.00000
     68      20.1932      0.00000
     69      22.4565      0.00000
     70      22.7715      0.00000
     71      22.7715      0.00000
     72      22.8460      0.00000
     73      22.8898      0.00000
     74      22.8898      0.00000
     75      23.3340      0.00000
     76      23.3340      0.00000
     77      23.5572      0.00000
     78      23.7351      0.00000
     79      23.8463      0.00000
     80      23.8463      0.00000
     81      24.2555      0.00000
     82      24.2555      0.00000
     83      24.6889      0.00000
     84      25.2652      0.00000
     85      25.3046      0.00000
     86      25.3046      0.00000
     87      26.3470      0.00000
     88      26.7073      0.00000
     89      26.7073      0.00000
     90      26.7150      0.00000
     91      26.7150      0.00000
     92      27.1682      0.00000
     93      27.4943      0.00000
     94      27.4943      0.00000
     95      28.0275      0.00000
     96      28.0801      0.00000
     97      28.0801      0.00000
     98      28.6483      0.00000
     99      28.6483      0.00000
    100      28.6779      0.00000
    101      29.2626      0.00000
    102      29.3726      0.00000
    103      29.6013      0.00000
    104      29.9376      0.00000
    105      29.9376      0.00000
    106      31.0615      0.00000
    107      31.0615      0.00000
    108      31.4313      0.00000
    109      31.4313      0.00000
    110      31.4426      0.00000
    111      31.4426      0.00000
    112      32.0442      0.00000
    113      32.2088      0.00000
    114      32.7512      0.00000
    115      33.0095      0.00000
    116      33.0095      0.00000
    117      33.4155      0.00000
    118      33.7378      0.00000
    119      34.8430      0.00000
    120      34.8430      0.00000
    121      35.0498      0.00000
    122      35.0498      0.00000
    123      35.2480      0.00000
    124      35.2480      0.00000
    125      35.8334      0.00000
    126      35.9073      0.00000
    127      35.9968      0.00000
    128      35.9968      0.00000
    129      36.2325      0.00000
    130      36.2325      0.00000
    131      36.7475      0.00000
    132      36.8579      0.00000
    133      36.9004      0.00000
    134      36.9004      0.00000
    135      37.0144      0.00000
    136      37.0145      0.00000
    137      37.0630      0.00000
    138      37.2349      0.00000
    139      37.2394      0.00000
    140      37.2394      0.00000
    141      37.3265      0.00000
    142      37.4796      0.00000
    143      37.7853      0.00000
    144      37.7853      0.00000
    145      38.1150      0.00000
    146      38.5038      0.00000
    147      38.5038      0.00000
    148      39.8939      0.00000
    149      39.8939      0.00000
    150      40.5779      0.00000
    151      41.9869      0.00000
    152      42.1493      0.00000
    153      42.1493      0.00000
    154      42.7173      0.00000
    155      42.9443      0.00000
    156      42.9444      0.00000
    157      43.0637      0.00000
    158      43.1436      0.00000
    159      43.1437      0.00000
    160      43.5459      0.00000
    161      43.5459      0.00000
    162      44.1904      0.00000
    163      44.1904      0.00000
    164      44.5892      0.00000
    165      45.3878      0.00000
    166      45.3878      0.00000
    167      45.7388      0.00000
    168      46.0919      0.00000
    169      46.2794      0.00000
    170      46.2794      0.00000
    171      46.8307      0.00000
    172      46.8307      0.00000
    173      46.9280      0.00000
    174      47.4003      0.00000
    175      47.5725      0.00000
    176      47.5725      0.00000
    177      47.6279      0.00000
    178      47.6317      0.00000
    179      47.6871      0.00000
    180      48.2515      0.00000
    181      48.2515      0.00000
    182      49.2205      0.00000
    183      49.2814      0.00000
    184      49.4720      0.00000
    185      49.4720      0.00000
    186      50.1412      0.00000
    187      50.1966      0.00000
    188      50.1967      0.00000
    189      50.9677      0.00000
    190      50.9677      0.00000
    191      51.0889      0.00000
    192      51.0889      0.00000
    193      51.6260      0.00000
    194      52.0246      0.00000
    195      52.0246      0.00000
    196      52.3903      0.00000
    197      52.6509      0.00000
    198      52.6510      0.00000
    199      53.0149      0.00000
    200      53.3384      0.00000
    201      53.3384      0.00000
    202      53.6600      0.00000
    203      54.1221      0.00000
    204      54.1629      0.00000
    205      54.1629      0.00000
    206      54.4662      0.00000
    207      54.5078      0.00000
    208      54.5078      0.00000
    209      54.6635      0.00000
    210      54.9176      0.00000
    211      54.9177      0.00000
    212      54.9189      0.00000
    213      55.4203      0.00000
    214      55.4793      0.00000
    215      55.5081      0.00000
    216      55.5081      0.00000
    217      55.7614      0.00000
    218      55.8542      0.00000
    219      55.8543      0.00000
    220      56.0073      0.00000
    221      56.0073      0.00000
    222      57.0055      0.00000
    223      57.0055      0.00000
    224      57.0958      0.00000
    225      57.0958      0.00000
    226      57.1169      0.00000
    227      57.2177      0.00000
    228      57.2177      0.00000
    229      57.2614      0.00000
    230      57.4583      0.00000
    231      57.8026      0.00000
    232      57.8076      0.00000
    233      57.8076      0.00000
    234      57.8151      0.00000
    235      57.8151      0.00000
    236      58.0570      0.00000
    237      58.1610      0.00000
    238      58.1610      0.00000
    239      58.1646      0.00000
    240      58.1925      0.00000
    241      58.3050      0.00000
    242      58.3050      0.00000
    243      58.3358      0.00000
    244      58.3359      0.00000
    245      58.6214      0.00000
    246      58.6247      0.00000
    247      58.6248      0.00000
    248      59.3303      0.00000
    249      59.3860      0.00000
    250      59.3860      0.00000
    251      59.4239      0.00000
    252      59.6646      0.00000
    253      59.6647      0.00000
    254      60.1320      0.00000
    255      60.1321      0.00000
    256      60.4905      0.00000
    257      61.1757      0.00000
    258      61.1757      0.00000
    259      61.4505      0.00000
    260      61.8680      0.00000
    261      62.1572      0.00000
    262      62.1572      0.00000
    263      62.2775      0.00000
    264      62.2775      0.00000
    265      64.4226      0.00000
    266      64.4226      0.00000
    267      64.9369      0.00000
    268      64.9369      0.00000
    269      65.0464      0.00000
    270      65.1199      0.00000
    271      65.5473      0.00000
    272      65.5599      0.00000
    273      65.6674      0.00000
    274      65.6674      0.00000
    275      65.6812      0.00000
    276      65.6812      0.00000
    277      66.0698      0.00000
    278      66.3203      0.00000
    279      66.3698      0.00000
    280      66.3698      0.00000
    281      66.9847      0.00000
    282      67.0303      0.00000
    283      67.0617      0.00000
    284      67.0617      0.00000
    285      67.1801      0.00000
    286      67.4717      0.00000
    287      67.4717      0.00000
    288      67.6925      0.00000
    289      67.6925      0.00000
    290      67.8205      0.00000
    291      67.8206      0.00000
    292      68.1618      0.00000
    293      68.1729      0.00000
    294      68.2761      0.00000
    295      68.3059      0.00000
    296      68.3060      0.00000
    297      69.0056      0.00000
    298      69.3152      0.00000
    299      69.3152      0.00000
    300      69.3543      0.00000
    301      69.4263      0.00000
    302      69.4263      0.00000
    303      69.6114      0.00000
    304      69.6365      0.00000
    305      69.6365      0.00000
    306      69.9364      0.00000
    307      70.3221      0.00000
    308      70.3222      0.00000
    309      70.6580      0.00000
    310      70.9173      0.00000
    311      71.3167      0.00000
    312      71.3167      0.00000
    313      71.8103      0.00000
    314      71.8103      0.00000
    315      71.9997      0.00000
    316      72.3135      0.00000
    317      72.3135      0.00000
    318      72.4449      0.00000
    319      72.7315      0.00000
    320      72.7315      0.00000
    321      72.7645      0.00000
    322      72.8521      0.00000
    323      72.8741      0.00000
    324      72.8741      0.00000
    325      73.1567      0.00000
    326      73.1567      0.00000
    327      73.1813      0.00000
    328      73.2574      0.00000
    329      73.2574      0.00000
    330      73.3131      0.00000
    331      73.6821      0.00000
    332      74.2223      0.00000
    333      74.2224      0.00000
    334      74.7501      0.00000
    335      75.5408      0.00000
    336      76.1748      0.00000
    337      76.2596      0.00000
    338      76.2596      0.00000
    339      76.5514      0.00000
    340      76.5515      0.00000
    341      77.1056      0.00000
    342      77.3072      0.00000
    343      77.3072      0.00000
    344      77.3664      0.00000
    345      77.5868      0.00000
    346      77.5868      0.00000
    347      77.8561      0.00000
    348      77.8562      0.00000
    349      77.9378      0.00000
    350      77.9378      0.00000
    351      78.1702      0.00000
    352      78.1702      0.00000
    353      78.2629      0.00000
    354      78.3606      0.00000
    355      79.1492      0.00000
    356      79.1492      0.00000
    357      79.5671      0.00000
    358      79.5671      0.00000
    359      79.7231      0.00000
    360      79.7853      0.00000
    361      80.1448      0.00000
    362      80.1448      0.00000
    363      80.1713      0.00000
    364      80.6717      0.00000
    365      80.6717      0.00000
    366      80.7195      0.00000
    367      80.9254      0.00000
    368      80.9255      0.00000
    369      81.0838      0.00000
    370      81.2772      0.00000
    371      81.5147      0.00000
    372      81.5538      0.00000
    373      81.6268      0.00000
    374      81.6268      0.00000
    375      81.6502      0.00000
    376      81.6601      0.00000
    377      81.6601      0.00000
    378      81.7946      0.00000
    379      81.7946      0.00000
    380      82.1998      0.00000
    381      82.3257      0.00000
    382      82.3636      0.00000
    383      82.3636      0.00000
    384      82.5564      0.00000
    385      82.5564      0.00000
    386      82.5582      0.00000
    387      82.7683      0.00000
    388      82.7683      0.00000
    389      83.0494      0.00000
    390      83.0494      0.00000
    391      83.7241      0.00000
    392      83.7241      0.00000
    393      83.9160      0.00000
    394      83.9160      0.00000
    395      84.7456      0.00000
    396      85.1058      0.00000
    397      85.1058      0.00000
    398      85.2513      0.00000
    399      86.1805      0.00000
    400      87.9187      0.00000
    401      87.9187      0.00000
    402      88.0498      0.00000
    403      88.0498      0.00000
    404      88.5239      0.00000
    405      88.5301      0.00000
    406      89.0227      0.00000
    407      89.0227      0.00000
    408      89.0824      0.00000
    409      89.7294      0.00000
    410      89.7294      0.00000
    411      91.5493      0.00000
    412      91.5761      0.00000
    413      91.5761      0.00000
    414      91.6227      0.00000
    415      91.6897      0.00000
    416      91.6897      0.00000
    417      91.7079      0.00000
    418      91.7781      0.00000
    419      91.8930      0.00000
    420      91.8930      0.00000
    421      92.0201      0.00000
    422      92.0363      0.00000
    423      92.5822      0.00000
    424      92.5822      0.00000
    425      92.7266      0.00000
    426      93.0696      0.00000
    427      93.1482      0.00000
    428      93.1483      0.00000
    429      94.0270      0.00000
    430      94.0458      0.00000
    431      94.0458      0.00000
    432      94.1822      0.00000
    433      94.1822      0.00000
    434      94.2814      0.00000
    435      94.3067      0.00000
    436      94.3067      0.00000
    437      94.7417      0.00000
    438      94.7418      0.00000
    439      94.8362      0.00000
    440      94.8362      0.00000
    441      94.9317      0.00000
    442      94.9476      0.00000
    443      95.4504      0.00000
    444      95.4504      0.00000
    445      95.4812      0.00000
    446      95.4812      0.00000
    447      95.5737      0.00000
    448      95.6001      0.00000
    449      95.6001      0.00000
    450      95.6053      0.00000
    451      95.6085      0.00000
    452      95.7532      0.00000
    453      95.7532      0.00000
    454      95.8773      0.00000
    455      95.9067      0.00000
    456      95.9123      0.00000
    457      96.1247      0.00000
    458      96.1247      0.00000
    459      96.4427      0.00000
    460      96.4427      0.00000
    461      96.4642      0.00000
    462      96.8168      0.00000
    463      96.8168      0.00000
    464      96.8965      0.00000
    465      97.5025      0.00000
    466      97.5025      0.00000
    467      97.6420      0.00000
    468      97.7006      0.00000
    469      98.6446      0.00000
    470      98.6446      0.00000
    471      98.7016      0.00000
    472      98.7016      0.00000
    473      98.9010      0.00000
    474      99.0468      0.00000
    475      99.0830      0.00000
    476      99.0972      0.00000
    477      99.0972      0.00000
    478      99.1051      0.00000
    479      99.1051      0.00000
    480      99.1659      0.00000
    481      99.1659      0.00000
    482      99.5381      0.00000
    483      99.5836      0.00000
    484      99.6072      0.00000
    485      99.6221      0.00000
    486      99.6221      0.00000
    487      99.7024      0.00000
    488      99.7025      0.00000
    489      99.8155      0.00000
    490      99.9688      0.00000
    491      99.9688      0.00000
    492      99.9701      0.00000
    493     100.0034      0.00000
    494     100.0035      0.00000
    495     100.0249      0.00000
    496     100.0607      0.00000
    497     100.0608      0.00000
    498     100.1795      0.00000
    499     100.1795      0.00000
    500     100.3256      0.00000
    501     100.3256      0.00000
    502     100.4763      0.00000
    503     100.4763      0.00000
    504     100.6972      0.00000
    505     101.1293      0.00000
    506     102.2299      0.00000
    507     102.2299      0.00000
    508     102.3055      0.00000
    509     102.4409      0.00000
    510     102.4409      0.00000
    511     102.4596      0.00000
    512     102.4597      0.00000
    513     102.4630      0.00000
    514     102.5289      0.00000
    515     102.6168      0.00000
    516     102.6168      0.00000

 k-point     2 :       0.0833    0.0000    0.0000
  band No.  band energies     occupation 
      1     -22.7092      2.00000
      2     -19.1697      2.00000
      3     -19.0963      2.00000
      4     -16.6580      2.00000
      5     -16.5518      2.00000
      6     -15.1781      2.00000
      7     -13.7107      2.00000
      8     -12.0886      2.00000
      9     -10.2231      2.00000
     10      -9.6263      2.00000
     11      -9.5365      2.00000
     12      -7.3633      2.00000
     13      -7.2988      2.00000
     14      -6.5412      2.00000
     15      -6.4577      2.00000
     16      -3.5843      0.00000
     17      -2.0098      0.00000
     18      -1.7217      0.00000
     19      -0.5566      0.00000
     20       2.0338      0.00000
     21       2.5952      0.00000
     22       2.6812      0.00000
     23       3.8623      0.00000
     24       3.9962      0.00000
     25       4.0807      0.00000
     26       4.6263      0.00000
     27       6.2594      0.00000
     28       6.5500      0.00000
     29       7.1776      0.00000
     30       8.2304      0.00000
     31       8.6677      0.00000
     32       8.8758      0.00000
     33       9.6061      0.00000
     34       9.6717      0.00000
     35       9.6883      0.00000
     36       9.8412      0.00000
     37      10.2762      0.00000
     38      10.4645      0.00000
     39      11.6178      0.00000
     40      11.7160      0.00000
     41      11.8262      0.00000
     42      12.0907      0.00000
     43      12.1429      0.00000
     44      12.2175      0.00000
     45      12.7258      0.00000
     46      12.7268      0.00000
     47      13.1598      0.00000
     48      13.2911      0.00000
     49      13.7643      0.00000
     50      14.0518      0.00000
     51      14.1805      0.00000
     52      14.8966      0.00000
     53      14.9929      0.00000
     54      15.3519      0.00000
     55      15.3962      0.00000
     56      16.0229      0.00000
     57      16.0512      0.00000
     58      16.7489      0.00000
     59      17.2270      0.00000
     60      17.3632      0.00000
     61      17.6882      0.00000
     62      17.6938      0.00000
     63      19.0589      0.00000
     64      19.2691      0.00000
     65      19.3317      0.00000
     66      19.4706      0.00000
     67      19.4919      0.00000
     68      20.1154      0.00000
     69      22.0831      0.00000
     70      22.4833      0.00000
     71      22.5236      0.00000
     72      22.7104      0.00000
     73      22.7782      0.00000
     74      22.8059      0.00000
     75      22.8417      0.00000
     76      23.2708      0.00000
     77      23.2941      0.00000
     78      23.4883      0.00000
     79      23.5841      0.00000
     80      23.6097      0.00000
     81      24.6411      0.00000
     82      24.8230      0.00000
     83      25.1162      0.00000
     84      25.1788      0.00000
     85      25.5919      0.00000
     86      25.7032      0.00000
     87      25.7718      0.00000
     88      25.8409      0.00000
     89      26.8458      0.00000
     90      26.8601      0.00000
     91      26.8741      0.00000
     92      26.9531      0.00000
     93      27.1439      0.00000
     94      27.1653      0.00000
     95      28.1190      0.00000
     96      28.5846      0.00000
     97      28.7167      0.00000
     98      29.0666      0.00000
     99      29.1691      0.00000
    100      29.2620      0.00000
    101      29.2704      0.00000
    102      29.5007      0.00000
    103      29.8678      0.00000
    104      30.1935      0.00000
    105      30.2778      0.00000
    106      30.6646      0.00000
    107      30.7327      0.00000
    108      31.1021      0.00000
    109      31.2823      0.00000
    110      31.3824      0.00000
    111      31.8940      0.00000
    112      32.4714      0.00000
    113      32.5769      0.00000
    114      32.6523      0.00000
    115      32.7836      0.00000
    116      32.9712      0.00000
    117      33.5486      0.00000
    118      33.5873      0.00000
    119      33.7767      0.00000
    120      33.8259      0.00000
    121      34.1746      0.00000
    122      34.3988      0.00000
    123      35.1414      0.00000
    124      35.4612      0.00000
    125      35.5245      0.00000
    126      35.7102      0.00000
    127      36.0296      0.00000
    128      36.0953      0.00000
    129      36.1784      0.00000
    130      36.3418      0.00000
    131      36.7166      0.00000
    132      36.7877      0.00000
    133      36.9917      0.00000
    134      36.9994      0.00000
    135      37.1638      0.00000
    136      37.2453      0.00000
    137      37.4911      0.00000
    138      37.6127      0.00000
    139      37.7848      0.00000
    140      37.8812      0.00000
    141      37.9530      0.00000
    142      38.0018      0.00000
    143      38.5003      0.00000
    144      38.5948      0.00000
    145      38.7194      0.00000
    146      39.3377      0.00000
    147      39.5309      0.00000
    148      39.7393      0.00000
    149      40.0701      0.00000
    150      40.1129      0.00000
    151      41.3029      0.00000
    152      41.4493      0.00000
    153      41.6867      0.00000
    154      41.8408      0.00000
    155      42.0681      0.00000
    156      42.5245      0.00000
    157      42.8413      0.00000
    158      43.1276      0.00000
    159      43.1348      0.00000
    160      43.4702      0.00000
    161      43.5492      0.00000
    162      43.5989      0.00000
    163      44.0878      0.00000
    164      44.7383      0.00000
    165      45.1759      0.00000
    166      45.2105      0.00000
    167      45.9704      0.00000
    168      46.2093      0.00000
    169      46.3087      0.00000
    170      46.4309      0.00000
    171      46.5952      0.00000
    172      46.6155      0.00000
    173      46.7968      0.00000
    174      47.1442      0.00000
    175      47.4605      0.00000
    176      47.7763      0.00000
    177      48.2869      0.00000
    178      48.3416      0.00000
    179      48.4740      0.00000
    180      49.0408      0.00000
    181      49.0417      0.00000
    182      49.1472      0.00000
    183      49.3983      0.00000
    184      49.6742      0.00000
    185      49.6818      0.00000
    186      50.0239      0.00000
    187      50.0897      0.00000
    188      50.1548      0.00000
    189      50.4540      0.00000
    190      50.6615      0.00000
    191      51.3334      0.00000
    192      51.4720      0.00000
    193      51.6686      0.00000
    194      51.8679      0.00000
    195      52.0388      0.00000
    196      52.0482      0.00000
    197      52.2502      0.00000
    198      52.4066      0.00000
    199      52.4102      0.00000
    200      52.8665      0.00000
    201      53.1121      0.00000
    202      53.1901      0.00000
    203      53.5436      0.00000
    204      53.6653      0.00000
    205      53.6806      0.00000
    206      53.9770      0.00000
    207      54.1680      0.00000
    208      54.2448      0.00000
    209      54.6694      0.00000
    210      54.7494      0.00000
    211      54.8298      0.00000
    212      54.8474      0.00000
    213      54.8897      0.00000
    214      54.9356      0.00000
    215      55.0969      0.00000
    216      55.2538      0.00000
    217      55.6909      0.00000
    218      55.8479      0.00000
    219      55.8766      0.00000
    220      55.9216      0.00000
    221      56.0235      0.00000
    222      56.0933      0.00000
    223      56.2448      0.00000
    224      56.3293      0.00000
    225      56.4143      0.00000
    226      56.4182      0.00000
    227      56.7420      0.00000
    228      57.0043      0.00000
    229      57.0654      0.00000
    230      57.1188      0.00000
    231      57.2175      0.00000
    232      57.4037      0.00000
    233      57.5925      0.00000
    234      57.6688      0.00000
    235      57.8959      0.00000
    236      57.9958      0.00000
    237      58.1118      0.00000
    238      58.1136      0.00000
    239      58.2141      0.00000
    240      58.2862      0.00000
    241      58.5328      0.00000
    242      58.6716      0.00000
    243      59.1612      0.00000
    244      59.5190      0.00000
    245      59.5926      0.00000
    246      59.7562      0.00000
    247      60.0091      0.00000
    248      60.1556      0.00000
    249      60.1957      0.00000
    250      60.4148      0.00000
    251      60.5691      0.00000
    252      60.5970      0.00000
    253      60.6420      0.00000
    254      60.7423      0.00000
    255      60.8097      0.00000
    256      61.0367      0.00000
    257      61.4889      0.00000
    258      61.5977      0.00000
    259      61.6641      0.00000
    260      62.2972      0.00000
    261      62.7427      0.00000
    262      63.0159      0.00000
    263      63.0609      0.00000
    264      63.2366      0.00000
    265      63.5275      0.00000
    266      63.5802      0.00000
    267      63.7380      0.00000
    268      63.8021      0.00000
    269      63.8261      0.00000
    270      64.3403      0.00000
    271      64.3769      0.00000
    272      64.5438      0.00000
    273      64.8286      0.00000
    274      64.9890      0.00000
    275      65.5383      0.00000
    276      65.6896      0.00000
    277      65.7894      0.00000
    278      65.8052      0.00000
    279      65.9417      0.00000
    280      66.2448      0.00000
    281      66.3120      0.00000
    282      66.6997      0.00000
    283      66.7506      0.00000
    284      67.2244      0.00000
    285      67.2772      0.00000
    286      67.3216      0.00000
    287      67.5616      0.00000
    288      67.6026      0.00000
    289      67.7564      0.00000
    290      67.9715      0.00000
    291      68.1944      0.00000
    292      68.2950      0.00000
    293      68.8195      0.00000
    294      68.8428      0.00000
    295      68.8538      0.00000
    296      69.1357      0.00000
    297      69.2949      0.00000
    298      69.3176      0.00000
    299      69.4425      0.00000
    300      69.4809      0.00000
    301      69.5461      0.00000
    302      69.7006      0.00000
    303      70.1602      0.00000
    304      70.2362      0.00000
    305      70.3906      0.00000
    306      70.4208      0.00000
    307      70.4908      0.00000
    308      70.8144      0.00000
    309      70.8835      0.00000
    310      71.1398      0.00000
    311      71.2078      0.00000
    312      71.2138      0.00000
    313      71.3411      0.00000
    314      71.4082      0.00000
    315      71.4799      0.00000
    316      71.5123      0.00000
    317      71.6867      0.00000
    318      72.1109      0.00000
    319      72.3452      0.00000
    320      72.6233      0.00000
    321      72.7377      0.00000
    322      72.9518      0.00000
    323      73.0873      0.00000
    324      73.1556      0.00000
    325      73.4399      0.00000
    326      73.4599      0.00000
    327      73.8488      0.00000
    328      74.0144      0.00000
    329      74.7295      0.00000
    330      74.7854      0.00000
    331      74.9814      0.00000
    332      75.0549      0.00000
    333      75.2513      0.00000
    334      75.5368      0.00000
    335      75.9161      0.00000
    336      76.0671      0.00000
    337      76.1190      0.00000
    338      76.2320      0.00000
    339      76.2809      0.00000
    340      76.5287      0.00000
    341      76.8873      0.00000
    342      76.9609      0.00000
    343      77.0964      0.00000
    344      77.2456      0.00000
    345      77.3000      0.00000
    346      77.6068      0.00000
    347      77.6918      0.00000
    348      77.8653      0.00000
    349      77.9036      0.00000
    350      78.0860      0.00000
    351      78.1560      0.00000
    352      78.1844      0.00000
    353      78.2773      0.00000
    354      78.4130      0.00000
    355      78.4159      0.00000
    356      78.6081      0.00000
    357      78.6650      0.00000
    358      78.7748      0.00000
    359      78.9126      0.00000
    360      79.3453      0.00000
    361      79.4228      0.00000
    362      79.5387      0.00000
    363      79.5431      0.00000
    364      79.8179      0.00000
    365      79.8187      0.00000
    366      79.9882      0.00000
    367      80.1084      0.00000
    368      80.2538      0.00000
    369      80.2916      0.00000
    370      80.5392      0.00000
    371      80.8301      0.00000
    372      81.2153      0.00000
    373      81.4806      0.00000
    374      81.5296      0.00000
    375      81.7120      0.00000
    376      81.8775      0.00000
    377      81.9036      0.00000
    378      82.1006      0.00000
    379      82.1331      0.00000
    380      82.5794      0.00000
    381      82.7247      0.00000
    382      82.7923      0.00000
    383      83.1891      0.00000
    384      83.3848      0.00000
    385      83.5596      0.00000
    386      83.5781      0.00000
    387      83.8030      0.00000
    388      84.1951      0.00000
    389      84.2396      0.00000
    390      84.3385      0.00000
    391      84.4672      0.00000
    392      84.5305      0.00000
    393      84.8601      0.00000
    394      85.0922      0.00000
    395      85.4859      0.00000
    396      85.5192      0.00000
    397      85.6208      0.00000
    398      85.7921      0.00000
    399      86.3392      0.00000
    400      86.7285      0.00000
    401      87.3182      0.00000
    402      87.5215      0.00000
    403      87.8530      0.00000
    404      87.8570      0.00000
    405      88.0348      0.00000
    406      88.4458      0.00000
    407      88.9993      0.00000
    408      89.2777      0.00000
    409      89.7942      0.00000
    410      90.4206      0.00000
    411      90.5460      0.00000
    412      90.6511      0.00000
    413      90.6951      0.00000
    414      90.7294      0.00000
    415      90.7399      0.00000
    416      91.3777      0.00000
    417      91.5135      0.00000
    418      91.6598      0.00000
    419      91.6929      0.00000
    420      91.8930      0.00000
    421      91.9285      0.00000
    422      91.9873      0.00000
    423      92.0604      0.00000
    424      92.1076      0.00000
    425      92.2561      0.00000
    426      92.3214      0.00000
    427      92.5117      0.00000
    428      92.5503      0.00000
    429      92.9039      0.00000
    430      92.9985      0.00000
    431      93.0616      0.00000
    432      93.2398      0.00000
    433      93.2987      0.00000
    434      93.4926      0.00000
    435      93.9201      0.00000
    436      94.0037      0.00000
    437      94.0534      0.00000
    438      94.2310      0.00000
    439      94.3139      0.00000
    440      94.4875      0.00000
    441      94.5268      0.00000
    442      94.7605      0.00000
    443      94.7792      0.00000
    444      94.9737      0.00000
    445      95.1172      0.00000
    446      95.1244      0.00000
    447      95.1420      0.00000
    448      95.3613      0.00000
    449      95.4640      0.00000
    450      95.4961      0.00000
    451      95.6125      0.00000
    452      95.7709      0.00000
    453      95.9417      0.00000
    454      95.9981      0.00000
    455      96.1286      0.00000
    456      96.3142      0.00000
    457      96.6266      0.00000
    458      97.0521      0.00000
    459      97.0589      0.00000
    460      97.0770      0.00000
    461      97.1188      0.00000
    462      97.3295      0.00000
    463      97.4124      0.00000
    464      97.5831      0.00000
    465      97.6637      0.00000
    466      97.7066      0.00000
    467      97.7313      0.00000
    468      97.7342      0.00000
    469      98.0175      0.00000
    470      98.1430      0.00000
    471      98.2234      0.00000
    472      98.2304      0.00000
    473      98.2535      0.00000
    474      98.3174      0.00000
    475      98.3481      0.00000
    476      98.4582      0.00000
    477      98.5444      0.00000
    478      98.7206      0.00000
    479      98.7734      0.00000
    480      98.8368      0.00000
    481      98.8413      0.00000
    482      99.0402      0.00000
    483      99.3440      0.00000
    484      99.3446      0.00000
    485      99.3701      0.00000
    486      99.6088      0.00000
    487      99.6097      0.00000
    488      99.7161      0.00000
    489      99.7423      0.00000
    490      99.7445      0.00000
    491      99.8770      0.00000
    492      99.9458      0.00000
    493     100.1258      0.00000
    494     100.1309      0.00000
    495     100.1836      0.00000
    496     100.3884      0.00000
    497     100.6003      0.00000
    498     100.7388      0.00000
    499     100.7599      0.00000
    500     100.7790      0.00000
    501     100.8289      0.00000
    502     100.9106      0.00000
    503     100.9161      0.00000
    504     100.9757      0.00000
    505     101.2160      0.00000
    506     101.3776      0.00000
    507     101.4889      0.00000
    508     101.5362      0.00000
    509     101.6502      0.00000
    510     101.7033      0.00000
[...]
    508     102.8191      0.00000
    509     102.9356      0.00000
    510     103.1512      0.00000
    511     103.3311      0.00000
    512     103.4593      0.00000
    513     103.5375      0.00000
    514     103.6601      0.00000
    515     103.8446      0.00000
    516     103.8711      0.00000

 k-point    19 :       0.3333    0.3333    0.0000
  band No.  band energies     occupation 
      1     -17.8688      2.00000
      2     -15.9379      2.00000
      3     -15.9378      2.00000
      4     -11.5066      2.00000
      5     -11.5065      2.00000
      6      -9.5451      2.00000
      7      -7.0445      2.00000
      8      -7.0444      2.00000
      9      -6.6839      2.00000
     10      -6.0367      2.00000
     11      -5.9047      2.00000
     12      -4.8914      2.00000
     13      -4.8914      2.00000
     14      -4.8129      2.00000
     15      -4.8129      2.00000
     16      -0.0409      0.00000
     17      -0.0408      0.00000
     18       4.2692      0.00000
     19       4.2978      0.00000
     20       4.2978      0.00000
     21       5.5746      0.00000
     22       5.5746      0.00000
     23       5.7034      0.00000
     24       6.5586      0.00000
     25       7.0968      0.00000
     26       7.0968      0.00000
     27       8.1351      0.00000
     28       8.1351      0.00000
     29       8.1762      0.00000
     30       8.6535      0.00000
     31       9.1420      0.00000
     32       9.2532      0.00000
     33       9.2533      0.00000
     34      10.7312      0.00000
     35      10.7312      0.00000
     36      11.2639      0.00000
     37      11.2639      0.00000
     38      11.3206      0.00000
     39      11.6735      0.00000
     40      13.5634      0.00000
     41      13.5634      0.00000
     42      13.5956      0.00000
     43      13.5956      0.00000
     44      13.9717      0.00000
     45      14.2579      0.00000
     46      14.2579      0.00000
     47      14.5931      0.00000
     48      15.7412      0.00000
     49      15.7412      0.00000
     50      16.1258      0.00000
     51      16.5320      0.00000
     52      16.5320      0.00000
     53      16.6440      0.00000
     54      16.8185      0.00000
     55      17.1274      0.00000
     56      17.1274      0.00000
     57      17.4568      0.00000
     58      17.8799      0.00000
     59      17.8799      0.00000
     60      18.6209      0.00000
     61      19.2008      0.00000
     62      19.2881      0.00000
     63      19.2882      0.00000
     64      19.5191      0.00000
     65      19.6556      0.00000
     66      19.6557      0.00000
     67      20.1775      0.00000
     68      20.5934      0.00000
     69      20.5934      0.00000
     70      22.0208      0.00000
     71      22.0208      0.00000
     72      22.6324      0.00000
     73      22.6466      0.00000
     74      22.6466      0.00000
     75      22.7957      0.00000
     76      23.1172      0.00000
     77      23.1327      0.00000
     78      23.1327      0.00000
     79      23.4334      0.00000
     80      23.4334      0.00000
     81      23.7063      0.00000
     82      25.0938      0.00000
     83      25.0939      0.00000
     84      25.3922      0.00000
     85      25.8611      0.00000
     86      25.8612      0.00000
     87      25.8990      0.00000
     88      25.9292      0.00000
     89      25.9292      0.00000
     90      26.3722      0.00000
     91      26.4935      0.00000
     92      26.5733      0.00000
     93      27.3528      0.00000
     94      27.3528      0.00000
     95      30.1024      0.00000
     96      30.1024      0.00000
     97      30.1710      0.00000
     98      31.3933      0.00000
     99      31.3935      0.00000
    100      31.4905      0.00000
    101      31.5947      0.00000
    102      31.5948      0.00000
    103      31.7501      0.00000
    104      32.3585      0.00000
    105      32.3586      0.00000
    106      32.3602      0.00000
    107      32.3603      0.00000
    108      32.4050      0.00000
    109      32.5029      0.00000
    110      32.7606      0.00000
    111      32.7607      0.00000
    112      33.3506      0.00000
    113      33.5868      0.00000
    114      33.5868      0.00000
    115      34.0599      0.00000
    116      34.0899      0.00000
    117      34.0900      0.00000
    118      34.5274      0.00000
    119      34.6245      0.00000
    120      34.6246      0.00000
    121      36.1334      0.00000
    122      36.5049      0.00000
    123      36.6555      0.00000
    124      36.6556      0.00000
    125      37.0543      0.00000
    126      37.0545      0.00000
    127      37.2531      0.00000
    128      37.4535      0.00000
    129      37.6819      0.00000
    130      37.7727      0.00000
    131      37.7727      0.00000
    132      37.8231      0.00000
    133      37.8232      0.00000
    134      37.9682      0.00000
    135      37.9683      0.00000
    136      38.3384      0.00000
    137      38.3385      0.00000
    138      38.8905      0.00000
    139      39.6616      0.00000
    140      39.9322      0.00000
    141      39.9322      0.00000
    142      40.3489      0.00000
    143      40.4939      0.00000
    144      40.4939      0.00000
    145      40.6133      0.00000
    146      40.8213      0.00000
    147      40.8215      0.00000
    148      41.0813      0.00000
    149      41.7838      0.00000
    150      41.9926      0.00000
    151      41.9926      0.00000
    152      42.9137      0.00000
    153      43.2479      0.00000
    154      43.2479      0.00000
    155      43.4073      0.00000
    156      43.4074      0.00000
    157      44.0936      0.00000
    158      44.0938      0.00000
    159      44.7190      0.00000
    160      44.7191      0.00000
    161      44.8837      0.00000
    162      45.2835      0.00000
    163      45.5479      0.00000
    164      45.8185      0.00000
    165      45.8186      0.00000
    166      45.8566      0.00000
    167      45.8566      0.00000
    168      46.0607      0.00000
    169      46.0970      0.00000
    170      46.3865      0.00000
    171      46.6454      0.00000
    172      46.6455      0.00000
    173      46.7615      0.00000
    174      46.7615      0.00000
    175      46.7665      0.00000
    176      46.8632      0.00000
    177      46.8633      0.00000
    178      47.5286      0.00000
    179      47.5289      0.00000
    180      47.5474      0.00000
    181      47.5749      0.00000
    182      47.5749      0.00000
    183      47.7463      0.00000
    184      47.8175      0.00000
    185      48.1115      0.00000
    186      48.1117      0.00000
    187      49.3076      0.00000
    188      49.3076      0.00000
    189      49.3855      0.00000
    190      49.3878      0.00000
    191      49.5757      0.00000
    192      49.5757      0.00000
    193      49.6187      0.00000
    194      49.9993      0.00000
    195      50.0337      0.00000
    196      50.0338      0.00000
    197      50.5469      0.00000
    198      50.5470      0.00000
    199      51.1574      0.00000
    200      51.1574      0.00000
    201      51.4196      0.00000
    202      51.9683      0.00000
    203      52.1606      0.00000
    204      52.1606      0.00000
    205      52.3306      0.00000
    206      52.3307      0.00000
    207      52.7674      0.00000
    208      52.7875      0.00000
    209      52.7875      0.00000
    210      53.0734      0.00000
    211      53.2731      0.00000
    212      53.2731      0.00000
    213      53.3959      0.00000
    214      53.3961      0.00000
    215      53.3964      0.00000
    216      54.0645      0.00000
    217      54.7516      0.00000
    218      55.7664      0.00000
    219      55.7667      0.00000
    220      56.1623      0.00000
    221      56.5342      0.00000
    222      56.5343      0.00000
    223      56.5719      0.00000
    224      56.5720      0.00000
    225      57.3495      0.00000
    226      57.4811      0.00000
    227      57.7798      0.00000
    228      57.7799      0.00000
    229      58.1272      0.00000
    230      58.1275      0.00000
    231      58.9445      0.00000
    232      59.1119      0.00000
    233      59.1120      0.00000
    234      59.2923      0.00000
    235      59.3662      0.00000
    236      59.6632      0.00000
    237      59.6634      0.00000
    238      60.2082      0.00000
    239      60.2716      0.00000
    240      60.2717      0.00000
    241      60.5392      0.00000
    242      61.0333      0.00000
    243      61.0335      0.00000
    244      62.0693      0.00000
    245      62.0693      0.00000
    246      62.1044      0.00000
    247      62.1045      0.00000
    248      62.1960      0.00000
    249      62.3346      0.00000
    250      62.3382      0.00000
    251      62.3383      0.00000
    252      62.4284      0.00000
    253      62.8654      0.00000
    254      62.8656      0.00000
    255      63.0333      0.00000
    256      63.0333      0.00000
    257      63.1243      0.00000
    258      63.1246      0.00000
    259      63.3333      0.00000
    260      63.3864      0.00000
    261      63.7450      0.00000
    262      64.0163      0.00000
    263      64.0165      0.00000
    264      64.1322      0.00000
    265      64.2996      0.00000
    266      64.2999      0.00000
    267      64.4895      0.00000
    268      64.8101      0.00000
    269      64.8101      0.00000
    270      64.9162      0.00000
    271      65.2697      0.00000
    272      65.9473      0.00000
    273      65.9475      0.00000
    274      66.0854      0.00000
    275      66.0855      0.00000
    276      66.9171      0.00000
    277      67.3792      0.00000
    278      67.5332      0.00000
    279      67.5333      0.00000
    280      67.7731      0.00000
    281      67.7891      0.00000
    282      67.7892      0.00000
    283      68.1030      0.00000
    284      68.3272      0.00000
    285      68.6270      0.00000
    286      68.6271      0.00000
    287      68.6291      0.00000
    288      68.6293      0.00000
    289      69.1690      0.00000
    290      69.3331      0.00000
    291      69.3331      0.00000
    292      69.5674      0.00000
    293      69.9519      0.00000
    294      70.1975      0.00000
    295      70.1977      0.00000
    296      70.3960      0.00000
    297      70.5948      0.00000
    298      70.5948      0.00000
    299      71.4237      0.00000
    300      71.4238      0.00000
    301      71.7650      0.00000
    302      72.0602      0.00000
    303      72.0603      0.00000
    304      72.4478      0.00000
    305      72.9103      0.00000
    306      72.9105      0.00000
    307      72.9613      0.00000
    308      73.1268      0.00000
    309      73.1269      0.00000
    310      73.2616      0.00000
    311      73.3155      0.00000
    312      73.3275      0.00000
    313      73.3277      0.00000
    314      73.7478      0.00000
    315      74.0692      0.00000
    316      74.0693      0.00000
    317      74.0981      0.00000
    318      74.0983      0.00000
    319      74.2387      0.00000
    320      74.2388      0.00000
    321      74.6508      0.00000
    322      74.8414      0.00000
    323      74.8414      0.00000
    324      75.2281      0.00000
    325      75.3930      0.00000
    326      75.3930      0.00000
    327      75.5826      0.00000
    328      75.8686      0.00000
    329      76.0566      0.00000
    330      76.0567      0.00000
    331      76.3475      0.00000
    332      76.3475      0.00000
    333      76.3940      0.00000
    334      76.7574      0.00000
    335      76.7576      0.00000
    336      76.9503      0.00000
    337      77.0810      0.00000
    338      77.0903      0.00000
    339      77.0906      0.00000
    340      77.1213      0.00000
    341      77.1818      0.00000
    342      77.1818      0.00000
    343      77.2416      0.00000
    344      77.2417      0.00000
    345      77.2548      0.00000
    346      77.6384      0.00000
    347      77.6385      0.00000
    348      78.4491      0.00000
    349      78.4492      0.00000
    350      78.8253      0.00000
    351      78.9299      0.00000
    352      78.9300      0.00000
    353      78.9855      0.00000
    354      79.2870      0.00000
    355      79.5071      0.00000
    356      79.5073      0.00000
    357      79.6164      0.00000
    358      79.7154      0.00000
    359      79.7156      0.00000
    360      79.8220      0.00000
    361      79.9670      0.00000
    362      79.9672      0.00000
    363      80.0251      0.00000
    364      80.0252      0.00000
    365      80.9130      0.00000
    366      81.1007      0.00000
    367      81.3070      0.00000
    368      81.8154      0.00000
    369      81.8154      0.00000
    370      81.8602      0.00000
    371      81.8603      0.00000
    372      82.2624      0.00000
    373      82.3033      0.00000
    374      82.3034      0.00000
    375      82.4069      0.00000
    376      82.5182      0.00000
    377      82.5638      0.00000
    378      82.5639      0.00000
    379      82.6313      0.00000
    380      82.6315      0.00000
    381      82.6591      0.00000
    382      83.1845      0.00000
    383      83.1846      0.00000
    384      83.2818      0.00000
    385      83.2819      0.00000
    386      83.4479      0.00000
    387      83.7169      0.00000
    388      84.0705      0.00000
    389      84.0707      0.00000
    390      84.6498      0.00000
    391      85.1792      0.00000
    392      85.1914      0.00000
    393      85.1915      0.00000
    394      85.3118      0.00000
    395      85.3119      0.00000
    396      85.5534      0.00000
    397      85.5710      0.00000
    398      85.7207      0.00000
    399      85.7211      0.00000
    400      86.3891      0.00000
    401      86.3894      0.00000
    402      86.4079      0.00000
    403      86.8159      0.00000
    404      86.8301      0.00000
    405      86.8301      0.00000
    406      86.9056      0.00000
    407      87.0285      0.00000
    408      87.0288      0.00000
    409      87.7386      0.00000
    410      87.9386      0.00000
    411      87.9386      0.00000
    412      88.4829      0.00000
    413      88.5124      0.00000
    414      88.5125      0.00000
    415      88.6209      0.00000
    416      88.6210      0.00000
    417      88.7171      0.00000
    418      88.7436      0.00000
    419      88.7437      0.00000
    420      89.3836      0.00000
    421      89.9955      0.00000
    422      89.9955      0.00000
    423      90.7439      0.00000
    424      91.4806      0.00000
    425      91.4806      0.00000
    426      91.5053      0.00000
    427      91.5426      0.00000
    428      91.6022      0.00000
    429      91.6024      0.00000
    430      91.7075      0.00000
    431      91.9345      0.00000
    432      91.9778      0.00000
    433      91.9783      0.00000
    434      91.9889      0.00000
    435      92.2491      0.00000
    436      92.2493      0.00000
    437      92.3456      0.00000
    438      92.3457      0.00000
    439      92.6053      0.00000
    440      92.7843      0.00000
    441      92.7845      0.00000
    442      92.9560      0.00000
    443      93.0889      0.00000
    444      93.0889      0.00000
    445      93.1971      0.00000
    446      93.3900      0.00000
    447      93.4370      0.00000
    448      93.6416      0.00000
    449      93.6416      0.00000
    450      94.2163      0.00000
    451      94.2164      0.00000
    452      94.3770      0.00000
    453      94.4863      0.00000
    454      94.4864      0.00000
    455      94.6140      0.00000
    456      94.6143      0.00000
    457      94.6786      0.00000
    458      95.1609      0.00000
    459      95.1610      0.00000
    460      96.1657      0.00000
    461      96.1661      0.00000
    462      96.2014      0.00000
    463      96.4232      0.00000
    464      96.4233      0.00000
    465      97.2366      0.00000
    466      97.2833      0.00000
    467      97.2935      0.00000
    468      97.2936      0.00000
    469      97.3174      0.00000
    470      97.3176      0.00000
    471      97.3918      0.00000
    472      97.4306      0.00000
    473      97.5131      0.00000
    474      97.5523      0.00000
    475      97.5524      0.00000
    476      97.7604      0.00000
    477      97.7605      0.00000
    478      97.8222      0.00000
    479      98.0318      0.00000
    480      98.0886      0.00000
    481      98.0887      0.00000
    482      98.4870      0.00000
    483      98.7193      0.00000
    484      98.7195      0.00000
    485      99.0157      0.00000
    486      99.0157      0.00000
    487      99.3327      0.00000
    488      99.7164      0.00000
    489     100.0134      0.00000
    490     100.0136      0.00000
    491     100.3485      0.00000
    492     100.3487      0.00000
    493     100.5533      0.00000
    494     100.5533      0.00000
    495     100.7158      0.00000
    496     100.9544      0.00000
    497     101.2638      0.00000
    498     101.2640      0.00000
    499     101.4499      0.00000
    500     101.7121      0.00000
    501     101.7297      0.00000
    502     101.8819      0.00000
    503     101.8820      0.00000
    504     102.1762      0.00000
    505     102.1764      0.00000
    506     102.9969      0.00000
    507     102.9971      0.00000
    508     103.1354      0.00000
    509     103.1355      0.00000
    510     103.3303      0.00000
    511     103.3664      0.00000
    512     103.4256      0.00000
    513     103.4257      0.00000
    514     103.6569      0.00000
    515     103.6571      0.00000
    516     103.7232      0.00000


--------------------------------------------------------------------------------------------------------


 soft charge-density along one line, spin component           1
         0         1         2         3         4         5         6         7         8         9
 total charge-density along one line
 
 pseudopotential strength for first ion, spin component:           1
  6.649  10.140   0.000  -0.000   0.000   0.000  -0.000   0.000
 10.140  15.458   0.000  -0.000   0.000   0.000  -0.000   0.000
  0.000   0.000  -2.275  -0.000  -0.000  -3.895  -0.000  -0.000
 -0.000  -0.000  -0.000  -2.281   0.000  -0.000  -3.902   0.000
  0.000   0.000  -0.000   0.000  -2.275  -0.000   0.000  -3.895
  0.000   0.000  -3.895  -0.000  -0.000  -6.470  -0.000  -0.000
 -0.000  -0.000  -0.000  -3.902   0.000  -0.000  -6.479   0.000
  0.000   0.000  -0.000   0.000  -3.895  -0.000   0.000  -6.470
 total augmentation occupancy for first ion, spin component:           1
  3.705  -0.948   0.000  -0.000   0.000   0.000   0.000  -0.000
 -0.948   0.262   0.000  -0.000   0.000   0.000   0.000  -0.000
  0.000   0.000   4.123   0.000   0.000  -1.099   0.000   0.000
 -0.000   0.000   0.000   0.887   0.000   0.000  -0.222  -0.000
  0.000  -0.000   0.000  -0.000   4.123   0.000   0.000  -1.099
  0.000   0.000  -1.099   0.000   0.000   0.304   0.000   0.000
  0.000   0.000   0.000  -0.222   0.000   0.000   0.056  -0.000
  0.000  -0.000   0.000  -0.000  -1.099   0.000   0.000   0.304


--------------------------------------- Iteration      1(   9)  ---------------------------------------


    POTLOK:  cpu time    0.0979: real time    0.0979
    SETDIJ:  cpu time    0.0019: real time    0.0019

 total amount of memory used by VASP MPI-rank0   590152. kBytes
=======================================================================

   base      :      30000. kBytes
   nonl-proj :      11089. kBytes
   fftplans  :       2090. kBytes
   grid      :       6068. kBytes
   one-center:         24. kBytes
   wavefun   :     540881. kBytes
 
