    1    1    1    2
  0.1600000E+02  0.2828427E-09  0.2828427E-09  0.2828427E-09  0.5000000E-15
  1.000000000000000E-004
  CAR 
 fcc Ni                                  
     10     56     12
 
  0.0000000E+00  0.0000000E+00  0.0000000E+00  0.7513148E-03
    1       -1.740899     -1.794222   1.000000   1.000000
    2        3.119695      4.014203   1.000000   1.000000
    3        3.119701      4.014203   1.000000   1.000000
    4        3.119701      4.014203   1.000000   1.000000
    5        3.817909      4.562172   1.000000   1.013543
    6        3.817909      4.562172   1.000000   1.013543
    7       25.351969     25.113998   0.000000   0.000000
    8       26.384279     26.431347   0.000000   0.000000
    9       26.384311     26.431347   0.000000   0.000000
   10       26.384311     26.431355   0.000000   0.000000
   11       28.924690     28.976589   0.000000   0.000000
   12       28.924704     28.976598   0.000000   0.000000
 
  0.9090909E-01  0.0000000E+00  0.0000000E+00  0.6010518E-02
    1       -1.497136     -1.550169   1.000000   1.000000
    2        3.080473      3.965593   1.000000   1.000000
    3        3.158481      4.054945   1.000000   1.000000
    4        3.158486      4.054946   1.000000   1.000000
    5        3.804487      4.547897   1.000000   1.011059
    6        3.804488      4.547898   1.000000   1.011059
    7       22.861676     22.869908   0.000000   0.000000
    8       25.595952     25.448766   0.000000   0.000000
    9       25.760125     25.825031   0.000000   0.000000
   10       25.760146     25.825035   0.000000   0.000000
   11       29.937135     29.963253   0.000000   0.000000
   12       29.937151     29.963264   0.000000   0.000000
 
  0.1818182E+00  0.0000000E+00  0.0000000E+00  0.6010518E-02
    1       -0.788089     -0.836356   1.000000   1.000000
    2        2.999343      3.853182   1.000000   1.000000
    3        3.237090      4.120032   1.000000   1.000000
    4        3.237092      4.120035   1.000000   1.000000
    5        3.801851      4.561931   1.000000   1.013498
    6        3.801857      4.561934   1.000000   1.013499
    7       18.781947     18.850890   0.000000   0.000000
    8       24.866950     24.951889   0.000000   0.000000
    9       24.866958     24.951895   0.000000   0.000000
   10       25.368631     25.206691   0.000000   0.000000
   11       30.480830     30.385484   0.000000   0.000000
   12       31.006966     30.970023   0.000000   0.000000
 
  0.2727273E+00  0.0000000E+00  0.0000000E+00  0.6010518E-02
    1        0.277818      0.267523   1.000000   1.000000
    2        3.009780      3.781337   1.000000   1.000000
    3        3.261970      4.093057   1.000000   1.000000
    4        3.261972      4.093061   1.000000   1.000000
    5        3.880663      4.699447   1.000000   1.034130
    6        3.880675      4.699453   1.000000   1.034129
    7       14.950660     15.069788   0.000000   0.000000
    8       24.188538     24.284874   0.000000   0.000000
    9       24.188548     24.284885   0.000000   0.000000
   10       24.918708     24.742976   0.000000   0.000000
   11       29.101611     29.107720   0.000000   0.000000
   12       29.101647     29.107738   0.000000   0.000000
 
  0.3636364E+00  0.0000000E+00  0.0000000E+00  0.6010518E-02
    1        1.279946      1.479311   1.000000   1.000000
    2        3.218808      4.010163   1.000000   1.000000
    3        3.218812      4.010166   1.000000   1.000000
    4        3.530880      4.015523   1.000000   1.000000
    5        4.028682      4.895796   1.000000   0.629788
    6        4.028698      4.895803   1.000000   0.629760
    7       11.538175     11.733942   0.000000   0.000000
    8       23.764181     23.863174   0.000000   0.000000
    9       23.764210     23.863194   0.000000   0.000000
   10       24.406122     24.212439   0.000000   0.000000
   11       27.675118     27.681937   0.000000   0.000000
   12       27.675171     27.681967   0.000000   0.000000
 
  0.4545455E+00  0.0000000E+00  0.0000000E+00  0.6010518E-02
    1        1.651590      2.145021   1.000000   1.000000
    2        3.177635      3.951936   1.000000   1.000000
    3        3.177638      3.951938   1.000000   1.000000
    4        4.134141      4.907403   1.000000   0.581988
    5        4.134158      5.025035   1.000000   0.135016
    6        4.886953      5.025042   0.665273   0.134996
    7        8.839120      9.204632  -0.000000  -0.000000
    8       23.568450     23.665001   0.000000   0.000000
    9       23.568494     23.665029   0.000000   0.000000
   10       24.079943     23.875956   0.000000   0.000000
   11       26.915036     26.922290   0.000000   0.000000
   12       26.915104     26.922327   0.000000   0.000000
 
  0.9090909E-01  0.9090909E-01  0.0000000E+00  0.4507889E-02
    1       -1.416073     -1.469094   1.000000   1.000000
    2        3.041644      3.925113   1.000000   1.000000
    3        3.187304      4.085682   1.000000   1.000000
    4        3.187308      4.085683   1.000000   1.000000
    5        3.750091      4.485854   1.000000   1.003900
    6        3.848388      4.594607   1.000000   1.020260
    7       24.195146     24.071282   0.000000   0.000000
    8       24.195162     24.264706   0.000000   0.000000
    9       24.208031     24.264706   0.000000   0.000000
   10       25.402462     25.414723   0.000000   0.000000
   11       30.310870     30.380528   0.000000   0.000000
   12       30.751671     30.714466   0.000000   0.000000
 
  0.1818182E+00  0.9090909E-01  0.0000000E+00  0.1803156E-01
    1       -0.861984     -0.912327   1.000000   1.000000
    2        2.952699      3.817148   1.000000   1.000000
    3        3.267256      4.155954   1.000000   1.000000
    4        3.272124      4.166594   1.000000   1.000001
    5        3.694101      4.434962   1.000000   1.001384
    6        3.878854      4.635362   1.000000   1.029494
    7       20.295970     20.349085   0.000000   0.000000
    8       22.977824     23.052864   0.000000   0.000000
    9       24.043432     23.982450   0.000000   0.000000
   10       26.573733     26.546058   0.000000   0.000000
   11       27.679168     27.770708   0.000000   0.000000
   12       30.792506     30.777451   0.000000   0.000000
 
  0.2727273E+00  0.9090909E-01  0.0000000E+00  0.1803156E-01
    1        0.095027      0.066126   1.000000   1.000000
    2        2.887534      3.707397   1.000000   1.000000
    3        3.283860      4.097500   1.000000   1.000000
    4        3.324724      4.180823   1.000000   1.000001
    5        3.778811      4.585893   1.000000   1.018333
    6        3.948839      4.752269   1.000000   1.006451
    7       16.365640     16.462889   0.000000   0.000000
    8       22.164043     22.241210   0.000000   0.000000
    9       23.567725     23.511105   0.000000   0.000000
   10       25.325960     25.394128   0.000000   0.000000
   11       28.516108     28.481520   0.000000   0.000000
   12       30.554530     30.537349   0.000000   0.000000
 
  0.3636364E+00  0.9090909E-01  0.0000000E+00  0.1803156E-01
    1        1.171517      1.278116   1.000000   1.000000
    2        3.056111      3.735692   1.000000   1.000000
    3        3.205031      3.980714   1.000000   1.000000
    4        3.304045      4.114688   1.000000   1.000000
    5        4.068951      4.915290   1.000000   0.548955
    6        4.115364      4.925832   1.000000   0.504440
    7       12.796743     12.952499   0.000000   0.000000
    8       21.802392     21.877853   0.000000   0.000000
    9       23.225376     23.113170   0.000000   0.000000
   10       23.451857     23.569192   0.000000   0.000000
   11       29.269081     29.196610   0.000000   0.000000
   12       30.249019     30.258952   0.000000   0.000000
 
  0.4545455E+00  0.9090909E-01  0.0000000E+00  0.1803156E-01
    1        1.719057      2.160346   1.000000   1.000000
    2        3.133225      3.859402   1.000000   1.000000
    3        3.258483      4.042030   1.000000   1.000000
    4        3.574029      4.172210   1.000000   1.000001
    5        4.150502      5.038821   1.000000   0.098892
    6        5.009993      5.499492   0.179735  -0.000197
    7        9.753584     10.025726  -0.000000  -0.000000
    8       21.904268     21.932066   0.000000   0.000000
    9       21.933004     22.007087   0.000000   0.000000
   10       23.271500     23.227695   0.000000   0.000000
   11       28.965801     28.982657   0.000000   0.000000
   12       29.086901     29.023384   0.000000   0.000000
 
 -0.4545455E+00  0.9090909E-01  0.0000000E+00  0.1803156E-01
    1        1.799874      2.344120   1.000000   1.000000
    2        3.117276      3.854696   1.000000   1.000000
    3        3.238078      4.011257   1.000000   1.000000
    4        3.770732      4.409203   1.000000   1.000773
    5        4.125448      5.021150   1.000000   0.146045
    6        5.832834      6.031686  -0.000000  -0.000000
    7        8.439943      8.855070  -0.000000  -0.000000
    8       20.926022     20.968068   0.000000   0.000000
    9       22.589224     22.668953   0.000000   0.000000
   10       23.581682     23.502121   0.000000   0.000000
   11       28.107904     28.126825   0.000000   0.000000
   12       28.962922     28.922067   0.000000   0.000000
 
 -0.3636364E+00  0.9090909E-01  0.0000000E+00  0.1803156E-01
    1        1.616625      1.951195   1.000000   1.000000
    2        3.155033      3.909971   1.000000   1.000000
    3        3.263680      4.029512   1.000000   1.000000
    4        3.483699      4.042271   1.000000   1.000000
    5        3.989612      4.870249   1.000000   0.729311
    6        4.683341      5.360642   1.035450  -0.004463
    7       10.693672     10.916023   0.000000   0.000000
    8       20.446425     20.496554   0.000000   0.000000
    9       23.763067     23.860557   0.000000   0.000000
   10       24.286364     24.185178   0.000000   0.000000
   11       27.693118     27.704785   0.000000   0.000000
   12       28.916093     28.892545   0.000000   0.000000
 
 -0.2727273E+00  0.9090909E-01  0.0000000E+00  0.1803156E-01
    1        0.839446      0.874236   1.000000   1.000000
    2        2.975946      3.725239   1.000000   1.000000
    3        3.241496      4.026509   1.000000   1.000000
    4        3.314610      4.123642   1.000000   1.000000
    5        3.802638      4.641871   1.000000   1.030821
    6        4.163233      4.991353   1.000000   0.242279
    7       13.944872     14.078619   0.000000   0.000000
    8       20.444039     20.499107   0.000000   0.000000
    9       25.353265     25.261051   0.000000   0.000000
   10       25.374142     25.486114   0.000000   0.000000
   11       27.745461     27.732099   0.000000   0.000000
   12       28.736123     28.700376   0.000000   0.000000
 
 -0.1818182E+00  0.9090909E-01  0.0000000E+00  0.1803156E-01
    1       -0.259551     -0.300086   1.000000   1.000000
    2        2.922068      3.761875   1.000000   1.000000
    3        3.273324      4.114257   1.000000   1.000000
    4        3.309669      4.192581   1.000000   1.000001
    5        3.697519      4.454859   1.000000   1.002114
    6        3.946030      4.745071   1.000000   1.012933
    7       17.649253     17.731582   0.000000   0.000000
    8       20.881120     20.934170   0.000000   0.000000
    9       26.561482     26.443811   0.000000   0.000000
   10       26.885993     27.039508   0.000000   0.000000
   11       28.455345     28.377800   0.000000   0.000000
   12       28.619888     28.590617   0.000000   0.000000
 
 -0.9090909E-01  0.9090909E-01  0.0000000E+00  0.9015778E-02
    1       -1.097602     -1.149252   1.000000   1.000000
    2        3.010662      3.882539   1.000000   1.000000
    3        3.215640      4.113025   1.000000   1.000000
    4        3.227249      4.118859   1.000000   1.000000
    5        3.736053      4.470613   1.000000   1.002907
    6        3.849962      4.606701   1.000000   1.023024
    7       21.498573     21.523682   0.000000   0.000000
    8       21.899334     21.955325   0.000000   0.000000
    9       26.527289     26.413624   0.000000   0.000000
   10       27.215933     27.301221   0.000000   0.000000
   11       29.246909     29.145904   0.000000   0.000000
   12       29.311483     29.350858   0.000000   0.000000
 
  0.1818182E+00  0.1818182E+00  0.0000000E+00  0.4507889E-02
    1       -0.475704     -0.523523   1.000000   1.000000
    2        2.835106      3.689817   1.000000   1.000000
    3        3.381124      4.290687   1.000000   1.000033
    4        3.381128      4.291883   1.000000   1.000034
    5        3.582633      4.291884   1.000000   1.000034
    6        3.930782      4.682307   1.000000   1.035457
    7       21.492293     21.562477   0.000000   0.000000
    8       21.492307     21.562480   0.000000   0.000000
    9       22.696877     22.648756   0.000000   0.000000
   10       23.795285     23.738224   0.000000   0.000000
   11       25.153733     25.320531   0.000000   0.000000
   12       34.290214     34.195655   0.000000   0.000000
 
  0.2727273E+00  0.1818182E+00  0.0000000E+00  0.1803156E-01
    1        0.317872      0.288929   1.000000   1.000000
    2        2.720383      3.552401   1.000000   1.000000
    3        3.357107      4.116647   1.000000   1.000000
    4        3.482750      4.375318   1.000000   1.000339
    5        3.714703      4.550590   1.000000   1.011503
    6        3.998859      4.780612   1.000000   0.970343
    7       18.116537     18.189753   0.000000   0.000000
    8       20.465687     20.530379   0.000000   0.000000
    9       22.396578     22.346201   0.000000   0.000000
   10       22.786734     22.869643   0.000000   0.000000
   11       25.244980     25.314235   0.000000   0.000000
   12       34.105786     33.993058   0.000000   0.000000
 
  0.3636364E+00  0.1818182E+00  0.0000000E+00  0.1803156E-01
    1        1.315426      1.384426   1.000000   1.000000
    2        2.696846      3.472405   1.000000   1.000000
    3        3.203820      3.947332   1.000000   1.000000
    4        3.502068      4.341485   1.000000   1.000140
    5        4.102594      4.947544   1.000000   0.413086
    6        4.228188      5.002903   1.000005   0.202640
    7       14.460424     14.573571   0.000000   0.000000
    8       19.950495     20.009517   0.000000   0.000000
    9       20.454271     20.497086   0.000000   0.000000
   10       22.447787     22.472811   0.000000   0.000000
   11       27.992418     28.027756   0.000000   0.000000
   12       33.260082     33.146871   0.000000   0.000000
 
  0.4545455E+00  0.1818182E+00  0.0000000E+00  0.1803156E-01
    1        1.955796      2.346135   1.000000   1.000000
    2        2.895963      3.506441   1.000000   1.000000
    3        3.127404      3.893870   1.000000   1.000000
    4        3.462955      4.264212   1.000000   1.000015
    5        4.168916      5.056166   1.000001   0.060242
    6        5.313393      5.850721  -0.009880  -0.000000
    7       11.190139     11.370623   0.000000   0.000000
    8       18.815597     18.876454   0.000000   0.000000
    9       19.990364     20.047234   0.000000   0.000000
   10       22.425169     22.429937   0.000000   0.000000
   11       31.072893     31.095023   0.000000   0.000000
   12       31.964060     31.969465   0.000000   0.000000
 
 -0.4545455E+00  0.1818182E+00  0.0000000E+00  0.1803156E-01
    1        2.098476      2.696245   1.000000   1.000000
    2        2.957750      3.563573   1.000000   1.000000
    3        3.286515      4.011944   1.000000   1.000000
    4        3.426760      4.205308   1.000000   1.000002
    5        4.127350      5.031562   1.000000   0.117322
    6        6.936694      7.155427  -0.000000  -0.000000
    7        8.728239      9.077258  -0.000000  -0.000000
    8       17.622226     17.692013   0.000000   0.000000
    9       20.612858     20.674786   0.000000   0.000000
   10       22.714516     22.696413   0.000000   0.000000
   11       30.927756     30.940283   0.000000   0.000000
   12       31.529002     31.467423   0.000000   0.000000
 
 -0.3636364E+00  0.1818182E+00  0.0000000E+00  0.1803156E-01
    1        2.065196      2.558654   1.000000   1.000000
    2        3.003650      3.656967   1.000000   1.000000
    3        3.207685      3.885761   1.000000   1.000000
    4        3.426184      4.193921   1.000000   1.000001
    5        3.966469      4.868598   1.000000   0.735391
    6        5.920870      6.376329  -0.000000  -0.000000
    7       10.252134     10.477597  -0.000000   0.000000
    8       16.912855     16.989726   0.000000   0.000000
    9       21.798567     21.872782   0.000000   0.000000
   10       23.383222     23.342416   0.000000   0.000000
   11       30.292856     30.310652   0.000000   0.000000
   12       30.909687     30.841819   0.000000   0.000000
 
 -0.2727273E+00  0.1818182E+00  0.0000000E+00  0.1803156E-01
    1        1.635916      1.779381   1.000000   1.000000
    2        2.870157      3.629255   1.000000   1.000000
    3        3.131096      3.850549   1.000000   1.000000
    4        3.470397      4.239788   1.000000   1.000007
    5        3.740863      4.626469   1.000000   1.027559
    6        4.759346      5.508174   0.999068  -0.000156
    7       13.355975     13.493678   0.000000   0.000000
    8       16.703643     16.786617   0.000000   0.000000
    9       23.491261     23.581653   0.000000   0.000000
   10       24.472026     24.413491   0.000000   0.000000
   11       30.022949     29.927448   0.000000   0.000000
   12       30.062187     30.084124   0.000000   0.000000
 
 -0.1818182E+00  0.1818182E+00  0.0000000E+00  0.9015778E-02
    1        0.648304      0.639050   1.000000   1.000000
    2        2.824275      3.646470   1.000000   1.000000
    3        3.236860      4.014633   1.000000   1.000000
    4        3.464839      4.322658   1.000000   1.000083
    5        3.604347      4.390710   1.000000   1.000497
    6        4.226772      5.051263   1.000004   0.070398
    7       16.747116     16.844229   0.000000   0.000000
    8       17.145481     17.223515   0.000000   0.000000
    9       25.581330     25.694201   0.000000   0.000000
   10       25.956401     25.883954   0.000000   0.000000
   11       28.687606     28.570972   0.000000   0.000000
   12       29.926262     29.959625   0.000000   0.000000
 
  0.2727273E+00  0.2727273E+00  0.0000000E+00  0.4507889E-02
    1        0.885735      0.891848   1.000000   1.000000
    2        2.568542      3.387964   1.000000   1.000000
    3        3.556161      4.173264   1.000000   1.000001
    4        3.663295      4.596951   1.000000   1.020789
    5        3.663299      4.596952   1.000000   1.020789
    6        4.038788      4.797520   1.000000   0.939915
    7       19.214551     19.266345   0.000000   0.000000
    8       19.214565     19.266348   0.000000   0.000000
    9       19.940013     19.988060   0.000000   0.000000
   10       21.568636     21.585676   0.000000   0.000000
   11       22.846672     22.947545   0.000000   0.000000
   12       37.816800     37.686705   0.000000   0.000000
 
  0.3636364E+00  0.2727273E+00  0.0000000E+00  0.1803156E-01
    1        1.594379      1.725810   1.000000   1.000000
    2        2.470382      3.268705   1.000000   1.000000
    3        3.470002      4.143420   1.000000   1.000000
    4        3.754426      4.637191   1.000000   1.029876
    5        4.120403      4.944724   1.000000   0.424834
    6        4.259193      5.003915   1.000012   0.199304
    7       16.404250     16.475855   0.000000   0.000000
    8       17.767048     17.844126   0.000000   0.000000
    9       18.491477     18.531892   0.000000   0.000000
   10       21.735073     21.777753   0.000000   0.000000
   11       24.105307     24.168851   0.000000   0.000000
   12       36.868644     36.835029   0.000000   0.000000
 
  0.4545455E+00  0.2727273E+00  0.0000000E+00  0.1803156E-01
    1        2.101412      2.479021   1.000000   1.000000
    2        2.495934      3.232670   1.000000   1.000000
    3        3.332149      4.051559   1.000000   1.000000
    4        3.741152      4.566241   1.000000   1.014309
    5        4.185922      5.073826   1.000001   0.028587
    6        5.550530      6.029332  -0.000047  -0.000000
    7       13.090169     13.200813   0.000000   0.000000
    8       15.997203     16.092622   0.000000   0.000000
    9       18.361795     18.397658   0.000000   0.000000
   10       21.741933     21.786115   0.000000   0.000000
   11       27.110691     27.153026   0.000000   0.000000
   12       35.323523     35.308522   0.000000   0.000000
 
 -0.4545455E+00  0.2727273E+00  0.0000000E+00  0.1803156E-01
    1        2.301677      2.921454   1.000000   1.000000
    2        2.654127      3.251490   1.000000   1.000000
    3        3.212459      3.973415   1.000000   1.000000
    4        3.697776      4.483833   1.000000   1.003754
    5        4.140834      5.060322   1.000000   0.052102
    6        7.503414      7.772017  -0.000000  -0.000000
    7       10.166334     10.351760  -0.000000  -0.000000
    8       14.660437     14.769777   0.000000   0.000000
    9       18.853535     18.895612   0.000000   0.000000
   10       21.957974     21.986423   0.000000   0.000000
   11       30.664083     30.694874   0.000000   0.000000
   12       34.142761     34.132033   0.000000   0.000000
 
 -0.3636364E+00  0.2727273E+00  0.0000000E+00  0.1803156E-01
    1        2.402352      3.052683   1.000000   1.000000
    2        2.799132      3.347885   1.000000   1.000000
    3        3.056067      3.821070   1.000000   1.000000
    4        3.664049      4.414248   1.000000   1.000869
    5        3.971994      4.910665   1.000000   0.568368
    6        7.614865      7.898073  -0.000000  -0.000000
    7       10.143475     10.341533  -0.000000  -0.000000
    8       13.798566     13.917933   0.000000   0.000000
    9       19.932985     19.989639   0.000000   0.000000
   10       22.469210     22.472987   0.000000   0.000000
   11       33.349097     33.335969   0.000000   0.000000
   12       33.563925     33.485499   0.000000   0.000000
 
 -0.2727273E+00  0.2727273E+00  0.0000000E+00  0.9015778E-02
    1        2.290592      2.669735   1.000000   1.000000
    2        2.849913      3.598306   1.000000   1.000000
    3        2.960072      3.627872   1.000000   1.000000
    4        3.632577      4.348326   1.000000   1.000168
    5        3.769625      4.723492   1.000000   1.026798
    6        5.852419      6.384466  -0.000000  -0.000000
    7       12.796628     12.933981   0.000000   0.000000
    8       13.741588     13.860065   0.000000   0.000000
    9       21.520104     21.593623   0.000000   0.000000
   10       23.323892     23.299100   0.000000   0.000000
   11       32.091500     31.974295   0.000000   0.000000
   12       32.693715     32.660725   0.000000   0.000000
 
  0.3636364E+00  0.3636364E+00  0.0000000E+00  0.4507889E-02
    1        1.832320      2.124382   1.000000   1.000000
    2        2.329245      3.118124   1.000000   1.000000
    3        3.962905      4.807102   1.000000   0.919520
    4        3.962909      4.909378   1.000000   0.573749
    5        4.144704      4.926432   1.000000   0.501903
    6        4.530521      4.926433   1.008475   0.501897
    7       15.464932     15.576310   0.000000   0.000000
    8       17.546758     17.569077   0.000000   0.000000
    9       17.546772     17.569082   0.000000   0.000000
   10       20.866076     20.928380   0.000000   0.000000
   11       22.166406     22.265757   0.000000   0.000000
   12       40.498736     40.463820   0.000000   0.000000
 
  0.4545455E+00  0.3636364E+00  0.0000000E+00  0.1803156E-01
    1        2.022364      2.452299   1.000000   1.000000
    2        2.282013      3.056500   1.000000   1.000000
    3        3.863106      4.689428   1.000000   1.035230
    4        4.009608      4.850978   1.000000   0.796968
    5        4.195515      5.093592   1.000001   0.001860
    6        5.889829      6.142902  -0.000000  -0.000000
    7       13.613672     13.759124   0.000000   0.000000
    8       15.292148     15.341545   0.000000   0.000000
    9       17.209173     17.222206   0.000000   0.000000
   10       21.211411     21.279097   0.000000   0.000000
   11       23.478648     23.553473   0.000000   0.000000
   12       38.889173     38.846379   0.000000   0.000000
 
 -0.4545455E+00  0.3636364E+00  0.0000000E+00  0.1803156E-01
    1        2.205205      2.733045   1.000000   1.000000
    2        2.359961      3.094262   1.000000   1.000000
    3        3.601432      4.402445   1.000000   1.000659
    4        3.974774      4.758490   1.000000   1.000017
    5        4.157608      5.106821   1.000000  -0.011344
    6        7.777733      7.947880  -0.000000  -0.000000
    7       12.216209     12.372059   0.000000   0.000000
    8       12.452359     12.571985   0.000000   0.000000
    9       17.525529     17.544271   0.000000   0.000000
   10       21.425928     21.488035   0.000000   0.000000
   11       26.671180     26.719119   0.000000   0.000000
   12       37.459992     37.407996   0.000000   0.000000
 
 -0.3636364E+00  0.3636364E+00  0.0000000E+00  0.9015778E-02
    1        2.369846      3.014852   1.000000   1.000000
    2        2.556551      3.177272   1.000000   1.000000
    3        3.279956      4.057780   1.000000   1.000000
    4        3.882632      4.618502   1.000000   1.025751
    5        4.027533      5.004708   1.000000   0.196704
    6        9.669844      9.804080  -0.000000  -0.000000
    7        9.773880      9.941875  -0.000000  -0.000000
    8       11.889994     12.082726   0.000000   0.000000
    9       18.464477     18.500844   0.000000   0.000000
   10       21.810387     21.849292   0.000000   0.000000
   11       30.487992     30.522133   0.000000   0.000000
   12       35.965732     35.898661   0.000000   0.000000
 
  0.4545455E+00  0.4545455E+00  0.0000000E+00  0.4507889E-02
    1        1.971518      2.445926   1.000000   1.000000
    2        2.189260      2.960849   1.000000   1.000000
    3        4.163888      4.973348   1.000000   0.309146
    4        4.163892      5.151130   1.000000  -0.033565
    5        4.204560      5.151132   1.000002  -0.033566
    6        6.653035      6.641933  -0.000000  -0.000000
    7       11.880350     12.091485   0.000000   0.000000
    8       16.651304     16.649209   0.000000   0.000000
    9       16.651318     16.649215   0.000000   0.000000
   10       20.529752     20.615740   0.000000   0.000000
   11       21.881339     21.992111   0.000000   0.000000
   12       41.384738     41.306057   0.000000   0.000000
 
 -0.4545455E+00  0.4545455E+00  0.0000000E+00  0.9015778E-02
    1        2.040792      2.537853   1.000000   1.000000
    2        2.212044      2.978439   1.000000   1.000000
    3        4.013694      4.921095   1.000000   0.524473
    4        4.166697      4.930659   1.000001   0.484020
    5        4.174064      5.163333   1.000001  -0.035163
    6        7.582775      7.585717  -0.000000  -0.000000
    7       11.202085     11.458207   0.000000   0.000000
    8       14.889963     14.929331   0.000000   0.000000
    9       16.761285     16.761614   0.000000   0.000000
   10       21.045894     21.123128   0.000000   0.000000
   11       23.286306     23.367036   0.000000   0.000000
   12       40.199457     40.111968   0.000000   0.000000
 
  0.2727273E+00  0.1818182E+00  0.9090909E-01  0.1803156E-01
    1       -0.180142     -0.221836   1.000000   1.000000
    2        2.845067      3.690769   1.000000   1.000000
    3        3.303420      4.127519   1.000000   1.000000
    4        3.386074      4.300695   1.000000   1.000044
    5        3.654054      4.400842   1.000000   1.000635
    6        3.967718      4.758646   1.000000   0.999845
    7       19.145748     19.211575   0.000000   0.000000
    8       19.473523     19.538718   0.000000   0.000000
    9       25.104621     25.077806   0.000000   0.000000
   10       25.491555     25.442416   0.000000   0.000000
   11       26.401375     26.548151   0.000000   0.000000
   12       31.472280     31.386457   0.000000   0.000000
 
  0.3636364E+00  0.1818182E+00  0.9090909E-01  0.3606311E-01
    1        0.828415      0.835026   1.000000   1.000000
    2        2.787387      3.593009   1.000000   1.000000
    3        3.218356      3.985032   1.000000   1.000000
    4        3.457655      4.296777   1.000000   1.000039
    5        3.771221      4.586021   1.000000   1.018360
    6        4.205922      5.028995   1.000002   0.124154
    7       15.491845     15.597067   0.000000   0.000000
    8       18.742751     18.809897   0.000000   0.000000
    9       22.983842     23.012441   0.000000   0.000000
   10       25.323825     25.334432   0.000000   0.000000
   11       28.296669     28.314912   0.000000   0.000000
   12       30.258527     30.214216   0.000000   0.000000
 
  0.4545455E+00  0.1818182E+00  0.9090909E-01  0.3606311E-01
    1        1.720767      1.962233   1.000000   1.000000
    2        2.978706      3.633316   1.000000   1.000000
    3        3.097304      3.861823   1.000000   1.000000
    4        3.423570      4.214777   1.000000   1.000003
    5        3.990290      4.853904   1.000000   0.787184
    6        4.806249      5.501476   0.921428  -0.000187
    7       12.067114     12.232106   0.000000   0.000000
    8       18.618705     18.682628   0.000000   0.000000
    9       21.206301     21.250110   0.000000   0.000000
   10       24.896938     24.889236   0.000000   0.000000
   11       28.633098     28.626396   0.000000   0.000000
   12       31.462246     31.433319   0.000000   0.000000
 
 -0.4545455E+00  0.1818182E+00  0.9090909E-01  0.3606311E-01
    1        1.998003      2.544333   1.000000   1.000000
    2        3.016383      3.668753   1.000000   1.000000