   8   8   0   0
  0.2469169E+02  0.5174038E-09  0.5174038E-09  0.8520222E-09  0.5000000E-15
  1.000000000000000E-004
  CAR 
 BC3-optical                             
     32.63683474    -20.97733767 2400     -2.42524727      1.00000000
    -20.977  0.0000E+00  0.0000E+00
    -20.955  0.0000E+00  0.0000E+00
    -20.933  0.0000E+00  0.0000E+00
    -20.910  0.0000E+00  0.0000E+00
    -20.888  0.0000E+00  0.0000E+00
    -20.866  0.0000E+00  0.0000E+00
    -20.843  0.0000E+00  0.0000E+00
    -20.821  0.0000E+00  0.0000E+00
    -20.799  0.0000E+00  0.0000E+00
    -20.776  0.0000E+00  0.0000E+00
    -20.754  0.0000E+00  0.0000E+00
    -20.732  0.0000E+00  0.0000E+00
    -20.709  0.0000E+00  0.0000E+00
    -20.687  0.0000E+00  0.0000E+00
    -20.664  0.0000E+00  0.0000E+00
    -20.642  0.0000E+00  0.0000E+00
    -20.620  0.0000E+00  0.0000E+00
    -20.597  0.0000E+00  0.0000E+00
    -20.575  0.0000E+00  0.0000E+00
    -20.553  0.0000E+00  0.0000E+00
    -20.530  0.0000E+00  0.0000E+00
    -20.508  0.0000E+00  0.0000E+00
    -20.486  0.0000E+00  0.0000E+00
    -20.463  0.0000E+00  0.0000E+00
    -20.441  0.0000E+00  0.0000E+00
    -20.419  0.0000E+00  0.0000E+00
    -20.396  0.0000E+00  0.0000E+00
    -20.374  0.0000E+00  0.0000E+00
    -20.352  0.0000E+00  0.0000E+00
    -20.329  0.0000E+00  0.0000E+00
    -20.307  0.0000E+00  0.0000E+00
    -20.285  0.0000E+00  0.0000E+00
    -20.262  0.0000E+00  0.0000E+00
    -20.240  0.0000E+00  0.0000E+00
    -20.217  0.0000E+00  0.0000E+00
    -20.195  0.0000E+00  0.0000E+00
    -20.173  0.0000E+00  0.0000E+00
    -20.150  0.0000E+00  0.0000E+00
    -20.128  0.0000E+00  0.0000E+00
    -20.106  0.0000E+00  0.0000E+00
    -20.083  0.0000E+00  0.0000E+00
    -20.061  0.0000E+00  0.0000E+00
    -20.039  0.0000E+00  0.0000E+00
    -20.016  0.0000E+00  0.0000E+00
    -19.994  0.0000E+00  0.0000E+00
    -19.972  0.0000E+00  0.0000E+00
    -19.949  0.0000E+00  0.0000E+00
    -19.927  0.0000E+00  0.0000E+00
    -19.905  0.0000E+00  0.0000E+00
    -19.882  0.0000E+00  0.0000E+00
    -19.860  0.0000E+00  0.0000E+00
    -19.838  0.0000E+00  0.0000E+00
    -19.815  0.0000E+00  0.0000E+00
    -19.793  0.0000E+00  0.0000E+00
    -19.771  0.0000E+00  0.0000E+00
    -19.748  0.0000E+00  0.0000E+00
    -19.726  0.0000E+00  0.0000E+00
    -19.703  0.0000E+00  0.0000E+00
    -19.681  0.0000E+00  0.0000E+00
    -19.659  0.0000E+00  0.0000E+00
    -19.636  0.0000E+00  0.0000E+00
    -19.614  0.0000E+00  0.0000E+00
    -19.592  0.0000E+00  0.0000E+00
    -19.569  0.0000E+00  0.0000E+00
    -19.547  0.0000E+00  0.0000E+00
    -19.525  0.0000E+00  0.0000E+00
    -19.502  0.0000E+00  0.0000E+00
    -19.480  0.0000E+00  0.0000E+00
    -19.458  0.0000E+00  0.0000E+00
    -19.435  0.0000E+00  0.0000E+00
    -19.413  0.0000E+00  0.0000E+00
    -19.391  0.0000E+00  0.0000E+00
    -19.368  0.0000E+00  0.0000E+00
    -19.346  0.0000E+00  0.0000E+00
    -19.324  0.0000E+00  0.0000E+00
    -19.301  0.0000E+00  0.0000E+00
    -19.279  0.0000E+00  0.0000E+00
    -19.256  0.0000E+00  0.0000E+00
    -19.234  0.0000E+00  0.0000E+00
    -19.212  0.0000E+00  0.0000E+00
    -19.189  0.0000E+00  0.0000E+00
    -19.167  0.0000E+00  0.0000E+00
    -19.145  0.0000E+00  0.0000E+00
    -19.122  0.0000E+00  0.0000E+00
    -19.100  0.0000E+00  0.0000E+00
    -19.078  0.0000E+00  0.0000E+00
    -19.055  0.0000E+00  0.0000E+00
    -19.033  0.0000E+00  0.0000E+00
    -19.011  0.0000E+00  0.0000E+00
    -18.988  0.0000E+00  0.0000E+00
    -18.966  0.0000E+00  0.0000E+00
    -18.944  0.0000E+00  0.0000E+00
    -18.921  0.0000E+00  0.0000E+00
    -18.899  0.0000E+00  0.0000E+00
    -18.877  0.0000E+00  0.0000E+00
    -18.854  0.0000E+00  0.0000E+00
    -18.832  0.0000E+00  0.0000E+00
    -18.810  0.0000E+00  0.0000E+00
    -18.787  0.0000E+00  0.0000E+00
    -18.765  0.0000E+00  0.0000E+00
    -18.742  0.0000E+00  0.0000E+00
    -18.720  0.0000E+00  0.0000E+00
    -18.698  0.0000E+00  0.0000E+00
    -18.675  0.0000E+00  0.0000E+00
    -18.653  0.0000E+00  0.0000E+00
    -18.631  0.0000E+00  0.0000E+00
    -18.608  0.0000E+00  0.0000E+00
    -18.586  0.3152E-10  0.7045E-12
    -18.564  0.2959E-03  0.6614E-05
    -18.541  0.2751E+00  0.6154E-02
    -18.519  0.1117E+01  0.3112E-01
    -18.497  0.2922E+01  0.9643E-01
    -18.474  0.1187E+00  0.9908E-01
    -18.452  0.3203E+01  0.1707E+00
    -18.430  0.3201E+01  0.2422E+00
    -18.407  0.9704E+00  0.2639E+00
    -18.385  0.1059E-02  0.2639E+00
    -18.363  0.2188E+01  0.3128E+00
    -18.340  0.5236E+01  0.4298E+00
    -18.318  0.6657E+00  0.4447E+00
    -18.296  0.3045E+01  0.5127E+00
    -18.273  0.5119E-01  0.5139E+00
    -18.251  0.4264E+00  0.5234E+00
    -18.228  0.4433E+01  0.6225E+00
    -18.206  0.6219E+01  0.7615E+00
    -18.184  0.1132E+00  0.7640E+00
    -18.161  0.2094E+01  0.8108E+00
    -18.139  0.1628E+01  0.8472E+00
    -18.117  0.2450E+00  0.8527E+00
    -18.094  0.6544E+01  0.9989E+00
    -18.072  0.5853E+01  0.1130E+01
    -18.050  0.2277E+01  0.1181E+01
    -18.027  0.1834E+01  0.1222E+01
    -18.005  0.1897E+01  0.1264E+01
    -17.983  0.5385E+01  0.1384E+01
    -17.960  0.1457E+02  0.1710E+01
    -17.938  0.8255E+00  0.1728E+01
    -17.916  0.3622E+01  0.1809E+01
    -17.893  0.6752E+01  0.1960E+01
    -17.871  0.1367E+01  0.1991E+01
    -17.849  0.4110E+00  0.2000E+01
    -17.826  0.1992E-03  0.2000E+01
    -17.804  0.8653E-11  0.2000E+01
    -17.781  0.0000E+00  0.2000E+01
    -17.759  0.0000E+00  0.2000E+01
    -17.737  0.0000E+00  0.2000E+01
    -17.714  0.0000E+00  0.2000E+01
    -17.692  0.0000E+00  0.2000E+01
    -17.670  0.0000E+00  0.2000E+01
    -17.647  0.0000E+00  0.2000E+01
    -17.625  0.0000E+00  0.2000E+01
    -17.603  0.0000E+00  0.2000E+01
    -17.580  0.0000E+00  0.2000E+01
    -17.558  0.0000E+00  0.2000E+01
    -17.536  0.0000E+00  0.2000E+01
    -17.513  0.0000E+00  0.2000E+01
    -17.491  0.0000E+00  0.2000E+01
    -17.469  0.0000E+00  0.2000E+01
    -17.446  0.0000E+00  0.2000E+01
    -17.424  0.0000E+00  0.2000E+01
    -17.402  0.0000E+00  0.2000E+01
    -17.379  0.0000E+00  0.2000E+01
    -17.357  0.0000E+00  0.2000E+01
    -17.335  0.0000E+00  0.2000E+01
    -17.312  0.0000E+00  0.2000E+01
    -17.290  0.0000E+00  0.2000E+01
    -17.267  0.0000E+00  0.2000E+01
    -17.245  0.0000E+00  0.2000E+01
    -17.223  0.0000E+00  0.2000E+01
    -17.200  0.0000E+00  0.2000E+01
    -17.178  0.0000E+00  0.2000E+01
    -17.156  0.0000E+00  0.2000E+01
    -17.133  0.0000E+00  0.2000E+01
    -17.111  0.0000E+00  0.2000E+01
    -17.089  0.0000E+00  0.2000E+01
    -17.066  0.0000E+00  0.2000E+01
    -17.044  0.0000E+00  0.2000E+01
    -17.022  0.0000E+00  0.2000E+01
    -16.999  0.0000E+00  0.2000E+01
    -16.977  0.0000E+00  0.2000E+01
    -16.955  0.0000E+00  0.2000E+01
    -16.932  0.0000E+00  0.2000E+01
    -16.910  0.0000E+00  0.2000E+01
    -16.888  0.0000E+00  0.2000E+01
    -16.865  0.0000E+00  0.2000E+01
    -16.843  0.0000E+00  0.2000E+01
    -16.821  0.0000E+00  0.2000E+01
    -16.798  0.0000E+00  0.2000E+01
    -16.776  0.0000E+00  0.2000E+01
    -16.753  0.0000E+00  0.2000E+01
    -16.731  0.0000E+00  0.2000E+01
    -16.709  0.0000E+00  0.2000E+01
    -16.686  0.0000E+00  0.2000E+01
    -16.664  0.0000E+00  0.2000E+01
    -16.642  0.0000E+00  0.2000E+01
    -16.619  0.0000E+00  0.2000E+01
    -16.597  0.0000E+00  0.2000E+01
    -16.575  0.0000E+00  0.2000E+01
    -16.552  0.0000E+00  0.2000E+01
    -16.530  0.0000E+00  0.2000E+01
    -16.508  0.0000E+00  0.2000E+01
    -16.485  0.0000E+00  0.2000E+01
    -16.463  0.0000E+00  0.2000E+01
    -16.441  0.0000E+00  0.2000E+01
    -16.418  0.0000E+00  0.2000E+01
    -16.396  0.0000E+00  0.2000E+01
    -16.374  0.0000E+00  0.2000E+01
    -16.351  0.0000E+00  0.2000E+01
    -16.329  0.1035E-14  0.2000E+01
    -16.306  0.1158E-05  0.2000E+01
    -16.284  0.8516E-01  0.2002E+01
    -16.262  0.1648E+01  0.2039E+01
    -16.239  0.2271E+00  0.2044E+01
    -16.217  0.6047E+01  0.2179E+01
    -16.195  0.1883E+01  0.2221E+01
    -16.172  0.3433E+01  0.2298E+01
    -16.150  0.3327E+01  0.2372E+01
    -16.128  0.1292E+00  0.2375E+01
    -16.105  0.1022E+01  0.2398E+01
    -16.083  0.6945E+01  0.2553E+01
    -16.061  0.6683E+01  0.2702E+01
    -16.038  0.5044E+00  0.2714E+01
    -16.016  0.6553E+01  0.2860E+01
    -15.994  0.3703E+01  0.2943E+01
    -15.971  0.6908E+00  0.2958E+01
    -15.949  0.3877E+00  0.2967E+01
    -15.927  0.2059E+01  0.3013E+01
    -15.904  0.4030E-01  0.3014E+01
    -15.882  0.1988E+01  0.3058E+01
    -15.860  0.8877E+01  0.3257E+01
    -15.837  0.3204E+00  0.3264E+01
    -15.815  0.3770E-05  0.3264E+01
    -15.792  0.3312E-14  0.3264E+01
    -15.770  0.7866E-14  0.3264E+01
    -15.748  0.6664E-05  0.3264E+01
    -15.725  0.3975E+00  0.3273E+01
    -15.703  0.9234E+01  0.3479E+01
    -15.681  0.5263E+01  0.3597E+01
    -15.658  0.2012E-01  0.3597E+01
    -15.636  0.1945E-07  0.3597E+01
    -15.614  0.1324E-01  0.3598E+01
    -15.591  0.2524E+01  0.3654E+01
    -15.569  0.2447E+01  0.3709E+01
    -15.547  0.2462E+01  0.3764E+01
    -15.524  0.1529E-01  0.3764E+01
    -15.502  0.1975E+01  0.3808E+01
    -15.480  0.1887E+01  0.3850E+01
    -15.457  0.3279E+01  0.3924E+01
    -15.435  0.2061E+01  0.3970E+01
    -15.413  0.5654E+01  0.4096E+01
    -15.390  0.5537E-01  0.4097E+01
    -15.368  0.3277E-06  0.4097E+01
    -15.346  0.9352E-01  0.4099E+01
    -15.323  0.7490E+01  0.4267E+01
    -15.301  0.7252E+01  0.4429E+01
    -15.278  0.7932E-01  0.4431E+01
    -15.256  0.2667E-06  0.4431E+01
    -15.234  0.5914E-01  0.4432E+01
    -15.211  0.5705E+01  0.4559E+01
    -15.189  0.1694E+01  0.4597E+01
    -15.167  0.2367E+01  0.4650E+01
    -15.144  0.5290E+01  0.4768E+01
    -15.122  0.3923E+01  0.4856E+01
    -15.100  0.5266E+01  0.4974E+01
    -15.077  0.3726E+01  0.5057E+01
    -15.055  0.6107E+01  0.5193E+01
    -15.033  0.1690E+01  0.5231E+01
    -15.010  0.3269E+01  0.5304E+01
    -14.988  0.3103E+01  0.5374E+01
    -14.966  0.6824E+00  0.5389E+01
    -14.943  0.2935E-01  0.5390E+01
    -14.921  0.6345E+01  0.5531E+01
    -14.899  0.4799E+01  0.5639E+01
    -14.876  0.1311E-01  0.5639E+01
    -14.854  0.7637E-08  0.5639E+01
    -14.831  0.6307E-06  0.5639E+01
    -14.809  0.9785E-01  0.5641E+01
    -14.787  0.4727E+01  0.5747E+01
    -14.764  0.6287E+01  0.5887E+01
    -14.742  0.7423E-01  0.5889E+01
    -14.720  0.1002E-03  0.5889E+01
    -14.697  0.7077E+00  0.5905E+01
    -14.675  0.2979E+01  0.5971E+01
    -14.653  0.4034E+00  0.5980E+01
    -14.630  0.8757E+00  0.6000E+01
    -14.608  0.5630E-02  0.6000E+01
    -14.586  0.4916E-08  0.6000E+01
    -14.563  0.0000E+00  0.6000E+01
    -14.541  0.0000E+00  0.6000E+01
    -14.519  0.0000E+00  0.6000E+01
    -14.496  0.0000E+00  0.6000E+01
    -14.474  0.0000E+00  0.6000E+01
    -14.452  0.0000E+00  0.6000E+01
    -14.429  0.0000E+00  0.6000E+01
    -14.407  0.0000E+00  0.6000E+01
    -14.385  0.0000E+00  0.6000E+01
    -14.362  0.0000E+00  0.6000E+01
    -14.340  0.0000E+00  0.6000E+01
    -14.317  0.0000E+00  0.6000E+01
    -14.295  0.0000E+00  0.6000E+01
    -14.273  0.0000E+00  0.6000E+01
    -14.250  0.0000E+00  0.6000E+01
    -14.228  0.0000E+00  0.6000E+01
    -14.206  0.0000E+00  0.6000E+01
    -14.183  0.0000E+00  0.6000E+01
    -14.161  0.0000E+00  0.6000E+01
    -14.139  0.0000E+00  0.6000E+01
    -14.116  0.0000E+00  0.6000E+01
    -14.094  0.0000E+00  0.6000E+01
    -14.072  0.0000E+00  0.6000E+01
    -14.049  0.0000E+00  0.6000E+01
    -14.027  0.0000E+00  0.6000E+01
    -14.005  0.0000E+00  0.6000E+01
    -13.982  0.0000E+00  0.6000E+01
    -13.960  0.0000E+00  0.6000E+01
    -13.938  0.0000E+00  0.6000E+01
    -13.915  0.0000E+00  0.6000E+01
    -13.893  0.0000E+00  0.6000E+01
    -13.870  0.0000E+00  0.6000E+01
    -13.848  0.0000E+00  0.6000E+01
    -13.826  0.0000E+00  0.6000E+01
    -13.803  0.0000E+00  0.6000E+01
    -13.781  0.0000E+00  0.6000E+01
    -13.759  0.0000E+00  0.6000E+01
    -13.736  0.0000E+00  0.6000E+01
    -13.714  0.0000E+00  0.6000E+01
    -13.692  0.0000E+00  0.6000E+01
    -13.669  0.0000E+00  0.6000E+01
    -13.647  0.0000E+00  0.6000E+01
    -13.625  0.0000E+00  0.6000E+01
    -13.602  0.0000E+00  0.6000E+01
    -13.580  0.0000E+00  0.6000E+01
    -13.558  0.0000E+00  0.6000E+01
    -13.535  0.0000E+00  0.6000E+01
    -13.513  0.0000E+00  0.6000E+01
    -13.491  0.0000E+00  0.6000E+01
    -13.468  0.0000E+00  0.6000E+01
    -13.446  0.0000E+00  0.6000E+01
    -13.424  0.0000E+00  0.6000E+01
    -13.401  0.0000E+00  0.6000E+01
    -13.379  0.0000E+00  0.6000E+01
    -13.356  0.0000E+00  0.6000E+01
    -13.334  0.0000E+00  0.6000E+01
    -13.312  0.0000E+00  0.6000E+01
    -13.289  0.0000E+00  0.6000E+01
    -13.267  0.0000E+00  0.6000E+01
    -13.245  0.0000E+00  0.6000E+01
    -13.222  0.0000E+00  0.6000E+01
    -13.200  0.0000E+00  0.6000E+01
    -13.178  0.0000E+00  0.6000E+01
    -13.155  0.0000E+00  0.6000E+01
    -13.133  0.0000E+00  0.6000E+01
    -13.111  0.0000E+00  0.6000E+01
    -13.088  0.0000E+00  0.6000E+01
    -13.066  0.0000E+00  0.6000E+01
    -13.044  0.0000E+00  0.6000E+01
    -13.021  0.0000E+00  0.6000E+01
    -12.999  0.0000E+00  0.6000E+01
    -12.977  0.0000E+00  0.6000E+01
    -12.954  0.0000E+00  0.6000E+01
    -12.932  0.0000E+00  0.6000E+01
    -12.910  0.0000E+00  0.6000E+01
    -12.887  0.2726E-08  0.6000E+01
    -12.865  0.5142E-02  0.6000E+01
    -12.842  0.1207E+01  0.6027E+01
    -12.820  0.1705E+01  0.6065E+01
    -12.798  0.2658E+01  0.6125E+01
    -12.775  0.1816E-01  0.6125E+01
    -12.753  0.4421E-02  0.6125E+01
    -12.731  0.2040E+01  0.6171E+01
    -12.708  0.1752E+01  0.6210E+01
    -12.686  0.5831E+01  0.6340E+01
    -12.664  0.1562E+01  0.6375E+01
    -12.641  0.3329E+01  0.6449E+01
    -12.619  0.4154E+01  0.6542E+01
    -12.597  0.2958E+01  0.6608E+01
    -12.574  0.7421E+00  0.6625E+01
    -12.552  0.1780E+01  0.6665E+01
    -12.530  0.5624E+01  0.6790E+01
    -12.507  0.5327E-01  0.6792E+01
    -12.485  0.4161E-04  0.6792E+01
    -12.463  0.5236E+00  0.6803E+01
    -12.440  0.5736E+01  0.6932E+01
    -12.418  0.4906E+01  0.7041E+01
    -12.395  0.2090E-01  0.7042E+01
    -12.373  0.7127E+00  0.7058E+01
    -12.351  0.3174E+01  0.7129E+01
    -12.328  0.9035E+01  0.7330E+01
    -12.306  0.1024E+02  0.7559E+01
    -12.284  0.7652E+01  0.7730E+01
    -12.261  0.2584E+00  0.7736E+01
    -12.239  0.2207E-05  0.7736E+01
    -12.217  0.4511E-01  0.7737E+01
    -12.194  0.3004E+01  0.7804E+01
    -12.172  0.6797E+00  0.7819E+01
    -12.150  0.8873E-04  0.7819E+01
    -12.127  0.1048E-11  0.7819E+01
    -12.105  0.2834E-04  0.7819E+01
    -12.083  0.4548E+00  0.7830E+01
    -12.060  0.3188E+01  0.7901E+01
    -12.038  0.2381E+00  0.7906E+01
    -12.016  0.3286E+01  0.7980E+01
    -11.993  0.2903E+00  0.7986E+01
    -11.971  0.8716E-05  0.7986E+01
    -11.949  0.3178E-01  0.7987E+01
    -11.926  0.2884E+01  0.8051E+01
    -11.904  0.4335E+01  0.8148E+01
    -11.881  0.3928E+01  0.8236E+01
    -11.859  0.7432E-02  0.8236E+01
    -11.837  0.1405E+00  0.8239E+01
    -11.814  0.6276E+01  0.8380E+01
    -11.792  0.1041E+01  0.8403E+01
    -11.770  0.8231E-04  0.8403E+01
    -11.747  0.6942E-04  0.8403E+01
    -11.725  0.6251E+00  0.8417E+01
    -11.703  0.3051E+01  0.8485E+01
    -11.680  0.5222E-01  0.8486E+01
    -11.658  0.1571E-06  0.8486E+01
    -11.636  0.0000E+00  0.8486E+01
    -11.613  0.0000E+00  0.8486E+01
    -11.591  0.1062E-08  0.8486E+01
    -11.569  0.4439E-02  0.8486E+01
    -11.546  0.2042E+01  0.8532E+01
    -11.524  0.1750E+01  0.8571E+01
    -11.502  0.2155E+01  0.8619E+01
    -11.479  0.2635E+00  0.8625E+01
    -11.457  0.5944E-01  0.8626E+01
    -11.435  0.1029E+02  0.8856E+01
    -11.412  0.4567E+01  0.8958E+01
    -11.390  0.1163E+01  0.8984E+01
    -11.367  0.2553E+01  0.9041E+01
    -11.345  0.1418E-01  0.9042E+01
    -11.323  0.1036E-07  0.9042E+01
    -11.300  0.0000E+00  0.9042E+01
    -11.278  0.7371E-08  0.9042E+01
    -11.256  0.1699E-01  0.9042E+01
    -11.233  0.4871E+01  0.9151E+01
    -11.211  0.3187E+01  0.9222E+01
    -11.189  0.3519E-02  0.9222E+01
    -11.166  0.9702E-09  0.9222E+01
    -11.144  0.1610E-05  0.9222E+01
    -11.122  0.1468E+00  0.9226E+01
    -11.099  0.4512E+01  0.9326E+01
    -11.077  0.6603E+01  0.9474E+01
    -11.055  0.3648E+01  0.9555E+01
    -11.032  0.1831E-01  0.9556E+01
    -11.010  0.4421E+01  0.9655E+01
    -10.988  0.3021E+01  0.9722E+01
    -10.965  0.2513E-02  0.9722E+01
    -10.943  0.2006E-09  0.9722E+01
    -10.920  0.7075E-04  0.9722E+01
    -10.898  0.6292E+00  0.9736E+01
    -10.876  0.3048E+01  0.9804E+01
    -10.853  0.5179E-01  0.9806E+01
    -10.831  0.8044E+00  0.9824E+01
    -10.809  0.2891E+01  0.9888E+01
    -10.786  0.3281E-01  0.9889E+01
    -10.764  0.5817E-07  0.9889E+01
    -10.742  0.2872E-03  0.9889E+01
    -10.719  0.1190E+01  0.9915E+01
    -10.697  0.6274E+01  0.1006E+02
    -10.675  0.6772E+01  0.1021E+02
    -10.652  0.6797E+00  0.1022E+02
    -10.630  0.2603E-04  0.1022E+02
    -10.608  0.7203E-13  0.1022E+02
    -10.585  0.0000E+00  0.1022E+02
    -10.563  0.1913E-07  0.1022E+02
    -10.541  0.1343E-01  0.1022E+02
    -10.518  0.1408E+01  0.1025E+02
    -10.496  0.4432E+00  0.1026E+02
    -10.474  0.9977E-04  0.1026E+02
    -10.451  0.1862E-11  0.1026E+02
    -10.429  0.0000E+00  0.1026E+02
    -10.406  0.0000E+00  0.1026E+02
    -10.384  0.3276E-11  0.1026E+02
    -10.362  0.2487E-03  0.1026E+02
    -10.339  0.1522E+01  0.1030E+02
    -10.317  0.5863E+01  0.1043E+02
    -10.295  0.7319E-01  0.1043E+02
    -10.272  0.1466E-06  0.1043E+02
    -10.250  0.0000E+00  0.1043E+02
    -10.228  0.9522E-14  0.1043E+02
    -10.205  0.5819E-05  0.1043E+02
    -10.183  0.2481E+00  0.1044E+02
    -10.161  0.3299E+01  0.1051E+02
    -10.138  0.1813E+00  0.1051E+02
    -10.116  0.2690E-05  0.1051E+02
    -10.094  0.2484E-14  0.1051E+02
    -10.071  0.0000E+00  0.1051E+02
    -10.049  0.0000E+00  0.1051E+02
    -10.027  0.0000E+00  0.1051E+02
    -10.004  0.0000E+00  0.1051E+02
     -9.982  0.0000E+00  0.1051E+02
     -9.960  0.2511E-10  0.1051E+02
     -9.937  0.2617E-03  0.1051E+02
     -9.915  0.2666E+00  0.1052E+02
     -9.892  0.3537E+00  0.1053E+02
     -9.870  0.8881E-03  0.1053E+02
     -9.848  0.2513E-09  0.1053E+02
     -9.825  0.0000E+00  0.1053E+02
     -9.803  0.3640E-11  0.1053E+02
     -9.781  0.2445E-03  0.1053E+02
     -9.758  0.1468E+01  0.1056E+02
     -9.736  0.7249E+01  0.1072E+02
     -9.714  0.6106E+01  0.1086E+02
     -9.691  0.9224E-01  0.1086E+02
     -9.669  0.2402E-06  0.1086E+02
     -9.647  0.0000E+00  0.1086E+02
     -9.624  0.0000E+00  0.1086E+02
     -9.602  0.1975E-12  0.1086E+02
     -9.580  0.4043E-04  0.1086E+02
     -9.557  0.6214E+00  0.1087E+02
     -9.535  0.4240E+01  0.1097E+02
     -9.513  0.1104E+00  0.1097E+02
     -9.490  0.9919E-04  0.1097E+02
     -9.468  0.7043E+00  0.1099E+02
     -9.445  0.2982E+01  0.1105E+02
     -9.423  0.4230E-01  0.1106E+02
     -9.401  0.2345E-03  0.1106E+02
     -9.378  0.1492E+01  0.1109E+02
     -9.356  0.5889E+01  0.1122E+02
     -9.334  0.3673E+00  0.1123E+02
     -9.311  0.3286E+01  0.1130E+02
     -9.289  0.1517E+00  0.1131E+02
     -9.267  0.1756E-05  0.1131E+02
     -9.244  0.1656E-14  0.1131E+02
     -9.222  0.0000E+00  0.1131E+02
     -9.200  0.2523E-08  0.1131E+02
     -9.177  0.6948E-02  0.1131E+02
     -9.155  0.2240E+01  0.1136E+02
     -9.133  0.1802E+01  0.1140E+02
     -9.110  0.6753E+01  0.1155E+02
     -9.088  0.6925E+01  0.1170E+02
     -9.066  0.9173E+00  0.1172E+02
     -9.043  0.1021E+00  0.1172E+02
     -9.021  0.3226E+01  0.1180E+02
     -8.999  0.4020E+00  0.1181E+02
     -8.976  0.2237E+01  0.1186E+02
     -8.954  0.8873E+01  0.1205E+02
     -8.931  0.3799E+01  0.1214E+02
     -8.909  0.9141E+00  0.1216E+02
     -8.887  0.2795E+01  0.1222E+02
     -8.864  0.2550E-01  0.1222E+02
     -8.842  0.2515E-06  0.1222E+02
     -8.820  0.8800E-01  0.1222E+02
     -8.797  0.5991E+01  0.1236E+02
     -8.775  0.1378E+01  0.1239E+02
     -8.753  0.1850E-03  0.1239E+02
     -8.730  0.3819E-01  0.1239E+02
     -8.708  0.2947E+01  0.1246E+02
     -8.686  0.7532E+00  0.1247E+02
     -8.663  0.1333E+01  0.1250E+02
     -8.641  0.5220E+00  0.1251E+02
     -8.619  0.1693E-03  0.1251E+02
     -8.596  0.4719E-11  0.1251E+02
     -8.574  0.0000E+00  0.1251E+02
     -8.552  0.0000E+00  0.1251E+02
     -8.529  0.3014E-10  0.1251E+02
     -8.507  0.6493E-03  0.1251E+02
     -8.484  0.1263E+01  0.1254E+02
     -8.462  0.3195E+01  0.1261E+02
     -8.440  0.4690E+01  0.1272E+02
     -8.417  0.6903E+01  0.1287E+02
     -8.395  0.4693E+01  0.1298E+02
     -8.373  0.8557E+01  0.1317E+02
     -8.350  0.2442E+01  0.1322E+02
     -8.328  0.5574E+01  0.1335E+02
     -8.306  0.6231E+01  0.1349E+02
     -8.283  0.3109E+01  0.1356E+02
     -8.261  0.3034E+01  0.1362E+02
     -8.239  0.6480E+00  0.1364E+02
     -8.216  0.7711E-04  0.1364E+02
     -8.194  0.7199E-12  0.1364E+02
     -8.172  0.0000E+00  0.1364E+02
     -8.149  0.0000E+00  0.1364E+02
     -8.127  0.6734E-08  0.1364E+02
     -8.105  0.1144E-01  0.1364E+02
     -8.082  0.2460E+01  0.1369E+02
     -8.060  0.1257E+01  0.1372E+02
     -8.038  0.9380E-03  0.1372E+02
     -8.015  0.1005E+01  0.1374E+02
     -7.993  0.2703E+01  0.1381E+02
     -7.970  0.2109E+00  0.1381E+02
     -7.948  0.9303E+01  0.1402E+02
     -7.926  0.4339E+01  0.1411E+02
     -7.903  0.1082E+01  0.1414E+02
     -7.881  0.5000E-03  0.1414E+02
     -7.859  0.4677E+00  0.1415E+02
     -7.836  0.1385E+01  0.1418E+02
     -7.814  0.4163E-01  0.1418E+02
     -7.792  0.5145E+01  0.1430E+02
     -7.769  0.2282E+01  0.1435E+02
     -7.747  0.9136E-03  0.1435E+02
     -7.725  0.1280E-09  0.1435E+02
     -7.702  0.1228E-02  0.1435E+02
     -7.680  0.1502E+01  0.1438E+02
     -7.658  0.4451E+01  0.1448E+02
     -7.635  0.7122E+01  0.1464E+02
     -7.613  0.5522E+01  0.1476E+02
     -7.591  0.1114E+00  0.1477E+02
     -7.568  0.1098E+02  0.1501E+02
     -7.546  0.7589E+01  0.1518E+02
     -7.524  0.1249E-01  0.1518E+02
     -7.501  0.3226E-08  0.1518E+02
     -7.479  0.0000E+00  0.1518E+02
     -7.456  0.0000E+00  0.1518E+02
     -7.434  0.0000E+00  0.1518E+02
     -7.412  0.4418E-10  0.1518E+02
     -7.389  0.8052E-03  0.1518E+02
     -7.367  0.1519E+01  0.1521E+02
     -7.345  0.6005E+01  0.1535E+02
     -7.322  0.5921E+00  0.1536E+02
     -7.300  0.5361E+01  0.1548E+02
     -7.278  0.2139E+01  0.1553E+02
     -7.255  0.8009E+01  0.1571E+02
     -7.233  0.3331E+01  0.1578E+02
     -7.211  0.3304E+01  0.1586E+02
     -7.188  0.1560E+01  0.1589E+02
     -7.166  0.5998E+01  0.1603E+02
     -7.144  0.9220E-01  0.1603E+02
     -7.121  0.4310E+00  0.1604E+02
     -7.099  0.1878E+00  0.1604E+02
     -7.077  0.1096E+00  0.1604E+02
     -7.054  0.6723E+01  0.1619E+02
     -7.032  0.3093E+01  0.1626E+02
     -7.009  0.3038E+00  0.1627E+02
     -6.987  0.7474E+01  0.1644E+02
     -6.965  0.3401E+01  0.1651E+02
     -6.942  0.2502E-01  0.1651E+02
     -6.920  0.3298E-07  0.1651E+02
     -6.898  0.1090E-04  0.1651E+02
     -6.875  0.3175E+00  0.1652E+02
     -6.853  0.3276E+01  0.1659E+02
     -6.831  0.2789E+01  0.1666E+02
     -6.808  0.4838E+01  0.1676E+02
     -6.786  0.3080E+01  0.1683E+02
     -6.764  0.6152E+00  0.1685E+02
     -6.741  0.1646E-02  0.1685E+02
     -6.719  0.1602E+01  0.1688E+02
     -6.697  0.2260E+01  0.1693E+02
     -6.674  0.2629E+01  0.1699E+02
     -6.652  0.5867E+01  0.1712E+02
     -6.630  0.7920E-01  0.1713E+02
     -6.607  0.4071E+01  0.1722E+02
     -6.585  0.3499E+01  0.1729E+02
     -6.563  0.6242E+01  0.1743E+02
     -6.540  0.6214E+01  0.1757E+02
     -6.518  0.5451E+01  0.1769E+02
     -6.495  0.2961E+01  0.1776E+02
     -6.473  0.1204E+02  0.1803E+02
     -6.451  0.5321E+00  0.1804E+02
     -6.428  0.1219E+01  0.1807E+02
     -6.406  0.2497E+01  0.1812E+02
     -6.384  0.1039E+01  0.1815E+02
     -6.361  0.2782E+01  0.1821E+02
     -6.339  0.3692E+01  0.1829E+02
     -6.317  0.7016E+01  0.1845E+02
     -6.294  0.8760E+00  0.1847E+02
     -6.272  0.7692E+01  0.1864E+02
     -6.250  0.8439E+01  0.1883E+02
     -6.227  0.4721E+01  0.1893E+02
     -6.205  0.1043E+01  0.1896E+02
     -6.183  0.5192E+00  0.1897E+02
     -6.160  0.9697E+01  0.1919E+02
     -6.138  0.1445E+01  0.1922E+02
     -6.116  0.6603E+01  0.1937E+02
     -6.093  0.3806E+00  0.1937E+02
     -6.071  0.1322E-04  0.1938E+02
     -6.049  0.1369E+00  0.1938E+02
     -6.026  0.1073E+01  0.1940E+02
     -6.004  0.3299E-01  0.1940E+02
     -5.981  0.3490E+00  0.1941E+02
     -5.959  0.1700E+01  0.1945E+02
     -5.937  0.6214E+01  0.1959E+02
     -5.914  0.4425E+01  0.1969E+02
     -5.892  0.1591E+01  0.1972E+02
     -5.870  0.1481E-01  0.1972E+02
     -5.847  0.1227E+01  0.1975E+02
     -5.825  0.6122E+01  0.1989E+02
     -5.803  0.1078E+00  0.1989E+02
     -5.780  0.3365E-06  0.1989E+02
     -5.758  0.0000E+00  0.1989E+02
     -5.736  0.0000E+00  0.1989E+02
     -5.713  0.1611E-06  0.1989E+02
     -5.691  0.7747E-01  0.1989E+02
     -5.669  0.8213E+01  0.2007E+02
     -5.646  0.6596E+01  0.2022E+02
     -5.624  0.2872E-01  0.2022E+02
     -5.602  0.3777E+00  0.2023E+02
     -5.579  0.3241E+01  0.2030E+02
     -5.557  0.1105E+00  0.2031E+02
     -5.534  0.8371E-06  0.2031E+02
     -5.512  0.4140E-15  0.2031E+02
     -5.490  0.1270E-05  0.2031E+02
     -5.467  0.1960E+00  0.2031E+02
     -5.445  0.7376E+01  0.2047E+02
     -5.423  0.3591E+01  0.2056E+02
     -5.400  0.2360E-01  0.2056E+02
     -5.378  0.2915E-07  0.2056E+02
     -5.356  0.5810E-06  0.2056E+02
     -5.333  0.1383E+00  0.2056E+02
     -5.311  0.7052E+01  0.2072E+02
     -5.289  0.5722E+01  0.2084E+02
     -5.266  0.1476E+00  0.2085E+02
     -5.244  0.2690E+01  0.2091E+02
     -5.222  0.4750E+01  0.2101E+02
     -5.199  0.6367E+01  0.2116E+02
     -5.177  0.2924E+01  0.2122E+02
     -5.155  0.1900E+01  0.2126E+02
     -5.132  0.3324E-02  0.2126E+02
     -5.110  0.1228E+01  0.2129E+02
     -5.088  0.1517E+02  0.2163E+02
     -5.065  0.1291E+02  0.2192E+02
     -5.043  0.6058E+01  0.2205E+02
     -5.020  0.1456E+02  0.2238E+02
     -4.998  0.3662E+01  0.2246E+02
     -4.976  0.1693E+02  0.2284E+02
     -4.953  0.9183E+01  0.2305E+02
     -4.931  0.3323E+01  0.2312E+02
     -4.909  0.3259E+00  0.2313E+02
     -4.886  0.2186E+01  0.2318E+02
     -4.864  0.6222E+01  0.2331E+02
     -4.842  0.6241E+01  0.2345E+02
     -4.819  0.1001E+02  0.2368E+02
     -4.797  0.2839E+01  0.2374E+02
     -4.775  0.4208E+01  0.2384E+02
     -4.752  0.8284E+01  0.2402E+02
     -4.730  0.3260E+00  0.2403E+02
     -4.708  0.4232E-05  0.2403E+02
     -4.685  0.4554E-14  0.2403E+02
     -4.663  0.1842E-12  0.2403E+02
     -4.641  0.3454E-04  0.2403E+02
     -4.618  0.4887E+00  0.2404E+02
     -4.596  0.3165E+01  0.2411E+02
     -4.574  0.2997E+01  0.2418E+02
     -4.551  0.4521E+01  0.2428E+02
     -4.529  0.1456E-01  0.2428E+02
     -4.506  0.2521E-07  0.2428E+02
     -4.484  0.3549E-01  0.2428E+02
     -4.462  0.9416E+01  0.2449E+02
     -4.439  0.1220E+02  0.2476E+02
     -4.417  0.7297E+00  0.2478E+02
     -4.395  0.2011E+01  0.2482E+02
     -4.372  0.1712E+01  0.2486E+02
     -4.350  0.1647E+01  0.2490E+02
     -4.328  0.5750E+01  0.2503E+02
     -4.305  0.6278E-01  0.2503E+02
     -4.283  0.6700E-03  0.2503E+02
     -4.261  0.1274E+01  0.2506E+02
     -4.238  0.2444E+01  0.2511E+02
     -4.216  0.1102E-01  0.2511E+02
     -4.194  0.2467E-01  0.2511E+02
     -4.171  0.2782E+01  0.2517E+02
     -4.149  0.9218E+00  0.2519E+02
     -4.127  0.2690E-03  0.2519E+02
     -4.104  0.8159E+00  0.2521E+02
     -4.082  0.9664E+01  0.2543E+02
     -4.059  0.1416E+01  0.2546E+02
     -4.037  0.3923E+01  0.2555E+02
     -4.015  0.8256E+01  0.2573E+02
     -3.992  0.5707E+01  0.2586E+02
     -3.970  0.1944E+00  0.2586E+02
     -3.948  0.6298E+01  0.2601E+02
     -3.925  0.1014E+01  0.2603E+02
     -3.903  0.1893E-03  0.2603E+02
     -3.881  0.1230E+01  0.2606E+02
     -3.858  0.1421E+02  0.2637E+02
     -3.836  0.3206E+01  0.2644E+02
     -3.814  0.1264E-02  0.2644E+02
     -3.791  0.1811E-04  0.2644E+02
     -3.769  0.5908E+00  0.2646E+02
     -3.747  0.6568E+01  0.2660E+02
     -3.724  0.2986E+00  0.2661E+02
     -3.702  0.2378E-02  0.2661E+02
     -3.680  0.1036E+01  0.2663E+02
     -3.657  0.8728E+00  0.2665E+02
     -3.635  0.8959E+01  0.2685E+02
     -3.613  0.1548E+02  0.2720E+02
     -3.590  0.1704E+01  0.2724E+02
     -3.568  0.8042E+01  0.2742E+02
     -3.545  0.8397E+01  0.2761E+02
     -3.523  0.2112E+01  0.2765E+02
     -3.501  0.9491E-01  0.2765E+02
     -3.478  0.7636E+01  0.2783E+02
     -3.456  0.3454E+01  0.2790E+02
     -3.434  0.1149E+00  0.2791E+02
     -3.411  0.2532E+01  0.2796E+02
     -3.389  0.2925E+01  0.2803E+02
     -3.367  0.4475E+01  0.2813E+02
     -3.344  0.1381E+02  0.2844E+02
     -3.322  0.4484E+00  0.2845E+02
     -3.300  0.3945E+01  0.2853E+02
     -3.277  0.4670E+01  0.2864E+02
     -3.255  0.6236E+01  0.2878E+02
     -3.233  0.9565E+01  0.2899E+02
     -3.210  0.5247E+01  0.2911E+02
     -3.188  0.1171E+00  0.2911E+02
     -3.166  0.2685E+01  0.2917E+02
     -3.143  0.2025E+01  0.2922E+02
     -3.121  0.2432E+00  0.2922E+02
     -3.098  0.3638E-04  0.2922E+02
     -3.076  0.4359E-12  0.2922E+02
     -3.054  0.2414E-06  0.2922E+02
     -3.031  0.6365E-01  0.2922E+02
     -3.009  0.3809E+01  0.2931E+02
     -2.987  0.3542E+01  0.2939E+02
     -2.964  0.4300E-01  0.2939E+02
     -2.942  0.3250E+00  0.2940E+02
     -2.920  0.6584E+01  0.2954E+02
     -2.897  0.5513E+00  0.2956E+02
     -2.875  0.1866E+01  0.2960E+02
     -2.853  0.1857E+01  0.2964E+02
     -2.830  0.2907E-02  0.2964E+02
     -2.808  0.4751E-09  0.2964E+02
     -2.786  0.2070E-15  0.2964E+02
     -2.763  0.6119E-06  0.2964E+02
     -2.741  0.9632E-01  0.2964E+02
     -2.719  0.3214E+01  0.2971E+02
     -2.696  0.4232E+00  0.2972E+02
     -2.674  0.2062E+01  0.2977E+02
     -2.652  0.1660E+01  0.2981E+02
     -2.629  0.1076E-01  0.2981E+02
     -2.607  0.2352E+01  0.2986E+02
     -2.584  0.1367E+01  0.2989E+02
     -2.562  0.1156E-02  0.2989E+02
     -2.540  0.9962E+00  0.2991E+02