<?xml version="1.0" encoding="ISO-8859-1"?>
<modeling>
 <generator>
  <i name="program" type="string">vasp </i>
  <i name="version" type="string">5.4.4.18Apr17-6-g9f103f2a35  </i>
  <i name="subversion" type="string">(build Mar 30 2023 15:39:25) complex            parallel </i>
  <i name="platform" type="string">LinuxIFC </i>
  <i name="date" type="string">2023 06 23 </i>
  <i name="time" type="string">19:04:36 </i>
 </generator>
 <incar>
  <i type="string" name="SYSTEM"> BC3-optical</i>
  <i type="int" name="ISTART">     1</i>
  <i type="string" name="PREC">accurate</i>
  <i type="string" name="ALGO"> Exact</i>
  <i type="int" name="ICHARG">     2</i>
  <i name="EDIFF">      0.00000001</i>
  <i name="ENCUT">    450.00000000</i>
  <i type="int" name="NBANDS">    96</i>
  <i type="int" name="NEDOS">  2400</i>
  <i type="logical" name="LREAL"> F  </i>
  <i type="int" name="ISMEAR">     0</i>
  <i name="SIGMA">      0.01000000</i>
  <i type="int" name="NWRITE">     3</i>
  <i type="logical" name="LOPTICS"> T  </i>
  <v type="int" name="KPOINT_BSE">    -1     0     0     0</v>
  <i name="CSHIFT">      0.10000000</i>
  <i name="CSHIFT">      0.10000000</i>
 </incar>
 <structure name="primitive_cell" >
  <crystal>
   <varray name="basis" >
    <v>       4.48084843       2.58701885       0.00000000 </v>
    <v>      -4.48084843       2.58701885       0.00000000 </v>
    <v>       0.00000000       0.00000000       8.52022140 </v>
   </varray>
   <i name="volume">    197.53348383 </i>
   <varray name="rec_basis" >
    <v>       0.11158601       0.19327265       0.00000000 </v>
    <v>      -0.11158601       0.19327265       0.00000000 </v>
    <v>       0.00000000       0.00000000       0.11736784 </v>
   </varray>
  </crystal>
  <varray name="positions" >
   <v>       0.33333300      -0.33333400       0.25000000 </v>
   <v>       0.15869124       0.31738348       0.25000000 </v>
   <v>      -0.31738448      -0.15869224       0.25000000 </v>
   <v>       0.15869124      -0.15869224       0.25000000 </v>
   <v>      -0.15869224       0.15869124       0.25000000 </v>
   <v>       0.31738348       0.15869124       0.25000000 </v>
   <v>      -0.15869224      -0.31738448       0.25000000 </v>
   <v>      -0.33333400       0.33333300       0.25000000 </v>
  </varray>
 </structure>
 <varray name="primitive_index" >
  <v type="int" >        1 </v>
  <v type="int" >        3 </v>
  <v type="int" >        7 </v>
  <v type="int" >        5 </v>
  <v type="int" >        6 </v>
  <v type="int" >        4 </v>
  <v type="int" >        8 </v>
  <v type="int" >        2 </v>
 </varray>
 <kpoints>
  <generation param="Gamma">
   <v type="int" name="divisions">      12       12        1 </v>
   <v name="usershift">      0.00000000       0.00000000       0.00000000 </v>
   <v name="genvec1">      0.08333333       0.00000000       0.00000000 </v>
   <v name="genvec2">      0.00000000       0.08333333       0.00000000 </v>
   <v name="genvec3">      0.00000000       0.00000000       1.00000000 </v>
   <v name="shift">      0.00000000       0.00000000       0.00000000 </v>
  </generation>
  <varray name="kpointlist" >
   <v>       0.00000000       0.00000000       0.00000000 </v>
   <v>       0.08333333       0.00000000       0.00000000 </v>
   <v>       0.16666667       0.00000000       0.00000000 </v>
   <v>       0.25000000      -0.00000000       0.00000000 </v>
   <v>       0.33333333      -0.00000000       0.00000000 </v>
   <v>       0.41666667       0.00000000       0.00000000 </v>
   <v>       0.50000000      -0.00000000       0.00000000 </v>
   <v>       0.08333333       0.08333333       0.00000000 </v>
   <v>       0.16666667       0.08333333       0.00000000 </v>
   <v>       0.25000000       0.08333333       0.00000000 </v>
   <v>       0.33333333       0.08333333       0.00000000 </v>
   <v>       0.41666667       0.08333333       0.00000000 </v>
   <v>       0.16666667       0.16666667       0.00000000 </v>
   <v>       0.25000000       0.16666667       0.00000000 </v>
   <v>       0.33333333       0.16666667       0.00000000 </v>
   <v>       0.41666667       0.16666667       0.00000000 </v>
   <v>       0.25000000       0.25000000       0.00000000 </v>
   <v>       0.33333333       0.25000000       0.00000000 </v>
   <v>       0.33333333       0.33333333       0.00000000 </v>
  </varray>
  <varray name="weights" >
   <v>       0.00694444 </v>
   <v>       0.04166667 </v>
   <v>       0.04166667 </v>
   <v>       0.04166667 </v>
   <v>       0.04166667 </v>
   <v>       0.04166667 </v>
   <v>       0.02083333 </v>
   <v>       0.04166667 </v>
   <v>       0.08333333 </v>
   <v>       0.08333333 </v>
   <v>       0.08333333 </v>
   <v>       0.08333333 </v>
   <v>       0.04166667 </v>
   <v>       0.08333333 </v>
   <v>       0.08333333 </v>
   <v>       0.04166667 </v>
   <v>       0.04166667 </v>
   <v>       0.08333333 </v>
   <v>       0.01388889 </v>
  </varray>
 </kpoints>
 <parameters>
  <separator name="general" >
   <i type="string" name="SYSTEM">BC3-optical</i>
   <i type="logical" name="LCOMPAT"> F  </i>
  </separator>
  <separator name="electronic" >
   <i type="string" name="PREC">accura</i>
   <i name="ENMAX">    450.00000000</i>
   <i name="ENAUG">    644.87300000</i>
   <i name="EDIFF">      0.00000001</i>
   <i type="int" name="IALGO">    90</i>
   <i type="int" name="IWAVPR">    10</i>
   <i type="int" name="NBANDS">    96</i>
   <i name="NELECT">     30.00000000</i>
   <i type="int" name="TURBO">     0</i>
   <i type="int" name="IRESTART">     0</i>
   <i type="int" name="NREBOOT">     0</i>
   <i type="int" name="NMIN">     0</i>
   <i name="EREF">      0.00000000</i>
   <separator name="electronic smearing" >
    <i type="int" name="ISMEAR">     0</i>
    <i name="SIGMA">      0.01000000</i>
    <i name="KSPACING">      0.50000000</i>
    <i type="logical" name="KGAMMA"> T  </i>
   </separator>
   <separator name="electronic projectors" >
    <i type="logical" name="LREAL"> F  </i>
    <v name="ROPT">      0.00000000      0.00000000</v>
    <i type="int" name="LMAXPAW">  -100</i>
    <i type="int" name="LMAXMIX">     2</i>
    <i type="logical" name="NLSPLINE"> F  </i>
   </separator>
   <separator name="electronic startup" >
    <i type="int" name="ISTART">     1</i>
    <i type="int" name="ICHARG">     2</i>
    <i type="int" name="INIWAV">     1</i>
   </separator>
   <separator name="electronic spin" >
    <i type="int" name="ISPIN">     1</i>
    <i type="logical" name="LNONCOLLINEAR"> F  </i>
    <v name="MAGMOM">      1.00000000      1.00000000      1.00000000      1.00000000      1.00000000      1.00000000      1.00000000      1.00000000</v>
    <i name="NUPDOWN">     -1.00000000</i>
    <i type="logical" name="LSORBIT"> F  </i>
    <v name="SAXIS">      0.00000000      0.00000000      1.00000000</v>
    <i type="logical" name="LSPIRAL"> F  </i>
    <v name="QSPIRAL">      0.00000000      0.00000000      0.00000000</v>
    <i type="logical" name="LZEROZ"> F  </i>
   </separator>
   <separator name="electronic exchange-correlation" >
    <i type="logical" name="LASPH"> F  </i>
    <i type="logical" name="LMETAGGA"> F  </i>
   </separator>
   <separator name="electronic convergence" >
    <i type="int" name="NELM">    60</i>
    <i type="int" name="NELMDL">     0</i>
    <i type="int" name="NELMIN">     2</i>
    <i name="ENINI">    450.00000000</i>
    <separator name="electronic convergence detail" >
     <i type="logical" name="LDIAG"> T  </i>
     <i type="logical" name="LSUBROT"> F  </i>
     <i name="WEIMIN">      0.00000000</i>
     <i name="EBREAK">      0.00000000</i>
     <i name="DEPER">      0.30000000</i>
     <i type="int" name="NRMM">     4</i>
     <i name="TIME">      0.40000000</i>
    </separator>
   </separator>
   <separator name="electronic mixer" >
    <i name="AMIX">      0.40000000</i>
    <i name="BMIX">      1.00000000</i>
    <i name="AMIN">      0.10000000</i>
    <i name="AMIX_MAG">      1.60000000</i>
    <i name="BMIX_MAG">      1.00000000</i>
    <separator name="electronic mixer details" >
     <i type="int" name="IMIX">     4</i>
     <i type="logical" name="MIXFIRST"> F  </i>
     <i type="int" name="MAXMIX">   -45</i>
     <i name="WC">    100.00000000</i>
     <i type="int" name="INIMIX">     1</i>
     <i type="int" name="MIXPRE">     1</i>
     <i type="int" name="MREMOVE">     5</i>
    </separator>
   </separator>
   <separator name="electronic dipolcorrection" >
    <i type="logical" name="LDIPOL"> F  </i>
    <i type="logical" name="LMONO"> F  </i>
    <i type="int" name="IDIPOL">     0</i>
    <i name="EPSILON">      1.00000000</i>
    <v name="DIPOL">   -100.00000000   -100.00000000   -100.00000000</v>
    <i name="EFIELD">      0.00000000</i>
   </separator>
  </separator>
  <separator name="grids" >
   <i type="int" name="NGX">    36</i>
   <i type="int" name="NGY">    36</i>
   <i type="int" name="NGZ">    60</i>
   <i type="int" name="NGXF">    72</i>
   <i type="int" name="NGYF">    72</i>
   <i type="int" name="NGZF">   120</i>
   <i type="logical" name="ADDGRID"> F  </i>
  </separator>
  <separator name="ionic" >
   <i type="int" name="NSW">     0</i>
   <i type="int" name="IBRION">    -1</i>
   <i type="int" name="MDALGO">     0</i>
   <i type="int" name="ISIF">     2</i>
   <i name="PSTRESS">      0.00000000</i>
   <i name="EDIFFG">      0.00000010</i>
   <i type="int" name="NFREE">     0</i>
   <i name="POTIM">      0.50000000</i>
   <i name="SMASS">     -3.00000000</i>
   <i name="SCALEE">      1.00000000</i>
  </separator>
  <separator name="ionic md" >
   <i name="TEBEG">      0.00010000</i>
   <i name="TEEND">      0.00010000</i>
   <i type="int" name="NBLOCK">     1</i>
   <i type="int" name="KBLOCK">     1</i>
   <i type="int" name="NPACO">   256</i>
   <i name="APACO">     16.00000000</i>
  </separator>
  <separator name="symmetry" >
   <i type="int" name="ISYM">     2</i>
   <i name="SYMPREC">      0.00001000</i>
  </separator>
  <separator name="dos" >
   <i type="int" name="LORBIT">     0</i>
   <v name="RWIGS">     -1.00000000     -1.00000000</v>
   <i type="int" name="NEDOS">  2400</i>
   <i name="EMIN">     10.00000000</i>
   <i name="EMAX">    -10.00000000</i>
   <i name="EFERMI">      0.00000000</i>
  </separator>
  <separator name="writing" >
   <i type="int" name="NWRITE">     3</i>
   <i type="logical" name="LWAVE"> T  </i>
   <i type="logical" name="LDOWNSAMPLE"> F  </i>
   <i type="logical" name="LCHARG"> T  </i>
   <i type="logical" name="LPARD"> F  </i>
   <i type="logical" name="LVTOT"> F  </i>
   <i type="logical" name="LVHAR"> F  </i>
   <i type="logical" name="LELF"> F  </i>
   <i type="logical" name="LOPTICS"> T  </i>
   <v name="STM">      0.00000000      0.00000000      0.00000000      0.00000000      0.00000000      0.00000000      0.00000000</v>
  </separator>
  <separator name="performance" >
   <i type="int" name="NPAR">    12</i>
   <i type="int" name="NSIM">     4</i>
   <i type="int" name="NBLK">    -1</i>
   <i type="logical" name="LPLANE"> T  </i>
   <i type="logical" name="LSCALAPACK"> T  </i>
   <i type="logical" name="LSCAAWARE"> F  </i>
   <i type="logical" name="LSCALU"> F  </i>
   <i type="logical" name="LASYNC"> F  </i>
   <i type="logical" name="LORBITALREAL"> F  </i>
  </separator>
  <separator name="miscellaneous" >
   <i type="int" name="IDIOT">     3</i>
   <i type="int" name="ISPECIAL">     0</i>
   <i type="logical" name="LMUSIC"> F  </i>
   <v name="POMASS">     10.81100000     12.01100000</v>
   <v name="DARWINR">      0.00000000      0.00000000</v>
   <v name="DARWINV">      1.00000000      1.00000000</v>
   <i type="logical" name="LCORR"> T  </i>
  </separator>
  <i type="logical" name="GGA_COMPAT"> T  </i>
  <i type="logical" name="LBERRY"> F  </i>
  <i type="int" name="ICORELEVEL">     0</i>
  <i type="logical" name="LDAU"> F  </i>
  <i type="int" name="I_CONSTRAINED_M">     0</i>
  <separator name="electronic exchange-correlation" >
   <i type="string" name="GGA">--</i>
   <i type="int" name="VOSKOWN">     0</i>
   <i type="logical" name="LHFCALC"> F  </i>
   <i type="string" name="PRECFOCK"></i>
   <i type="logical" name="LSYMGRAD"> F  </i>
   <i type="logical" name="LHFONE"> F  </i>
   <i type="logical" name="LRHFCALC"> F  </i>
   <i type="logical" name="LTHOMAS"> F  </i>
   <i type="logical" name="LMODELHF"> F  </i>
   <i name="ENCUT4O">     -1.00000000</i>
   <i type="int" name="EXXOEP">     0</i>
   <i type="int" name="FOURORBIT">     0</i>
   <i name="AEXX">      0.00000000</i>
   <i name="HFALPHA">      0.00000000</i>
   <i name="MCALPHA">      0.00000000</i>
   <i name="ALDAX">      1.00000000</i>
   <i name="AGGAX">      1.00000000</i>
   <i name="ALDAC">      1.00000000</i>
   <i name="AGGAC">      1.00000000</i>
   <i type="int" name="NKREDX">     1</i>
   <i type="int" name="NKREDY">     1</i>
   <i type="int" name="NKREDZ">     1</i>
   <i type="logical" name="SHIFTRED"> F  </i>
   <i type="logical" name="ODDONLY"> F  </i>
   <i type="logical" name="EVENONLY"> F  </i>
   <i type="int" name="LMAXFOCK">     0</i>
   <i type="int" name="NMAXFOCKAE">     0</i>
   <i type="logical" name="LFOCKAEDFT"> F  </i>
   <i name="HFSCREEN">      0.00000000</i>
   <i name="HFSCREENC">      0.00000000</i>
   <i type="int" name="NBANDSGWLOW">     0</i>
  </separator>
  <separator name="vdW DFT" >
   <i type="logical" name="LUSE_VDW"> F  </i>
   <i name="Zab_VDW">     -0.84910000</i>
   <i name="PARAM1">      0.12340000</i>
   <i name="PARAM2">      1.00000000</i>
   <i name="PARAM3">      0.00000000</i>
  </separator>
  <separator name="model GW" >
   <i type="int" name="MODEL_GW">     0</i>
   <i name="MODEL_EPS0">     14.81501129</i>
   <i name="MODEL_ALPHA">      1.00000000</i>
  </separator>
  <separator name="linear response parameters" >
   <i type="logical" name="LEPSILON"> F  </i>
   <i type="logical" name="LRPA"> F  </i>
   <i type="logical" name="LNABLA"> F  </i>
   <i type="logical" name="LVEL"> F  </i>
   <i type="int" name="KINTER">     0</i>
   <i name="CSHIFT">      0.10000000</i>
   <i name="OMEGAMAX">     -1.00000000</i>
   <i name="DEG_THRESHOLD">      0.00200000</i>
   <i name="RTIME">     -0.10000000</i>
   <i name="WPLASMAI">      0.00000000</i>
   <v name="DFIELD">      0.00000000      0.00000000      0.00000000</v>
   <v name="WPLASMA">      0.00000000      0.00000000      0.00000000      0.00000000      0.00000000      0.00000000      0.00000000      0.00000000      0.00000000</v>
  </separator>
  <separator name="orbital magnetization" >
   <i type="logical" name="NUCIND"> F  </i>
   <v name="MAGPOS">      0.00000000      0.00000000      0.00000000</v>
   <i type="logical" name="LNICSALL"> T  </i>
   <i type="logical" name="ORBITALMAG"> F  </i>
   <i type="logical" name="LMAGBLOCH"> F  </i>
   <i type="logical" name="LCHIMAG"> F  </i>
   <i type="logical" name="LGAUGE"> T  </i>
   <i type="int" name="MAGATOM">     0</i>
   <v name="MAGDIPOL">      0.00000000      0.00000000      0.00000000</v>
   <v name="AVECCONST">      0.00000000      0.00000000      0.00000000</v>
  </separator>
  <separator name="response functions" >
   <i type="logical" name="LADDER"> F  </i>
   <i type="logical" name="LRPAFORCE"> F  </i>
   <i type="logical" name="LFXC"> F  </i>
   <i type="logical" name="LHARTREE"> T  </i>
   <i type="int" name="IBSE">     0</i>
   <v type="int" name="KPOINT">    -1     0     0     0</v>
   <i type="logical" name="LTCTE"> F  </i>
   <i type="logical" name="LTETE"> F  </i>
   <i type="logical" name="LTRIPLET"> F  </i>
   <i type="logical" name="LFXCEPS"> F  </i>
   <i type="logical" name="LFXHEG"> F  </i>
   <i type="int" name="NATURALO">     2</i>
   <i type="logical" name="L2ORDER"> F  </i>
   <i type="logical" name="LMP2LT"> F  </i>
   <i type="logical" name="LUSEW"> F  </i>
   <i name="ENCUTGW">     -2.00000000</i>
   <i name="ENCUTGWSOFT">     -2.00000000</i>
   <i name="ENCUTLF">     -1.00000000</i>
   <i type="int" name="LMAXMP2">    -1</i>
   <i name="SCISSOR">      0.00000000</i>
   <i type="int" name="NOMEGA">     0</i>
   <i type="int" name="NOMEGAR">     0</i>
   <i type="int" name="NBANDSGW">    -1</i>
   <i type="int" name="NBANDSO">    -1</i>
   <i type="int" name="NBANDSV">    -1</i>
   <i type="int" name="NELM">     1</i>
   <i type="int" name="NELMHF">     1</i>
   <i type="int" name="DIM">     3</i>
   <i type="int" name="ANTIRES">     0</i>
   <i name="OMEGAMAX">    -30.00000000</i>
   <i name="OMEGAMIN">    -30.00000000</i>
   <i name="OMEGATL">   -200.00000000</i>
   <i type="int" name="OMEGAGRID">   140</i>
   <i name="CSHIFT">      0.10000000</i>
   <i type="logical" name="SELFENERGY"> F  </i>
   <i type="logical" name="LSPECTRAL"> F  </i>
   <i type="logical" name="LSPECTRALGW"> F  </i>
   <i type="logical" name="LSINGLES"> F  </i>
   <i type="logical" name="LFERMIGW"> F  </i>
   <i type="logical" name="ODDONLYGW"> F  </i>
   <i type="logical" name="EVENONLYGW"> F  </i>
   <i type="int" name="NKREDLFX">     1</i>
   <i type="int" name="NKREDLFY">     1</i>
   <i type="int" name="NKREDLFZ">     1</i>
   <i type="int" name="MAXMEM">  2800</i>
   <i type="int" name="TELESCOPE">     0</i>
   <i type="int" name="TAUPAR">     1</i>
   <i type="int" name="OMEGAPAR">    -1</i>
   <i name="LAMBDA">      1.00000000</i>
  </separator>
  <separator name="External order field" >
   <i name="OFIELD_KAPPA">      0.00000000</i>
   <v name="OFIELD_K">      0.00000000      0.00000000      0.00000000</v>
   <i name="OFIELD_Q6_NEAR">      0.00000000</i>
   <i name="OFIELD_Q6_FAR">      0.00000000</i>
   <i name="OFIELD_A">      0.00000000</i>
  </separator>
 </parameters>
 <atominfo>
  <atoms>       8 </atoms>
  <types>       2 </types>
  <array name="atoms" >
   <dimension dim="1">ion</dimension>
   <field type="string">element</field>
   <field type="int">atomtype</field>
   <set>
    <rc><c>B </c><c>   1</c></rc>
    <rc><c>B </c><c>   1</c></rc>
    <rc><c>C </c><c>   2</c></rc>
    <rc><c>C </c><c>   2</c></rc>
    <rc><c>C </c><c>   2</c></rc>
    <rc><c>C </c><c>   2</c></rc>
    <rc><c>C </c><c>   2</c></rc>
    <rc><c>C </c><c>   2</c></rc>
   </set>
  </array>
  <array name="atomtypes" >
   <dimension dim="1">type</dimension>
   <field type="int">atomspertype</field>
   <field type="string">element</field>
   <field>mass</field>
   <field>valence</field>
   <field type="string">pseudopotential</field>
   <set>
    <rc><c>   2</c><c>B </c><c>     10.81100000</c><c>      3.00000000</c><c>  PAW_PBE B 06Sep2000                   </c></rc>
    <rc><c>   6</c><c>C </c><c>     12.01100000</c><c>      4.00000000</c><c>  PAW_PBE C 08Apr2002                   </c></rc>
   </set>
  </array>
 </atominfo>
 <structure name="initialpos" >
  <crystal>
   <varray name="basis" >
    <v>       4.48084843       2.58701885       0.00000000 </v>
    <v>      -4.48084843       2.58701885       0.00000000 </v>
    <v>       0.00000000       0.00000000       8.52022140 </v>
   </varray>
   <i name="volume">    197.53348383 </i>
   <varray name="rec_basis" >
    <v>       0.11158601       0.19327265       0.00000000 </v>
    <v>      -0.11158601       0.19327265       0.00000000 </v>
    <v>       0.00000000       0.00000000       0.11736784 </v>
   </varray>
  </crystal>
  <varray name="positions" >
   <v>       0.33333300       0.66666600       0.25000000 </v>
   <v>       0.66666600       0.33333300       0.25000000 </v>
   <v>       0.15869124       0.31738348       0.25000000 </v>
   <v>       0.31738348       0.15869124       0.25000000 </v>
   <v>       0.15869124       0.84130776       0.25000000 </v>
   <v>       0.84130776       0.15869124       0.25000000 </v>
   <v>       0.68261552       0.84130776       0.25000000 </v>
   <v>       0.84130776       0.68261552       0.25000000 </v>
  </varray>
 </structure>
 <calculation>
  <scstep>
   <time name="diag">  552.14  552.13</time>
   <time name="total">  552.23  552.23</time>
   <energy>
    <i name="alphaZ">     25.67921176 </i>
    <i name="ewald">    700.27145080 </i>
    <i name="hartreedc">  -1524.76618073 </i>
    <i name="XCdc">     91.14273073 </i>
    <i name="pawpsdc">    738.13200929 </i>
    <i name="pawaedc">   -739.83780425 </i>
    <i name="eentropy">     -0.00000000 </i>
    <i name="bandstr">   -389.26594481 </i>
    <i name="atom">   1025.20389953 </i>
    <i name="e_fr_energy">    -73.44062769 </i>
    <i name="e_wo_entrp">    -73.44062769 </i>
    <i name="e_0_energy">    -73.44062769 </i>
   </energy>
  </scstep>
  <scstep>
   <time name="diag">  577.19  577.18</time>
   <time name="total">  577.29  577.28</time>
   <energy>
    <i name="e_fr_energy">    -68.99901163 </i>
    <i name="e_wo_entrp">    -68.99901163 </i>
    <i name="e_0_energy">    -68.99901163 </i>
   </energy>
  </scstep>
  <scstep>
   <time name="diag">  564.59  564.59</time>
   <time name="total">  564.69  564.68</time>
   <energy>
    <i name="e_fr_energy">    -67.35394036 </i>
    <i name="e_wo_entrp">    -67.35394036 </i>
    <i name="e_0_energy">    -67.35394036 </i>
   </energy>
  </scstep>
  <scstep>
   <time name="diag">  571.93  571.93</time>
   <time name="total">  572.03  572.03</time>
   <energy>
    <i name="e_fr_energy">    -67.24757337 </i>
    <i name="e_wo_entrp">    -67.24757337 </i>
    <i name="e_0_energy">    -67.24757337 </i>
   </energy>
  </scstep>
  <scstep>
   <time name="diag">  590.99  590.98</time>
   <time name="total">  591.08  591.08</time>
   <energy>
    <i name="e_fr_energy">    -67.22049319 </i>
    <i name="e_wo_entrp">    -67.22049319 </i>
    <i name="e_0_energy">    -67.22049319 </i>
   </energy>
  </scstep>
  <scstep>
   <time name="diag">  580.21  580.20</time>
   <time name="total">  580.31  580.30</time>
   <energy>
    <i name="e_fr_energy">    -67.21907962 </i>
    <i name="e_wo_entrp">    -67.21907962 </i>
    <i name="e_0_energy">    -67.21907962 </i>
   </energy>
  </scstep>
  <scstep>
   <time name="diag">  571.86  571.85</time>
   <time name="total">  571.95  571.95</time>
   <energy>
    <i name="e_fr_energy">    -67.22295241 </i>
    <i name="e_wo_entrp">    -67.22295241 </i>
    <i name="e_0_energy">    -67.22295241 </i>
   </energy>
  </scstep>
  <scstep>
   <time name="diag">  574.05  574.04</time>
   <time name="total">  574.15  574.14</time>
   <energy>
    <i name="e_fr_energy">    -67.22702477 </i>
    <i name="e_wo_entrp">    -67.22702477 </i>
    <i name="e_0_energy">    -67.22702477 </i>
   </energy>
  </scstep>
  <scstep>
   <time name="diag">  558.06  558.05</time>
   <time name="total">  558.15  558.15</time>
   <energy>
    <i name="e_fr_energy">    -67.22770203 </i>
    <i name="e_wo_entrp">    -67.22770203 </i>
    <i name="e_0_energy">    -67.22770203 </i>
   </energy>
  </scstep>
  <scstep>
   <time name="diag">  570.96  570.95</time>
   <time name="total">  571.06  571.05</time>
   <energy>
    <i name="e_fr_energy">    -67.22771724 </i>
    <i name="e_wo_entrp">    -67.22771724 </i>
    <i name="e_0_energy">    -67.22771724 </i>
   </energy>
  </scstep>
  <scstep>
   <time name="diag">  570.91  570.90</time>
   <time name="total">  571.01  571.00</time>
   <energy>
    <i name="e_fr_energy">    -67.22773009 </i>
    <i name="e_wo_entrp">    -67.22773009 </i>
    <i name="e_0_energy">    -67.22773009 </i>
   </energy>
  </scstep>
  <scstep>
   <time name="diag">  570.87  570.86</time>
   <time name="total">  570.96  570.96</time>
   <energy>
    <i name="e_fr_energy">    -67.22773016 </i>
    <i name="e_wo_entrp">    -67.22773016 </i>
    <i name="e_0_energy">    -67.22773016 </i>
   </energy>
  </scstep>
  <scstep>
   <time name="diag">  570.72  570.71</time>
   <time name="total">  570.82  570.81</time>
   <energy>
    <i name="e_fr_energy">    -67.22773024 </i>
    <i name="e_wo_entrp">    -67.22773024 </i>
    <i name="e_0_energy">    -67.22773024 </i>
   </energy>
  </scstep>
  <scstep>
   <time name="diag">  570.39  570.39</time>
   <time name="total">  570.43  570.42</time>
   <energy>
    <i name="alphaZ">     25.67921176 </i>
    <i name="ewald">    700.27145080 </i>
    <i name="hartreedc">  -1646.75291199 </i>
    <i name="XCdc">     96.02426133 </i>
    <i name="pawpsdc">   2894.38113018 </i>
    <i name="pawaedc">  -2896.90834128 </i>
    <i name="eentropy">     -0.00000000 </i>
    <i name="bandstr">   -265.12643058 </i>
    <i name="atom">   1025.20389953 </i>
    <i name="e_fr_energy">    -67.22773025 </i>
    <i name="e_wo_entrp">    -67.22773025 </i>
    <i name="e_0_energy">    -67.22773025 </i>
   </energy>
  </scstep>
  <structure>
   <crystal>
    <varray name="basis" >
     <v>       4.48084843       2.58701885       0.00000000 </v>
     <v>      -4.48084843       2.58701885       0.00000000 </v>
     <v>       0.00000000       0.00000000       8.52022140 </v>
    </varray>
    <i name="volume">    197.53348383 </i>
    <varray name="rec_basis" >
     <v>       0.11158601       0.19327265       0.00000000 </v>
     <v>      -0.11158601       0.19327265       0.00000000 </v>
     <v>       0.00000000       0.00000000       0.11736784 </v>
    </varray>
   </crystal>
   <varray name="positions" >
    <v>       0.33333300       0.66666600       0.25000000 </v>
    <v>       0.66666600       0.33333300       0.25000000 </v>
    <v>       0.15869124       0.31738348       0.25000000 </v>
    <v>       0.31738348       0.15869124       0.25000000 </v>
    <v>       0.15869124       0.84130776       0.25000000 </v>
    <v>       0.84130776       0.15869124       0.25000000 </v>
    <v>       0.68261552       0.84130776       0.25000000 </v>
    <v>       0.84130776       0.68261552       0.25000000 </v>
   </varray>
  </structure>
  <varray name="forces" >
   <v>       0.00000000       0.00000000       0.00000000 </v>
   <v>       0.00000000       0.00000000       0.00000000 </v>
   <v>      -0.00064694       0.00112054       0.00000000 </v>
   <v>       0.00064694       0.00112054       0.00000000 </v>
   <v>       0.00129389       0.00000000       0.00000000 </v>
   <v>      -0.00129389       0.00000000      -0.00000000 </v>
   <v>      -0.00064694      -0.00112054      -0.00000000 </v>
   <v>       0.00064694      -0.00112054      -0.00000000 </v>
  </varray>
  <varray name="stress" >
   <v>      -0.53277497       0.00000000       0.00000000 </v>
   <v>       0.00000000      -0.53277489       0.00000000 </v>
   <v>       0.00000000       0.00000000      -1.27118546 </v>
  </varray>
  <energy>
   <i name="e_fr_energy">    -67.22773025 </i>
   <i name="e_wo_entrp">    -67.22773025 </i>
   <i name="e_0_energy">     -0.00000000 </i>
  </energy>
  <time name="totalsc"> 7998.59 7999.09</time>
  <eigenvalues>
   <array>
    <dimension dim="1">band</dimension>
    <dimension dim="2">kpoint</dimension>
    <dimension dim="3">spin</dimension>
    <field>eigene</field>
    <field>occ</field>
    <set>
     <set comment="spin 1">
      <set comment="kpoint 1">
       <r>  -18.5403    1.0000 </r>
       <r>  -14.6488    1.0000 </r>
       <r>  -14.6488    1.0000 </r>
       <r>  -12.2992    1.0000 </r>
       <r>  -12.2992    1.0000 </r>
       <r>  -11.2307    1.0000 </r>
       <r>   -9.9135    1.0000 </r>
       <r>   -7.3452    1.0000 </r>
       <r>   -7.1249    1.0000 </r>
       <r>   -4.9710    1.0000 </r>
       <r>   -4.9710    1.0000 </r>
       <r>   -3.1493    1.0000 </r>
       <r>   -3.1492    1.0000 </r>
       <r>   -2.4667    1.0000 </r>
       <r>   -2.4666    1.0000 </r>
       <r>   -0.6315    0.0000 </r>
       <r>    1.1011    0.0000 </r>
       <r>    1.1012    0.0000 </r>
       <r>    1.7906    0.0000 </r>
       <r>    1.9217    0.0000 </r>
       <r>    4.5207    0.0000 </r>
       <r>    5.9130    0.0000 </r>
       <r>    6.3151    0.0000 </r>
       <r>    6.3151    0.0000 </r>
       <r>    7.6726    0.0000 </r>
       <r>    8.0796    0.0000 </r>
       <r>    8.0797    0.0000 </r>
       <r>    8.9955    0.0000 </r>
       <r>    9.1419    0.0000 </r>
       <r>    9.1419    0.0000 </r>
       <r>    9.2976    0.0000 </r>
       <r>    9.2976    0.0000 </r>
       <r>    9.5160    0.0000 </r>
       <r>   10.3273    0.0000 </r>
       <r>   10.6836    0.0000 </r>
       <r>   10.6836    0.0000 </r>
       <r>   11.3540    0.0000 </r>
       <r>   11.3541    0.0000 </r>
       <r>   11.3922    0.0000 </r>
       <r>   11.3995    0.0000 </r>
       <r>   11.9841    0.0000 </r>
       <r>   13.0008    0.0000 </r>
       <r>   13.0008    0.0000 </r>
       <r>   13.0285    0.0000 </r>
       <r>   13.1319    0.0000 </r>
       <r>   13.1319    0.0000 </r>
       <r>   13.1825    0.0000 </r>
       <r>   13.5279    0.0000 </r>
       <r>   15.6135    0.0000 </r>
       <r>   15.8008    0.0000 </r>
       <r>   15.8008    0.0000 </r>
       <r>   16.4913    0.0000 </r>
       <r>   18.2923    0.0000 </r>
       <r>   18.2923    0.0000 </r>
       <r>   18.8601    0.0000 </r>
       <r>   18.8602    0.0000 </r>
       <r>   19.1473    0.0000 </r>
       <r>   19.2290    0.0000 </r>
       <r>   19.5333    0.0000 </r>
       <r>   19.5333    0.0000 </r>
       <r>   19.7217    0.0000 </r>
       <r>   19.9888    0.0000 </r>
       <r>   19.9888    0.0000 </r>
       <r>   20.0167    0.0000 </r>
       <r>   20.4546    0.0000 </r>
       <r>   21.0813    0.0000 </r>
       <r>   21.3027    0.0000 </r>
       <r>   21.3027    0.0000 </r>
       <r>   22.8793    0.0000 </r>
       <r>   23.2968    0.0000 </r>
       <r>   23.2968    0.0000 </r>
       <r>   23.4397    0.0000 </r>
       <r>   23.4397    0.0000 </r>
       <r>   23.5738    0.0000 </r>
       <r>   24.0936    0.0000 </r>
       <r>   24.0936    0.0000 </r>
       <r>   24.4126    0.0000 </r>
       <r>   24.4126    0.0000 </r>
       <r>   24.5372    0.0000 </r>
       <r>   24.6374    0.0000 </r>
       <r>   24.8763    0.0000 </r>
       <r>   25.2174    0.0000 </r>
       <r>   25.2174    0.0000 </r>
       <r>   26.6516    0.0000 </r>
       <r>   26.6516    0.0000 </r>
       <r>   26.7538    0.0000 </r>
       <r>   26.7538    0.0000 </r>
       <r>   26.8463    0.0000 </r>
       <r>   27.0341    0.0000 </r>
       <r>   27.1216    0.0000 </r>
       <r>   27.7308    0.0000 </r>
       <r>   27.7308    0.0000 </r>
       <r>   27.7998    0.0000 </r>
       <r>   27.7998    0.0000 </r>
       <r>   27.8401    0.0000 </r>
       <r>   28.2967    0.0000 </r>
      </set>
      <set comment="kpoint 2">
       <r>  -18.5132    1.0000 </r>
       <r>  -14.7809    1.0000 </r>
       <r>  -14.6912    1.0000 </r>
       <r>  -12.3384    1.0000 </r>
       <r>  -12.2008    1.0000 </r>
       <r>  -11.0961    1.0000 </r>
       <r>   -9.7531    1.0000 </r>
       <r>   -7.3040    1.0000 </r>
       <r>   -7.1822    1.0000 </r>
       <r>   -5.0944    1.0000 </r>
       <r>   -4.9934    1.0000 </r>
       <r>   -3.2737    1.0000 </r>
       <r>   -3.1697    1.0000 </r>
       <r>   -2.6092    1.0000 </r>
       <r>   -2.5354    1.0000 </r>
       <r>   -0.8361    0.0000 </r>
       <r>    1.1605    0.0000 </r>
       <r>    1.4116    0.0000 </r>
       <r>    1.9153    0.0000 </r>
       <r>    1.9734    0.0000 </r>
       <r>    4.5728    0.0000 </r>
       <r>    5.9692    0.0000 </r>
       <r>    6.3866    0.0000 </r>
       <r>    6.4781    0.0000 </r>
       <r>    7.6627    0.0000 </r>
       <r>    8.0377    0.0000 </r>
       <r>    8.2336    0.0000 </r>
       <r>    8.2352    0.0000 </r>
       <r>    8.6808    0.0000 </r>
       <r>    8.7555    0.0000 </r>
       <r>    9.8480    0.0000 </r>
       <r>    9.8619    0.0000 </r>
       <r>    9.9124    0.0000 </r>
       <r>   10.3759    0.0000 </r>
       <r>   10.3995    0.0000 </r>
       <r>   10.4193    0.0000 </r>
       <r>   10.9077    0.0000 </r>
       <r>   11.4137    0.0000 </r>
       <r>   11.6687    0.0000 </r>
       <r>   12.0448    0.0000 </r>
       <r>   12.1516    0.0000 </r>
       <r>   12.3345    0.0000 </r>
       <r>   12.5608    0.0000 </r>
       <r>   12.8381    0.0000 </r>
       <r>   13.0972    0.0000 </r>
       <r>   13.6279    0.0000 </r>
       <r>   13.8001    0.0000 </r>
       <r>   14.2603    0.0000 </r>
       <r>   15.5623    0.0000 </r>
       <r>   15.6614    0.0000 </r>
       <r>   15.7181    0.0000 </r>
       <r>   16.2792    0.0000 </r>
       <r>   18.0211    0.0000 </r>
       <r>   18.0716    0.0000 </r>
       <r>   18.6452    0.0000 </r>
       <r>   18.9834    0.0000 </r>
       <r>   18.9928    0.0000 </r>
       <r>   19.3961    0.0000 </r>
       <r>   19.4430    0.0000 </r>
       <r>   19.8594    0.0000 </r>
       <r>   19.9227    0.0000 </r>
       <r>   19.9355    0.0000 </r>
       <r>   20.0222    0.0000 </r>
       <r>   20.0695    0.0000 </r>
       <r>   20.4469    0.0000 </r>
       <r>   20.9480    0.0000 </r>
       <r>   21.1306    0.0000 </r>
       <r>   21.1701    0.0000 </r>
       <r>   22.3006    0.0000 </r>
       <r>   22.5129    0.0000 </r>
       <r>   23.0923    0.0000 </r>
       <r>   23.5592    0.0000 </r>
       <r>   23.5744    0.0000 </r>
       <r>   23.6015    0.0000 </r>
       <r>   23.8165    0.0000 </r>
       <r>   24.0248    0.0000 </r>
       <r>   24.2674    0.0000 </r>
       <r>   24.5217    0.0000 </r>
       <r>   24.8306    0.0000 </r>
       <r>   24.9676    0.0000 </r>
       <r>   25.0475    0.0000 </r>
       <r>   25.5521    0.0000 </r>
       <r>   25.6964    0.0000 </r>
       <r>   25.7980    0.0000 </r>
       <r>   25.9189    0.0000 </r>
       <r>   26.1275    0.0000 </r>
       <r>   26.3973    0.0000 </r>
       <r>   26.9094    0.0000 </r>
       <r>   26.9234    0.0000 </r>
       <r>   27.0815    0.0000 </r>
       <r>   27.0849    0.0000 </r>
       <r>   27.5813    0.0000 </r>
       <r>   27.8918    0.0000 </r>
       <r>   28.1065    0.0000 </r>
       <r>   28.6632    0.0000 </r>
       <r>   28.9184    0.0000 </r>
      </set>
      <set comment="kpoint 3">
       <r>  -18.4341    1.0000 </r>
       <r>  -15.1059    1.0000 </r>
       <r>  -14.7954    1.0000 </r>
       <r>  -12.4549    1.0000 </r>
       <r>  -11.9317    1.0000 </r>
       <r>  -10.7149    1.0000 </r>
       <r>   -9.3237    1.0000 </r>
       <r>   -7.3645    1.0000 </r>
       <r>   -7.1816    1.0000 </r>
       <r>   -5.4404    1.0000 </r>
       <r>   -5.0296    1.0000 </r>
       <r>   -3.6157    1.0000 </r>
       <r>   -3.2240    1.0000 </r>
       <r>   -3.0165    1.0000 </r>
       <r>   -2.7272    1.0000 </r>
       <r>   -1.1839    0.0000 </r>
       <r>    1.3238    0.0000 </r>
       <r>    1.8881    0.0000 </r>
       <r>    2.1281    0.0000 </r>
       <r>    2.4358    0.0000 </r>
       <r>    4.7294    0.0000 </r>
       <r>    6.1240    0.0000 </r>
       <r>    6.5551    0.0000 </r>
       <r>    6.9440    0.0000 </r>
       <r>    6.9598    0.0000 </r>
       <r>    7.9146    0.0000 </r>
       <r>    8.1729    0.0000 </r>
       <r>    8.2020    0.0000 </r>
       <r>    8.5790    0.0000 </r>
       <r>    8.7436    0.0000 </r>
       <r>    9.0740    0.0000 </r>
       <r>    9.9077    0.0000 </r>
       <r>    9.9160    0.0000 </r>
       <r>   10.4672    0.0000 </r>
       <r>   10.5716    0.0000 </r>
       <r>   10.5788    0.0000 </r>
       <r>   10.9114    0.0000 </r>
       <r>   11.5894    0.0000 </r>
       <r>   11.8802    0.0000 </r>
       <r>   12.1077    0.0000 </r>
       <r>   12.1424    0.0000 </r>
       <r>   12.3419    0.0000 </r>
       <r>   12.6423    0.0000 </r>
       <r>   13.0075    0.0000 </r>
       <r>   13.4775    0.0000 </r>
       <r>   14.1695    0.0000 </r>
       <r>   14.3858    0.0000 </r>
       <r>   15.1545    0.0000 </r>
       <r>   15.2765    0.0000 </r>
       <r>   15.3889    0.0000 </r>
       <r>   15.7997    0.0000 </r>
       <r>   16.1743    0.0000 </r>
       <r>   17.3574    0.0000 </r>
       <r>   17.5941    0.0000 </r>
       <r>   17.8616    0.0000 </r>
       <r>   19.0273    0.0000 </r>
       <r>   19.0831    0.0000 </r>
       <r>   19.1612    0.0000 </r>
       <r>   19.5522    0.0000 </r>
       <r>   19.8344    0.0000 </r>
       <r>   19.9231    0.0000 </r>
       <r>   20.1859    0.0000 </r>
       <r>   20.2006    0.0000 </r>
       <r>   20.2953    0.0000 </r>
       <r>   20.4610    0.0000 </r>
       <r>   20.6854    0.0000 </r>
       <r>   20.9076    0.0000 </r>
       <r>   20.9177    0.0000 </r>
       <r>   20.9658    0.0000 </r>
       <r>   21.2974    0.0000 </r>
       <r>   23.1084    0.0000 </r>
       <r>   23.7417    0.0000 </r>
       <r>   23.7808    0.0000 </r>
       <r>   23.9368    0.0000 </r>
       <r>   24.0480    0.0000 </r>
       <r>   24.1155    0.0000 </r>
       <r>   24.2288    0.0000 </r>
       <r>   24.2478    0.0000 </r>
       <r>   24.4571    0.0000 </r>
       <r>   24.5114    0.0000 </r>
       <r>   24.6934    0.0000 </r>
       <r>   24.7126    0.0000 </r>
       <r>   25.1039    0.0000 </r>
       <r>   25.1717    0.0000 </r>
       <r>   25.2293    0.0000 </r>
       <r>   26.4776    0.0000 </r>
       <r>   26.6052    0.0000 </r>
       <r>   26.9337    0.0000 </r>
       <r>   27.0663    0.0000 </r>
       <r>   27.5561    0.0000 </r>
       <r>   27.7010    0.0000 </r>
       <r>   28.0595    0.0000 </r>
       <r>   28.1032    0.0000 </r>
       <r>   28.1118    0.0000 </r>
       <r>   28.1885    0.0000 </r>
       <r>   29.1207    0.0000 </r>
      </set>
      <set comment="kpoint 4">
       <r>  -18.3111    1.0000 </r>
       <r>  -15.5025    1.0000 </r>
       <r>  -14.9178    1.0000 </r>
       <r>  -12.6026    1.0000 </r>
       <r>  -11.5471    1.0000 </r>
       <r>  -10.1724    1.0000 </r>
       <r>   -8.7139    1.0000 </r>
       <r>   -7.6782    1.0000 </r>
       <r>   -6.9823    1.0000 </r>
       <r>   -5.9473    1.0000 </r>
       <r>   -5.0207    1.0000 </r>
       <r>   -4.0930    1.0000 </r>
       <r>   -3.6340    1.0000 </r>
       <r>   -3.2941    1.0000 </r>
       <r>   -3.0028    1.0000 </r>
       <r>   -1.4707    0.0000 </r>
       <r>    1.5522    0.0000 </r>
       <r>    2.2445    0.0000 </r>
       <r>    2.3849    0.0000 </r>
       <r>    3.3190    0.0000 </r>
       <r>    4.9927    0.0000 </r>
       <r>    6.0211    0.0000 </r>
       <r>    6.3584    0.0000 </r>
       <r>    6.7511    0.0000 </r>
       <r>    7.6029    0.0000 </r>
       <r>    7.8092    0.0000 </r>
       <r>    7.9266    0.0000 </r>
       <r>    8.1647    0.0000 </r>
       <r>    8.2206    0.0000 </r>
       <r>    8.9264    0.0000 </r>
       <r>    9.3180    0.0000 </r>
       <r>    9.4674    0.0000 </r>
       <r>    9.4698    0.0000 </r>
       <r>   10.1391    0.0000 </r>
       <r>   10.1768    0.0000 </r>
       <r>   11.1044    0.0000 </r>
       <r>   11.3401    0.0000 </r>
       <r>   11.7682    0.0000 </r>
       <r>   11.8214    0.0000 </r>
       <r>   12.3380    0.0000 </r>
       <r>   12.3959    0.0000 </r>
       <r>   12.5104    0.0000 </r>
       <r>   13.2333    0.0000 </r>
       <r>   13.2608    0.0000 </r>
       <r>   14.2225    0.0000 </r>
       <r>   14.4784    0.0000 </r>
       <r>   14.8590    0.0000 </r>
       <r>   15.0380    0.0000 </r>
       <r>   15.3045    0.0000 </r>
       <r>   16.0072    0.0000 </r>
       <r>   16.0964    0.0000 </r>
       <r>   16.2607    0.0000 </r>
       <r>   16.4635    0.0000 </r>
       <r>   17.1509    0.0000 </r>
       <r>   17.2038    0.0000 </r>
       <r>   18.7148    0.0000 </r>
       <r>   18.8973    0.0000 </r>
       <r>   18.9961    0.0000 </r>
       <r>   19.1637    0.0000 </r>
       <r>   19.3560    0.0000 </r>
       <r>   19.6341    0.0000 </r>
       <r>   19.6521    0.0000 </r>
       <r>   19.8567    0.0000 </r>
       <r>   20.1793    0.0000 </r>
       <r>   20.2805    0.0000 </r>
       <r>   20.6624    0.0000 </r>
       <r>   20.7056    0.0000 </r>
       <r>   21.0592    0.0000 </r>
       <r>   21.0780    0.0000 </r>
       <r>   21.4988    0.0000 </r>
       <r>   21.9505    0.0000 </r>
       <r>   22.9605    0.0000 </r>
       <r>   23.2358    0.0000 </r>
       <r>   23.2529    0.0000 </r>
       <r>   23.3291    0.0000 </r>
       <r>   23.5515    0.0000 </r>
       <r>   24.0815    0.0000 </r>
       <r>   24.5135    0.0000 </r>
       <r>   24.5438    0.0000 </r>
       <r>   24.5896    0.0000 </r>
       <r>   24.7054    0.0000 </r>
       <r>   25.0584    0.0000 </r>
       <r>   25.2804    0.0000 </r>
       <r>   25.5470    0.0000 </r>
       <r>   25.6479    0.0000 </r>
       <r>   25.6602    0.0000 </r>
       <r>   26.4057    0.0000 </r>
       <r>   26.7615    0.0000 </r>
       <r>   27.3091    0.0000 </r>
       <r>   28.0925    0.0000 </r>
       <r>   28.1525    0.0000 </r>
       <r>   28.1598    0.0000 </r>
       <r>   28.1715    0.0000 </r>
       <r>   28.3197    0.0000 </r>
       <r>   28.6563    0.0000 </r>
       <r>   28.6892    0.0000 </r>
      </set>
      <set comment="kpoint 5">
       <r>  -18.1625    1.0000 </r>
       <r>  -15.8797    1.0000 </r>
       <r>  -15.0239    1.0000 </r>
       <r>  -12.7316    1.0000 </r>
       <r>  -11.1092    1.0000 </r>
       <r>   -9.5491    1.0000 </r>
       <r>   -8.0852    1.0000 </r>
       <r>   -8.0108    1.0000 </r>
       <r>   -6.7177    1.0000 </r>
       <r>   -6.5247    1.0000 </r>
       <r>   -4.9417    1.0000 </r>
       <r>   -4.6103    1.0000 </r>
       <r>   -4.3954    1.0000 </r>
       <r>   -3.3602    1.0000 </r>
       <r>   -3.3072    1.0000 </r>
       <r>   -1.6689    0.0000 </r>
       <r>    1.7888    0.0000 </r>
       <r>    2.5685    0.0000 </r>
       <r>    2.7430    0.0000 </r>
       <r>    4.2903    0.0000 </r>
       <r>    5.1738    0.0000 </r>
       <r>    5.3723    0.0000 </r>
       <r>    6.6300    0.0000 </r>
       <r>    6.9218    0.0000 </r>
       <r>    7.4317    0.0000 </r>
       <r>    7.5747    0.0000 </r>
       <r>    7.6596    0.0000 </r>
       <r>    8.1261    0.0000 </r>
       <r>    8.5825    0.0000 </r>
       <r>    8.5992    0.0000 </r>
       <r>    9.1056    0.0000 </r>
       <r>    9.1461    0.0000 </r>
       <r>    9.8097    0.0000 </r>
       <r>    9.9117    0.0000 </r>
       <r>   10.3942    0.0000 </r>
       <r>   11.3233    0.0000 </r>
       <r>   11.5760    0.0000 </r>
       <r>   12.0495    0.0000 </r>
       <r>   12.1462    0.0000 </r>
       <r>   12.1731    0.0000 </r>
       <r>   12.2810    0.0000 </r>
       <r>   13.0014    0.0000 </r>
       <r>   13.5155    0.0000 </r>
       <r>   14.2023    0.0000 </r>
       <r>   14.2919    0.0000 </r>
       <r>   14.6098    0.0000 </r>
       <r>   14.9235    0.0000 </r>
       <r>   15.3296    0.0000 </r>
       <r>   15.4034    0.0000 </r>
       <r>   15.7518    0.0000 </r>
       <r>   16.3012    0.0000 </r>
       <r>   16.5796    0.0000 </r>
       <r>   16.6247    0.0000 </r>
       <r>   17.1348    0.0000 </r>
       <r>   17.2323    0.0000 </r>
       <r>   17.6843    0.0000 </r>
       <r>   17.8094    0.0000 </r>
       <r>   18.4659    0.0000 </r>
       <r>   18.6258    0.0000 </r>
       <r>   18.8087    0.0000 </r>
       <r>   19.7113    0.0000 </r>
       <r>   19.9249    0.0000 </r>
       <r>   20.0480    0.0000 </r>
       <r>   20.0842    0.0000 </r>
       <r>   20.2596    0.0000 </r>
       <r>   20.3208    0.0000 </r>
       <r>   20.6361    0.0000 </r>
       <r>   20.9062    0.0000 </r>
       <r>   21.0103    0.0000 </r>
       <r>   21.2642    0.0000 </r>
       <r>   21.6925    0.0000 </r>
       <r>   21.7278    0.0000 </r>
       <r>   22.1547    0.0000 </r>
       <r>   22.4047    0.0000 </r>
       <r>   23.2560    0.0000 </r>
       <r>   23.2649    0.0000 </r>
       <r>   23.8377    0.0000 </r>
       <r>   24.1045    0.0000 </r>
       <r>   24.1943    0.0000 </r>
       <r>   24.8458    0.0000 </r>
       <r>   24.8595    0.0000 </r>
       <r>   24.9236    0.0000 </r>
       <r>   25.7790    0.0000 </r>
       <r>   26.0006    0.0000 </r>
       <r>   26.7166    0.0000 </r>
       <r>   26.7677    0.0000 </r>
       <r>   26.8194    0.0000 </r>
       <r>   26.9807    0.0000 </r>
       <r>   27.2670    0.0000 </r>
       <r>   27.2937    0.0000 </r>
       <r>   27.3826    0.0000 </r>
       <r>   27.6980    0.0000 </r>
       <r>   28.1237    0.0000 </r>
       <r>   28.1329    0.0000 </r>
       <r>   28.5291    0.0000 </r>
       <r>   28.6794    0.0000 </r>
      </set>
      <set comment="kpoint 6">
       <r>  -18.0272    1.0000 </r>
       <r>  -16.1629    1.0000 </r>
       <r>  -15.0939    1.0000 </r>
       <r>  -12.8160    1.0000 </r>
       <r>  -10.7080    1.0000 </r>
       <r>   -8.9042    1.0000 </r>
       <r>   -8.4816    1.0000 </r>
       <r>   -7.5745    1.0000 </r>
       <r>   -6.7929    1.0000 </r>
       <r>   -6.4253    1.0000 </r>
       <r>   -5.2343    1.0000 </r>
       <r>   -5.0733    1.0000 </r>
       <r>   -4.8255    1.0000 </r>
       <r>   -3.5685    1.0000 </r>
       <r>   -3.4063    1.0000 </r>
       <r>   -1.7847    0.0000 </r>
       <r>    1.9692    0.0000 </r>
       <r>    2.8120    0.0000 </r>
       <r>    3.2016    0.0000 </r>
       <r>    4.4184    0.0000 </r>
       <r>    5.2007    0.0000 </r>
       <r>    5.8937    0.0000 </r>
       <r>    6.7443    0.0000 </r>
       <r>    6.7975    0.0000 </r>
       <r>    7.1991    0.0000 </r>
       <r>    7.4335    0.0000 </r>
       <r>    7.5840    0.0000 </r>
       <r>    7.7340    0.0000 </r>
       <r>    8.0166    0.0000 </r>
       <r>    8.6500    0.0000 </r>
       <r>    8.8572    0.0000 </r>
       <r>    9.5160    0.0000 </r>
       <r>    9.5495    0.0000 </r>
       <r>   10.6449    0.0000 </r>
       <r>   11.2326    0.0000 </r>
       <r>   11.2992    0.0000 </r>
       <r>   11.6977    0.0000 </r>
       <r>   11.9222    0.0000 </r>
       <r>   12.1340    0.0000 </r>
       <r>   12.1610    0.0000 </r>
       <r>   12.5332    0.0000 </r>
       <r>   13.4739    0.0000 </r>
       <r>   13.8226    0.0000 </r>
       <r>   13.9784    0.0000 </r>
       <r>   14.4402    0.0000 </r>
       <r>   14.5157    0.0000 </r>
       <r>   14.5333    0.0000 </r>
       <r>   14.8859    0.0000 </r>
       <r>   16.0731    0.0000 </r>
       <r>   16.2936    0.0000 </r>
       <r>   16.3614    0.0000 </r>
       <r>   16.4705    0.0000 </r>
       <r>   16.8056    0.0000 </r>
       <r>   17.2299    0.0000 </r>
       <r>   17.4944    0.0000 </r>
       <r>   17.5993    0.0000 </r>
       <r>   17.8535    0.0000 </r>
       <r>   18.0816    0.0000 </r>
       <r>   18.1855    0.0000 </r>
       <r>   18.3931    0.0000 </r>
       <r>   19.2319    0.0000 </r>
       <r>   19.3262    0.0000 </r>
       <r>   19.9117    0.0000 </r>
       <r>   20.0815    0.0000 </r>
       <r>   20.1586    0.0000 </r>
       <r>   20.3208    0.0000 </r>
       <r>   20.3607    0.0000 </r>
       <r>   20.5816    0.0000 </r>
       <r>   20.6691    0.0000 </r>
       <r>   21.2355    0.0000 </r>
       <r>   21.4672    0.0000 </r>
       <r>   21.5752    0.0000 </r>
       <r>   21.6759    0.0000 </r>
       <r>   21.7734    0.0000 </r>
       <r>   22.9441    0.0000 </r>
       <r>   23.6443    0.0000 </r>
       <r>   23.8383    0.0000 </r>
       <r>   23.8481    0.0000 </r>
       <r>   24.0304    0.0000 </r>
       <r>   24.4372    0.0000 </r>
       <r>   24.6008    0.0000 </r>
       <r>   25.2913    0.0000 </r>
       <r>   25.6794    0.0000 </r>
       <r>   26.4236    0.0000 </r>
       <r>   26.4270    0.0000 </r>
       <r>   26.4999    0.0000 </r>
       <r>   27.1312    0.0000 </r>
       <r>   27.3482    0.0000 </r>
       <r>   27.4076    0.0000 </r>
       <r>   27.4819    0.0000 </r>
       <r>   27.6466    0.0000 </r>
       <r>   27.9119    0.0000 </r>
       <r>   28.0444    0.0000 </r>
       <r>   28.0530    0.0000 </r>
       <r>   29.0204    0.0000 </r>
       <r>   29.1305    0.0000 </r>
      </set>
      <set comment="kpoint 7">
       <r>  -17.9687    1.0000 </r>
       <r>  -16.2722    1.0000 </r>
       <r>  -15.1182    1.0000 </r>
       <r>  -12.8452    1.0000 </r>
       <r>  -10.5233    1.0000 </r>
       <r>   -8.6674    1.0000 </r>
       <r>   -8.4603    1.0000 </r>
       <r>   -7.8540    1.0000 </r>
       <r>   -6.2579    1.0000 </r>
       <r>   -6.2284    1.0000 </r>
       <r>   -5.9752    1.0000 </r>
       <r>   -5.3004    1.0000 </r>
       <r>   -4.7629    1.0000 </r>
       <r>   -3.6806    1.0000 </r>
       <r>   -3.4227    1.0000 </r>
       <r>   -1.8229    0.0000 </r>
       <r>    2.0369    0.0000 </r>
       <r>    2.9042    0.0000 </r>
       <r>    3.7591    0.0000 </r>
       <r>    3.7616    0.0000 </r>
       <r>    5.8295    0.0000 </r>
       <r>    6.0178    0.0000 </r>
       <r>    6.6833    0.0000 </r>
       <r>    6.8324    0.0000 </r>
       <r>    7.0070    0.0000 </r>
       <r>    7.3848    0.0000 </r>
       <r>    7.5018    0.0000 </r>
       <r>    7.5244    0.0000 </r>
       <r>    7.8615    0.0000 </r>
       <r>    8.4188    0.0000 </r>
       <r>    8.7679    0.0000 </r>
       <r>    9.4538    0.0000 </r>
       <r>   10.0363    0.0000 </r>
       <r>   11.0875    0.0000 </r>
       <r>   11.2965    0.0000 </r>
       <r>   11.3093    0.0000 </r>
       <r>   11.8230    0.0000 </r>
       <r>   11.8675    0.0000 </r>
       <r>   12.0688    0.0000 </r>
       <r>   12.5005    0.0000 </r>
       <r>   12.7063    0.0000 </r>
       <r>   12.8630    0.0000 </r>
       <r>   13.6413    0.0000 </r>
       <r>   14.0529    0.0000 </r>
       <r>   14.3493    0.0000 </r>
       <r>   14.6915    0.0000 </r>
       <r>   15.0594    0.0000 </r>
       <r>   15.2109    0.0000 </r>
       <r>   15.3651    0.0000 </r>
       <r>   15.3664    0.0000 </r>
       <r>   16.6211    0.0000 </r>
       <r>   16.9789    0.0000 </r>
       <r>   17.1612    0.0000 </r>
       <r>   17.3312    0.0000 </r>
       <r>   17.3606    0.0000 </r>
       <r>   17.7409    0.0000 </r>
       <r>   18.2136    0.0000 </r>
       <r>   18.3643    0.0000 </r>
       <r>   18.5835    0.0000 </r>
       <r>   18.6120    0.0000 </r>
       <r>   18.8324    0.0000 </r>
       <r>   18.9763    0.0000 </r>
       <r>   19.1429    0.0000 </r>
       <r>   19.3566    0.0000 </r>
       <r>   19.9079    0.0000 </r>
       <r>   19.9569    0.0000 </r>
       <r>   20.0143    0.0000 </r>
       <r>   20.1817    0.0000 </r>
       <r>   20.9535    0.0000 </r>
       <r>   21.1326    0.0000 </r>
       <r>   21.6406    0.0000 </r>
       <r>   21.7580    0.0000 </r>
       <r>   22.4412    0.0000 </r>
       <r>   22.5453    0.0000 </r>
       <r>   22.5762    0.0000 </r>
       <r>   22.6512    0.0000 </r>
       <r>   23.6180    0.0000 </r>
       <r>   23.8592    0.0000 </r>
       <r>   23.9896    0.0000 </r>
       <r>   24.0510    0.0000 </r>
       <r>   24.6837    0.0000 </r>
       <r>   25.4785    0.0000 </r>
       <r>   25.8082    0.0000 </r>
       <r>   25.8779    0.0000 </r>
       <r>   26.7758    0.0000 </r>
       <r>   26.8048    0.0000 </r>
       <r>   26.8170    0.0000 </r>
       <r>   27.1894    0.0000 </r>
       <r>   27.4249    0.0000 </r>
       <r>   27.4830    0.0000 </r>
       <r>   27.9756    0.0000 </r>
       <r>   28.0416    0.0000 </r>
       <r>   28.0484    0.0000 </r>
       <r>   28.8468    0.0000 </r>
       <r>   28.9853    0.0000 </r>
       <r>   29.0125    0.0000 </r>
      </set>
      <set comment="kpoint 8">
       <r>  -18.4601    1.0000 </r>
       <r>  -14.9943    1.0000 </r>
       <r>  -14.7809    1.0000 </r>
       <r>  -12.3670    1.0000 </r>
       <r>  -12.0744    1.0000 </r>
       <r>  -10.8255    1.0000 </r>
       <r>   -9.4616    1.0000 </r>
       <r>   -7.3045    1.0000 </r>
       <r>   -7.2222    1.0000 </r>
       <r>   -5.3045    1.0000 </r>
       <r>   -5.0454    1.0000 </r>
       <r>   -3.4865    1.0000 </r>
       <r>   -3.2340    1.0000 </r>
       <r>   -2.8750    1.0000 </r>
       <r>   -2.6748    1.0000 </r>
       <r>   -1.0765    0.0000 </r>
       <r>    1.1928    0.0000 </r>
       <r>    1.9201    0.0000 </r>
       <r>    2.0766    0.0000 </r>
       <r>    2.1721    0.0000 </r>
       <r>    4.6771    0.0000 </r>
       <r>    6.0776    0.0000 </r>
       <r>    6.5380    0.0000 </r>
       <r>    6.7516    0.0000 </r>
       <r>    7.3986    0.0000 </r>
       <r>    7.5582    0.0000 </r>
       <r>    8.0759    0.0000 </r>
       <r>    8.3552    0.0000 </r>
       <r>    8.5474    0.0000 </r>
       <r>    9.2291    0.0000 </r>
       <r>    9.4118    0.0000 </r>
       <r>    9.5260    0.0000 </r>
       <r>    9.6858    0.0000 </r>
       <r>   10.2460    0.0000 </r>
       <r>   10.7998    0.0000 </r>
       <r>   10.8126    0.0000 </r>
       <r>   11.1324    0.0000 </r>
       <r>   11.4092    0.0000 </r>
       <r>   11.5924    0.0000 </r>
       <r>   11.7043    0.0000 </r>
       <r>   12.1663    0.0000 </r>
       <r>   12.7034    0.0000 </r>
       <r>   12.7084    0.0000 </r>
       <r>   13.2664    0.0000 </r>
       <r>   13.2707    0.0000 </r>
       <r>   13.3116    0.0000 </r>
       <r>   14.6751    0.0000 </r>
       <r>   14.8541    0.0000 </r>
       <r>   15.0942    0.0000 </r>
       <r>   15.7535    0.0000 </r>
       <r>   15.7542    0.0000 </r>
       <r>   16.0620    0.0000 </r>
       <r>   17.5711    0.0000 </r>
       <r>   17.7323    0.0000 </r>
       <r>   18.0866    0.0000 </r>
       <r>   18.7975    0.0000 </r>
       <r>   19.2809    0.0000 </r>
       <r>   19.3447    0.0000 </r>
       <r>   19.6799    0.0000 </r>
       <r>   19.7002    0.0000 </r>
       <r>   19.7886    0.0000 </r>
       <r>   19.9487    0.0000 </r>
       <r>   20.3937    0.0000 </r>
       <r>   20.4966    0.0000 </r>
       <r>   20.5031    0.0000 </r>
       <r>   20.6163    0.0000 </r>
       <r>   20.7882    0.0000 </r>
       <r>   20.9393    0.0000 </r>
       <r>   21.1718    0.0000 </r>
       <r>   22.5187    0.0000 </r>
       <r>   22.5238    0.0000 </r>
       <r>   23.2618    0.0000 </r>
       <r>   23.6610    0.0000 </r>
       <r>   23.8736    0.0000 </r>
       <r>   23.9585    0.0000 </r>
       <r>   24.0196    0.0000 </r>
       <r>   24.1366    0.0000 </r>
       <r>   24.4987    0.0000 </r>
       <r>   24.5861    0.0000 </r>
       <r>   24.5924    0.0000 </r>
       <r>   24.9850    0.0000 </r>
       <r>   24.9984    0.0000 </r>
       <r>   25.7623    0.0000 </r>
       <r>   25.8278    0.0000 </r>
       <r>   25.9447    0.0000 </r>
       <r>   26.0228    0.0000 </r>
       <r>   26.2519    0.0000 </r>
       <r>   26.4644    0.0000 </r>
       <r>   26.6504    0.0000 </r>
       <r>   27.2927    0.0000 </r>
       <r>   27.3911    0.0000 </r>
       <r>   28.0323    0.0000 </r>
       <r>   28.0424    0.0000 </r>
       <r>   28.1296    0.0000 </r>
       <r>   28.3527    0.0000 </r>
       <r>   28.9976    0.0000 </r>
      </set>
      <set comment="kpoint 9">
       <r>  -18.3587    1.0000 </r>
       <r>  -15.3297    1.0000 </r>
       <r>  -14.9244    1.0000 </r>
       <r>  -12.4374    1.0000 </r>
       <r>  -11.8221    1.0000 </r>
       <r>  -10.3336    1.0000 </r>
       <r>   -8.9537    1.0000 </r>
       <r>   -7.5669    1.0000 </r>
       <r>   -7.0611    1.0000 </r>
       <r>   -5.6745    1.0000 </r>
       <r>   -5.1027    1.0000 </r>
       <r>   -3.8636    1.0000 </r>
       <r>   -3.3655    1.0000 </r>
       <r>   -3.3565    1.0000 </r>
       <r>   -2.9300    1.0000 </r>
       <r>   -1.3035    0.0000 </r>
       <r>    1.2600    0.0000 </r>
       <r>    2.2825    0.0000 </r>
       <r>    2.4279    0.0000 </r>
       <r>    2.8510    0.0000 </r>
       <r>    4.8861    0.0000 </r>
       <r>    6.2808    0.0000 </r>
       <r>    6.5078    0.0000 </r>
       <r>    6.7723    0.0000 </r>
       <r>    7.1502    0.0000 </r>
       <r>    7.2481    0.0000 </r>
       <r>    8.2401    0.0000 </r>
       <r>    8.6339    0.0000 </r>
       <r>    8.6392    0.0000 </r>
       <r>    9.0266    0.0000 </r>
       <r>    9.0745    0.0000 </r>
       <r>    9.1530    0.0000 </r>
       <r>    9.7711    0.0000 </r>
       <r>   10.1428    0.0000 </r>
       <r>   10.4882    0.0000 </r>
       <r>   10.5456    0.0000 </r>
       <r>   11.0698    0.0000 </r>
       <r>   11.7230    0.0000 </r>
       <r>   11.9531    0.0000 </r>
       <r>   12.1359    0.0000 </r>
       <r>   12.5589    0.0000 </r>
       <r>   12.9163    0.0000 </r>
       <r>   13.0498    0.0000 </r>
       <r>   13.1819    0.0000 </r>
       <r>   13.7879    0.0000 </r>
       <r>   13.8784    0.0000 </r>
       <r>   14.6673    0.0000 </r>
       <r>   15.0635    0.0000 </r>
       <r>   15.6424    0.0000 </r>
       <r>   15.7272    0.0000 </r>
       <r>   15.9300    0.0000 </r>
       <r>   16.1285    0.0000 </r>
       <r>   16.9985    0.0000 </r>
       <r>   17.2342    0.0000 </r>
       <r>   17.4622    0.0000 </r>
       <r>   18.5950    0.0000 </r>
       <r>   18.8063    0.0000 </r>
       <r>   19.1417    0.0000 </r>
       <r>   19.3697    0.0000 </r>
       <r>   19.5440    0.0000 </r>
       <r>   19.7248    0.0000 </r>
       <r>   19.8257    0.0000 </r>
       <r>   20.1113    0.0000 </r>
       <r>   20.3707    0.0000 </r>
       <r>   20.4668    0.0000 </r>
       <r>   20.6286    0.0000 </r>
       <r>   20.9226    0.0000 </r>
       <r>   21.0740    0.0000 </r>
       <r>   21.1664    0.0000 </r>
       <r>   21.4502    0.0000 </r>
       <r>   22.1496    0.0000 </r>
       <r>   22.6793    0.0000 </r>
       <r>   23.1242    0.0000 </r>
       <r>   23.2068    0.0000 </r>
       <r>   23.8068    0.0000 </r>
       <r>   24.0762    0.0000 </r>
       <r>   24.0992    0.0000 </r>
       <r>   24.3011    0.0000 </r>
       <r>   24.5136    0.0000 </r>
       <r>   25.0531    0.0000 </r>
       <r>   25.1449    0.0000 </r>
       <r>   25.1929    0.0000 </r>
       <r>   25.2353    0.0000 </r>
       <r>   25.3105    0.0000 </r>
       <r>   25.8855    0.0000 </r>
       <r>   26.0007    0.0000 </r>
       <r>   26.1849    0.0000 </r>
       <r>   26.2052    0.0000 </r>
       <r>   26.9497    0.0000 </r>
       <r>   27.0710    0.0000 </r>
       <r>   27.4627    0.0000 </r>
       <r>   28.0074    0.0000 </r>
       <r>   28.0409    0.0000 </r>
       <r>   28.2909    0.0000 </r>
       <r>   29.2070    0.0000 </r>
       <r>   29.4427    0.0000 </r>
      </set>
      <set comment="kpoint 10">
       <r>  -18.2216    1.0000 </r>
       <r>  -15.7004    1.0000 </r>
       <r>  -15.0616    1.0000 </r>
       <r>  -12.5469    1.0000 </r>
       <r>  -11.4382    1.0000 </r>
       <r>   -9.7295    1.0000 </r>
       <r>   -8.3073    1.0000 </r>
       <r>   -7.9559    1.0000 </r>
       <r>   -6.8281    1.0000 </r>
       <r>   -6.1688    1.0000 </r>
       <r>   -5.0887    1.0000 </r>
       <r>   -4.3446    1.0000 </r>
       <r>   -4.0291    1.0000 </r>
       <r>   -3.4802    1.0000 </r>
       <r>   -3.2435    1.0000 </r>
       <r>   -1.4533    0.0000 </r>
       <r>    1.3910    0.0000 </r>
       <r>    2.5899    0.0000 </r>
       <r>    2.8067    0.0000 </r>
       <r>    3.7951    0.0000 </r>
       <r>    5.2029    0.0000 </r>
       <r>    5.6251    0.0000 </r>
       <r>    6.5571    0.0000 </r>
       <r>    6.7674    0.0000 </r>
       <r>    7.0737    0.0000 </r>
       <r>    7.8279    0.0000 </r>
       <r>    7.9147    0.0000 </r>
       <r>    8.3378    0.0000 </r>
       <r>    8.6659    0.0000 </r>
       <r>    8.6990    0.0000 </r>
       <r>    9.1704    0.0000 </r>
       <r>    9.2839    0.0000 </r>
       <r>    9.7390    0.0000 </r>
       <r>    9.9807    0.0000 </r>
       <r>   10.0715    0.0000 </r>
       <r>   10.8298    0.0000 </r>
       <r>   11.0001    0.0000 </r>
       <r>   12.0982    0.0000 </r>
       <r>   12.1244    0.0000 </r>
       <r>   12.5786    0.0000 </r>
       <r>   12.8305    0.0000 </r>
       <r>   12.9172    0.0000 </r>
       <r>   13.4026    0.0000 </r>
       <r>   13.7595    0.0000 </r>
       <r>   14.2720    0.0000 </r>
       <r>   14.3241    0.0000 </r>
       <r>   14.7098    0.0000 </r>
       <r>   14.9550    0.0000 </r>
       <r>   15.6340    0.0000 </r>
       <r>   15.9762    0.0000 </r>
       <r>   16.1911    0.0000 </r>
       <r>   16.4212    0.0000 </r>
       <r>   16.6714    0.0000 </r>
       <r>   17.0105    0.0000 </r>
       <r>   17.3281    0.0000 </r>
       <r>   17.5761    0.0000 </r>
       <r>   18.4350    0.0000 </r>
       <r>   18.8089    0.0000 </r>
       <r>   19.0964    0.0000 </r>
       <r>   19.1508    0.0000 </r>
       <r>   19.2617    0.0000 </r>
       <r>   19.6154    0.0000 </r>
       <r>   19.8877    0.0000 </r>
       <r>   20.0871    0.0000 </r>
       <r>   20.3315    0.0000 </r>
       <r>   20.5944    0.0000 </r>
       <r>   20.7302    0.0000 </r>
       <r>   21.0003    0.0000 </r>
       <r>   21.4442    0.0000 </r>
       <r>   21.4587    0.0000 </r>
       <r>   21.6178    0.0000 </r>
       <r>   21.9149    0.0000 </r>
       <r>   22.9283    0.0000 </r>
       <r>   23.0030    0.0000 </r>
       <r>   23.0617    0.0000 </r>
       <r>   23.2729    0.0000 </r>
       <r>   23.8341    0.0000 </r>
       <r>   23.9858    0.0000 </r>
       <r>   24.2188    0.0000 </r>
       <r>   24.8136    0.0000 </r>
       <r>   24.9996    0.0000 </r>
       <r>   25.3471    0.0000 </r>
       <r>   25.4475    0.0000 </r>
       <r>   25.9645    0.0000 </r>
       <r>   26.0706    0.0000 </r>
       <r>   26.2873    0.0000 </r>
       <r>   26.3950    0.0000 </r>
       <r>   26.5087    0.0000 </r>
       <r>   26.7823    0.0000 </r>
       <r>   27.4708    0.0000 </r>
       <r>   27.6919    0.0000 </r>
       <r>   27.7768    0.0000 </r>
       <r>   27.9579    0.0000 </r>
       <r>   28.0357    0.0000 </r>
       <r>   29.0971    0.0000 </r>
       <r>   29.3464    0.0000 </r>
      </set>
      <set comment="kpoint 11">
       <r>  -18.0756    1.0000 </r>
       <r>  -16.0252    1.0000 </r>
       <r>  -15.1634    1.0000 </r>
       <r>  -12.6404    1.0000 </r>
       <r>  -11.0116    1.0000 </r>
       <r>   -9.0961    1.0000 </r>
       <r>   -8.3956    1.0000 </r>
       <r>   -7.6307    1.0000 </r>
       <r>   -6.6685    1.0000 </r>
       <r>   -6.5435    1.0000 </r>
       <r>   -5.0399    1.0000 </r>
       <r>   -4.8339    1.0000 </r>
       <r>   -4.7659    1.0000 </r>
       <r>   -3.5742    1.0000 </r>
       <r>   -3.5495    1.0000 </r>
       <r>   -1.5440    0.0000 </r>
       <r>    1.5375    0.0000 </r>
       <r>    2.9983    0.0000 </r>
       <r>    3.1243    0.0000 </r>
       <r>    4.7554    0.0000 </r>
       <r>    4.8227    0.0000 </r>
       <r>    5.6422    0.0000 </r>
       <r>    6.5803    0.0000 </r>
       <r>    6.9203    0.0000 </r>
       <r>    7.0832    0.0000 </r>
       <r>    7.1993    0.0000 </r>
       <r>    8.0687    0.0000 </r>
       <r>    8.1881    0.0000 </r>
       <r>    8.4265    0.0000 </r>
       <r>    8.7179    0.0000 </r>
       <r>    8.8474    0.0000 </r>
       <r>    9.0897    0.0000 </r>
       <r>    9.7103    0.0000 </r>
       <r>   10.2321    0.0000 </r>
       <r>   10.6019    0.0000 </r>
       <r>   11.0090    0.0000 </r>
       <r>   11.6887    0.0000 </r>
       <r>   12.0284    0.0000 </r>
       <r>   12.1822    0.0000 </r>
       <r>   12.5784    0.0000 </r>
       <r>   12.6707    0.0000 </r>
       <r>   13.2500    0.0000 </r>
       <r>   13.6798    0.0000 </r>
       <r>   14.0947    0.0000 </r>
       <r>   14.3039    0.0000 </r>
       <r>   14.4920    0.0000 </r>
       <r>   14.8849    0.0000 </r>
       <r>   15.2102    0.0000 </r>
       <r>   15.2365    0.0000 </r>
       <r>   16.1354    0.0000 </r>
       <r>   16.5526    0.0000 </r>
       <r>   16.5876    0.0000 </r>
       <r>   16.8810    0.0000 </r>
       <r>   17.0073    0.0000 </r>
       <r>   17.0822    0.0000 </r>
       <r>   17.7143    0.0000 </r>
       <r>   18.0642    0.0000 </r>
       <r>   18.2106    0.0000 </r>
       <r>   18.3640    0.0000 </r>
       <r>   18.4602    0.0000 </r>
       <r>   19.3009    0.0000 </r>
       <r>   19.5575    0.0000 </r>
       <r>   19.6724    0.0000 </r>
       <r>   19.7642    0.0000 </r>
       <r>   20.2203    0.0000 </r>
       <r>   20.3520    0.0000 </r>
       <r>   20.6519    0.0000 </r>
       <r>   20.8933    0.0000 </r>
       <r>   20.9733    0.0000 </r>
       <r>   21.4474    0.0000 </r>
       <r>   21.4870    0.0000 </r>
       <r>   21.8863    0.0000 </r>
       <r>   22.1565    0.0000 </r>
       <r>   22.2280    0.0000 </r>
       <r>   22.9273    0.0000 </r>
       <r>   23.1639    0.0000 </r>
       <r>   23.3730    0.0000 </r>
       <r>   24.0089    0.0000 </r>
       <r>   24.2713    0.0000 </r>
       <r>   24.5628    0.0000 </r>
       <r>   24.7403    0.0000 </r>
       <r>   25.3089    0.0000 </r>
       <r>   25.5001    0.0000 </r>
       <r>   25.8403    0.0000 </r>
       <r>   26.4867    0.0000 </r>
       <r>   26.4943    0.0000 </r>
       <r>   26.9255    0.0000 </r>
       <r>   26.9338    0.0000 </r>
       <r>   27.1043    0.0000 </r>
       <r>   27.2085    0.0000 </r>
       <r>   27.5006    0.0000 </r>
       <r>   27.7271    0.0000 </r>
       <r>   27.9976    0.0000 </r>
       <r>   28.2940    0.0000 </r>
       <r>   28.7807    0.0000 </r>
       <r>   29.3757    0.0000 </r>
      </set>
      <set comment="kpoint 12">
       <r>  -17.9725    1.0000 </r>
       <r>  -16.2237    1.0000 </r>
       <r>  -15.2167    1.0000 </r>
       <r>  -12.6918    1.0000 </r>
       <r>  -10.6841    1.0000 </r>
       <r>   -8.8037    1.0000 </r>
       <r>   -8.4393    1.0000 </r>
       <r>   -7.5709    1.0000 </r>
       <r>   -6.4910    1.0000 </r>
       <r>   -6.2836    1.0000 </r>
       <r>   -5.6651    1.0000 </r>
       <r>   -5.2067    1.0000 </r>
       <r>   -4.8631    1.0000 </r>
       <r>   -3.7590    1.0000 </r>
       <r>   -3.6241    1.0000 </r>
       <r>   -1.5880    0.0000 </r>
       <r>    1.6337    0.0000 </r>
       <r>    3.3120    0.0000 </r>
       <r>    3.5072    0.0000 </r>
       <r>    4.1157    0.0000 </r>
       <r>    5.5886    0.0000 </r>
       <r>    6.1336    0.0000 </r>
       <r>    6.4948    0.0000 </r>
       <r>    6.5320    0.0000 </r>
       <r>    7.1185    0.0000 </r>
       <r>    7.2599    0.0000 </r>
       <r>    7.4693    0.0000 </r>
       <r>    7.9843    0.0000 </r>
       <r>    8.3677    0.0000 </r>
       <r>    8.5249    0.0000 </r>
       <r>    8.5648    0.0000 </r>
       <r>    9.4992    0.0000 </r>
       <r>    9.7749    0.0000 </r>
       <r>   10.4077    0.0000 </r>
       <r>   11.1312    0.0000 </r>
       <r>   11.8728    0.0000 </r>
       <r>   11.9166    0.0000 </r>
       <r>   11.9281    0.0000 </r>
       <r>   11.9614    0.0000 </r>
       <r>   12.4084    0.0000 </r>
       <r>   12.6492    0.0000 </r>
       <r>   13.0146    0.0000 </r>
       <r>   13.9476    0.0000 </r>
       <r>   13.9755    0.0000 </r>
       <r>   14.2875    0.0000 </r>
       <r>   14.3681    0.0000 </r>
       <r>   15.0071    0.0000 </r>
       <r>   15.0551    0.0000 </r>
       <r>   15.5229    0.0000 </r>
       <r>   15.8458    0.0000 </r>
       <r>   16.5975    0.0000 </r>
       <r>   17.0422    0.0000 </r>
       <r>   17.1281    0.0000 </r>
       <r>   17.4167    0.0000 </r>
       <r>   17.4738    0.0000 </r>
       <r>   17.5299    0.0000 </r>
       <r>   17.9574    0.0000 </r>
       <r>   18.0364    0.0000 </r>
       <r>   18.1885    0.0000 </r>
       <r>   18.5297    0.0000 </r>
       <r>   18.6499    0.0000 </r>
       <r>   18.9250    0.0000 </r>
       <r>   19.4415    0.0000 </r>
       <r>   19.8337    0.0000 </r>
       <r>   19.9578    0.0000 </r>
       <r>   20.0548    0.0000 </r>
       <r>   20.3809    0.0000 </r>
       <r>   20.4340    0.0000 </r>
       <r>   20.6765    0.0000 </r>
       <r>   21.4236    0.0000 </r>
       <r>   21.4765    0.0000 </r>
       <r>   21.9861    0.0000 </r>
       <r>   22.2773    0.0000 </r>
       <r>   22.3104    0.0000 </r>
       <r>   22.8791    0.0000 </r>
       <r>   23.4373    0.0000 </r>
       <r>   23.5001    0.0000 </r>
       <r>   23.5237    0.0000 </r>
       <r>   23.8388    0.0000 </r>
       <r>   24.2710    0.0000 </r>
       <r>   24.6084    0.0000 </r>
       <r>   24.8710    0.0000 </r>
       <r>   25.0967    0.0000 </r>
       <r>   25.9615    0.0000 </r>
       <r>   26.3637    0.0000 </r>
       <r>   26.8876    0.0000 </r>
       <r>   27.0875    0.0000 </r>
       <r>   27.2393    0.0000 </r>
       <r>   27.2561    0.0000 </r>
       <r>   27.4591    0.0000 </r>
       <r>   27.5397    0.0000 </r>
       <r>   28.0596    0.0000 </r>
       <r>   28.1756    0.0000 </r>
       <r>   28.4128    0.0000 </r>
       <r>   28.5848    0.0000 </r>
       <r>   28.9796    0.0000 </r>
      </set>
      <set comment="kpoint 13">
       <r>  -18.2423    1.0000 </r>
       <r>  -15.5946    1.0000 </r>
       <r>  -15.1334    1.0000 </r>
       <r>  -12.3267    1.0000 </r>
       <r>  -11.7182    1.0000 </r>
       <r>   -9.7514    1.0000 </r>
       <r>   -8.4235    1.0000 </r>
       <r>   -7.9297    1.0000 </r>
       <r>   -6.8657    1.0000 </r>
       <r>   -5.9215    1.0000 </r>
       <r>   -5.2465    1.0000 </r>
       <r>   -4.1761    1.0000 </r>
       <r>   -3.8607    1.0000 </r>
       <r>   -3.6321    1.0000 </r>
       <r>   -3.2639    1.0000 </r>
       <r>   -1.2839    0.0000 </r>
       <r>    1.1312    0.0000 </r>
       <r>    2.5390    0.0000 </r>
       <r>    3.2334    0.0000 </r>
       <r>    3.3406    0.0000 </r>
       <r>    5.1459    0.0000 </r>
       <r>    6.1570    0.0000 </r>
       <r>    6.1840    0.0000 </r>
       <r>    6.5511    0.0000 </r>
       <r>    7.2517    0.0000 </r>
       <r>    7.4875    0.0000 </r>
       <r>    8.1543    0.0000 </r>
       <r>    8.4357    0.0000 </r>
       <r>    8.5197    0.0000 </r>
       <r>    9.2339    0.0000 </r>
       <r>    9.2540    0.0000 </r>
       <r>    9.3888    0.0000 </r>
       <r>    9.6763    0.0000 </r>
       <r>    9.9552    0.0000 </r>
       <r>   10.2174    0.0000 </r>
       <r>   10.2839    0.0000 </r>
       <r>   10.4107    0.0000 </r>
       <r>   12.1075    0.0000 </r>
       <r>   12.2675    0.0000 </r>
       <r>   12.9348    0.0000 </r>
       <r>   13.2035    0.0000 </r>
       <r>   13.3180    0.0000 </r>
       <r>   13.4217    0.0000 </r>
       <r>   13.6038    0.0000 </r>
       <r>   13.7449    0.0000 </r>
       <r>   13.8856    0.0000 </r>
       <r>   14.3433    0.0000 </r>
       <r>   15.0667    0.0000 </r>
       <r>   15.5160    0.0000 </r>
       <r>   16.1575    0.0000 </r>
       <r>   16.1977    0.0000 </r>
       <r>   16.3722    0.0000 </r>
       <r>   16.8962    0.0000 </r>
       <r>   17.1998    0.0000 </r>
       <r>   17.3524    0.0000 </r>
       <r>   17.4870    0.0000 </r>
       <r>   18.3669    0.0000 </r>
       <r>   18.7180    0.0000 </r>
       <r>   19.0151    0.0000 </r>
       <r>   19.2652    0.0000 </r>
       <r>   19.3598    0.0000 </r>
       <r>   19.5902    0.0000 </r>
       <r>   20.0268    0.0000 </r>
       <r>   20.3129    0.0000 </r>
       <r>   20.3463    0.0000 </r>
       <r>   20.8500    0.0000 </r>
       <r>   21.1173    0.0000 </r>
       <r>   21.1262    0.0000 </r>
       <r>   21.3102    0.0000 </r>
       <r>   21.5558    0.0000 </r>
       <r>   21.6803    0.0000 </r>
       <r>   21.6901    0.0000 </r>
       <r>   22.0418    0.0000 </r>
       <r>   22.7179    0.0000 </r>
       <r>   23.4760    0.0000 </r>
       <r>   24.2353    0.0000 </r>
       <r>   24.3310    0.0000 </r>
       <r>   24.4169    0.0000 </r>
       <r>   24.4894    0.0000 </r>
       <r>   24.6632    0.0000 </r>
       <r>   24.9503    0.0000 </r>
       <r>   25.2815    0.0000 </r>
       <r>   25.2953    0.0000 </r>
       <r>   25.4908    0.0000 </r>
       <r>   25.5889    0.0000 </r>
       <r>   25.7660    0.0000 </r>
       <r>   25.9710    0.0000 </r>
       <r>   26.2204    0.0000 </r>
       <r>   26.3578    0.0000 </r>
       <r>   27.6465    0.0000 </r>
       <r>   28.1565    0.0000 </r>
       <r>   28.2031    0.0000 </r>
       <r>   28.4029    0.0000 </r>
       <r>   28.5516    0.0000 </r>
       <r>   28.6904    0.0000 </r>
       <r>   29.0472    0.0000 </r>
      </set>
      <set comment="kpoint 14">
       <r>  -18.1037    1.0000 </r>
       <r>  -15.8717    1.0000 </r>
       <r>  -15.3171    1.0000 </r>
       <r>  -12.2968    1.0000 </r>
       <r>  -11.4379    1.0000 </r>
       <r>   -9.1205    1.0000 </r>
       <r>   -8.3761    1.0000 </r>
       <r>   -7.7953    1.0000 </r>
       <r>   -6.6081    1.0000 </r>
       <r>   -6.2644    1.0000 </r>
       <r>   -5.3186    1.0000 </r>
       <r>   -4.5716    1.0000 </r>
       <r>   -4.4650    1.0000 </r>
       <r>   -3.8735    1.0000 </r>
       <r>   -3.6394    1.0000 </r>
       <r>   -1.1996    0.0000 </r>
       <r>    1.0639    0.0000 </r>
       <r>    2.8970    0.0000 </r>
       <r>    3.6622    0.0000 </r>
       <r>    4.2506    0.0000 </r>
       <r>    5.3268    0.0000 </r>
       <r>    5.5089    0.0000 </r>
       <r>    5.9261    0.0000 </r>
       <r>    6.8987    0.0000 </r>
       <r>    7.4604    0.0000 </r>
       <r>    7.4938    0.0000 </r>
       <r>    7.9953    0.0000 </r>
       <r>    8.0582    0.0000 </r>
       <r>    8.6104    0.0000 </r>
       <r>    8.6818    0.0000 </r>
       <r>    9.3542    0.0000 </r>
       <r>    9.5055    0.0000 </r>
       <r>    9.7054    0.0000 </r>
       <r>    9.8064    0.0000 </r>
       <r>   10.2744    0.0000 </r>
       <r>   10.4720    0.0000 </r>
       <r>   10.7500    0.0000 </r>
       <r>   12.3322    0.0000 </r>
       <r>   12.6517    0.0000 </r>
       <r>   12.9735    0.0000 </r>
       <r>   13.2991    0.0000 </r>
       <r>   13.3034    0.0000 </r>
       <r>   13.5833    0.0000 </r>
       <r>   13.9434    0.0000 </r>
       <r>   14.0663    0.0000 </r>
       <r>   14.2054    0.0000 </r>
       <r>   14.4722    0.0000 </r>
       <r>   15.1626    0.0000 </r>
       <r>   15.4299    0.0000 </r>
       <r>   16.0510    0.0000 </r>
       <r>   16.4786    0.0000 </r>
       <r>   16.5319    0.0000 </r>
       <r>   16.6870    0.0000 </r>
       <r>   16.8877    0.0000 </r>
       <r>   17.2496    0.0000 </r>
       <r>   17.8049    0.0000 </r>
       <r>   18.2329    0.0000 </r>
       <r>   18.4619    0.0000 </r>
       <r>   18.5689    0.0000 </r>
       <r>   18.8895    0.0000 </r>
       <r>   18.9923    0.0000 </r>
       <r>   19.4225    0.0000 </r>
       <r>   19.5959    0.0000 </r>
       <r>   19.6521    0.0000 </r>
       <r>   20.0626    0.0000 </r>
       <r>   20.5689    0.0000 </r>
       <r>   20.6138    0.0000 </r>
       <r>   20.6398    0.0000 </r>
       <r>   21.4961    0.0000 </r>
       <r>   21.6968    0.0000 </r>
       <r>   21.9591    0.0000 </r>
       <r>   22.0665    0.0000 </r>
       <r>   22.1775    0.0000 </r>
       <r>   22.7371    0.0000 </r>
       <r>   22.8792    0.0000 </r>
       <r>   23.1847    0.0000 </r>
       <r>   23.5757    0.0000 </r>
       <r>   24.2296    0.0000 </r>
       <r>   24.2669    0.0000 </r>
       <r>   24.4388    0.0000 </r>
       <r>   24.7740    0.0000 </r>
       <r>   24.9187    0.0000 </r>
       <r>   25.3365    0.0000 </r>
       <r>   25.4380    0.0000 </r>
       <r>   25.5622    0.0000 </r>
       <r>   26.2527    0.0000 </r>
       <r>   26.4513    0.0000 </r>
       <r>   26.7654    0.0000 </r>
       <r>   27.1258    0.0000 </r>
       <r>   27.1558    0.0000 </r>
       <r>   27.1721    0.0000 </r>
       <r>   27.4045    0.0000 </r>
       <r>   28.2426    0.0000 </r>
       <r>   28.8921    0.0000 </r>
       <r>   28.9079    0.0000 </r>
       <r>   29.2543    0.0000 </r>
      </set>
      <set comment="kpoint 15">
       <r>  -17.9801    1.0000 </r>
       <r>  -16.0976    1.0000 </r>
       <r>  -15.4298    1.0000 </r>
       <r>  -12.3214    1.0000 </r>
       <r>  -11.0771    1.0000 </r>
       <r>   -8.9724    1.0000 </r>
       <r>   -8.3329    1.0000 </r>
       <r>   -7.2613    1.0000 </r>
       <r>   -6.5698    1.0000 </r>
       <r>   -6.3281    1.0000 </r>
       <r>   -5.4537    1.0000 </r>
       <r>   -4.9770    1.0000 </r>
       <r>   -4.9741    1.0000 </r>
       <r>   -4.0100    1.0000 </r>
       <r>   -3.9555    1.0000 </r>
       <r>   -1.1306    0.0000 </r>
       <r>    1.0489    0.0000 </r>
       <r>    3.3557    0.0000 </r>
       <r>    3.9513    0.0000 </r>
       <r>    4.5722    0.0000 </r>
       <r>    5.1717    0.0000 </r>
       <r>    5.7779    0.0000 </r>
       <r>    5.9790    0.0000 </r>
       <r>    6.7564    0.0000 </r>
       <r>    7.3143    0.0000 </r>
       <r>    7.4811    0.0000 </r>
       <r>    7.5963    0.0000 </r>
       <r>    8.1315    0.0000 </r>
       <r>    8.3864    0.0000 </r>
       <r>    8.7379    0.0000 </r>
       <r>    9.2083    0.0000 </r>
       <r>    9.4588    0.0000 </r>
       <r>    9.4842    0.0000 </r>
       <r>    9.6928    0.0000 </r>
       <r>   10.9083    0.0000 </r>
       <r>   11.0681    0.0000 </r>
       <r>   11.5383    0.0000 </r>
       <r>   12.1838    0.0000 </r>
       <r>   12.3779    0.0000 </r>
       <r>   12.8229    0.0000 </r>
       <r>   13.0796    0.0000 </r>
       <r>   13.0926    0.0000 </r>
       <r>   13.8537    0.0000 </r>
       <r>   14.1111    0.0000 </r>
       <r>   14.2108    0.0000 </r>
       <r>   14.3247    0.0000 </r>
       <r>   14.9056    0.0000 </r>
       <r>   14.9378    0.0000 </r>
       <r>   15.7047    0.0000 </r>
       <r>   15.8549    0.0000 </r>
       <r>   16.7299    0.0000 </r>
       <r>   16.7796    0.0000 </r>
       <r>   16.9107    0.0000 </r>
       <r>   17.2193    0.0000 </r>
       <r>   17.4411    0.0000 </r>
       <r>   17.5170    0.0000 </r>
       <r>   17.9788    0.0000 </r>
       <r>   18.1213    0.0000 </r>
       <r>   18.4264    0.0000 </r>
       <r>   18.4932    0.0000 </r>
       <r>   18.5154    0.0000 </r>
       <r>   18.8225    0.0000 </r>
       <r>   19.1116    0.0000 </r>
       <r>   19.6460    0.0000 </r>
       <r>   19.7748    0.0000 </r>
       <r>   20.6746    0.0000 </r>
       <r>   20.7039    0.0000 </r>
       <r>   20.7977    0.0000 </r>
       <r>   21.3880    0.0000 </r>
       <r>   21.4360    0.0000 </r>
       <r>   21.9344    0.0000 </r>
       <r>   21.9954    0.0000 </r>
       <r>   22.3383    0.0000 </r>
       <r>   22.5787    0.0000 </r>
       <r>   22.6413    0.0000 </r>
       <r>   22.8030    0.0000 </r>
       <r>   22.9549    0.0000 </r>
       <r>   23.8607    0.0000 </r>
       <r>   24.0909    0.0000 </r>
       <r>   24.5432    0.0000 </r>
       <r>   24.8155    0.0000 </r>
       <r>   25.0446    0.0000 </r>
       <r>   25.1725    0.0000 </r>
       <r>   25.2349    0.0000 </r>
       <r>   25.8727    0.0000 </r>
       <r>   26.1385    0.0000 </r>
       <r>   26.3065    0.0000 </r>
       <r>   26.7051    0.0000 </r>
       <r>   26.7911    0.0000 </r>
       <r>   27.0011    0.0000 </r>
       <r>   27.0676    0.0000 </r>
       <r>   27.6027    0.0000 </r>
       <r>   27.8743    0.0000 </r>
       <r>   28.2676    0.0000 </r>
       <r>   29.4136    0.0000 </r>
       <r>   29.7055    0.0000 </r>
      </set>
      <set comment="kpoint 16">
       <r>  -17.9277    1.0000 </r>
       <r>  -16.1875    1.0000 </r>
       <r>  -15.4670    1.0000 </r>
       <r>  -12.3351    1.0000 </r>
       <r>  -10.8914    1.0000 </r>
       <r>   -9.1568    1.0000 </r>
       <r>   -7.9544    1.0000 </r>
       <r>   -7.3553    1.0000 </r>
       <r>   -6.2381    1.0000 </r>
       <r>   -6.1730    1.0000 </r>
       <r>   -5.9420    1.0000 </r>
       <r>   -5.1767    1.0000 </r>
       <r>   -5.0349    1.0000 </r>
       <r>   -4.0904    1.0000 </r>
       <r>   -4.0533    1.0000 </r>
[...]
       <r>    24.0997    20.9788   155.3913 </r>
       <r>    24.1220    11.5546   155.6495 </r>
       <r>    24.1444    10.0766   155.8747 </r>
       <r>    24.1667     0.6340   155.8889 </r>
       <r>    24.1891     0.8567   155.9080 </r>
       <r>    24.2114     4.0947   155.9995 </r>
       <r>    24.2338    22.0276   156.4918 </r>
       <r>    24.2561    10.7824   156.7328 </r>
       <r>    24.2785    22.7933   157.2422 </r>
       <r>    24.3008     6.4678   157.3868 </r>
       <r>    24.3232     4.3134   157.4831 </r>
       <r>    24.3455     3.1642   157.5539 </r>
       <r>    24.3679     0.0757   157.5556 </r>
       <r>    24.3902     0.0013   157.5556 </r>
       <r>    24.4126     1.6246   157.5919 </r>
       <r>    24.4349     6.8917   157.7459 </r>
       <r>    24.4573     9.4872   157.9579 </r>
       <r>    24.4796     2.2042   158.0072 </r>
       <r>    24.5020     6.7087   158.1571 </r>
       <r>    24.5243    16.9957   158.5370 </r>
       <r>    24.5467    15.8077   158.8902 </r>
       <r>    24.5690    16.0330   159.2486 </r>
       <r>    24.5914    11.5307   159.5062 </r>
       <r>    24.6137    13.4176   159.8061 </r>
       <r>    24.6361     2.1039   159.8531 </r>
       <r>    24.6584     1.2823   159.8818 </r>
       <r>    24.6808     3.5540   159.9612 </r>
       <r>    24.7031     6.2470   160.1008 </r>
       <r>    24.7254     8.2282   160.2847 </r>
       <r>    24.7478     7.9396   160.4621 </r>
       <r>    24.7701     3.8472   160.5481 </r>
       <r>    24.7925     8.3353   160.7344 </r>
       <r>    24.8148     7.8245   160.9093 </r>
       <r>    24.8372    10.6472   161.1472 </r>
       <r>    24.8595     6.1519   161.2847 </r>
       <r>    24.8819     9.0344   161.4866 </r>
       <r>    24.9042     0.7623   161.5036 </r>
       <r>    24.9266     8.7778   161.6998 </r>
       <r>    24.9489     3.8407   161.7857 </r>
       <r>    24.9713     4.8401   161.8938 </r>
       <r>    24.9936     7.4565   162.0605 </r>
       <r>    25.0160    15.5878   162.4088 </r>
       <r>    25.0383     2.3480   162.4613 </r>
       <r>    25.0607    21.0092   162.9308 </r>
       <r>    25.0830     5.4566   163.0528 </r>
       <r>    25.1054    13.8765   163.3629 </r>
       <r>    25.1277     2.4608   163.4179 </r>
       <r>    25.1501     5.6773   163.5448 </r>
       <r>    25.1724     7.4431   163.7111 </r>
       <r>    25.1948     9.9834   163.9342 </r>
       <r>    25.2171     4.1067   164.0260 </r>
       <r>    25.2395    16.8604   164.4028 </r>
       <r>    25.2618     4.3733   164.5005 </r>
       <r>    25.2842     5.7949   164.6301 </r>
       <r>    25.3065    14.9799   164.9648 </r>
       <r>    25.3289    16.9209   165.3430 </r>
       <r>    25.3512    12.2701   165.6172 </r>
       <r>    25.3736     5.0904   165.7310 </r>
       <r>    25.3959     4.3125   165.8274 </r>
       <r>    25.4183     8.8297   166.0247 </r>
       <r>    25.4406     6.1815   166.1628 </r>
       <r>    25.4630     8.7904   166.3593 </r>
       <r>    25.4853     2.5792   166.4169 </r>
       <r>    25.5076     9.4602   166.6283 </r>
       <r>    25.5300     1.1261   166.6535 </r>
       <r>    25.5523     5.3768   166.7737 </r>
       <r>    25.5747     9.9157   166.9953 </r>
       <r>    25.5970    10.0260   167.2193 </r>
       <r>    25.6194     0.7502   167.2361 </r>
       <r>    25.6417     0.7282   167.2524 </r>
       <r>    25.6641     5.6676   167.3790 </r>
       <r>    25.6864     5.3478   167.4986 </r>
       <r>    25.7088    13.6680   167.8040 </r>
       <r>    25.7311     3.6074   167.8846 </r>
       <r>    25.7535     1.3524   167.9149 </r>
       <r>    25.7758     7.7356   168.0877 </r>
       <r>    25.7982     4.9408   168.1982 </r>
       <r>    25.8205     6.1390   168.3354 </r>
       <r>    25.8429     9.6241   168.5505 </r>
       <r>    25.8652     3.8730   168.6370 </r>
       <r>    25.8876    12.4532   168.9153 </r>
       <r>    25.9099     4.3292   169.0121 </r>
       <r>    25.9323     5.9978   169.1461 </r>
       <r>    25.9546    12.2823   169.4206 </r>
       <r>    25.9770    19.0627   169.8466 </r>
       <r>    25.9993     6.0097   169.9809 </r>
       <r>    26.0217     8.0514   170.1609 </r>
       <r>    26.0440     2.1193   170.2082 </r>
       <r>    26.0664     2.0683   170.2545 </r>
       <r>    26.0887     5.3573   170.3742 </r>
       <r>    26.1111     1.7048   170.4123 </r>
       <r>    26.1334     6.7984   170.5642 </r>
       <r>    26.1558     6.3949   170.7071 </r>
       <r>    26.1781     2.4984   170.7630 </r>
       <r>    26.2005    14.1396   171.0790 </r>
       <r>    26.2228     8.1141   171.2603 </r>
       <r>    26.2451     5.8191   171.3904 </r>
       <r>    26.2675    10.3496   171.6217 </r>
       <r>    26.2898     7.7040   171.7938 </r>
       <r>    26.3122    14.6468   172.1212 </r>
       <r>    26.3345     3.9011   172.2083 </r>
       <r>    26.3569     2.9154   172.2735 </r>
       <r>    26.3792     8.2775   172.4585 </r>
       <r>    26.4016     9.9034   172.6798 </r>
       <r>    26.4239     8.1570   172.8621 </r>
       <r>    26.4463     6.0828   172.9981 </r>
       <r>    26.4686     8.7538   173.1937 </r>
       <r>    26.4910    12.5827   173.4749 </r>
       <r>    26.5133    19.5822   173.9125 </r>
       <r>    26.5357     4.5052   174.0132 </r>
       <r>    26.5580     0.0301   174.0139 </r>
       <r>    26.5804     0.0011   174.0139 </r>
       <r>    26.6027     2.2757   174.0648 </r>
       <r>    26.6251     5.3005   174.1832 </r>
       <r>    26.6474     5.7973   174.3128 </r>
       <r>    26.6698     4.0629   174.4036 </r>
       <r>    26.6921     7.9490   174.5812 </r>
       <r>    26.7145    11.3887   174.8358 </r>
       <r>    26.7368     4.1427   174.9283 </r>
       <r>    26.7592    10.3941   175.1606 </r>
       <r>    26.7815    17.4152   175.5498 </r>
       <r>    26.8039    12.1157   175.8206 </r>
       <r>    26.8262     5.9791   175.9542 </r>
       <r>    26.8486     1.1947   175.9809 </r>
       <r>    26.8709     0.2992   175.9876 </r>
       <r>    26.8933     7.1203   176.1467 </r>
       <r>    26.9156     8.1681   176.3293 </r>
       <r>    26.9380    18.8362   176.7503 </r>
       <r>    26.9603    10.0574   176.9750 </r>
       <r>    26.9827     2.7936   177.0375 </r>
       <r>    27.0050     6.7334   177.1879 </r>
       <r>    27.0273     2.2622   177.2385 </r>
       <r>    27.0497     4.0104   177.3281 </r>
       <r>    27.0720    24.4001   177.8734 </r>
       <r>    27.0944    19.5318   178.3099 </r>
       <r>    27.1167    12.3137   178.5851 </r>
       <r>    27.1391    11.1085   178.8334 </r>
       <r>    27.1614    12.2622   179.1074 </r>
       <r>    27.1838    10.8078   179.3490 </r>
       <r>    27.2061     7.5832   179.5184 </r>
       <r>    27.2285     5.8459   179.6491 </r>
       <r>    27.2508     9.0351   179.8510 </r>
       <r>    27.2732    12.0759   180.1209 </r>
       <r>    27.2955     5.6005   180.2460 </r>
       <r>    27.3179     5.9924   180.3800 </r>
       <r>    27.3402     0.8783   180.3996 </r>
       <r>    27.3626     3.3658   180.4748 </r>
       <r>    27.3849     5.3470   180.5943 </r>
       <r>    27.4073    11.1141   180.8427 </r>
       <r>    27.4296     5.9413   180.9755 </r>
       <r>    27.4520     2.2618   181.0260 </r>
       <r>    27.4743    21.8827   181.5151 </r>
       <r>    27.4967    10.0600   181.7399 </r>
       <r>    27.5190     5.4019   181.8606 </r>
       <r>    27.5414     4.5030   181.9613 </r>
       <r>    27.5637     6.2011   182.0998 </r>
       <r>    27.5861     3.3691   182.1751 </r>
       <r>    27.6084     6.7451   182.3259 </r>
       <r>    27.6308     1.6715   182.3632 </r>
       <r>    27.6531     6.0465   182.4984 </r>
       <r>    27.6755     2.7857   182.5606 </r>
       <r>    27.6978    11.2597   182.8123 </r>
       <r>    27.7202     7.2091   182.9734 </r>
       <r>    27.7425     7.2376   183.1351 </r>
       <r>    27.7649     0.5089   183.1465 </r>
       <r>    27.7872     6.6377   183.2948 </r>
       <r>    27.8095     1.6176   183.3310 </r>
       <r>    27.8319     0.1806   183.3350 </r>
       <r>    27.8542     1.6745   183.3725 </r>
       <r>    27.8766    10.9221   183.6165 </r>
       <r>    27.8989     6.1387   183.7537 </r>
       <r>    27.9213     3.8427   183.8396 </r>
       <r>    27.9436     0.5010   183.8508 </r>
       <r>    27.9660     6.5090   183.9963 </r>
       <r>    27.9883     3.3159   184.0704 </r>
       <r>    28.0107    11.6313   184.3303 </r>
       <r>    28.0330     9.0467   184.5325 </r>
       <r>    28.0554    28.0096   185.1585 </r>
       <r>    28.0777    10.3203   185.3891 </r>
       <r>    28.1001     5.2719   185.5069 </r>
       <r>    28.1224    11.7716   185.7700 </r>
       <r>    28.1448     9.5714   185.9839 </r>
       <r>    28.1671    11.6526   186.2444 </r>
       <r>    28.1895    12.4696   186.5230 </r>
       <r>    28.2118    10.0130   186.7468 </r>
       <r>    28.2342     3.4868   186.8247 </r>
       <r>    28.2565     6.8466   186.9777 </r>
       <r>    28.2789     7.2438   187.1396 </r>
       <r>    28.3012    13.6685   187.4451 </r>
       <r>    28.3236     4.4789   187.5452 </r>
       <r>    28.3459     1.7145   187.5835 </r>
       <r>    28.3683     3.0478   187.6516 </r>
       <r>    28.3906     0.2116   187.6564 </r>
       <r>    28.4130     7.0793   187.8146 </r>
       <r>    28.4353     3.9417   187.9027 </r>
       <r>    28.4577     0.0054   187.9028 </r>
       <r>    28.4800     0.0000   187.9028 </r>
       <r>    28.5024     0.0003   187.9028 </r>
       <r>    28.5247     0.9996   187.9251 </r>
       <r>    28.5471     3.6790   188.0073 </r>
       <r>    28.5694     2.8667   188.0714 </r>
       <r>    28.5917     6.1569   188.2090 </r>
       <r>    28.6141     1.2125   188.2361 </r>
       <r>    28.6364     0.0097   188.2363 </r>
       <r>    28.6588     3.3604   188.3114 </r>
       <r>    28.6811     7.1221   188.4706 </r>
       <r>    28.7035     7.9527   188.6483 </r>
       <r>    28.7258     0.1993   188.6528 </r>
       <r>    28.7482     0.0000   188.6528 </r>
       <r>    28.7705     0.5683   188.6655 </r>
       <r>    28.7929     6.5771   188.8125 </r>
       <r>    28.8152     0.3122   188.8194 </r>
       <r>    28.8376     0.1808   188.8235 </r>
       <r>    28.8599     1.6252   188.8598 </r>
       <r>    28.8823     0.6677   188.8747 </r>
       <r>    28.9046     9.0592   189.0772 </r>
       <r>    28.9270     8.5337   189.2679 </r>
       <r>    28.9493     0.4418   189.2778 </r>
       <r>    28.9717     1.0262   189.3007 </r>
       <r>    28.9940     9.0921   189.5039 </r>
       <r>    29.0164     5.2977   189.6223 </r>
       <r>    29.0387     3.6395   189.7036 </r>
       <r>    29.0611     3.2244   189.7757 </r>
       <r>    29.0834     0.2916   189.7822 </r>
       <r>    29.1058     6.5061   189.9276 </r>
       <r>    29.1281     5.2995   190.0461 </r>
       <r>    29.1505     2.9019   190.1109 </r>
       <r>    29.1728     0.0090   190.1111 </r>
       <r>    29.1952     0.3475   190.1189 </r>
       <r>    29.2175     6.5941   190.2662 </r>
       <r>    29.2399     0.6680   190.2812 </r>
       <r>    29.2622     6.3174   190.4224 </r>
       <r>    29.2846     0.9881   190.4444 </r>
       <r>    29.3069     0.0001   190.4444 </r>
       <r>    29.3292     0.0569   190.4457 </r>
       <r>    29.3516     5.6774   190.5726 </r>
       <r>    29.3739     4.7124   190.6779 </r>
       <r>    29.3963     4.5091   190.7787 </r>
       <r>    29.4186     5.6524   190.9050 </r>
       <r>    29.4410     4.7678   191.0116 </r>
       <r>    29.4633     4.4411   191.1108 </r>
       <r>    29.4857     0.0133   191.1111 </r>
       <r>    29.5080     0.0000   191.1111 </r>
       <r>    29.5304     0.0000   191.1111 </r>
       <r>    29.5527     0.0000   191.1111 </r>
       <r>    29.5751     0.0000   191.1111 </r>
       <r>    29.5974     0.0000   191.1111 </r>
       <r>    29.6198     0.0000   191.1111 </r>
       <r>    29.6421     0.1321   191.1141 </r>
       <r>    29.6645     3.2692   191.1871 </r>
       <r>    29.6868     0.3583   191.1951 </r>
       <r>    29.7092     5.1770   191.3108 </r>
       <r>    29.7315     2.2489   191.3611 </r>
       <r>    29.7539     0.0009   191.3611 </r>
       <r>    29.7762     0.0000   191.3611 </r>
       <r>    29.7986     0.0000   191.3611 </r>
       <r>    29.8209     0.0000   191.3611 </r>
       <r>    29.8433     0.0000   191.3611 </r>
       <r>    29.8656     0.0000   191.3611 </r>
       <r>    29.8880     0.0000   191.3611 </r>
       <r>    29.9103     0.0071   191.3613 </r>
       <r>    29.9327     2.2585   191.4117 </r>
       <r>    29.9550     3.7119   191.4947 </r>
       <r>    29.9774     1.4799   191.5278 </r>
       <r>    29.9997     2.3091   191.5794 </r>
       <r>    30.0221     5.1199   191.6938 </r>
       <r>    30.0444     0.0288   191.6944 </r>
       <r>    30.0668     0.0000   191.6944 </r>
       <r>    30.0891     0.0120   191.6947 </r>
       <r>    30.1114     3.5574   191.7742 </r>
       <r>    30.1338     2.6417   191.8333 </r>
       <r>    30.1561     0.0036   191.8333 </r>
       <r>    30.1785     0.0095   191.8335 </r>
       <r>    30.2008     4.1452   191.9262 </r>
       <r>    30.2232     3.2993   191.9999 </r>
       <r>    30.2455     0.0036   192.0000 </r>
       <r>    30.2679     0.0000   192.0000 </r>
       <r>    30.2902     0.0000   192.0000 </r>
       <r>    30.3126     0.0000   192.0000 </r>
       <r>    30.3349     0.0000   192.0000 </r>
       <r>    30.3573     0.0000   192.0000 </r>
       <r>    30.3796     0.0000   192.0000 </r>
       <r>    30.4020     0.0000   192.0000 </r>
       <r>    30.4243     0.0000   192.0000 </r>
       <r>    30.4467     0.0000   192.0000 </r>
       <r>    30.4690     0.0000   192.0000 </r>
       <r>    30.4914     0.0000   192.0000 </r>
       <r>    30.5137     0.0000   192.0000 </r>
       <r>    30.5361     0.0000   192.0000 </r>
       <r>    30.5584     0.0000   192.0000 </r>
       <r>    30.5808     0.0000   192.0000 </r>
       <r>    30.6031     0.0000   192.0000 </r>
       <r>    30.6255     0.0000   192.0000 </r>
       <r>    30.6478     0.0000   192.0000 </r>
       <r>    30.6702     0.0000   192.0000 </r>
       <r>    30.6925     0.0000   192.0000 </r>
       <r>    30.7149     0.0000   192.0000 </r>
       <r>    30.7372     0.0000   192.0000 </r>
       <r>    30.7596     0.0000   192.0000 </r>
       <r>    30.7819     0.0000   192.0000 </r>
       <r>    30.8043     0.0000   192.0000 </r>
       <r>    30.8266     0.0000   192.0000 </r>
       <r>    30.8490     0.0000   192.0000 </r>
       <r>    30.8713     0.0000   192.0000 </r>
       <r>    30.8936     0.0000   192.0000 </r>
       <r>    30.9160     0.0000   192.0000 </r>
       <r>    30.9383     0.0000   192.0000 </r>
       <r>    30.9607     0.0000   192.0000 </r>
       <r>    30.9830     0.0000   192.0000 </r>
       <r>    31.0054     0.0000   192.0000 </r>
       <r>    31.0277     0.0000   192.0000 </r>
       <r>    31.0501     0.0000   192.0000 </r>
       <r>    31.0724     0.0000   192.0000 </r>
       <r>    31.0948     0.0000   192.0000 </r>
       <r>    31.1171     0.0000   192.0000 </r>
       <r>    31.1395     0.0000   192.0000 </r>
       <r>    31.1618     0.0000   192.0000 </r>
       <r>    31.1842     0.0000   192.0000 </r>
       <r>    31.2065     0.0000   192.0000 </r>
       <r>    31.2289     0.0000   192.0000 </r>
       <r>    31.2512     0.0000   192.0000 </r>
       <r>    31.2736     0.0000   192.0000 </r>
       <r>    31.2959     0.0000   192.0000 </r>
       <r>    31.3183     0.0000   192.0000 </r>
       <r>    31.3406     0.0000   192.0000 </r>
       <r>    31.3630     0.0000   192.0000 </r>
       <r>    31.3853     0.0000   192.0000 </r>
       <r>    31.4077     0.0000   192.0000 </r>
       <r>    31.4300     0.0000   192.0000 </r>
       <r>    31.4524     0.0000   192.0000 </r>
       <r>    31.4747     0.0000   192.0000 </r>
       <r>    31.4971     0.0000   192.0000 </r>
       <r>    31.5194     0.0000   192.0000 </r>
       <r>    31.5418     0.0000   192.0000 </r>
       <r>    31.5641     0.0000   192.0000 </r>
       <r>    31.5865     0.0000   192.0000 </r>
       <r>    31.6088     0.0000   192.0000 </r>
       <r>    31.6311     0.0000   192.0000 </r>
       <r>    31.6535     0.0000   192.0000 </r>
       <r>    31.6758     0.0000   192.0000 </r>
       <r>    31.6982     0.0000   192.0000 </r>
       <r>    31.7205     0.0000   192.0000 </r>
       <r>    31.7429     0.0000   192.0000 </r>
       <r>    31.7652     0.0000   192.0000 </r>
       <r>    31.7876     0.0000   192.0000 </r>
       <r>    31.8099     0.0000   192.0000 </r>
       <r>    31.8323     0.0000   192.0000 </r>
       <r>    31.8546     0.0000   192.0000 </r>
       <r>    31.8770     0.0000   192.0000 </r>
       <r>    31.8993     0.0000   192.0000 </r>
       <r>    31.9217     0.0000   192.0000 </r>
       <r>    31.9440     0.0000   192.0000 </r>
       <r>    31.9664     0.0000   192.0000 </r>
       <r>    31.9887     0.0000   192.0000 </r>
       <r>    32.0111     0.0000   192.0000 </r>
       <r>    32.0334     0.0000   192.0000 </r>
       <r>    32.0558     0.0000   192.0000 </r>
       <r>    32.0781     0.0000   192.0000 </r>
       <r>    32.1005     0.0000   192.0000 </r>
       <r>    32.1228     0.0000   192.0000 </r>
       <r>    32.1452     0.0000   192.0000 </r>
       <r>    32.1675     0.0000   192.0000 </r>
       <r>    32.1899     0.0000   192.0000 </r>
       <r>    32.2122     0.0000   192.0000 </r>
       <r>    32.2346     0.0000   192.0000 </r>
       <r>    32.2569     0.0000   192.0000 </r>
       <r>    32.2793     0.0000   192.0000 </r>
       <r>    32.3016     0.0000   192.0000 </r>
       <r>    32.3240     0.0000   192.0000 </r>
       <r>    32.3463     0.0000   192.0000 </r>
       <r>    32.3687     0.0000   192.0000 </r>
       <r>    32.3910     0.0000   192.0000 </r>
       <r>    32.4133     0.0000   192.0000 </r>
       <r>    32.4357     0.0000   192.0000 </r>
       <r>    32.4580     0.0000   192.0000 </r>
       <r>    32.4804     0.0000   192.0000 </r>
       <r>    32.5027     0.0000   192.0000 </r>
       <r>    32.5251     0.0000   192.0000 </r>
       <r>    32.5474     0.0000   192.0000 </r>
       <r>    32.5698     0.0000   192.0000 </r>
       <r>    32.5921     0.0000   192.0000 </r>
       <r>    32.6145     0.0000   192.0000 </r>
       <r>    32.6368     0.0000   192.0000 </r>
      </set>
     </set>
    </array>
   </total>
  </dos>
 </calculation>
 <structure name="finalpos" >
  <crystal>
   <varray name="basis" >
    <v>       4.48084843       2.58701885       0.00000000 </v>
    <v>      -4.48084843       2.58701885       0.00000000 </v>
    <v>       0.00000000       0.00000000       8.52022140 </v>
   </varray>
   <i name="volume">    197.53348383 </i>
   <varray name="rec_basis" >
    <v>       0.11158601       0.19327265       0.00000000 </v>
    <v>      -0.11158601       0.19327265       0.00000000 </v>
    <v>       0.00000000       0.00000000       0.11736784 </v>
   </varray>
  </crystal>
  <varray name="positions" >
   <v>       0.33333300       0.66666600       0.25000000 </v>
   <v>       0.66666600       0.33333300       0.25000000 </v>
   <v>       0.15869124       0.31738348       0.25000000 </v>
   <v>       0.31738348       0.15869124       0.25000000 </v>
   <v>       0.15869124       0.84130776       0.25000000 </v>
   <v>       0.84130776       0.15869124       0.25000000 </v>
   <v>       0.68261552       0.84130776       0.25000000 </v>
   <v>       0.84130776       0.68261552       0.25000000 </v>
  </varray>
 </structure>
</modeling>
