   8   8   0   0
  0.4330982E+02  0.5164732E-09  0.5164732E-09  0.1500000E-08  0.5000000E-15
  1.000000000000000E-004
  CAR 
 BC3                                     
      6.45006495    -20.75616249  301     -3.75744415      1.00000000
    -20.756  0.0000E+00  0.0000E+00
    -20.665  0.0000E+00  0.0000E+00
    -20.575  0.0000E+00  0.0000E+00
    -20.484  0.0000E+00  0.0000E+00
    -20.393  0.0000E+00  0.0000E+00
    -20.303  0.0000E+00  0.0000E+00
    -20.212  0.0000E+00  0.0000E+00
    -20.121  0.0000E+00  0.0000E+00
    -20.031  0.4366E-13  0.3960E-14
    -19.940  0.2745E-09  0.2490E-10
    -19.849  0.3689E-06  0.3348E-07
    -19.759  0.1098E-03  0.9994E-05
    -19.668  0.7576E-02  0.6971E-03
    -19.577  0.1309E+00  0.1256E-01
    -19.487  0.6641E+00  0.7279E-01
    -19.396  0.1307E+01  0.1914E+00
    -19.305  0.1546E+01  0.3316E+00
    -19.214  0.1588E+01  0.4756E+00
    -19.124  0.1651E+01  0.6253E+00
    -19.033  0.1720E+01  0.7813E+00
    -18.942  0.1753E+01  0.9403E+00
    -18.852  0.2083E+01  0.1129E+01
    -18.761  0.2223E+01  0.1331E+01
    -18.670  0.2953E+01  0.1599E+01
    -18.580  0.2548E+01  0.1830E+01
    -18.489  0.1440E+01  0.1960E+01
    -18.398  0.3983E+00  0.1996E+01
    -18.308  0.3839E-01  0.2000E+01
    -18.217  0.1146E-02  0.2000E+01
    -18.126  0.9122E-05  0.2000E+01
    -18.036  0.8477E-06  0.2000E+01
    -17.945  0.1952E-03  0.2000E+01
    -17.854  0.1077E-01  0.2001E+01
    -17.763  0.1687E+00  0.2016E+01
    -17.673  0.8943E+00  0.2097E+01
    -17.582  0.1767E+01  0.2258E+01
    -17.491  0.2162E+01  0.2454E+01
    -17.401  0.2483E+01  0.2679E+01
    -17.310  0.2188E+01  0.2877E+01
    -17.219  0.1477E+01  0.3011E+01
    -17.129  0.1464E+01  0.3144E+01
    -17.038  0.2047E+01  0.3330E+01
    -16.947  0.1560E+01  0.3471E+01
    -16.857  0.1542E+01  0.3611E+01
    -16.766  0.1520E+01  0.3749E+01
    -16.675  0.2134E+01  0.3942E+01
    -16.585  0.2042E+01  0.4128E+01
    -16.494  0.1607E+01  0.4273E+01
    -16.403  0.2118E+01  0.4465E+01
    -16.312  0.2801E+01  0.4719E+01
    -16.222  0.2721E+01  0.4966E+01
    -16.131  0.2590E+01  0.5201E+01
    -16.040  0.2168E+01  0.5398E+01
    -15.950  0.1926E+01  0.5572E+01
    -15.859  0.1181E+01  0.5679E+01
    -15.768  0.1348E+01  0.5802E+01
    -15.678  0.1184E+01  0.5909E+01
    -15.587  0.6998E+00  0.5973E+01
    -15.496  0.2634E+00  0.5996E+01
    -15.406  0.3773E-01  0.6000E+01
    -15.315  0.1597E-02  0.6000E+01
    -15.224  0.1668E-04  0.6000E+01
    -15.134  0.3819E-07  0.6000E+01
    -15.043  0.1806E-10  0.6000E+01
    -14.952  0.1343E-12  0.6000E+01
    -14.861  0.7775E-09  0.6000E+01
    -14.771  0.9440E-06  0.6000E+01
    -14.680  0.2445E-03  0.6000E+01
    -14.589  0.1410E-01  0.6001E+01
    -14.499  0.1935E+00  0.6019E+01
    -14.408  0.7324E+00  0.6085E+01
    -14.317  0.1234E+01  0.6197E+01
    -14.227  0.2079E+01  0.6386E+01
    -14.136  0.2611E+01  0.6623E+01
    -14.045  0.2312E+01  0.6832E+01
    -13.955  0.2254E+01  0.7037E+01
    -13.864  0.2445E+01  0.7258E+01
    -13.773  0.3201E+01  0.7549E+01
    -13.683  0.2381E+01  0.7765E+01
    -13.592  0.8767E+00  0.7844E+01
    -13.501  0.7011E+00  0.7908E+01
    -13.410  0.1023E+01  0.8000E+01
    -13.320  0.1638E+01  0.8149E+01
    -13.229  0.1930E+01  0.8324E+01
    -13.138  0.1194E+01  0.8432E+01
    -13.048  0.5307E+00  0.8480E+01
    -12.957  0.4704E+00  0.8523E+01
    -12.866  0.1363E+01  0.8647E+01
    -12.776  0.2420E+01  0.8866E+01
    -12.685  0.1658E+01  0.9016E+01
    -12.594  0.8251E+00  0.9091E+01
    -12.504  0.1072E+01  0.9188E+01
    -12.413  0.1430E+01  0.9318E+01
    -12.322  0.2001E+01  0.9500E+01
    -12.232  0.1661E+01  0.9650E+01
    -12.141  0.1203E+01  0.9759E+01
    -12.050  0.7365E+00  0.9826E+01
    -11.959  0.1328E+01  0.9947E+01
    -11.869  0.2424E+01  0.1017E+02
    -11.778  0.1464E+01  0.1030E+02
    -11.687  0.5480E+00  0.1035E+02
    -11.597  0.4888E+00  0.1039E+02
    -11.506  0.7848E+00  0.1046E+02
    -11.415  0.1419E+01  0.1059E+02
    -11.325  0.1449E+01  0.1072E+02
    -11.234  0.5276E+00  0.1077E+02
    -11.143  0.7533E-01  0.1078E+02
    -11.053  0.2712E+00  0.1080E+02
    -10.962  0.1225E+01  0.1091E+02
    -10.871  0.2043E+01  0.1110E+02
    -10.781  0.1883E+01  0.1127E+02
    -10.690  0.1614E+01  0.1142E+02
    -10.599  0.1189E+01  0.1153E+02
    -10.508  0.6441E+00  0.1158E+02
    -10.418  0.1145E+01  0.1169E+02
    -10.327  0.2059E+01  0.1187E+02
    -10.236  0.3240E+01  0.1217E+02
    -10.146  0.3303E+01  0.1247E+02
    -10.055  0.1749E+01  0.1263E+02
     -9.964  0.1190E+01  0.1273E+02
     -9.874  0.1299E+01  0.1285E+02
     -9.783  0.1731E+01  0.1301E+02
     -9.692  0.2045E+01  0.1319E+02
     -9.602  0.3029E+01  0.1347E+02
     -9.511  0.2776E+01  0.1372E+02
     -9.420  0.1307E+01  0.1384E+02
     -9.330  0.1502E+01  0.1398E+02
     -9.239  0.1510E+01  0.1411E+02
     -9.148  0.1032E+01  0.1421E+02
     -9.057  0.1684E+01  0.1436E+02
     -8.967  0.2441E+01  0.1458E+02
     -8.876  0.2242E+01  0.1478E+02
     -8.785  0.2316E+01  0.1499E+02
     -8.695  0.1804E+01  0.1516E+02
     -8.604  0.1461E+01  0.1529E+02
     -8.513  0.2157E+01  0.1548E+02
     -8.423  0.3017E+01  0.1576E+02
     -8.332  0.3100E+01  0.1604E+02
     -8.241  0.3060E+01  0.1632E+02
     -8.151  0.3499E+01  0.1663E+02
     -8.060  0.3754E+01  0.1697E+02
     -7.969  0.3358E+01  0.1728E+02
     -7.879  0.3012E+01  0.1755E+02
     -7.788  0.3021E+01  0.1783E+02
     -7.697  0.3378E+01  0.1813E+02
     -7.606  0.3085E+01  0.1841E+02
     -7.516  0.3778E+01  0.1876E+02
     -7.425  0.4601E+01  0.1917E+02
     -7.334  0.3619E+01  0.1950E+02
     -7.244  0.2531E+01  0.1973E+02
     -7.153  0.2438E+01  0.1995E+02
     -7.062  0.2510E+01  0.2018E+02
     -6.972  0.2359E+01  0.2039E+02
     -6.881  0.2765E+01  0.2064E+02
     -6.790  0.3737E+01  0.2098E+02
     -6.700  0.5556E+01  0.2149E+02
     -6.609  0.5475E+01  0.2198E+02
     -6.518  0.4998E+01  0.2244E+02
     -6.428  0.4868E+01  0.2288E+02
     -6.337  0.4245E+01  0.2326E+02
     -6.246  0.3258E+01  0.2356E+02
     -6.155  0.3378E+01  0.2386E+02
     -6.065  0.3604E+01  0.2419E+02
     -5.974  0.2947E+01  0.2446E+02
     -5.883  0.3115E+01  0.2474E+02
     -5.793  0.2417E+01  0.2496E+02
     -5.702  0.2125E+01  0.2515E+02
     -5.611  0.3024E+01  0.2543E+02
     -5.521  0.3224E+01  0.2572E+02
     -5.430  0.2984E+01  0.2599E+02
     -5.339  0.3231E+01  0.2628E+02
     -5.249  0.3457E+01  0.2660E+02
     -5.158  0.3161E+01  0.2688E+02
     -5.067  0.2127E+01  0.2708E+02
     -4.977  0.2056E+01  0.2726E+02
     -4.886  0.3529E+01  0.2758E+02
     -4.795  0.4581E+01  0.2800E+02
     -4.704  0.3278E+01  0.2830E+02
     -4.614  0.2688E+01  0.2854E+02
     -4.523  0.3364E+01  0.2884E+02
     -4.432  0.3737E+01  0.2918E+02
     -4.342  0.3213E+01  0.2947E+02
     -4.251  0.1805E+01  0.2964E+02
     -4.160  0.1170E+01  0.2974E+02
     -4.070  0.1085E+01  0.2984E+02
     -3.979  0.9626E+00  0.2993E+02
     -3.888  0.5803E+00  0.2998E+02
     -3.798  0.1707E+00  0.3000E+02
     -3.707  0.5128E-01  0.3000E+02
     -3.616  0.3068E+00  0.3003E+02
     -3.526  0.8229E+00  0.3011E+02
     -3.435  0.8629E+00  0.3018E+02
     -3.344  0.1029E+01  0.3028E+02
     -3.253  0.2483E+01  0.3050E+02
     -3.163  0.3173E+01  0.3079E+02
     -3.072  0.2322E+01  0.3100E+02
     -2.981  0.1564E+01  0.3114E+02
     -2.891  0.1282E+01  0.3126E+02
     -2.800  0.1814E+01  0.3142E+02
     -2.709  0.2019E+01  0.3161E+02
     -2.619  0.1058E+01  0.3170E+02
     -2.528  0.3684E+00  0.3174E+02
     -2.437  0.4461E+00  0.3178E+02
     -2.347  0.2965E+00  0.3180E+02
     -2.256  0.2736E+00  0.3183E+02
     -2.165  0.8011E+00  0.3190E+02
     -2.075  0.6589E+00  0.3196E+02
     -1.984  0.1280E+00  0.3197E+02
     -1.893  0.5637E-02  0.3197E+02
     -1.802  0.1398E-02  0.3197E+02
     -1.712  0.3476E-01  0.3198E+02
     -1.621  0.2023E+00  0.3199E+02
     -1.530  0.2771E+00  0.3202E+02
     -1.440  0.9017E-01  0.3203E+02
     -1.349  0.6768E-02  0.3203E+02
     -1.258  0.2445E-02  0.3203E+02
     -1.168  0.7384E-01  0.3203E+02
     -1.077  0.5227E+00  0.3208E+02
     -0.986  0.8738E+00  0.3216E+02
     -0.896  0.4583E+00  0.3220E+02
     -0.805  0.4401E+00  0.3224E+02
     -0.714  0.4541E+00  0.3228E+02
     -0.624  0.9733E+00  0.3237E+02
     -0.533  0.2978E+01  0.3264E+02
     -0.442  0.3892E+01  0.3300E+02
     -0.351  0.2672E+01  0.3324E+02
     -0.261  0.1704E+01  0.3339E+02
     -0.170  0.1552E+01  0.3353E+02
     -0.079  0.1601E+01  0.3368E+02
      0.011  0.1750E+01  0.3384E+02
      0.102  0.1584E+01  0.3398E+02
      0.193  0.1205E+01  0.3409E+02
      0.283  0.1166E+01  0.3420E+02
      0.374  0.6318E+00  0.3425E+02
      0.465  0.1166E+00  0.3426E+02
      0.555  0.1011E-01  0.3426E+02
      0.646  0.1033E+00  0.3427E+02
      0.737  0.7410E+00  0.3434E+02
      0.827  0.1493E+01  0.3448E+02
      0.918  0.1253E+01  0.3459E+02
      1.009  0.1099E+01  0.3469E+02
      1.100  0.1243E+01  0.3480E+02
      1.190  0.1710E+01  0.3496E+02
      1.281  0.2361E+01  0.3517E+02
      1.372  0.2439E+01  0.3539E+02
      1.462  0.2530E+01  0.3562E+02
      1.553  0.2726E+01  0.3587E+02
      1.644  0.1916E+01  0.3604E+02
      1.734  0.2324E+01  0.3625E+02
      1.825  0.3003E+01  0.3653E+02
      1.916  0.3302E+01  0.3683E+02
      2.006  0.3219E+01  0.3712E+02
      2.097  0.2930E+01  0.3738E+02
      2.188  0.2820E+01  0.3764E+02
      2.278  0.3606E+01  0.3797E+02
      2.369  0.3897E+01  0.3832E+02
      2.460  0.3981E+01  0.3868E+02
      2.551  0.3693E+01  0.3902E+02
      2.641  0.3572E+01  0.3934E+02
      2.732  0.4328E+01  0.3973E+02
      2.823  0.4433E+01  0.4013E+02
      2.913  0.3763E+01  0.4047E+02
      3.004  0.3352E+01  0.4078E+02
      3.095  0.3567E+01  0.4110E+02
      3.185  0.3479E+01  0.4142E+02
      3.276  0.4331E+01  0.4181E+02
      3.367  0.4861E+01  0.4225E+02
      3.457  0.3262E+01  0.4255E+02
      3.548  0.3287E+01  0.4285E+02
      3.639  0.3759E+01  0.4319E+02
      3.729  0.3912E+01  0.4354E+02
      3.820  0.3610E+01  0.4387E+02
      3.911  0.3533E+01  0.4419E+02
      4.002  0.3727E+01  0.4453E+02
      4.092  0.4004E+01  0.4489E+02
      4.183  0.3707E+01  0.4523E+02
      4.274  0.3517E+01  0.4555E+02
      4.364  0.3168E+01  0.4583E+02
      4.455  0.3404E+01  0.4614E+02
      4.546  0.4563E+01  0.4656E+02
      4.636  0.3809E+01  0.4690E+02
      4.727  0.2551E+01  0.4713E+02
      4.818  0.3081E+01  0.4741E+02
      4.908  0.3546E+01  0.4773E+02
      4.999  0.1669E+01  0.4788E+02
      5.090  0.3685E+00  0.4792E+02
      5.180  0.2877E+00  0.4794E+02
      5.271  0.4337E+00  0.4798E+02
      5.362  0.1711E+00  0.4800E+02
      5.453  0.1564E-01  0.4800E+02
      5.543  0.3155E-03  0.4800E+02
      5.634  0.1343E-05  0.4800E+02
      5.725  0.1171E-08  0.4800E+02
      5.815  0.2053E-12  0.4800E+02
      5.906  0.0000E+00  0.4800E+02
      5.997  0.0000E+00  0.4800E+02
      6.087  0.0000E+00  0.4800E+02
      6.178  0.0000E+00  0.4800E+02
      6.269  0.0000E+00  0.4800E+02
      6.359  0.0000E+00  0.4800E+02
      6.450  0.0000E+00  0.4800E+02
