    8    8    1    1
  0.4330982E+02  0.5164732E-09  0.5164732E-09  0.1500000E-08  0.5000000E-15
  1.000000000000000E-004
  CAR 
 BC3                                     
     30     43     24
 
  0.0000000E+00  0.0000000E+00  0.0000000E+00  0.6944444E-02
    1      -19.519516   1.000000
    2      -15.590246   1.000000
    3      -15.588047   1.000000
    4      -13.849660   1.000000
    5      -13.849134   1.000000
    6      -12.334041   1.000000
    7      -12.130148   1.000000
    8       -8.626124   1.000000
    9       -7.898893   1.000000
   10       -6.591781   1.000000
   11       -6.589727   1.000000
   12       -4.297805   1.000000
   13       -4.296132   1.000000
   14       -3.911340   0.985238
   15       -3.910609   0.984848
   16       -2.623021   0.000000
   17       -0.659343   0.000000
   18       -0.659068   0.000000
   19        0.838190   0.000000
   20        1.037093   0.000000
   21        1.817590   0.000000
   22        2.254174   0.000000
   23        4.200408   0.000000
   24        4.275559   0.000000
 
  0.8333333E-01  0.6938894E-17  0.0000000E+00  0.2777778E-01
    1      -19.486296   1.000000
    2      -15.760692   1.000000
    3      -15.658349   1.000000
    4      -13.903753   1.000000
    5      -13.719415   1.000000
    6      -12.194650   1.000000
    7      -11.924898   1.000000
    8       -8.582162   1.000000
    9       -7.971742   1.000000
   10       -6.700801   1.000000
   11       -6.608356   1.000000
   12       -4.430091   1.000000
   13       -4.323107   1.000000
   14       -4.064031   0.999993
   15       -3.990263   0.999504
   16       -2.800912   0.000000
   17       -0.595986   0.000000
   18       -0.364280   0.000000
   19        0.889762   0.000000
   20        1.146878   0.000000
   21        1.879113   0.000000
   22        2.306167   0.000000
   23        4.251862   0.000000
   24        4.356784   0.000000
 
  0.1666667E+00 -0.4163336E-16  0.0000000E+00  0.2777778E-01
    1      -19.387700   1.000000
    2      -16.169167   1.000000
    3      -15.814095   1.000000
    4      -14.041023   1.000000
    5      -13.382944   1.000000
    6      -11.831866   1.000000
    7      -11.389545   1.000000
    8       -8.450683   1.000000
    9       -8.212949   1.000000
   10       -7.012498   1.000000
   11       -6.610295   1.000000
   12       -4.810528   1.000000
   13       -4.499673   1.000000
   14       -4.390224   1.000000
   15       -4.211118   1.000000
   16       -3.094709   0.000000
   17       -0.423644   0.000000
   18        0.233918   0.000000
   19        1.044142   0.000000
   20        1.479322   0.000000
   21        2.076625   0.000000
   22        2.461969   0.000000
   23        4.406147   0.000000
   24        4.569574   0.000000
 
  0.2500000E+00 -0.2775558E-16  0.0000000E+00  0.2777778E-01
    1      -19.227855   1.000000
    2      -16.657807   1.000000
    3      -15.981703   1.000000
    4      -14.198045   1.000000
    5      -12.925224   1.000000
    6      -11.351319   1.000000
    7      -10.645918   1.000000
    8       -8.628657   1.000000
    9       -8.233368   1.000000
   10       -7.474517   1.000000
   11       -6.526521   1.000000
   12       -5.349945   1.000000
   13       -5.158641   1.000000
   14       -4.532293   1.000000
   15       -4.475355   1.000000
   16       -3.319416   0.000000
   17       -0.186279   0.000000
   18        0.805426   0.000000
   19        1.300642   0.000000
   20        1.979650   0.000000
   21        2.486679   0.000000
   22        2.721239   0.000000
   23        4.662358   0.000000
   24        4.851133   0.000000
 
  0.3333333E+00  0.2775558E-16  0.0000000E+00  0.2777778E-01
    1      -19.017931   1.000000
    2      -17.134517   1.000000
    3      -16.118776   1.000000
    4      -14.329101   1.000000
    5      -12.414096   1.000000
    6      -10.811793   1.000000
    7       -9.791640   1.000000
    8       -9.150105   1.000000
    9       -8.017665   1.000000
   10       -7.933949   1.000000
   11       -6.346284   1.000000
   12       -5.972084   1.000000
   13       -5.938879   1.000000
   14       -4.904730   1.000000
   15       -4.554266   1.000000
   16       -3.468361   0.000022
   17        0.055700   0.000000
   18        1.240977   0.000000
   19        1.658616   0.000000
   20        2.466791   0.000000
   21        3.083660   0.000000
   22        3.211355   0.000000
   23        4.094898   0.000000
   24        4.953607   0.000000
 
  0.4166667E+00 -0.2775558E-16  0.0000000E+00  0.2777778E-01
    1      -18.793014   1.000000
    2      -17.529050   1.000000
    3      -16.206272   1.000000
    4      -14.413296   1.000000
    5      -11.939217   1.000000
    6      -10.269794   1.000000
    7       -9.649878   1.000000
    8       -8.985218   1.000000
    9       -8.459644   1.000000
   10       -7.563896   1.000000
   11       -6.876322   1.000000
   12       -6.501125   1.000000
   13       -6.098659   1.000000
   14       -5.275310   1.000000
   15       -4.608648   1.000000
   16       -3.554899   0.002089
   17        0.237979   0.000000
   18        1.527220   0.000000
   19        2.117513   0.000000
   20        2.958478   0.000000
   21        3.336626   0.000000
   22        3.549724   0.000000
   23        3.925078   0.000000
   24        4.437648   0.000000
 
  0.5000000E+00 -0.5551115E-16  0.0000000E+00  0.1388889E-01
    1      -18.672512   1.000000
    2      -17.707442   1.000000
    3      -16.236179   1.000000
    4      -14.442131   1.000000
    5      -11.711508   1.000000
    6       -9.951443   1.000000
    7       -9.888967   1.000000
    8       -9.019567   1.000000
    9       -7.848526   1.000000
   10       -7.774324   1.000000
   11       -7.255604   1.000000
   12       -6.876148   1.000000
   13       -5.913187   1.000000
   14       -5.502895   1.000000
   15       -4.627910   1.000000
   16       -3.583550   0.006962
   17        0.306029   0.000000
   18        1.630140   0.000000
   19        2.658440   0.000000
   20        2.696286   0.000000
   21        3.483409   0.000000
   22        3.534327   0.000000
   23        4.108968   0.000000
   24        4.126048   0.000000
 
  0.8333333E-01  0.8333333E-01  0.0000000E+00  0.1388889E-01
    1      -19.420355   1.000000
    2      -16.020245   1.000000
    3      -15.805575   1.000000
    4      -13.929635   1.000000
    5      -13.560065   1.000000
    6      -11.914231   1.000000
    7      -11.575613   1.000000
    8       -8.494405   1.000000
    9       -8.135655   1.000000
   10       -6.867350   1.000000
   11       -6.655748   1.000000
   12       -4.651492   1.000000
   13       -4.420983   1.000000
   14       -4.350183   1.000000
   15       -4.148766   1.000000
   16       -2.995888   0.000000
   17       -0.526344   0.000000
   18        0.112592   0.000000
   19        0.992763   0.000000
   20        1.362505   0.000000
   21        2.007369   0.000000
   22        2.410090   0.000000
   23        4.354763   0.000000
   24        4.520120   0.000000
 
  0.1666667E+00  0.8333333E-01  0.0000000E+00  0.2777778E-01
    1      -19.290927   1.000000
    2      -16.430811   1.000000
    3      -16.015818   1.000000
    4      -13.992149   1.000000
    5      -13.252884   1.000000
    6      -11.437776   1.000000
    7      -10.974560   1.000000
    8       -8.497401   1.000000
    9       -8.319968   1.000000
   10       -7.165792   1.000000
   11       -6.670561   1.000000
   12       -5.069590   1.000000
   13       -4.878638   1.000000
   14       -4.597556   1.000000
   15       -4.438967   1.000000
   16       -3.137536   0.000000
   17       -0.414977   0.000000
   18        0.761646   0.000000
   19        1.198275   0.000000
   20        1.766161   0.000000
   21        2.295743   0.000000
   22        2.617693   0.000000
   23        4.560160   0.000000
   24        4.806827   0.000000
 
  0.2500000E+00  0.8333333E-01  0.0000000E+00  0.2777778E-01
    1      -19.104897   1.000000
    2      -16.897022   1.000000
    3      -16.194299   1.000000
    4      -14.099529   1.000000
    5      -12.802361   1.000000
    6      -10.899026   1.000000
    7      -10.194837   1.000000
    8       -9.012289   1.000000
    9       -8.061316   1.000000
   10       -7.605693   1.000000
   11       -6.558457   1.000000
   12       -5.623637   1.000000
   13       -5.595598   1.000000
   14       -4.805786   1.000000
   15       -4.752524   1.000000
   16       -3.207600   0.000000
   17       -0.258722   0.000000
   18        1.319941   0.000000
   19        1.505631   0.000000
   20        2.257715   0.000000
   21        2.845967   0.000000
   22        2.928660   0.000000
   23        4.548778   0.000000
   24        4.864619   0.000000
 
  0.3333333E+00  0.8333333E-01  0.0000000E+00  0.2777778E-01
    1      -18.881794   1.000000
    2      -17.331021   1.000000
    3      -16.318952   1.000000
    4      -14.191923   1.000000
    5      -12.306378   1.000000
    6      -10.350029   1.000000
    7       -9.591094   1.000000
    8       -9.305718   1.000000
    9       -8.107156   1.000000
   10       -7.724627   1.000000
   11       -6.443721   1.000000
   12       -6.340402   1.000000
   13       -6.199875   1.000000
   14       -5.195691   1.000000
   15       -4.862267   1.000000
   16       -3.247715   0.000000
   17       -0.100940   0.000000
   18        1.712776   0.000000
   19        1.914234   0.000000
   20        2.740898   0.000000
   21        3.342585   0.000000
   22        3.632073   0.000000
   23        3.742814   0.000000
   24        4.674132   0.000000
 
  0.4166667E+00  0.8333333E-01  0.0000000E+00  0.2777778E-01
    1      -18.688150   1.000000
    2      -17.635702   1.000000
    3      -16.382668   1.000000
    4      -14.242599   1.000000
    5      -11.914667   1.000000
    6      -10.045955   1.000000
    7       -9.845766   1.000000
    8       -8.745481   1.000000
    9       -8.214249   1.000000
   10       -7.348894   1.000000
   11       -7.340526   1.000000
   12       -6.713461   1.000000
   13       -6.092103   1.000000
   14       -5.538287   1.000000
   15       -4.919044   1.000000
   16       -3.268394   0.000000
   17       -0.001218   0.000000
   18        1.924779   0.000000
   19        2.423335   0.000000
   20        3.033866   0.000000
   21        3.261821   0.000000
   22        3.824957   0.000000
   23        3.859913   0.000000
   24        4.479362   0.000000
 
  0.5000000E+00  0.8333333E-01  0.0000000E+00  0.2777778E-01
    1      -18.688180   1.000000
    2      -17.635677   1.000000
    3      -16.382686   1.000000
    4      -14.242483   1.000000
    5      -11.914415   1.000000
    6      -10.045950   1.000000
    7       -9.846953   1.000000
    8       -8.744801   1.000000
    9       -8.214508   1.000000
   10       -7.348429   1.000000
   11       -7.340637   1.000000
   12       -6.713334   1.000000
   13       -6.091774   1.000000
   14       -5.538651   1.000000
   15       -4.919175   1.000000
   16       -3.268131   0.000000
   17       -0.001265   0.000000
   18        1.924644   0.000000
   19        2.423167   0.000000
   20        3.034065   0.000000
   21        3.261674   0.000000
   22        3.825081   0.000000
   23        3.859747   0.000000
   24        4.479560   0.000000
 
 -0.4166667E+00  0.8333333E-01  0.0000000E+00  0.2777778E-01
    1      -18.881849   1.000000
    2      -17.330999   1.000000
    3      -16.318985   1.000000
    4      -14.191564   1.000000
    5      -12.305984   1.000000
    6      -10.350870   1.000000
    7       -9.592379   1.000000
    8       -9.305897   1.000000
    9       -8.105875   1.000000
   10       -7.724742   1.000000
   11       -6.443324   1.000000
   12       -6.339941   1.000000
   13       -6.199722   1.000000
   14       -5.196166   1.000000
   15       -4.862633   1.000000
   16       -3.246952   0.000000
   17       -0.101100   0.000000
   18        1.712424   0.000000
   19        1.914096   0.000000
   20        2.740766   0.000000
   21        3.342449   0.000000
   22        3.631822   0.000000
   23        3.743044   0.000000
   24        4.694896   0.000000
 
 -0.3333333E+00  0.8333333E-01  0.0000000E+00  0.2777778E-01
    1      -19.104947   1.000000
    2      -16.897098   1.000000
    3      -16.194258   1.000000
    4      -14.098896   1.000000
    5      -12.802172   1.000000
    6      -10.899869   1.000000
    7      -10.195232   1.000000
    8       -9.013414   1.000000
    9       -8.061403   1.000000
   10       -7.604360   1.000000
   11       -6.558013   1.000000
   12       -5.623528   1.000000
   13       -5.595251   1.000000
   14       -4.806198   1.000000
   15       -4.753024   1.000000
   16       -3.206442   0.000000
   17       -0.258988   0.000000
   18        1.319520   0.000000
   19        1.505524   0.000000
   20        2.257588   0.000000
   21        2.845707   0.000000
   22        2.928555   0.000000
   23        4.549041   0.000000
   24        4.864516   0.000000
 
 -0.2500000E+00  0.8333333E-01  0.0000000E+00  0.2777778E-01
    1      -19.290966   1.000000
    2      -16.431210   1.000000
    3      -16.015440   1.000000
    4      -13.991185   1.000000
    5      -13.253123   1.000000
    6      -11.438393   1.000000
    7      -10.974974   1.000000
    8       -8.498365   1.000000
    9       -8.320034   1.000000
   10       -7.165020   1.000000
   11       -6.669859   1.000000
   12       -5.069733   1.000000
   13       -4.878541   1.000000
   14       -4.597848   1.000000
   15       -4.439114   1.000000
   16       -3.136242   0.000000
   17       -0.415390   0.000000
   18        0.761271   0.000000
   19        1.198199   0.000000
   20        1.765975   0.000000
   21        2.295568   0.000000
   22        2.617619   0.000000
   23        4.560083   0.000000
   24        4.808322   0.000000
 
 -0.1666667E+00  0.8333333E-01  0.0000000E+00  0.2777778E-01
    1      -19.420379   1.000000
    2      -16.021455   1.000000
    3      -15.804310   1.000000
    4      -13.928511   1.000000
    5      -13.560720   1.000000
    6      -11.914533   1.000000
    7      -11.576032   1.000000
    8       -8.494446   1.000000
    9       -8.136230   1.000000
   10       -6.868081   1.000000
   11       -6.654125   1.000000
   12       -4.652460   1.000000
   13       -4.420273   1.000000
   14       -4.350549   1.000000
   15       -4.148429   1.000000
   16       -2.994892   0.000000
   17       -0.526766   0.000000
   18        0.112339   0.000000
   19        0.992719   0.000000
   20        1.362330   0.000000
   21        2.007283   0.000000
   22        2.410046   0.000000
   23        4.354715   0.000000
   24        4.523200   0.000000
 
 -0.8333333E-01  0.8333333E-01  0.0000000E+00  0.1388889E-01
    1      -19.486305   1.000000
    2      -15.762223   1.000000
    3      -15.656746   1.000000
    4      -13.903231   1.000000
    5      -13.719803   1.000000
    6      -12.194713   1.000000
    7      -11.925106   1.000000
    8       -8.582176   1.000000
    9       -7.971908   1.000000
   10       -6.702269   1.000000
   11       -6.606610   1.000000
   12       -4.431400   1.000000
   13       -4.321829   1.000000
   14       -4.064670   0.999993
   15       -3.989629   0.999488
   16       -2.800546   0.000000
   17       -0.596227   0.000000
   18       -0.364323   0.000000
   19        0.889747   0.000000
   20        1.146812   0.000000
   21        1.879087   0.000000
   22        2.306153   0.000000
   23        4.251847   0.000000
   24        4.360168   0.000000
 
  0.1666667E+00  0.1666667E+00  0.0000000E+00  0.1388889E-01
    1      -19.134621   1.000000
    2      -16.740392   1.000000
    3      -16.324221   1.000000
    4      -13.824520   1.000000
    5      -13.133537   1.000000
    6      -10.820981   1.000000
    7      -10.409177   1.000000
    8       -8.995823   1.000000
    9       -8.104024   1.000000
   10       -7.251981   1.000000
   11       -6.811987   1.000000
   12       -5.430544   1.000000
   13       -5.384220   1.000000
   14       -5.001647   1.000000
   15       -4.810021   1.000000
   16       -3.008649   0.000000
   17       -0.484015   0.000000
   18        1.454737   0.000000
   19        1.476559   0.000000
   20        2.138906   0.000000
   21        2.693960   0.000000
   22        2.877075   0.000000
   23        4.815418   0.000000
   24        5.210647   0.000000
 
  0.2500000E+00  0.1666667E+00  0.0000000E+00  0.2777778E-01
    1      -18.930949   1.000000
    2      -17.108016   1.000000
    3      -16.556337   1.000000
    4      -13.772089   1.000000
    5      -12.807159   1.000000
    6      -10.216301   1.000000
    7       -9.699485   1.000000
    8       -9.548808   1.000000
    9       -7.806918   1.000000
   10       -7.531531   1.000000
   11       -6.762740   1.000000
   12       -6.129871   1.000000
   13       -5.856667   1.000000
   14       -5.276785   1.000000
   15       -5.243478   1.000000
   16       -2.852540   0.000000
   17       -0.524710   0.000000
   18        1.812903   0.000000
   19        2.075641   0.000000
   20        2.588338   0.000000
   21        3.239799   0.000000
   22        3.300985   0.000000
   23        4.249649   0.000000
   24        4.856319   0.000000
 
  0.3333333E+00  0.1666667E+00  0.0000000E+00  0.2777778E-01
    1      -18.716453   1.000000
    2      -17.452288   1.000000
    3      -16.682617   1.000000
    4      -13.792752   1.000000
    5      -12.384761   1.000000
    6      -10.212721   1.000000
    7       -9.602370   1.000000
    8       -8.826365   1.000000
    9       -7.935275   1.000000
   10       -7.441367   1.000000
   11       -6.953624   1.000000
   12       -6.524860   1.000000
   13       -6.387071   1.000000
   14       -5.661368   1.000000
   15       -5.406641   1.000000
   16       -2.746744   0.000000
   17       -0.530155   0.000000
   18        2.272093   0.000000
   19        2.437692   0.000000
   20        3.097354   0.000000
   21        3.491259   0.000000
   22        3.706061   0.000000
   23        3.981995   0.000000
   24        4.494152   0.000000
 
  0.4166667E+00  0.1666667E+00  0.0000000E+00  0.2777778E-01
    1      -18.604703   1.000000
    2      -17.611777   1.000000
    3      -16.722697   1.000000
    4      -13.805865   1.000000
    5      -12.160114   1.000000
    6      -10.462747   1.000000
    7       -9.337535   1.000000
    8       -8.362551   1.000000
    9       -7.859320   1.000000
   10       -7.724183   1.000000
   11       -7.143052   1.000000
   12       -6.746577   1.000000
   13       -6.339776   1.000000
   14       -5.911773   1.000000
   15       -5.446961   1.000000
   16       -2.710749   0.000000
   17       -0.526878   0.000000
   18        2.562896   0.000000
   19        2.815281   0.000000
   20        2.848610   0.000000
   21        3.619954   0.000000
   22        3.682182   0.000000
   23        4.267572   0.000000
   24        4.281098   0.000000
 
  0.5000000E+00  0.1666667E+00  0.0000000E+00  0.2777778E-01
    1      -18.716541   1.000000
    2      -17.452294   1.000000
    3      -16.682552   1.000000
    4      -13.792208   1.000000
    5      -12.384550   1.000000
    6      -10.213549   1.000000
    7       -9.603804   1.000000
    8       -8.826947   1.000000
    9       -7.933929   1.000000
   10       -7.441607   1.000000
   11       -6.952830   1.000000
   12       -6.524006   1.000000
   13       -6.386794   1.000000
   14       -5.662187   1.000000
   15       -5.406867   1.000000
   16       -2.745847   0.000000
   17       -0.530608   0.000000
   18        2.271790   0.000000
   19        2.437333   0.000000
   20        3.097077   0.000000
   21        3.491684   0.000000
   22        3.705762   0.000000
   23        3.981690   0.000000
   24        4.494375   0.000000
 
 -0.4166667E+00  0.1666667E+00  0.0000000E+00  0.2777778E-01
    1      -18.931054   1.000000
    2      -17.108246   1.000000
    3      -16.556042   1.000000
    4      -13.770864   1.000000
    5      -12.807375   1.000000
    6      -10.217546   1.000000
    7       -9.700523   1.000000
    8       -9.549970   1.000000
    9       -7.807127   1.000000
   10       -7.529840   1.000000
   11       -6.761813   1.000000
   12       -6.129263   1.000000
   13       -5.856507   1.000000
   14       -5.277097   1.000000
   15       -5.244134   1.000000
   16       -2.850954   0.000000
   17       -0.525476   0.000000
   18        1.812660   0.000000
   19        2.075075   0.000000
   20        2.588073   0.000000
   21        3.239560   0.000000
   22        3.300431   0.000000
   23        4.250138   0.000000
   24        4.855671   0.000000
 
 -0.3333333E+00  0.1666667E+00  0.0000000E+00  0.2777778E-01
    1      -19.134711   1.000000
    2      -16.741164   1.000000
    3      -16.323364   1.000000
    4      -13.822663   1.000000
    5      -13.134396   1.000000
    6      -10.821910   1.000000
    7      -10.410133   1.000000
    8       -8.997185   1.000000
    9       -8.104185   1.000000
   10       -7.251294   1.000000
   11       -6.810197   1.000000
   12       -5.430474   1.000000
   13       -5.384723   1.000000
   14       -5.001457   1.000000
   15       -4.810126   1.000000
   16       -3.006759   0.000000
   17       -0.484846   0.000000
   18        1.454557   0.000000
   19        1.475968   0.000000
   20        2.138589   0.000000
   21        2.693469   0.000000
   22        2.876897   0.000000
   23        4.815229   0.000000
   24        5.213418   0.000000
 
 -0.2500000E+00  0.1666667E+00  0.0000000E+00  0.2777778E-01
    1      -19.290990   1.000000
    2      -16.432038   1.000000
    3      -16.014419   1.000000
    4      -13.990701   1.000000
    5      -13.253587   1.000000
    6      -11.438290   1.000000
    7      -10.975503   1.000000
    8       -8.498447   1.000000
    9       -8.320075   1.000000
   10       -7.166307   1.000000
   11       -6.668191   1.000000
   12       -5.070743   1.000000
   13       -4.879217   1.000000
   14       -4.596698   1.000000
   15       -4.438420   1.000000
   16       -3.135884   0.000000
   17       -0.415641   0.000000
   18        0.761111   0.000000
   19        1.198156   0.000000
   20        1.765815   0.000000
   21        2.295443   0.000000
   22        2.617576   0.000000
   23        4.560035   0.000000
   24        4.810730   0.000000
 
 -0.1666667E+00  0.1666667E+00  0.0000000E+00  0.1388889E-01
    1      -19.387733   1.000000
    2      -16.170486   1.000000
    3      -15.812544   1.000000
    4      -14.040297   1.000000
    5      -13.383379   1.000000
    6      -11.831997   1.000000
    7      -11.390210   1.000000
    8       -8.450738   1.000000
    9       -8.213399   1.000000
   10       -7.013789   1.000000
   11       -6.608137   1.000000
   12       -4.811862   1.000000
   13       -4.500531   1.000000
   14       -4.388920   1.000000
   15       -4.210270   1.000000
   16       -3.093853   0.000000
   17       -0.424020   0.000000
   18        0.233568   0.000000
   19        1.044083   0.000000
   20        1.479085   0.000000
   21        2.076497   0.000000
   22        2.461912   0.000000
   23        4.406087   0.000000
   24        4.573284   0.000000
 
  0.2500000E+00  0.2500000E+00  0.0000000E+00  0.1388889E-01
    1      -18.729389   1.000000
    2      -17.299984   1.000000
    3      -16.882755   1.000000
    4      -13.444654   1.000000
    5      -12.745742   1.000000
    6      -10.269189   1.000000
    7       -9.374670   1.000000
    8       -9.092806   1.000000
    9       -7.478309   1.000000
   10       -7.464008   1.000000
   11       -6.995194   1.000000
   12       -6.716828   1.000000
   13       -6.099626   1.000000
   14       -5.755320   1.000000
   15       -5.754365   1.000000
   16       -2.465024   0.000000
   17       -0.816964   0.000000
   18        2.221747   0.000000
   19        2.759617   0.000000
   20        2.998960   0.000000
   21        3.654222   0.000000
   22        3.821546   0.000000
   23        4.038270   0.000000
   24        4.062053   0.000000
 
  0.3333333E+00  0.2500000E+00  0.0000000E+00  0.2777778E-01
    1      -18.566146   1.000000
    2      -17.464714   1.000000
    3      -17.050429   1.000000
    4      -13.305438   1.000000
    5      -12.557160   1.000000
    6      -10.702739   1.000000
    7       -8.861565   1.000000
    8       -8.375982   1.000000
    9       -7.706454   1.000000
   10       -7.470737   1.000000
   11       -7.114341   1.000000
   12       -6.763386   1.000000
   13       -6.478715   1.000000
   14       -6.211794   1.000000
   15       -5.946220   1.000000
   16       -2.178460   0.000000
   17       -1.044243   0.000000
   18        2.731225   0.000000
   19        3.115662   0.000000
   20        3.341073   0.000000
   21        3.529189   0.000000
   22        3.950068   0.000000
   23        4.088924   0.000000
   24        4.172299   0.000000
 
  0.4166667E+00  0.2500000E+00  0.0000000E+00  0.2777778E-01
    1      -18.566211   1.000000
    2      -17.464876   1.000000
    3      -17.050192   1.000000
    4      -13.304669   1.000000
    5      -12.557608   1.000000
    6      -10.703120   1.000000
    7       -8.862624   1.000000
    8       -8.376892   1.000000
    9       -7.705529   1.000000
   10       -7.469901   1.000000
   11       -7.114638   1.000000
   12       -6.762315   1.000000
   13       -6.478456   1.000000
   14       -6.212556   1.000000
   15       -5.946239   1.000000
   16       -2.177530   0.000000
   17       -1.044985   0.000000
   18        2.730730   0.000000
   19        3.115455   0.000000
   20        3.341660   0.000000
   21        3.528764   0.000000
   22        3.949939   0.000000
   23        4.089143   0.000000
   24        4.171811   0.000000
 
  0.5000000E+00  0.2500000E+00  0.0000000E+00  0.2777778E-01
    1      -18.729524   1.000000
    2      -17.300578   1.000000
    3      -16.881990   1.000000
    4      -13.442576   1.000000
    5      -12.747082   1.000000
    6      -10.270103   1.000000
    7       -9.376166   1.000000
    8       -9.094058   1.000000
    9       -7.478645   1.000000
   10       -7.462804   1.000000
   11       -6.993771   1.000000
   12       -6.715924   1.000000
   13       -6.099789   1.000000
   14       -5.755816   1.000000
   15       -5.754032   1.000000
   16       -2.463140   0.000000
   17       -0.818298   0.000000
   18        2.221342   0.000000
   19        2.759118   0.000000
   20        2.998533   0.000000
   21        3.653821   0.000000
   22        3.820746   0.000000
   23        4.038439   0.000000
   24        4.062180   0.000000
 
 -0.4166667E+00  0.2500000E+00  0.0000000E+00  0.2777778E-01
    1      -18.931087   1.000000
    2      -17.108891   1.000000
    3      -16.555225   1.000000
    4      -13.770082   1.000000
    5      -12.808299   1.000000
    6      -10.217395   1.000000
    7       -9.700907   1.000000
    8       -9.550047   1.000000
    9       -7.807195   1.000000
   10       -7.530983   1.000000
   11       -6.760317   1.000000
   12       -6.130044   1.000000
   13       -5.857367   1.000000
   14       -5.276063   1.000000
   15       -5.243263   1.000000
   16       -2.850485   0.000000
   17       -0.525918   0.000000
   18        1.812589   0.000000
   19        2.074986   0.000000
   20        2.587938   0.000000
   21        3.239489   0.000000
   22        3.300139   0.000000
   23        4.249017   0.000000
   24        4.857061   0.000000
 
 -0.3333333E+00  0.2500000E+00  0.0000000E+00  0.2777778E-01
    1      -19.105005   1.000000
    2      -16.898042   1.000000
    3      -16.192941   1.000000
    4      -14.098106   1.000000
    5      -12.803067   1.000000
    6      -10.899802   1.000000
    7      -10.196176   1.000000
    8       -9.013346   1.000000
    9       -8.061510   1.000000
   10       -7.605755   1.000000
   11       -6.555892   1.000000
   12       -5.624616   1.000000
   13       -5.596413   1.000000
   14       -4.804938   1.000000
   15       -4.751589   1.000000
   16       -3.205773   0.000000
   17       -0.259558   0.000000
   18        1.319243   0.000000
   19        1.505409   0.000000
   20        2.257367   0.000000
   21        2.845260   0.000000
   22        2.928441   0.000000
   23        4.547898   0.000000
   24        4.864378   0.000000
 
 -0.2500000E+00  0.2500000E+00  0.0000000E+00  0.1388889E-01
    1      -19.227926   1.000000
    2      -16.658921   1.000000
    3      -15.980176   1.000000
    4      -14.197170   1.000000
    5      -12.925816   1.000000
    6      -11.351594   1.000000
    7      -10.646976   1.000000
    8       -8.629152   1.000000
    9       -8.233491   1.000000
   10       -7.475529   1.000000
   11       -6.524134   1.000000
   12       -5.351130   1.000000
   13       -5.159746   1.000000
   14       -4.531151   1.000000
   15       -4.474007   1.000000
   16       -3.318305   0.000000
   17       -0.186835   0.000000
   18        0.804893   0.000000
   19        1.300510   0.000000
   20        1.979324   0.000000
   21        2.486249   0.000000
   22        2.721109   0.000000
   23        4.662212   0.000000
   24        4.855086   0.000000
 
  0.3333333E+00  0.3333333E+00  0.0000000E+00  0.1388889E-01
    1      -18.502159   1.000000
    2      -17.330747   1.000000
    3      -17.329697   1.000000
    4      -12.861337   1.000000
    5      -12.858624   1.000000
    6      -10.911005   1.000000
    7       -8.194192   1.000000
    8       -8.193161   1.000000
    9       -8.060227   1.000000
   10       -7.537381   1.000000
   11       -6.915882   1.000000
   12       -6.683621   1.000000
   13       -6.683004   1.000000
   14       -6.364674   1.000000
   15       -6.363971   1.000000
   16       -1.602321   0.000000
   17       -1.600123   0.000000
   18        3.277287   0.000000
   19        3.277795   0.000000
   20        3.317978   0.000000